 Entering Gaussian System, Link 0=g16
 Input=IMID-CO2_binding-site_index-5-freq.gjf
 Output=IMID-CO2_binding-site_index-5-freq.log
 Initial command:
 /software/commercial/gaussian/g16/AVX/g16/l1.exe "/scratch1/svicchi/G09-709922.pbs02/Gau-2344104.inp" -scrdir="/scratch1/svicchi/G09-709922.pbs02/"
 Entering Link 1 = /software/commercial/gaussian/g16/AVX/g16/l1.exe PID=   2344105.
  
 Copyright (c) 1988-2019, Gaussian, Inc.  All Rights Reserved.
  
 This is part of the Gaussian(R) 16 program.  It is based on
 the Gaussian(R) 09 system (copyright 2009, Gaussian, Inc.),
 the Gaussian(R) 03 system (copyright 2003, Gaussian, Inc.),
 the Gaussian(R) 98 system (copyright 1998, Gaussian, Inc.),
 the Gaussian(R) 94 system (copyright 1995, Gaussian, Inc.),
 the Gaussian 92(TM) system (copyright 1992, Gaussian, Inc.),
 the Gaussian 90(TM) system (copyright 1990, Gaussian, Inc.),
 the Gaussian 88(TM) system (copyright 1988, Gaussian, Inc.),
 the Gaussian 86(TM) system (copyright 1986, Carnegie Mellon
 University), and the Gaussian 82(TM) system (copyright 1983,
 Carnegie Mellon University). Gaussian is a federally registered
 trademark of Gaussian, Inc.
  
 This software contains proprietary and confidential information,
 including trade secrets, belonging to Gaussian, Inc.
  
 This software is provided under written license and may be
 used, copied, transmitted, or stored only in accord with that
 written license.
  
 The following legend is applicable only to US Government
 contracts under FAR:
  
                    RESTRICTED RIGHTS LEGEND
  
 Use, reproduction and disclosure by the US Government is
 subject to restrictions as set forth in subparagraphs (a)
 and (c) of the Commercial Computer Software - Restricted
 Rights clause in FAR 52.227-19.
  
 Gaussian, Inc.
 340 Quinnipiac St., Bldg. 40, Wallingford CT 06492
  
  
 ---------------------------------------------------------------
 Warning -- This program may not be used in any manner that
 competes with the business of Gaussian, Inc. or will provide
 assistance to any competitor of Gaussian, Inc.  The licensee
 of this program is prohibited from giving any competitor of
 Gaussian, Inc. access to this program.  By using this program,
 the user acknowledges that Gaussian, Inc. is engaged in the
 business of creating and licensing software in the field of
 computational chemistry and represents and warrants to the
 licensee that it is not a competitor of Gaussian, Inc. and that
 it will not use this program in any manner prohibited above.
 ---------------------------------------------------------------
  

 Cite this work as:
 Gaussian 16, Revision C.01,
 M. J. Frisch, G. W. Trucks, H. B. Schlegel, G. E. Scuseria, 
 M. A. Robb, J. R. Cheeseman, G. Scalmani, V. Barone, 
 G. A. Petersson, H. Nakatsuji, X. Li, M. Caricato, A. V. Marenich, 
 J. Bloino, B. G. Janesko, R. Gomperts, B. Mennucci, H. P. Hratchian, 
 J. V. Ortiz, A. F. Izmaylov, J. L. Sonnenberg, D. Williams-Young, 
 F. Ding, F. Lipparini, F. Egidi, J. Goings, B. Peng, A. Petrone, 
 T. Henderson, D. Ranasinghe, V. G. Zakrzewski, J. Gao, N. Rega, 
 G. Zheng, W. Liang, M. Hada, M. Ehara, K. Toyota, R. Fukuda, 
 J. Hasegawa, M. Ishida, T. Nakajima, Y. Honda, O. Kitao, H. Nakai, 
 T. Vreven, K. Throssell, J. A. Montgomery, Jr., J. E. Peralta, 
 F. Ogliaro, M. J. Bearpark, J. J. Heyd, E. N. Brothers, K. N. Kudin, 
 V. N. Staroverov, T. A. Keith, R. Kobayashi, J. Normand, 
 K. Raghavachari, A. P. Rendell, J. C. Burant, S. S. Iyengar, 
 J. Tomasi, M. Cossi, J. M. Millam, M. Klene, C. Adamo, R. Cammi, 
 J. W. Ochterski, R. L. Martin, K. Morokuma, O. Farkas, 
 J. B. Foresman, and D. J. Fox, Gaussian, Inc., Wallingford CT, 2019.
 
 ******************************************
 Gaussian 16:  ES64L-G16RevC.01  3-Jul-2019
                12-Jun-2023 
 ******************************************
 %NProcShared=2
 Will use up to    2 processors via shared memory.
 %mem=55gb
 %chk=/scratch1/svicchi/G09-709922.pbs02/02-freq/IMID-CO2_binding-site_index-5-fr
 eq.chk
 ----------------------------------------------------------------------
 #p freq=raman scale=0.967 pop=(nbo,full,hirshfeld) guess=read geom=all
 check b3lyp/6-311+G(d,p) int=grid=ultrafine EmpiricalDispersion=GD3BJ 
 SCRF=(Solvent=ethanol) scf=(xqc,intrep,maxconventionalcycle=350) nosym
 m
 ----------------------------------------------------------------------
 1/10=4,29=7,30=1,38=1,114=967000/1,3;
 2/12=2,15=1,40=1/2;
 3/5=4,6=6,7=111,11=2,14=-4,25=1,30=1,70=2201,71=2,72=4,74=-5,75=-5,116=-2,124=41,140=1/1,2,3;
 4/5=1/1;
 5/5=2,8=3,13=1,17=20,38=6,53=4,85=350,98=1/2,8;
 8/6=4,10=90,11=11/1;
 10/13=10,15=4,31=1/2;
 11/6=3,8=1,9=11,15=111,16=1,31=1/1,2,10;
 10/6=1,31=1/2;
 6/7=3,28=1,40=1,79=1/1,7;
 7/8=1,10=1,25=1,30=1/1,2,3,16;
 1/10=4,30=1/3;
 99//99;
 Leave Link    1 at Mon Jun 12 09:47:57 2023, MaxMem=  7381975040 cpu:               0.2 elap:               0.1
 (Enter /software/commercial/gaussian/g16/AVX/g16/l101.exe)
 Structure from the checkpoint file:  "/scratch1/svicchi/G09-709922.pbs02/02-freq/IMID-CO2_binding-site_index-5-freq.chk"
 ---------------------------------
 IMID-CO2_binding-site_index-5.gjf
 ---------------------------------
 Charge = -1 Multiplicity = 1
 No Z-Matrix found in chk file; cartesian coordinates used.
  C                                                -2.273659986679      3.426842057580      0.473546537380
  N                                                -1.333611327869      2.508938530339      0.351138874032
  C                                                -1.892041877103      1.521249457137     -0.445384639822
  C                                                -3.171801544080      1.862070876332     -0.793807004421
  H                                                -1.340505275792      0.633680966001     -0.715522540811
  N                                                -3.411576137736      3.086739447335     -0.200894642799
  H                                                -3.922780277926      1.373773619748     -1.388808718008
  H                                                -2.199714235204      4.348082605119      1.027298521443
  C                                                -4.668931307897      3.885294294053     -0.281525706861
  O                                                -5.562795175081      3.356866541936     -0.959649657753
  O                                                -4.629631854633      4.957354604422      0.342177977620
 Recover connectivity data from disk.
 ITRead=  0  0  0  0  0  0  0  0  0  0  0
 MicOpt= -1 -1 -1 -1 -1 -1 -1 -1 -1 -1 -1
 NAtoms=     11 NQM=       11 NQMF=       0 NMMI=      0 NMMIF=      0
                NMic=       0 NMicF=      0.
                    Isotopes and Nuclear Properties:
 (Nuclear quadrupole moments (NQMom) in fm**2, nuclear magnetic moments (NMagM)
  in nuclear magnetons)

  Atom         1           2           3           4           5           6           7           8           9          10
 IAtWgt=          12          14          12          12           1          14           1           1          12          16
 AtmWgt=  12.0000000  14.0030740  12.0000000  12.0000000   1.0078250  14.0030740   1.0078250   1.0078250  12.0000000  15.9949146
 NucSpn=           0           2           0           0           1           2           1           1           0           0
 AtZEff=   3.6000000   4.5500000   3.6000000   3.6000000   1.0000000   4.5500000   1.0000000   1.0000000   3.6000000   5.6000000
 NQMom=    0.0000000   2.0440000   0.0000000   0.0000000   0.0000000   2.0440000   0.0000000   0.0000000   0.0000000   0.0000000
 NMagM=    0.0000000   0.4037610   0.0000000   0.0000000   2.7928460   0.4037610   2.7928460   2.7928460   0.0000000   0.0000000
 AtZNuc=   6.0000000   7.0000000   6.0000000   6.0000000   1.0000000   7.0000000   1.0000000   1.0000000   6.0000000   8.0000000

  Atom        11
 IAtWgt=          16
 AtmWgt=  15.9949146
 NucSpn=           0
 AtZEff=   5.6000000
 NQMom=    0.0000000
 NMagM=    0.0000000
 AtZNuc=   8.0000000
 Leave Link  101 at Mon Jun 12 09:47:58 2023, MaxMem=  7381975040 cpu:               0.2 elap:               0.1
 (Enter /software/commercial/gaussian/g16/AVX/g16/l103.exe)

 GradGradGradGradGradGradGradGradGradGradGradGradGradGradGradGradGradGrad
 Berny optimization.
 Initialization pass.
 Trust Radius=3.00D-01 FncErr=1.00D-07 GrdErr=1.00D-07 EigMax=2.50D+02 EigMin=1.00D-04
 Number of steps in this run=      2 maximum allowed number of steps=      2.
 GradGradGradGradGradGradGradGradGradGradGradGradGradGradGradGradGradGrad

 Leave Link  103 at Mon Jun 12 09:47:58 2023, MaxMem=  7381975040 cpu:               0.0 elap:               0.1
 (Enter /software/commercial/gaussian/g16/AVX/g16/l202.exe)
                          Input orientation:                          
 ---------------------------------------------------------------------
 Center     Atomic      Atomic             Coordinates (Angstroms)
 Number     Number       Type             X           Y           Z
 ---------------------------------------------------------------------
      1          6           0       -2.273660    3.426842    0.473547
      2          7           0       -1.333611    2.508939    0.351139
      3          6           0       -1.892042    1.521249   -0.445385
      4          6           0       -3.171802    1.862071   -0.793807
      5          1           0       -1.340505    0.633681   -0.715523
      6          7           0       -3.411576    3.086739   -0.200895
      7          1           0       -3.922780    1.373774   -1.388809
      8          1           0       -2.199714    4.348083    1.027299
      9          6           0       -4.668931    3.885294   -0.281526
     10          8           0       -5.562795    3.356867   -0.959650
     11          8           0       -4.629632    4.957355    0.342178
 ---------------------------------------------------------------------
                    Distance matrix (angstroms):
                    1          2          3          4          5
     1  C    0.000000
     2  N    1.319554   0.000000
     3  C    2.149733   1.386299   0.000000
     4  C    2.204847   2.260151   1.369431   0.000000
     5  H    3.175911   2.157407   1.079326   2.206517   0.000000
     6  N    1.365794   2.226327   2.195340   1.381611   3.251411
     7  H    3.225377   3.319610   2.244036   1.075374   2.769331
     8  H    1.077401   2.142376   3.202256   3.231352   4.191950
     9  C    2.552966   3.663192   3.650572   2.568514   4.673303
    10  O    3.588504   4.508120   4.136229   2.824671   5.030216
    11  O    2.812531   4.105919   4.463348   3.605068   5.534549
                    6          7          8          9         10
     6  N    0.000000
     7  H    2.146327   0.000000
     8  H    2.137301   4.201553   0.000000
     9  C    1.491688   2.844390   2.832707   0.000000
    10  O    2.297046   2.608924   4.029986   1.240194   0.000000
    11  O    2.297344   4.042030   2.597133   1.240913   2.264312
                   11
    11  O    0.000000
 Symmetry turned off by external request.
 Stoichiometry    C4H3N2O2(1-)
 Framework group  C1[X(C4H3N2O2)]
 Deg. of freedom    27
 Full point group                 C1      NOp   1
 Rotational constants (GHZ):           5.4217007           1.7156262           1.3032347
 Leave Link  202 at Mon Jun 12 09:47:58 2023, MaxMem=  7381975040 cpu:               0.0 elap:               0.0
 (Enter /software/commercial/gaussian/g16/AVX/g16/l301.exe)
 Standard basis: 6-311+G(d,p) (5D, 7F)
 Ernie: Thresh=  0.10000D-02 Tol=  0.10000D-05 Strict=F.
   194 basis functions,   312 primitive gaussians,   202 cartesian basis functions
    29 alpha electrons       29 beta electrons
       nuclear repulsion energy       343.9245354009 Hartrees.
 IExCor=  402 DFT=T Ex+Corr=B3LYP ExCW=0 ScaHFX=  0.200000
 ScaDFX=  0.800000  0.720000  1.000000  0.810000 ScalE2=  1.000000  1.000000
 IRadAn=      5 IRanWt=     -1 IRanGd=            0 ICorTp=0 IEmpDi=141
 NAtoms=   11 NActive=   11 NUniq=   11 SFac= 1.00D+00 NAtFMM=   60 NAOKFM=F Big=F
 Integral buffers will be    131072 words long.
 Raffenetti 2 integral format.
 Two-electron integral symmetry is turned off.
 R6Disp:  Grimme-D3(BJ) Dispersion energy=       -0.0174172503 Hartrees.
 Nuclear repulsion after empirical dispersion term =      343.9071181506 Hartrees.
 Force inversion solution in PCM.
 ------------------------------------------------------------------------------
 Polarizable Continuum Model (PCM)
 =================================
 Model                : PCM.
 Atomic radii         : UFF (Universal Force Field).
 Polarization charges : Total charges.
 Charge compensation  : None.
 Solution method      : Matrix inversion.
 Cavity type          : Scaled VdW (van der Waals Surface) (Alpha=1.100).
 Cavity algorithm     : GePol (No added spheres)
                        Default sphere list used, NSphG=   11.
                        Lebedev-Laikov grids with approx.  5.0 points / Ang**2.
                        Smoothing algorithm: York/Karplus (Gamma=1.0000).
                        Polarization charges: spherical gaussians, with
                                              point-specific exponents (IZeta= 3).
                        Self-potential: point-specific (ISelfS= 7).
                        Self-field    : sphere-specific E.n sum rule (ISelfD= 2).
 1st derivatives      : Analytical E(r).r(x)/FMM algorithm (CHGder, D1EAlg=3).
                        Cavity 1st derivative terms included.
 2nd derivatives      : Analytical E(r).r(xy)/FMM algorithm (CHGder, D2EAlg=3).
                        Cavity 2nd derivative terms included.
 Solvent              : Ethanol, Eps=  24.852000 Eps(inf)=   1.852593
 ------------------------------------------------------------------------------
 Spheres list:
 ISph  on   Nord     Re0    Alpha      Xe            Ye            Ze
    1   C      1    1.9255  1.100     -2.273660      3.426842      0.473547
    2   N      2    1.8300  1.100     -1.333611      2.508939      0.351139
    3   C      3    1.9255  1.100     -1.892042      1.521249     -0.445385
    4   C      4    1.9255  1.100     -3.171802      1.862071     -0.793807
    5   H      5    1.4430  1.100     -1.340505      0.633681     -0.715523
    6   N      6    1.8300  1.100     -3.411576      3.086739     -0.200895
    7   H      7    1.4430  1.100     -3.922780      1.373774     -1.388809
    8   H      8    1.4430  1.100     -2.199714      4.348083      1.027299
    9   C      9    1.9255  1.100     -4.668931      3.885294     -0.281526
   10   O     10    1.7500  1.100     -5.562795      3.356867     -0.959650
   11   O     11    1.7500  1.100     -4.629632      4.957355      0.342178
 ------------------------------------------------------------------------------
 GePol: Number of generator spheres                  =      11
 GePol: Total number of spheres                      =      11
 GePol: Number of exposed spheres                    =      11 (100.00%)
 GePol: Number of points                             =    1125
 GePol: Average weight of points                     =       0.14
 GePol: Minimum weight of points                     =   0.23D-07
 GePol: Maximum weight of points                     =    0.20577
 GePol: Number of points with low weight             =      56
 GePol: Fraction of low-weight points (<1% of avg)   =       4.98%
 GePol: Cavity surface area                          =    152.448 Ang**2
 GePol: Cavity volume                                =    144.764 Ang**3
 Leave Link  301 at Mon Jun 12 09:47:59 2023, MaxMem=  7381975040 cpu:               0.2 elap:               0.1
 (Enter /software/commercial/gaussian/g16/AVX/g16/l302.exe)
 NPDir=0 NMtPBC=     1 NCelOv=     1 NCel=       1 NClECP=     1 NCelD=      1
         NCelK=      1 NCelE2=     1 NClLst=     1 CellRange=     0.0.
 One-electron integrals computed using PRISM.
 NBasis=   194 RedAO= T EigKep=  3.36D-05  NBF=   194
 NBsUse=   194 1.00D-06 EigRej= -1.00D+00 NBFU=   194
 Precomputing XC quadrature grid using
 IXCGrd= 4 IRadAn=           5 IRanWt=          -1 IRanGd=           0 AccXCQ= 0.00D+00.
 Generated NRdTot=       0 NPtTot=           0 NUsed=           0 NTot=          32
 NSgBfM=   202   202   202   202   202 MxSgAt=    11 MxSgA2=    11.
 Leave Link  302 at Mon Jun 12 09:47:59 2023, MaxMem=  7381975040 cpu:               0.5 elap:               0.3
 (Enter /software/commercial/gaussian/g16/AVX/g16/l303.exe)
 DipDrv:  MaxL=1.
 Leave Link  303 at Mon Jun 12 09:47:59 2023, MaxMem=  7381975040 cpu:               0.1 elap:               0.1
 (Enter /software/commercial/gaussian/g16/AVX/g16/l401.exe)
 Initial guess from the checkpoint file:  "/scratch1/svicchi/G09-709922.pbs02/02-freq/IMID-CO2_binding-site_index-5-freq.chk"
 B after Tr=     0.000000    0.000000    0.000000
         Rot=    1.000000    0.000000    0.000000    0.000000 Ang=   0.00 deg.
 Guess basis will be translated and rotated to current coordinates.
 JPrj=2 DoOrth=T DoCkMO=T.
 Leave Link  401 at Mon Jun 12 09:48:00 2023, MaxMem=  7381975040 cpu:               0.3 elap:               0.2
 (Enter /software/commercial/gaussian/g16/AVX/g16/l502.exe)
 Keep R1 ints in memory in canonical form, NReq=183081536.
 FoFCou: FMM=F IPFlag=           0 FMFlag=           0 FMFlg1=           0
         NFxFlg=           0 DoJE=F BraDBF=F KetDBF=F FulRan=T
         wScrn=  0.000000 ICntrl=       600 IOpCl=  0 I1Cent=           0 NGrid=           0
         NMat0=    1 NMatS0=  18915 NMatT0=    0 NMatD0=    1 NMtDS0=    0 NMtDT0=    0
 Symmetry not used in FoFCou.
 Two-electron integral symmetry not used.
 Closed shell SCF:
 Using DIIS extrapolation, IDIIS=  1040.
 NGot=  7381975040 LenX=  7202992402 LenY=  7202951157
 Requested convergence on RMS density matrix=1.00D-08 within 350 cycles.
 Requested convergence on MAX density matrix=1.00D-06.
 Requested convergence on             energy=1.00D-06.
 No special actions if energy rises.

 Cycle   1  Pass 1  IDiag  1:
 Inv3:  Mode=1 IEnd=     3796875.
 Iteration    1 A*A^-1 deviation from unit magnitude is 3.11D-15 for   1050.
 Iteration    1 A*A^-1 deviation from orthogonality  is 2.70D-15 for    854    511.
 Iteration    1 A^-1*A deviation from unit magnitude is 2.66D-15 for   1050.
 Iteration    1 A^-1*A deviation from orthogonality  is 3.59D-15 for    879    854.
 E= -414.495761523368    
 DIIS: error= 7.52D-08 at cycle   1 NSaved=   1.
 NSaved= 1 IEnMin= 1 EnMin= -414.495761523368     IErMin= 1 ErrMin= 7.52D-08
 ErrMax= 7.52D-08  0.00D+00 EMaxC= 1.00D-01 BMatC= 7.85D-13 BMatP= 7.85D-13
 IDIUse=1 WtCom= 1.00D+00 WtEn= 0.00D+00
 Coeff-Com:  0.100D+01
 Coeff:      0.100D+01
 Gap=     0.228 Goal=   None    Shift=    0.000
 RMSDP=1.06D-08 MaxDP=2.43D-07              OVMax= 8.88D-07

 Cycle   2  Pass 1  IDiag  1:
 E= -414.495761523367     Delta-E=        0.000000000001 Rises=F Damp=F
 DIIS: error= 1.57D-07 at cycle   2 NSaved=   2.
 NSaved= 2 IEnMin= 1 EnMin= -414.495761523368     IErMin= 1 ErrMin= 7.52D-08
 ErrMax= 1.57D-07  0.00D+00 EMaxC= 1.00D-01 BMatC= 3.28D-12 BMatP= 7.85D-13
 IDIUse=1 WtCom= 1.00D+00 WtEn= 0.00D+00
 Coeff-Com:  0.672D+00 0.328D+00
 Coeff:      0.672D+00 0.328D+00
 Gap=     0.228 Goal=   None    Shift=    0.000
 RMSDP=7.26D-09 MaxDP=1.70D-07 DE= 1.48D-12 OVMax= 6.14D-07

 Error on total polarization charges =  0.01854
 SCF Done:  E(RB3LYP) =  -414.495761523     A.U. after    2 cycles
            NFock=  2  Conv=0.73D-08     -V/T= 2.0038
 KE= 4.129236268557D+02 PE=-1.669484057359D+03 EE= 4.981575508298D+02
 Leave Link  502 at Mon Jun 12 09:48:14 2023, MaxMem=  7381975040 cpu:              27.5 elap:              14.2
 (Enter /software/commercial/gaussian/g16/AVX/g16/l508.exe)
 QCSCF skips out because SCF is already converged.
 Leave Link  508 at Mon Jun 12 09:48:14 2023, MaxMem=  7381975040 cpu:               0.0 elap:               0.0
 (Enter /software/commercial/gaussian/g16/AVX/g16/l801.exe)
 DoSCS=F DFT=T ScalE2(SS,OS)=  1.000000  1.000000
 Range of M.O.s used for correlation:     1   194
 NBasis=   194 NAE=    29 NBE=    29 NFC=     0 NFV=     0
 NROrb=    194 NOA=    29 NOB=    29 NVA=   165 NVB=   165

 **** Warning!!: The largest alpha MO coefficient is  0.54916462D+02

 Leave Link  801 at Mon Jun 12 09:48:15 2023, MaxMem=  7381975040 cpu:               0.1 elap:               0.1
 (Enter /software/commercial/gaussian/g16/AVX/g16/l1002.exe)
 Minotr:  Closed shell wavefunction.
 NEqPCM:  Using equilibrium solvation (IEInf=0, Eps=  24.8520, EpsInf=   1.8526)
          Direct CPHF calculation.
          Differentiating once with respect to electric field.
                with respect to dipole field.
          Electric field/nuclear overlap derivatives assumed to be zero.
          Requested convergence is 1.0D-08 RMS, and 1.0D-07 maximum.
          Secondary convergence is 1.0D-12 RMS, and 1.0D-12 maximum.
          NewPWx=F KeepS1=T KeepF1=T KeepIn=T MapXYZ=F SortEE=F KeepMc=T.
         3377 words used for storage of precomputed grid.
 Keep R1 ints in memory in canonical form, NReq=183247382.
 FoFCou: FMM=F IPFlag=           0 FMFlag=           0 FMFlg1=           0
         NFxFlg=           0 DoJE=F BraDBF=F KetDBF=F FulRan=T
         wScrn=  0.000000 ICntrl=       600 IOpCl=  0 I1Cent=           0 NGrid=           0
         NMat0=    1 NMatS0=  18915 NMatT0=    0 NMatD0=    1 NMtDS0=    0 NMtDT0=    0
 Symmetry not used in FoFCou.
 Two-electron integral symmetry not used.
          MDV=    7381975040 using IRadAn=       1.
          Solving linear equations simultaneously, MaxMat=       0.
          There are     3 degrees of freedom in the 1st order CPHF.  IDoFFX=0 NUNeed=     3.
      3 vectors produced by pass  0 Test12= 1.60D-13 3.33D-08 XBig12= 7.65D+01 3.71D+00.
 AX will form     3 AO Fock derivatives at one time.
      3 vectors produced by pass  1 Test12= 1.60D-13 3.33D-08 XBig12= 3.71D+01 1.41D+00.
      3 vectors produced by pass  2 Test12= 1.60D-13 3.33D-08 XBig12= 6.43D+00 7.24D-01.
      3 vectors produced by pass  3 Test12= 1.60D-13 3.33D-08 XBig12= 3.25D+00 4.28D-01.
      3 vectors produced by pass  4 Test12= 1.60D-13 3.33D-08 XBig12= 2.56D-01 1.42D-01.
      3 vectors produced by pass  5 Test12= 1.60D-13 3.33D-08 XBig12= 8.20D-02 6.33D-02.
      3 vectors produced by pass  6 Test12= 1.60D-13 3.33D-08 XBig12= 5.80D-03 1.39D-02.
      3 vectors produced by pass  7 Test12= 1.60D-13 3.33D-08 XBig12= 2.47D-03 1.78D-02.
      3 vectors produced by pass  8 Test12= 1.60D-13 3.33D-08 XBig12= 8.05D-05 1.95D-03.
      3 vectors produced by pass  9 Test12= 1.60D-13 3.33D-08 XBig12= 3.54D-06 4.65D-04.
      3 vectors produced by pass 10 Test12= 1.60D-13 3.33D-08 XBig12= 9.24D-08 7.61D-05.
      3 vectors produced by pass 11 Test12= 1.60D-13 3.33D-08 XBig12= 2.56D-09 1.11D-05.
      2 vectors produced by pass 12 Test12= 1.60D-13 3.33D-08 XBig12= 4.69D-11 8.77D-07.
      1 vectors produced by pass 13 Test12= 1.60D-13 3.33D-08 XBig12= 1.77D-12 1.93D-07.
      1 vectors produced by pass 14 Test12= 1.60D-13 3.33D-08 XBig12= 3.02D-14 3.47D-08.
 InvSVY:  IOpt=1 It=  1 EMax= 3.55D-15
 Solved reduced A of dimension    40 with     3 vectors.
 End of Minotr F.D. properties file   721 does not exist.
 End of Minotr F.D. properties file   722 does not exist.
 End of Minotr F.D. properties file   788 does not exist.
 Leave Link 1002 at Mon Jun 12 09:49:12 2023, MaxMem=  7381975040 cpu:             113.0 elap:              57.2
 (Enter /software/commercial/gaussian/g16/AVX/g16/l1101.exe)
 Using compressed storage, NAtomX=    11.
 Will process     12 centers per pass.
 R6Disp: Adding Grimme-D3(BJ) dispersion energy 1st derivatives to the gradient.
 Leave Link 1101 at Mon Jun 12 09:49:13 2023, MaxMem=  7381975040 cpu:               0.3 elap:               0.2
 (Enter /software/commercial/gaussian/g16/AVX/g16/l1102.exe)
 Symmetrizing basis deriv contribution to polar:
 IMax=3 JMax=2 DiffMx= 0.00D+00
 Leave Link 1102 at Mon Jun 12 09:49:13 2023, MaxMem=  7381975040 cpu:               0.1 elap:               0.1
 (Enter /software/commercial/gaussian/g16/AVX/g16/l1110.exe)
 Forming Gx(P) for the SCF density, NAtomX=    11.
 Integral derivatives from FoFJK, PRISM(SPDF).
 Do as many integral derivatives as possible in FoFJK.
 G2DrvN: MDV=    7381973793.
 G2DrvN: will do    12 centers at a time, making    1 passes.
 PxScal for G2LodP:  IOpCl= 0 ISclPx=1 IMOff=     1 NMtTot=     4 NTT=   18915 ScalPx= 8.29D+00
 Calling FoFCou, ICntrl=  3107 FMM=F I1Cent=   0 AccDes= 0.00D+00.
 FoFJK:  IHMeth= 1 ICntrl=    3107 DoSepK=F KAlg= 0 I1Cent=           0 FoldK=F
 IRaf=         0 NMat=       1 IRICut=       1 DoRegI=T DoRafI=F ISym2E= 0 IDoP0=0 IntGTp=1.
 FoFCou: FMM=F IPFlag=           0 FMFlag=      100000 FMFlg1=           0
         NFxFlg=           0 DoJE=F BraDBF=F KetDBF=F FulRan=T
         wScrn=  0.000000 ICntrl=      3107 IOpCl=  0 I1Cent=           0 NGrid=           0
         NMat0=    1 NMatS0=      1 NMatT0=    0 NMatD0=    4 NMtDS0=    3 NMtDT0=    0
 Symmetry not used in FoFCou.
 PxScal for G2LodP:  IOpCl= 0 ISclPx=0 IMOff=     1 NMtTot=     4 NTT=   18915 ScalPx= 1.00D+00
 NEqPCM:  Using equilibrium solvation (IEInf=0, Eps=  24.8520, EpsInf=   1.8526)
 G2PCM: DoFxE=T DoFxN=T DoGrad=T DoDP/DQ/DG/TGxP=TFFF NFrqRd=   0 IEInf=0 SqF1=F DoCFld=F IF1Alg=4.
 GePol: Maximum number of non-zero 1st derivatives   =     211
 End of G2Drv F.D. properties file   721 does not exist.
 End of G2Drv F.D. properties file   722 does not exist.
 End of G2Drv F.D. properties file   788 does not exist.
 Leave Link 1110 at Mon Jun 12 09:51:39 2023, MaxMem=  7381975040 cpu:             290.3 elap:             145.7
 (Enter /software/commercial/gaussian/g16/AVX/g16/l1002.exe)
 Minotr:  Closed shell wavefunction.
          IDoAtm=11111111111
 NEqPCM:  Using equilibrium solvation (IEInf=0, Eps=  24.8520, EpsInf=   1.8526)
          Direct CPHF calculation.
          Differentiating once with respect to electric field.
                with respect to dipole field.
          Differentiating once with respect to nuclear coordinates.
          Requested convergence is 1.0D-08 RMS, and 1.0D-07 maximum.
          Secondary convergence is 1.0D-12 RMS, and 1.0D-12 maximum.
          NewPWx=T KeepS1=F KeepF1=F KeepIn=T MapXYZ=F SortEE=F KeepMc=T.
         3377 words used for storage of precomputed grid.
 Keep R1 ints in memory in canonical form, NReq=183247635.
 FoFCou: FMM=F IPFlag=           0 FMFlag=           0 FMFlg1=           0
         NFxFlg=           0 DoJE=F BraDBF=F KetDBF=F FulRan=T
         wScrn=  0.000000 ICntrl=       600 IOpCl=  0 I1Cent=           0 NGrid=           0
         NMat0=    1 NMatS0=  18915 NMatT0=    0 NMatD0=    1 NMtDS0=    0 NMtDT0=    0
 Symmetry not used in FoFCou.
 Two-electron integral symmetry not used.
          MDV=    7381975040 using IRadAn=       1.
          Solving linear equations simultaneously, MaxMat=       0.
          There are    36 degrees of freedom in the 1st order CPHF.  IDoFFX=5 NUNeed=    36.
 Will reuse    3 saved solutions.
     30 vectors produced by pass  0 Test12= 1.33D-14 2.78D-09 XBig12= 1.65D-01 9.48D-02.
 AX will form    30 AO Fock derivatives at one time.
     30 vectors produced by pass  1 Test12= 1.33D-14 2.78D-09 XBig12= 4.29D-02 7.41D-02.
     30 vectors produced by pass  2 Test12= 1.33D-14 2.78D-09 XBig12= 4.23D-04 3.66D-03.
     30 vectors produced by pass  3 Test12= 1.33D-14 2.78D-09 XBig12= 5.97D-06 5.10D-04.
     30 vectors produced by pass  4 Test12= 1.33D-14 2.78D-09 XBig12= 2.79D-08 2.76D-05.
     30 vectors produced by pass  5 Test12= 1.33D-14 2.78D-09 XBig12= 5.84D-11 1.39D-06.
     16 vectors produced by pass  6 Test12= 1.33D-14 2.78D-09 XBig12= 1.06D-13 4.58D-08.
 InvSVY:  IOpt=1 It=  1 EMax= 1.55D-15
 Solved reduced A of dimension   196 with    30 vectors.
 FullF1:  Do perturbations      1 to       3.
 Isotropic polarizability for W=    0.000000       91.05 Bohr**3.
 FullF1:  Do perturbations      1 to       6.
 End of Minotr F.D. properties file   721 does not exist.
 End of Minotr F.D. properties file   722 does not exist.
 End of Minotr F.D. properties file   788 does not exist.
 Leave Link 1002 at Mon Jun 12 09:53:43 2023, MaxMem=  7381975040 cpu:             247.4 elap:             124.4
 (Enter /software/commercial/gaussian/g16/AVX/g16/l601.exe)
 Copying SCF densities to generalized density rwf, IOpCl= 0 IROHF=0.

 **********************************************************************

            Population analysis using the SCF Density.

 **********************************************************************

 Alpha  occ. eigenvalues --  -19.07176 -19.07135 -14.35730 -14.29691 -10.29245
 Alpha  occ. eigenvalues --  -10.21714 -10.19071 -10.18136  -1.05675  -0.99924
 Alpha  occ. eigenvalues --   -0.96155  -0.86212  -0.73953  -0.62271  -0.58780
 Alpha  occ. eigenvalues --   -0.55935  -0.47548  -0.45171  -0.44039  -0.43159
 Alpha  occ. eigenvalues --   -0.40931  -0.40768  -0.39196  -0.29489  -0.27894
 Alpha  occ. eigenvalues --   -0.26673  -0.26604  -0.24849  -0.23222
 Alpha virt. eigenvalues --   -0.00417   0.01362   0.03368   0.03779   0.04149
 Alpha virt. eigenvalues --    0.05432   0.05540   0.05987   0.06874   0.08823
 Alpha virt. eigenvalues --    0.09346   0.10020   0.10033   0.10225   0.12084
 Alpha virt. eigenvalues --    0.13626   0.14451   0.15067   0.17448   0.18700
 Alpha virt. eigenvalues --    0.19862   0.20626   0.21374   0.22588   0.22599
 Alpha virt. eigenvalues --    0.23070   0.23628   0.23877   0.25064   0.25270
 Alpha virt. eigenvalues --    0.25886   0.27194   0.28100   0.28610   0.29479
 Alpha virt. eigenvalues --    0.29973   0.31210   0.32416   0.35112   0.37680
 Alpha virt. eigenvalues --    0.39809   0.41476   0.42820   0.46069   0.47049
 Alpha virt. eigenvalues --    0.49373   0.56125   0.57042   0.58907   0.60890
 Alpha virt. eigenvalues --    0.61378   0.63780   0.64995   0.68549   0.70191
 Alpha virt. eigenvalues --    0.73328   0.74449   0.76360   0.78298   0.80410
 Alpha virt. eigenvalues --    0.84153   0.85671   0.87484   0.88255   0.88583
 Alpha virt. eigenvalues --    0.90286   0.94373   0.99974   1.01080   1.01711
 Alpha virt. eigenvalues --    1.08599   1.13835   1.14998   1.15097   1.17141
 Alpha virt. eigenvalues --    1.17431   1.18095   1.19882   1.20605   1.23507
 Alpha virt. eigenvalues --    1.25098   1.27753   1.31245   1.34424   1.40349
 Alpha virt. eigenvalues --    1.43248   1.52543   1.57722   1.58233   1.64331
 Alpha virt. eigenvalues --    1.65467   1.70044   1.72481   1.73347   1.75401
 Alpha virt. eigenvalues --    1.77092   1.81301   1.85066   1.85721   1.89952
 Alpha virt. eigenvalues --    1.94501   2.01156   2.05799   2.07398   2.12291
 Alpha virt. eigenvalues --    2.24015   2.27067   2.33789   2.39418   2.40672
 Alpha virt. eigenvalues --    2.43346   2.56749   2.57618   2.57771   2.62168
 Alpha virt. eigenvalues --    2.67370   2.67867   2.70952   2.77218   2.78488
 Alpha virt. eigenvalues --    2.78902   2.81774   2.85168   2.87721   2.89281
 Alpha virt. eigenvalues --    2.92387   2.96035   2.96596   2.98856   3.07815
 Alpha virt. eigenvalues --    3.19233   3.28973   3.30109   3.38347   3.43939
 Alpha virt. eigenvalues --    3.45224   3.49834   3.59223   3.63543   3.67175
 Alpha virt. eigenvalues --    3.69709   3.81246   3.87093   3.89730   3.92203
 Alpha virt. eigenvalues --    4.07400   4.11045   4.48336   4.76756   4.90318
 Alpha virt. eigenvalues --    5.04432   5.06918   5.15600   5.19887   5.26454
 Alpha virt. eigenvalues --    5.69207   5.89642  23.79068  23.86086  23.93494
 Alpha virt. eigenvalues --   24.17141  35.49117  35.66772  49.95419  50.06359
     Molecular Orbital Coefficients:
                           1         2         3         4         5
                           O         O         O         O         O
     Eigenvalues --   -19.07176 -19.07135 -14.35730 -14.29691 -10.29245
   1 1   C  1S         -0.00000   0.00000   0.00000  -0.00001  -0.00002
   2        2S          0.00002   0.00000   0.00006   0.00011  -0.00001
   3        2PX        -0.00008   0.00000  -0.00042   0.00042  -0.00004
   4        2PY         0.00001   0.00002  -0.00012  -0.00034  -0.00001
   5        2PZ        -0.00003   0.00001  -0.00024  -0.00001  -0.00002
   6        3S         -0.00013  -0.00001   0.00015   0.00004  -0.00007
   7        3PX         0.00044  -0.00009   0.00118  -0.00136   0.00029
   8        3PY        -0.00001  -0.00001   0.00045   0.00113   0.00009
   9        3PZ         0.00018  -0.00004   0.00076   0.00007   0.00018
  10        4S         -0.00353   0.00387   0.00405   0.00786  -0.00158
  11        4PX         0.00041  -0.00152  -0.00260   0.00179  -0.00019
  12        4PY         0.00079   0.00014  -0.00182  -0.00539   0.00186
  13        4PZ         0.00062  -0.00056  -0.00213  -0.00229   0.00098
  14        5S         -0.00620   0.01083  -0.00381   0.00130  -0.00047
  15        5PX         0.00259  -0.00214  -0.00111  -0.00078  -0.00118
  16        5PY         0.00009  -0.00155   0.00102  -0.00019   0.00171
  17        5PZ         0.00115  -0.00178   0.00011  -0.00044   0.00047
  18        6D 0        0.00001  -0.00002  -0.00012   0.00048  -0.00005
  19        6D+1       -0.00007   0.00000  -0.00068   0.00047  -0.00006
  20        6D-1        0.00004   0.00006   0.00008   0.00022   0.00003
  21        6D+2       -0.00011  -0.00004  -0.00068   0.00000  -0.00006
  22        6D-2       -0.00002  -0.00002  -0.00067   0.00120  -0.00012
  23 2   N  1S         -0.00000  -0.00000  -0.00011   0.55737   0.00000
  24        2S          0.00001   0.00000  -0.00002   0.46578   0.00001
  25        2PX        -0.00001  -0.00000  -0.00006  -0.00125  -0.00001
  26        2PY         0.00001   0.00001   0.00005  -0.00005   0.00001
  27        2PZ         0.00000   0.00000   0.00000  -0.00056   0.00000
  28        3S         -0.00012   0.00000  -0.00038   0.01612  -0.00010
  29        3PX         0.00004   0.00002   0.00043  -0.00108   0.00006
  30        3PY        -0.00005  -0.00003  -0.00033   0.00045  -0.00005
  31        3PZ        -0.00001  -0.00001  -0.00000  -0.00021  -0.00001
  32        4S          0.00093  -0.00032   0.00002  -0.01734   0.00060
  33        4PX        -0.00037   0.00027   0.00029   0.00374  -0.00029
  34        4PY         0.00016   0.00021  -0.00001  -0.00031   0.00029
  35        4PZ        -0.00006   0.00023   0.00012   0.00141   0.00004
  36        5S          0.00106  -0.00160  -0.00033   0.00736   0.00214
  37        5PX         0.00006   0.00044  -0.00012  -0.00114  -0.00085
  38        5PY        -0.00077  -0.00004   0.00198  -0.00028   0.00053
  39        5PZ        -0.00041   0.00016   0.00107  -0.00064  -0.00006
  40        6D 0        0.00001   0.00001   0.00010  -0.00025   0.00002
  41        6D+1        0.00000  -0.00001   0.00002  -0.00002   0.00000
  42        6D-1        0.00000  -0.00000   0.00001   0.00026  -0.00001
  43        6D+2       -0.00000  -0.00001  -0.00004  -0.00014  -0.00000
  44        6D-2        0.00002   0.00000   0.00018  -0.00034   0.00003
  45 3   C  1S         -0.00000  -0.00000  -0.00001   0.00001  -0.00001
  46        2S          0.00001   0.00001   0.00003   0.00001   0.00001
  47        2PX        -0.00001   0.00000  -0.00008   0.00020   0.00001
  48        2PY         0.00001  -0.00000  -0.00003   0.00026   0.00001
  49        2PZ        -0.00000  -0.00000  -0.00005   0.00023   0.00001
  50        3S         -0.00002  -0.00004  -0.00014   0.00026  -0.00018
  51        3PX         0.00008   0.00005   0.00092  -0.00057  -0.00003
  52        3PY        -0.00006  -0.00001  -0.00025  -0.00051  -0.00005
  53        3PZ         0.00000   0.00002   0.00025  -0.00053  -0.00004
  54        4S         -0.00019   0.00152  -0.00225   0.00673   0.00267
  55        4PX        -0.00011  -0.00021   0.00194  -0.00122  -0.00140
  56        4PY        -0.00039   0.00036  -0.00273   0.00442   0.00138
  57        4PZ        -0.00026   0.00012  -0.00073   0.00199   0.00019
  58        5S         -0.01534  -0.00886   0.00800  -0.01327   0.00643
  59        5PX         0.00250   0.00178  -0.00044   0.00145  -0.00063
  60        5PY        -0.00226  -0.00075   0.00187  -0.00174   0.00168
  61        5PZ        -0.00022   0.00033   0.00087  -0.00037   0.00068
  62        6D 0       -0.00000   0.00001  -0.00001  -0.00027   0.00001
  63        6D+1       -0.00001  -0.00001  -0.00023  -0.00012   0.00000
  64        6D-1        0.00002   0.00004   0.00026  -0.00045  -0.00002
  65        6D+2       -0.00002  -0.00006  -0.00047   0.00046   0.00002
  66        6D-2       -0.00000   0.00001  -0.00011  -0.00067   0.00001
  67 4   C  1S          0.00000  -0.00000   0.00001  -0.00001  -0.00001
  68        2S          0.00000   0.00001   0.00003   0.00005  -0.00000
  69        2PX        -0.00002  -0.00006  -0.00012   0.00008   0.00000
  70        2PY        -0.00000   0.00007   0.00043  -0.00006   0.00003
  71        2PZ        -0.00001   0.00002   0.00019   0.00000   0.00002
  72        3S         -0.00001  -0.00005   0.00022  -0.00032  -0.00001
  73        3PX        -0.00001   0.00030   0.00044  -0.00093  -0.00001
  74        3PY         0.00006  -0.00041  -0.00120   0.00018  -0.00028
  75        3PZ         0.00003  -0.00011  -0.00050  -0.00029  -0.00017
  76        4S          0.00389  -0.00321   0.00605  -0.00158  -0.00306
  77        4PX        -0.00100  -0.00068   0.00147  -0.00204  -0.00204
  78        4PY         0.00163  -0.00062   0.00325  -0.00156  -0.00120
  79        4PZ         0.00050  -0.00064   0.00247  -0.00175  -0.00154
  80        5S          0.02276  -0.00025  -0.00780   0.01568  -0.00239
  81        5PX         0.00294   0.00233  -0.00007   0.00258  -0.00162
  82        5PY         0.00278  -0.00265  -0.00170   0.00119  -0.00047
  83        5PZ         0.00282  -0.00052  -0.00100   0.00176  -0.00096
  84        6D 0       -0.00002   0.00002  -0.00006   0.00011  -0.00002
  85        6D+1        0.00005   0.00007   0.00041   0.00006   0.00008
  86        6D-1        0.00003  -0.00003  -0.00052   0.00028  -0.00003
  87        6D+2        0.00003   0.00009   0.00093  -0.00027   0.00011
  88        6D-2        0.00000   0.00007   0.00004   0.00031   0.00002
  89 5   H  1S         -0.00000   0.00002   0.00001  -0.00018  -0.00002
  90        2S         -0.00011  -0.00019  -0.00137   0.00023   0.00026
  91        3S          0.00002   0.00046  -0.00061   0.00140   0.00052
  92        4PX         0.00001   0.00003   0.00019  -0.00010   0.00002
  93        4PY        -0.00001  -0.00003  -0.00027  -0.00030   0.00002
  94        4PZ        -0.00000  -0.00000  -0.00007  -0.00021   0.00002
  95 6   N  1S         -0.00000  -0.00000   0.55735   0.00011  -0.00002
  96        2S          0.00003   0.00003   0.46572   0.00016  -0.00006
  97        2PX        -0.00009  -0.00011   0.00005   0.00008  -0.00013
  98        2PY         0.00008   0.00005  -0.00005  -0.00000   0.00008
  99        2PZ         0.00001  -0.00002  -0.00001   0.00003  -0.00001
 100        3S         -0.00008  -0.00006   0.01624  -0.00032   0.00027
 101        3PX         0.00031   0.00048   0.00077  -0.00046  -0.00010
 102        3PY        -0.00038  -0.00013  -0.00038  -0.00000   0.00009
 103        3PZ        -0.00009   0.00013   0.00011  -0.00020   0.00001
 104        4S         -0.00039  -0.00059  -0.01678  -0.00071   0.00216
 105        4PX         0.00157  -0.00143  -0.00076  -0.00173   0.00187
 106        4PY         0.00256  -0.00238   0.00051   0.00009  -0.00141
 107        4PZ         0.00212  -0.00196  -0.00003  -0.00068  -0.00001
 108        5S         -0.00401  -0.00311   0.00172  -0.00523   0.00615
 109        5PX         0.00432  -0.00066  -0.00025  -0.00634  -0.00352
 110        5PY         0.00425  -0.00526  -0.00077   0.00463   0.00169
 111        5PZ         0.00424  -0.00326  -0.00054  -0.00006  -0.00054
 112        6D 0        0.00006   0.00007  -0.00020   0.00000   0.00014
 113        6D+1        0.00002   0.00003   0.00025  -0.00019  -0.00001
 114        6D-1        0.00007   0.00007   0.00030  -0.00002   0.00004
 115        6D+2       -0.00008  -0.00007   0.00005  -0.00016  -0.00011
 116        6D-2        0.00014   0.00016  -0.00006  -0.00014   0.00024
 117 7   H  1S          0.00006  -0.00001  -0.00013   0.00004   0.00003
 118        2S         -0.00058  -0.00007  -0.00027  -0.00129  -0.00065
 119        3S          0.00067  -0.00107   0.00171  -0.00086  -0.00193
 120        4PX         0.00003  -0.00001  -0.00002  -0.00027  -0.00003
 121        4PY        -0.00015  -0.00004  -0.00038  -0.00011  -0.00016
 122        4PZ        -0.00007  -0.00003  -0.00022  -0.00017  -0.00010
 123 8   H  1S         -0.00002   0.00007  -0.00017  -0.00026   0.00002
 124        2S         -0.00004  -0.00062  -0.00049   0.00030  -0.00054
 125        3S         -0.00098   0.00065   0.00129   0.00154  -0.00180
 126        4PX         0.00003   0.00013   0.00034  -0.00035   0.00013
 127        4PY         0.00003   0.00005   0.00027   0.00040   0.00008
 128        4PZ         0.00003   0.00008   0.00030   0.00008   0.00010
 129 9   C  1S         -0.00002  -0.00002   0.00001  -0.00000   0.56309
 130        2S          0.00009   0.00010  -0.00002   0.00002   0.46335
 131        2PX        -0.00027  -0.00002   0.00027   0.00006   0.00058
 132        2PY        -0.00014   0.00031  -0.00017  -0.00001  -0.00037
 133        2PZ        -0.00020   0.00017   0.00002   0.00002   0.00004
 134        3S          0.00022   0.00025   0.00002  -0.00005   0.01794
 135        3PX         0.00058   0.00006  -0.00048  -0.00025  -0.00143
 136        3PY         0.00027  -0.00064   0.00030   0.00006   0.00090
 137        3PZ         0.00040  -0.00034  -0.00003  -0.00007  -0.00009
 138        4S          0.00287   0.00292   0.00350  -0.00244  -0.00998
 139        4PX        -0.00443   0.00272   0.00252   0.00074  -0.00059
 140        4PY        -0.00592   0.00649  -0.00155   0.00124   0.00048
 141        4PZ        -0.00523   0.00483   0.00019   0.00102   0.00002
 142        5S         -0.00191  -0.00171   0.00163  -0.00605  -0.00941
 143        5PX         0.00047  -0.00064   0.00068  -0.00150  -0.00232
 144        5PY         0.00104  -0.00116  -0.00088   0.00107   0.00138
 145        5PZ         0.00079  -0.00093  -0.00021  -0.00003  -0.00020
 146        6D 0       -0.00012  -0.00006   0.00010   0.00003  -0.00029
 147        6D+1       -0.00052   0.00007   0.00014  -0.00000   0.00113
 148        6D-1       -0.00022  -0.00057   0.00030   0.00001   0.00181
 149        6D+2       -0.00023   0.00065  -0.00020  -0.00003  -0.00053
 150        6D-2       -0.00064  -0.00022   0.00037   0.00006   0.00088
 151 10  O  1S          0.55107   0.01640   0.00000   0.00000  -0.00007
 152        2S          0.46950   0.01402   0.00003   0.00001  -0.00004
 153        2PX         0.00079   0.00003   0.00004   0.00001   0.00038
 154        2PY         0.00046   0.00006   0.00002   0.00002   0.00019
 155        2PZ         0.00060   0.00005   0.00003   0.00001   0.00027
 156        3S          0.01395  -0.00002  -0.00015  -0.00013   0.00034
 157        3PX         0.00049  -0.00007  -0.00022  -0.00003  -0.00118
 158        3PY         0.00024  -0.00015  -0.00010  -0.00008  -0.00057
 159        3PZ         0.00034  -0.00012  -0.00015  -0.00006  -0.00082
 160        4S         -0.01243   0.00249  -0.00029   0.00098  -0.00360
 161        4PX        -0.00199   0.00097  -0.00032   0.00028  -0.00131
 162        4PY        -0.00067  -0.00027   0.00024   0.00030  -0.00070
 163        4PZ        -0.00122   0.00026  -0.00000   0.00029  -0.00095
 164        5S          0.00316   0.00276  -0.00038   0.00052   0.00414
 165        5PX         0.00036   0.00083  -0.00042  -0.00007   0.00179
 166        5PY        -0.00076   0.00026   0.00039   0.00001   0.00055
 167        5PZ        -0.00028   0.00049   0.00004  -0.00002   0.00107
 168        6D 0       -0.00001  -0.00004  -0.00000   0.00001   0.00010
 169        6D+1        0.00016   0.00001  -0.00007  -0.00001  -0.00072
 170        6D-1        0.00012  -0.00013   0.00001  -0.00001  -0.00036
 171        6D+2        0.00005   0.00015  -0.00008  -0.00000  -0.00039
 172        6D-2        0.00014  -0.00009  -0.00005   0.00000  -0.00047
 173 11  O  1S         -0.01640   0.55107   0.00000   0.00000  -0.00007
 174        2S         -0.01392   0.46951   0.00003   0.00000  -0.00004
 175        2PX        -0.00003  -0.00002   0.00001   0.00002   0.00002
 176        2PY        -0.00000  -0.00095  -0.00005  -0.00001  -0.00044
 177        2PZ        -0.00001  -0.00055  -0.00003   0.00000  -0.00024
 178        3S         -0.00085   0.01391  -0.00014  -0.00000   0.00036
 179        3PX         0.00009   0.00002  -0.00003  -0.00007  -0.00007
 180        3PY         0.00017  -0.00056   0.00026   0.00005   0.00135
 181        3PZ         0.00014  -0.00031   0.00014  -0.00000   0.00074
 182        4S          0.00322  -0.01221  -0.00038  -0.00045  -0.00368
 183        4PX         0.00071  -0.00027  -0.00032   0.00004   0.00002
 184        4PY        -0.00091   0.00211   0.00018  -0.00007   0.00154
 185        4PZ        -0.00021   0.00108  -0.00003  -0.00002   0.00088
 186        5S          0.00245   0.00312  -0.00002  -0.00095   0.00428
 187        5PX        -0.00001   0.00063  -0.00063  -0.00005   0.00034
 188        5PY        -0.00079   0.00003   0.00024   0.00034  -0.00194
 189        5PZ        -0.00045   0.00028  -0.00013   0.00017  -0.00096
 190        6D 0       -0.00005  -0.00003   0.00001  -0.00002   0.00018
 191        6D+1       -0.00011   0.00002   0.00005   0.00002   0.00001
 192        6D-1       -0.00007   0.00019  -0.00005   0.00002  -0.00075
 193        6D+2       -0.00001  -0.00015   0.00009   0.00001   0.00066
 194        6D-2       -0.00018   0.00002   0.00004  -0.00001   0.00007
                           6         7         8         9        10
                           O         O         O         O         O
     Eigenvalues --   -10.21714 -10.19071 -10.18136  -1.05675  -0.99924
   1 1   C  1S          0.56291   0.00007   0.00002  -0.02038  -0.05372
   2        2S          0.46322   0.00006   0.00001  -0.03120  -0.08233
   3        2PX        -0.00037  -0.00001  -0.00000  -0.01052  -0.00642
   4        2PY        -0.00019   0.00011   0.00007  -0.01034  -0.03832
   5        2PZ        -0.00026   0.00006   0.00004  -0.01031  -0.02444
   6        3S          0.01947  -0.00023  -0.00010   0.07996   0.21287
   7        3PX         0.00046   0.00005   0.00006  -0.01743  -0.01161
   8        3PY        -0.00001  -0.00040  -0.00035  -0.01563  -0.05609
   9        3PZ         0.00019  -0.00020  -0.00017  -0.01624  -0.03671
  10        4S         -0.00881   0.00062  -0.00009   0.02290   0.07528
  11        4PX         0.00049   0.00072  -0.00105   0.00349  -0.00160
  12        4PY         0.00103  -0.00142  -0.00135  -0.00031   0.00190
  13        4PZ         0.00079  -0.00050  -0.00121   0.00131   0.00040
  14        5S         -0.01857   0.00018  -0.00439   0.01615   0.07221
  15        5PX         0.00209   0.00036   0.00294  -0.00306  -0.00448
  16        5PY         0.00206  -0.00016  -0.00028  -0.00170  -0.01453
  17        5PZ         0.00205   0.00006   0.00109  -0.00226  -0.01014
  18        6D 0       -0.00088  -0.00000  -0.00004  -0.00235  -0.00628
  19        6D+1        0.00047   0.00007  -0.00003   0.00472   0.00718
  20        6D-1        0.00157   0.00029   0.00016   0.00323   0.01104
  21        6D+2       -0.00064  -0.00021  -0.00016   0.00257  -0.00070
  22        6D-2       -0.00065   0.00014  -0.00004   0.00050  -0.00187
  23 2   N  1S         -0.00008  -0.00000  -0.00005  -0.01331  -0.05301
  24        2S         -0.00001   0.00004  -0.00006  -0.02080  -0.08291
  25        2PX        -0.00041   0.00001  -0.00021  -0.01142  -0.04120
  26        2PY         0.00034  -0.00010  -0.00021   0.00188   0.00548
  27        2PZ         0.00002  -0.00005  -0.00021  -0.00377  -0.01434
  28        3S          0.00053  -0.00002   0.00073   0.05597   0.22407
  29        3PX         0.00130   0.00005   0.00050  -0.01749  -0.06173
  30        3PY        -0.00106   0.00048   0.00023   0.00290   0.00757
  31        3PZ        -0.00005   0.00029   0.00034  -0.00576  -0.02184
  32        4S         -0.00420  -0.00209  -0.00141   0.03241   0.14141
  33        4PX         0.00159   0.00099   0.00016  -0.00668  -0.02348
  34        4PY        -0.00098  -0.00012   0.00099  -0.00009   0.00277
  35        4PZ         0.00012   0.00035   0.00063  -0.00288  -0.00837
  36        5S          0.00453  -0.00739   0.00410  -0.00734  -0.03401
  37        5PX        -0.00221   0.00220  -0.00135   0.00299   0.01090
  38        5PY         0.00234  -0.00074  -0.00169  -0.00248  -0.00690
  39        5PZ         0.00039   0.00051  -0.00153  -0.00014   0.00070
  40        6D 0        0.00069  -0.00003   0.00012  -0.00142  -0.00456
  41        6D+1       -0.00004  -0.00008  -0.00044   0.00128   0.00407
  42        6D-1       -0.00021  -0.00022  -0.00055   0.00074   0.00334
  43        6D+2       -0.00017   0.00016   0.00005   0.00121   0.00293
  44        6D-2        0.00105  -0.00017  -0.00029  -0.00121  -0.00361
  45 3   C  1S         -0.00002   0.01955   0.56257  -0.00962  -0.03564
  46        2S         -0.00002   0.01635   0.46289  -0.01473  -0.05464
  47        2PX         0.00003  -0.00074   0.00044  -0.00383  -0.00879
  48        2PY        -0.00006   0.00018   0.00014   0.00841   0.03016
  49        2PZ        -0.00002  -0.00021   0.00027   0.00314   0.01338
  50        3S         -0.00006   0.00025   0.01963   0.03695   0.13797
  51        3PX        -0.00011   0.00355  -0.00180  -0.00639  -0.01186
  52        3PY         0.00038  -0.00095  -0.00009   0.01253   0.04452
  53        3PZ         0.00017   0.00096  -0.00081   0.00440   0.02022
  54        4S          0.00074   0.00248  -0.01125   0.01220   0.05738
  55        4PX        -0.00128  -0.00173   0.00359  -0.00241  -0.00632
  56        4PY         0.00193   0.00104  -0.00374   0.00393   0.00772
  57        4PZ         0.00055  -0.00014  -0.00060   0.00121   0.00170
  58        5S         -0.00673   0.01402  -0.00909   0.05604  -0.03210
  59        5PX         0.00351  -0.00303   0.00037  -0.01344   0.00184
  60        5PY         0.00098   0.00228  -0.00077   0.00178  -0.00975
  61        5PZ         0.00204   0.00001  -0.00028  -0.00468  -0.00475
  62        6D 0       -0.00004   0.00082  -0.00141  -0.00160  -0.00437
  63        6D+1       -0.00006  -0.00072   0.00052   0.00071   0.00279
  64        6D-1        0.00012   0.00055   0.00071   0.00200   0.00914
  65        6D+2       -0.00016  -0.00164   0.00051  -0.00047  -0.00403
  66        6D-2       -0.00006   0.00100  -0.00174  -0.00154  -0.00247
  67 4   C  1S         -0.00007   0.56256  -0.01971  -0.01666  -0.03830
  68        2S         -0.00006   0.46285  -0.01596  -0.02548  -0.05872
  69        2PX        -0.00008  -0.00043   0.00080   0.00076   0.01373
  70        2PY        -0.00001   0.00066  -0.00027   0.01484   0.02812
  71        2PZ        -0.00004   0.00019   0.00018   0.00873   0.02175
  72        3S         -0.00008   0.02015  -0.00090   0.06403   0.14880
  73        3PX         0.00033   0.00128  -0.00371  -0.00041   0.01925
  74        3PY         0.00008  -0.00090   0.00113   0.02385   0.04130
  75        3PZ         0.00018   0.00003  -0.00093   0.01334   0.03156
  76        4S         -0.00194  -0.01401   0.00079   0.01861   0.05807
  77        4PX        -0.00012  -0.00418   0.00213   0.00367   0.00207
  78        4PY        -0.00029  -0.00171  -0.00014  -0.00238   0.00505
  79        4PZ        -0.00021  -0.00274   0.00082   0.00021   0.00374
  80        5S          0.01167  -0.02825   0.00194  -0.04469   0.04174
  81        5PX         0.00309  -0.00176   0.00189  -0.01948  -0.00037
  82        5PY        -0.00160  -0.00393  -0.00097   0.01027   0.01256
  83        5PZ         0.00040  -0.00298   0.00025  -0.00243   0.00696
  84        6D 0        0.00003  -0.00081   0.00084  -0.00203  -0.00361
  85        6D+1        0.00012   0.00180  -0.00105   0.00040   0.00485
  86        6D-1        0.00015   0.00087   0.00035   0.00512   0.01067
  87        6D+2       -0.00005   0.00130  -0.00177  -0.00359  -0.00391
  88        6D-2        0.00018   0.00022   0.00073  -0.00154   0.00075
  89 5   H  1S         -0.00012  -0.00009   0.00017   0.00150   0.00765
  90        2S          0.00085  -0.00076  -0.00490   0.00315   0.00809
  91        3S          0.00116   0.00118   0.00147  -0.00157  -0.00167
  92        4PX        -0.00004   0.00045   0.00112  -0.00012   0.00010
  93        4PY         0.00011  -0.00031  -0.00213   0.00030   0.00120
  94        4PZ         0.00004   0.00002  -0.00073   0.00012   0.00072
  95 6   N  1S         -0.00005  -0.00005   0.00000  -0.04475  -0.06298
  96        2S         -0.00004  -0.00006   0.00002  -0.07030  -0.09889
  97        2PX         0.00033   0.00015  -0.00004  -0.00276   0.03795
  98        2PY         0.00006  -0.00032  -0.00005   0.00302  -0.01966
  99        2PZ         0.00018  -0.00012  -0.00005   0.00053   0.00491
 100        3S          0.00065   0.00072   0.00005   0.19220   0.27093
 101        3PX        -0.00060  -0.00047   0.00009  -0.00932   0.05724
 102        3PY        -0.00005   0.00045   0.00036   0.00767  -0.02988
 103        3PZ        -0.00029   0.00006   0.00024   0.00037   0.00728
 104        4S         -0.00147  -0.00154  -0.00251   0.12945   0.18455
 105        4PX        -0.00278   0.00088   0.00010  -0.00113   0.02085
 106        4PY        -0.00084   0.00127  -0.00004   0.00187  -0.00936
 107        4PZ        -0.00165   0.00109   0.00002   0.00057   0.00351
 108        5S          0.00932   0.01232  -0.00119  -0.02825  -0.06729
 109        5PX         0.00653   0.00819   0.00617  -0.01056  -0.02166
 110        5PY         0.00263  -0.01193  -0.00581   0.00541   0.01400
 111        5PZ         0.00425  -0.00330  -0.00068  -0.00140  -0.00124
 112        6D 0        0.00022   0.00030  -0.00003  -0.00464  -0.00432
 113        6D+1       -0.00069   0.00003   0.00004   0.00251   0.00445
 114        6D-1       -0.00027  -0.00049  -0.00018   0.00221   0.00473
 115        6D+2       -0.00051   0.00035   0.00024   0.00256   0.00183
 116        6D-2       -0.00022   0.00037  -0.00008  -0.00522  -0.00251
 117 7   H  1S         -0.00006   0.00009  -0.00008   0.00486   0.00858
 118        2S          0.00025  -0.00495  -0.00003   0.00679   0.00757
 119        3S          0.00042   0.00143   0.00062  -0.00043  -0.00311
 120        4PX        -0.00001  -0.00167  -0.00032   0.00015   0.00041
 121        4PY         0.00006  -0.00133   0.00014   0.00160   0.00104
 122        4PZ         0.00003  -0.00146  -0.00006   0.00097   0.00076
 123 8   H  1S          0.00003  -0.00010  -0.00011   0.00589   0.01315
 124        2S         -0.00411   0.00035   0.00068   0.00716   0.00937
 125        3S          0.00178   0.00159   0.00139  -0.00136  -0.00559
 126        4PX         0.00021  -0.00008   0.00006  -0.00109   0.00008
 127        4PY         0.00211   0.00001  -0.00009  -0.00107  -0.00154
 128        4PZ         0.00128  -0.00003  -0.00003  -0.00107  -0.00084
 129 9   C  1S          0.00002   0.00001   0.00001  -0.07644   0.02563
 130        2S          0.00002   0.00002   0.00003  -0.11675   0.03897
 131        2PX         0.00003   0.00003   0.00002  -0.02098   0.03289
 132        2PY        -0.00002  -0.00000  -0.00003   0.01325  -0.01881
 133        2PZ        -0.00000   0.00001  -0.00001  -0.00140   0.00329
 134        3S         -0.00006  -0.00017  -0.00028   0.31420  -0.10651
 135        3PX        -0.00014  -0.00014  -0.00008  -0.02182   0.04676
 136        3PY         0.00014  -0.00001   0.00016   0.01385  -0.02700
 137        3PZ         0.00002  -0.00007   0.00005  -0.00141   0.00453
 138        4S         -0.00176   0.00112   0.00108   0.07438  -0.02021
 139        4PX         0.00129  -0.00039   0.00107   0.00196  -0.00579
 140        4PY         0.00332  -0.00249  -0.00159  -0.00221   0.00057
 141        4PZ         0.00243  -0.00157  -0.00044  -0.00043  -0.00213
 142        5S          0.00585   0.00998   0.00829   0.01006  -0.03201
 143        5PX         0.00149   0.00234   0.00244  -0.00199  -0.00476
 144        5PY        -0.00078  -0.00193  -0.00074   0.00326   0.00327
 145        5PZ         0.00019  -0.00010   0.00061   0.00100  -0.00016
 146        6D 0        0.00003  -0.00002  -0.00003  -0.00533  -0.00166
 147        6D+1        0.00003   0.00004   0.00003   0.01316  -0.00609
 148        6D-1        0.00002   0.00007   0.00006   0.02046  -0.01098
 149        6D+2       -0.00001  -0.00002  -0.00001  -0.00456   0.00560
 150        6D-2        0.00008   0.00001  -0.00001   0.00690  -0.01051
 151 10  O  1S          0.00000   0.00000   0.00000  -0.06229   0.03337
 152        2S          0.00002   0.00000   0.00000  -0.09935   0.05329
 153        2PX         0.00001   0.00001   0.00002   0.03438  -0.01431
 154        2PY         0.00001  -0.00000  -0.00000   0.02031  -0.01263
 155        2PZ         0.00001   0.00000   0.00001   0.02607  -0.01322
 156        3S         -0.00019   0.00005  -0.00001   0.28387  -0.15268
 157        3PX        -0.00007  -0.00004  -0.00007   0.04974  -0.02006
 158        3PY        -0.00005   0.00000   0.00001   0.03078  -0.01857
 159        3PZ        -0.00006  -0.00002  -0.00003   0.03851  -0.01902
 160        4S          0.00158  -0.00093  -0.00031   0.19034  -0.10845
 161        4PX         0.00073  -0.00053   0.00001   0.01726  -0.00697
 162        4PY         0.00021   0.00002   0.00012   0.01022  -0.00860
 163        4PZ         0.00043  -0.00021   0.00007   0.01310  -0.00782
 164        5S          0.00532  -0.00271   0.00112  -0.02001   0.00063
 165        5PX         0.00178  -0.00079   0.00026  -0.00414  -0.00066
 166        5PY         0.00006  -0.00009  -0.00021   0.00022  -0.00028
 167        5PZ         0.00079  -0.00039  -0.00001  -0.00163  -0.00044
 168        6D 0        0.00000   0.00001  -0.00001   0.00002  -0.00028
 169        6D+1        0.00000  -0.00002   0.00000   0.00641  -0.00274
 170        6D-1       -0.00001  -0.00000   0.00002   0.00416  -0.00251
 171        6D+2        0.00001  -0.00002  -0.00001   0.00214  -0.00007
 172        6D-2        0.00000   0.00001  -0.00000   0.00594  -0.00323
 173 11  O  1S          0.00000   0.00000   0.00000  -0.06217   0.03104
 174        2S          0.00000   0.00001   0.00000  -0.09916   0.04957
 175        2PX         0.00002   0.00001  -0.00001  -0.00143   0.00440
 176        2PY        -0.00001  -0.00002  -0.00001  -0.04113   0.01771
 177        2PZ         0.00000  -0.00001  -0.00001  -0.02389   0.01189
 178        3S          0.00005  -0.00009  -0.00002   0.28325  -0.14222
 179        3PX        -0.00009  -0.00003   0.00002  -0.00318   0.00702
 180        3PY         0.00004   0.00008   0.00007  -0.06020   0.02508
 181        3PZ        -0.00001   0.00003   0.00005  -0.03543   0.01718
 182        4S         -0.00114   0.00068   0.00004   0.19091  -0.09792
 183        4PX        -0.00008   0.00011  -0.00017  -0.00091   0.00424
 184        4PY         0.00042  -0.00047  -0.00012  -0.02092   0.00894
 185        4PZ         0.00020  -0.00022  -0.00014  -0.01223   0.00686
 186        5S         -0.00493   0.00617   0.00382  -0.01909   0.00210
 187        5PX        -0.00050   0.00082   0.00078  -0.00081  -0.00011
 188        5PY         0.00159  -0.00204  -0.00158   0.00324   0.00088
 189        5PZ         0.00069  -0.00081  -0.00056   0.00149   0.00045
 190        6D 0        0.00000  -0.00000   0.00000  -0.00063  -0.00012
 191        6D+1        0.00001  -0.00000   0.00001   0.00043  -0.00077
 192        6D-1        0.00000  -0.00000  -0.00001   0.00734  -0.00333
 193        6D+2        0.00001  -0.00000   0.00001  -0.00642   0.00255
 194        6D-2        0.00001  -0.00000   0.00000   0.00150  -0.00177
                          11        12        13        14        15
                           O         O         O         O         O
     Eigenvalues --    -0.96155  -0.86212  -0.73953  -0.62271  -0.58780
   1 1   C  1S         -0.00223  -0.01558   0.06373   0.04477  -0.02019
   2        2S         -0.00339  -0.02393   0.09878   0.06994  -0.03169
   3        2PX        -0.00280   0.07219   0.00140   0.01679  -0.10706
   4        2PY         0.00157  -0.03436  -0.00040   0.00449   0.05251
   5        2PZ        -0.00030   0.01108   0.00036   0.00963  -0.01554
   6        3S          0.00840   0.06351  -0.27031  -0.19358   0.08675
   7        3PX        -0.00256   0.10251   0.00385   0.02457  -0.14740
   8        3PY         0.00229  -0.04640   0.00121   0.00770   0.07135
   9        3PZ         0.00021   0.01709   0.00231   0.01474  -0.02194
  10        4S         -0.02629   0.01986  -0.13920  -0.13252   0.04268
  11        4PX         0.00416   0.00918  -0.00417   0.00698  -0.03388
  12        4PY         0.00541   0.00155   0.00906   0.00336   0.02706
  13        4PZ         0.00482   0.00476   0.00337   0.00485   0.00100
  14        5S         -0.06364   0.00931  -0.00809  -0.05272   0.03024
  15        5PX         0.01423  -0.00420  -0.01007   0.00247  -0.02753
  16        5PY         0.00708   0.00089   0.00147   0.00452   0.00786
  17        5PZ         0.01004  -0.00127  -0.00343   0.00360  -0.00719
  18        6D 0       -0.00029  -0.00635   0.00607  -0.00112   0.00221
  19        6D+1        0.00038  -0.01240  -0.00490  -0.00691   0.00861
  20        6D-1       -0.00009   0.00254   0.00092  -0.01012   0.00284
  21        6D+2        0.00060  -0.01131  -0.00862   0.00370   0.00447
  22        6D-2       -0.00023  -0.01879   0.00680  -0.00994   0.01079
  23 2   N  1S          0.00032  -0.08013   0.01782  -0.03451   0.03511
  24        2S          0.00054  -0.12595   0.02813  -0.05486   0.05597
  25        2PX         0.00022  -0.04112   0.01415   0.02238   0.01565
  26        2PY         0.00045   0.00073  -0.05429  -0.06093  -0.06101
  27        2PZ         0.00035  -0.01700  -0.02479  -0.02508  -0.02797
  28        3S         -0.00214   0.34690  -0.07953   0.15695  -0.16035
  29        3PX         0.00037  -0.06056   0.02027   0.03084   0.02283
  30        3PY         0.00062  -0.00122  -0.08031  -0.09058  -0.08888
  31        3PZ         0.00051  -0.02633  -0.03695  -0.03832  -0.04073
  32        4S          0.00811   0.24523  -0.05595   0.14272  -0.13971
  33        4PX        -0.00405  -0.02453   0.00634   0.01675   0.00745
  34        4PY         0.00086   0.00118  -0.02877  -0.04323  -0.04724
  35        4PZ        -0.00122  -0.00972  -0.01363  -0.01743  -0.02363
  36        5S          0.01231  -0.05765   0.01761  -0.02604   0.00354
  37        5PX        -0.00144   0.01337  -0.00594   0.00571  -0.00257
  38        5PY        -0.00121   0.00464   0.01267   0.01297   0.01172
  39        5PZ        -0.00129   0.00829   0.00467   0.00977   0.00556
  40        6D 0       -0.00004  -0.00352   0.00403   0.00348   0.00339
  41        6D+1       -0.00005   0.00248   0.00525   0.00092   0.00378
  42        6D-1       -0.00007   0.00581   0.00378   0.00581   0.00260
  43        6D+2        0.00004  -0.00151  -0.00058  -0.00647  -0.00054
  44        6D-2       -0.00013  -0.00229   0.01164   0.00820   0.00917
  45 3   C  1S          0.00108  -0.03725  -0.06574  -0.02624  -0.06146
  46        2S          0.00165  -0.05742  -0.10177  -0.04095  -0.09610
  47        2PX         0.00082   0.02199  -0.04096   0.07155   0.00652
  48        2PY        -0.00054   0.02959   0.00273  -0.00107  -0.03978
  49        2PZ         0.00004   0.02609  -0.01579   0.02967  -0.01981
  50        3S         -0.00398   0.14913   0.26950   0.11343   0.25998
  51        3PX         0.00149   0.03497  -0.05530   0.09972   0.00974
  52        3PY        -0.00127   0.04566   0.00462   0.00321  -0.05420
  53        3PZ        -0.00009   0.04069  -0.02079   0.04402  -0.02662
  54        4S         -0.01393   0.07338   0.15549   0.07745   0.19258
  55        4PX         0.00359   0.00069  -0.01989   0.03144  -0.00043
  56        4PY        -0.00523   0.00533   0.01204  -0.00124  -0.02287
  57        4PZ        -0.00146   0.00332  -0.00159   0.01260  -0.01316
  58        5S         -0.03713   0.15182   0.02392   0.00181   0.01190
  59        5PX         0.00654  -0.02313   0.00384   0.01478   0.00906
  60        5PY        -0.00448   0.02124  -0.00105   0.00677   0.00149
  61        5PZ         0.00022   0.00226   0.00103   0.01010   0.00468
  62        6D 0        0.00019   0.00038  -0.00644   0.00284  -0.00431
  63        6D+1       -0.00012   0.00430   0.00570   0.00418   0.00204
  64        6D-1       -0.00013   0.01354  -0.00001   0.00703   0.00082
  65        6D+2       -0.00008  -0.00919   0.00868  -0.00418   0.00331
  66        6D-2        0.00020   0.00785  -0.00655   0.00986  -0.00543
  67 4   C  1S          0.00393   0.02212  -0.07691   0.03357   0.02800
  68        2S          0.00602   0.03404  -0.11922   0.05252   0.04386
  69        2PX         0.00189   0.02520   0.03174  -0.01991   0.08495
  70        2PY        -0.00304  -0.03410  -0.00647  -0.00664  -0.05245
  71        2PZ        -0.00092  -0.00867   0.00977  -0.01221   0.00622
  72        3S         -0.01533  -0.08884   0.31681  -0.14107  -0.12182
  73        3PX         0.00191   0.03840   0.04225  -0.02613   0.11693
  74        3PY        -0.00310  -0.05426  -0.00809  -0.01074  -0.07465
  75        3PZ        -0.00095  -0.01451   0.01329  -0.01716   0.00717
  76        4S          0.02414  -0.04876   0.16779  -0.10646  -0.06402
  77        4PX         0.00311   0.00087   0.01527  -0.00894   0.03756
  78        4PY         0.00831  -0.00547  -0.00836  -0.00287  -0.01170
  79        4PZ         0.00604  -0.00273   0.00172  -0.00542   0.00927
  80        5S          0.09303  -0.15892   0.02822  -0.01494  -0.01670
  81        5PX         0.00852  -0.03013  -0.01492   0.01286   0.00737
  82        5PY         0.01456  -0.00962   0.01262  -0.01635  -0.01028
  83        5PZ         0.01187  -0.01821   0.00084  -0.00383  -0.00271
  84        6D 0        0.00052   0.00172  -0.00631  -0.00078   0.00134
  85        6D+1       -0.00009   0.00530   0.00735  -0.00660   0.00217
  86        6D-1       -0.00065  -0.00936   0.00323  -0.00847  -0.00687
  87        6D+2        0.00029   0.01337   0.00707   0.00224   0.00812
  88        6D-2        0.00060   0.00389  -0.00416  -0.00865   0.00173
  89 5   H  1S         -0.00027   0.01585   0.04123   0.04070   0.08495
  90        2S         -0.00062   0.01719   0.04988   0.05193   0.10613
  91        3S         -0.00191  -0.00289   0.00389   0.00797   0.01559
  92        4PX         0.00002   0.00022  -0.00594  -0.00171  -0.00779
  93        4PY        -0.00005   0.00384   0.00560   0.00762   0.01017
  94        4PZ        -0.00002   0.00227   0.00066   0.00360   0.00247
  95 6   N  1S          0.00138   0.07482   0.01512  -0.01881  -0.00048
  96        2S          0.00217   0.11816   0.02402  -0.03013  -0.00075
  97        2PX         0.00453   0.00887  -0.01503  -0.13185   0.06795
  98        2PY         0.00945   0.00409  -0.07042   0.06536   0.09151
  99        2PZ         0.00728   0.00610  -0.04628  -0.01883   0.08065
 100        3S         -0.00598  -0.33145  -0.06957   0.08742   0.00152
 101        3PX         0.00598   0.01485  -0.02205  -0.19550   0.09969
 102        3PY         0.01284   0.00614  -0.10570   0.09808   0.13414
 103        3PZ         0.00981   0.00980  -0.06925  -0.02725   0.11826
 104        4S         -0.00487  -0.24952  -0.05138   0.10133   0.00282
 105        4PX         0.01320   0.02111  -0.00724  -0.12013   0.06957
 106        4PY         0.02347  -0.00803  -0.06100   0.05897   0.09969
 107        4PZ         0.01889   0.00441  -0.03764  -0.01749   0.08597
 108        5S         -0.00330   0.05868  -0.01126   0.02031   0.00003
 109        5PX         0.01918   0.00665  -0.02840   0.06132  -0.02381
 110        5PY         0.02929  -0.01514   0.03437  -0.03632   0.00234
 111        5PZ         0.02472  -0.00577   0.00745   0.00539  -0.00876
 112        6D 0       -0.00006   0.00254  -0.00087  -0.00233   0.00061
 113        6D+1       -0.00155  -0.00168  -0.00694  -0.00216   0.00514
 114        6D-1        0.00069  -0.00509   0.00317  -0.00324  -0.00216
 115        6D+2       -0.00215   0.00207  -0.00934   0.00218   0.00676
 116        6D-2       -0.00101   0.00147  -0.00553  -0.00643   0.00411
 117 7   H  1S         -0.00258  -0.01314   0.04823  -0.01752  -0.05084
 118        2S         -0.00395  -0.01561   0.05410  -0.01828  -0.06472
 119        3S          0.00581   0.00173  -0.00045  -0.00055  -0.00845
 120        4PX         0.00019  -0.00124   0.00673  -0.00056  -0.00316
 121        4PY        -0.00091  -0.00347   0.00228  -0.00055  -0.00667
 122        4PZ        -0.00043  -0.00250   0.00414  -0.00055  -0.00512
 123 8   H  1S          0.00217   0.00284  -0.04944  -0.03557   0.03740
 124        2S          0.00427  -0.00095  -0.06100  -0.04177   0.04738
 125        3S         -0.00520  -0.00099  -0.00688  -0.00662   0.00173
 126        4PX        -0.00079   0.00410   0.00043   0.00171  -0.00517
 127        4PY        -0.00024  -0.00016   0.00937   0.00305  -0.00353
 128        4PZ        -0.00047   0.00164   0.00550   0.00245  -0.00419
 129 9   C  1S         -0.00040   0.00403   0.00581  -0.04247   0.00343
 130        2S         -0.00061   0.00658   0.00914  -0.06721   0.00542
 131        2PX         0.05631  -0.04607  -0.01790   0.08899  -0.00364
 132        2PY         0.09805   0.02792   0.01433  -0.05700   0.00968
 133        2PZ         0.07939  -0.00371   0.00053   0.00544   0.00395
 134        3S          0.00160  -0.01689  -0.02519   0.19673  -0.01562
 135        3PX         0.07162  -0.06798  -0.02669   0.13252  -0.00550
 136        3PY         0.12500   0.04150   0.02040  -0.08496   0.01414
 137        3PZ         0.10114  -0.00531   0.00024   0.00806   0.00569
 138        4S          0.00100   0.00104  -0.01396   0.12077  -0.01506
 139        4PX        -0.00923  -0.00103  -0.00049   0.03392  -0.00992
 140        4PY        -0.01680  -0.00115   0.01096  -0.02058  -0.00526
 141        4PZ        -0.01343  -0.00109   0.00600   0.00272  -0.00718
 142        5S          0.00301   0.00166  -0.04487   0.07393  -0.02599
 143        5PX         0.00762  -0.00227  -0.01000   0.02255  -0.01180
 144        5PY         0.01187  -0.00050   0.01022  -0.01657  -0.00418
 145        5PZ         0.00995  -0.00125   0.00155   0.00018  -0.00737
 146        6D 0       -0.00123   0.00531   0.00163  -0.00745   0.00130
 147        6D+1       -0.01177   0.00285  -0.00379  -0.00035   0.00747
 148        6D-1        0.00657   0.00572   0.00335  -0.00114  -0.00415
 149        6D+2       -0.01717  -0.00540  -0.00772   0.00440   0.01062
 150        6D-2       -0.00858   0.01263   0.00098  -0.01298   0.00632
 151 10  O  1S          0.08082  -0.01946   0.00040   0.02560  -0.01097
 152        2S          0.12931  -0.03122   0.00063   0.04138  -0.01772
 153        2PX        -0.03902   0.00055  -0.00177   0.03229  -0.01372
 154        2PY        -0.01582   0.01012   0.00034  -0.01352   0.00748
 155        2PZ        -0.02550   0.00596  -0.00056   0.00604  -0.00157
 156        3S         -0.37033   0.09085  -0.00219  -0.12268   0.05334
 157        3PX        -0.05845   0.00027  -0.00273   0.04601  -0.01938
 158        3PY        -0.02284   0.01466   0.00127  -0.02047   0.00985
 159        3PZ        -0.03770   0.00842  -0.00044   0.00791  -0.00263
 160        4S         -0.28616   0.06779   0.00300  -0.12342   0.04688
 161        4PX        -0.02735  -0.00308   0.00013   0.02782  -0.01525
 162        4PY        -0.00543   0.00726   0.00050  -0.01302   0.00735
 163        4PZ        -0.01467   0.00280   0.00034   0.00442  -0.00229
 164        5S          0.01124  -0.00290   0.00744  -0.00787  -0.00966
 165        5PX         0.00300  -0.00057   0.00141   0.00296  -0.00368
 166        5PY        -0.00454   0.00199   0.00124  -0.00130   0.00093
 167        5PZ        -0.00130   0.00088   0.00130   0.00052  -0.00103
 168        6D 0        0.00081   0.00055   0.00007  -0.00124   0.00060
 169        6D+1       -0.00840   0.00053  -0.00028   0.00215  -0.00077
 170        6D-1       -0.00271   0.00180   0.00068  -0.00224  -0.00009
 171        6D+2       -0.00588  -0.00151  -0.00096   0.00486  -0.00095
 172        6D-2       -0.00557   0.00185   0.00012  -0.00118   0.00041
 173 11  O  1S         -0.08203  -0.01721  -0.01135   0.02315   0.00715
 174        2S         -0.13124  -0.02760  -0.01827   0.03743   0.01154
 175        2PX         0.00430  -0.00793  -0.00748   0.02376   0.00790
 176        2PY        -0.04408  -0.00431   0.00071  -0.02251  -0.00475
 177        2PZ        -0.02313  -0.00580  -0.00277  -0.00268   0.00066
 178        3S          0.37584   0.08022   0.05396  -0.11086  -0.03499
 179        3PX         0.00719  -0.01178  -0.01036   0.03503   0.01028
 180        3PY        -0.06554  -0.00575   0.00116  -0.03138  -0.00725
 181        3PZ        -0.03406  -0.00825  -0.00374  -0.00292   0.00025
 182        4S          0.29005   0.06147   0.04277  -0.11314  -0.02664
 183        4PX         0.00775  -0.00721  -0.00678   0.02144   0.00897
 184        4PY        -0.02837  -0.00083   0.00284  -0.01849  -0.00717
 185        4PZ        -0.01278  -0.00353  -0.00127  -0.00138  -0.00025
 186        5S         -0.00958   0.00193  -0.01825  -0.00971   0.00481
 187        5PX        -0.00460  -0.00105  -0.00387   0.00091   0.00033
 188        5PY         0.00035  -0.00013   0.00629  -0.00068  -0.00042
 189        5PZ        -0.00176  -0.00051   0.00192   0.00000  -0.00010
 190        6D 0       -0.00187   0.00063   0.00044  -0.00161  -0.00041
 191        6D+1       -0.00153   0.00119   0.00033  -0.00266   0.00028
 192        6D-1        0.00814   0.00135   0.00037   0.00024   0.00051
 193        6D+2       -0.00848  -0.00046  -0.00025  -0.00202  -0.00002
 194        6D-2       -0.00175   0.00232   0.00109  -0.00454  -0.00032
                          16        17        18        19        20
                           O         O         O         O         O
     Eigenvalues --    -0.55935  -0.47548  -0.45171  -0.44039  -0.43159
   1 1   C  1S         -0.04019  -0.00178   0.00000   0.01068   0.00393
   2        2S         -0.06288  -0.00269   0.00000   0.01702   0.00639
   3        2PX         0.05961   0.02506  -0.02965  -0.02982   0.06487
   4        2PY         0.07495  -0.04687  -0.03968  -0.06590  -0.00137
   5        2PZ         0.06773  -0.01600   0.07013  -0.04993   0.02668
   6        3S          0.17336   0.00820  -0.00000  -0.04532  -0.02429
   7        3PX         0.08178   0.03702  -0.04586  -0.04232   0.09453
   8        3PY         0.10379  -0.06413  -0.06138  -0.08964  -0.00167
   9        3PZ         0.09346  -0.02074   0.10845  -0.06866   0.03907
  10        4S          0.16746  -0.01811   0.00005  -0.08282  -0.01103
  11        4PX         0.02686   0.02202  -0.02675  -0.03030   0.03141
  12        4PY         0.03292  -0.03297  -0.03580  -0.04326   0.00540
  13        4PZ         0.03004  -0.00941   0.06325  -0.03731   0.01636
  14        5S          0.02798   0.07349   0.00013   0.00275   0.05206
  15        5PX         0.02373   0.00425  -0.00541  -0.01681   0.00135
  16        5PY        -0.00934  -0.02319  -0.00729   0.00019  -0.01169
  17        5PZ         0.00476  -0.01136   0.01277  -0.00700  -0.00606
  18        6D 0       -0.00350  -0.00200  -0.01526  -0.00399  -0.00260
  19        6D+1       -0.00486  -0.00186  -0.00293   0.00076  -0.00621
  20        6D-1       -0.00481   0.00114  -0.00558  -0.00540   0.00146
  21        6D+2        0.00170  -0.00191  -0.00318   0.00793  -0.00615
  22        6D-2       -0.01081  -0.00434   0.00825  -0.00768  -0.00840
  23 2   N  1S          0.00297   0.01220  -0.00000  -0.00834   0.01214
  24        2S          0.00482   0.01949  -0.00000  -0.01328   0.01947
  25        2PX         0.01368  -0.04774  -0.02253  -0.03369  -0.03707
  26        2PY         0.06393   0.05246  -0.03023   0.00009   0.05289
  27        2PZ         0.04203   0.00952   0.05329  -0.01416   0.01430
  28        3S         -0.01382  -0.05644   0.00001   0.03821  -0.05716
  29        3PX         0.02100  -0.06957  -0.03403  -0.05173  -0.05251
  30        3PY         0.09267   0.07573  -0.04565  -0.00002   0.07441
  31        3PZ         0.06143   0.01346   0.08048  -0.02183   0.01997
  32        4S         -0.01733  -0.06662   0.00001   0.05882  -0.06838
  33        4PX         0.01558  -0.04454  -0.02510  -0.04035  -0.03676
  34        4PY         0.04712   0.04501  -0.03367   0.00065   0.05488
  35        4PZ         0.03331   0.00665   0.05936  -0.01665   0.01556
  36        5S          0.01469  -0.00742  -0.00002   0.04951  -0.00712
  37        5PX        -0.00769   0.00691   0.00253  -0.00464   0.00752
  38        5PY        -0.01820  -0.01902   0.00334  -0.00037  -0.01468
  39        5PZ        -0.01358  -0.00785  -0.00594  -0.00217  -0.00514
  40        6D 0       -0.00109  -0.00308  -0.00523  -0.00107  -0.00167
  41        6D+1       -0.00754   0.00345  -0.00791   0.00534   0.00217
  42        6D-1       -0.00101  -0.00432   0.00325  -0.00398  -0.00134
  43        6D+2       -0.00576   0.00903   0.00475   0.00956   0.00422
  44        6D-2       -0.00759  -0.00392   0.00456   0.00091  -0.00159
  45 3   C  1S         -0.00921  -0.00174  -0.00001   0.01155  -0.01646
  46        2S         -0.01419  -0.00289  -0.00001   0.01840  -0.02629
  47        2PX        -0.03294  -0.10055  -0.01775  -0.05246  -0.10485
  48        2PY        -0.05921   0.03007  -0.02383   0.05393   0.02436
  49        2PZ        -0.04753  -0.02552   0.04199   0.00843  -0.03055
  50        3S          0.03667   0.00777   0.00003  -0.05060   0.07376
  51        3PX        -0.04532  -0.13934  -0.02748  -0.07052  -0.14539
  52        3PY        -0.08356   0.04047  -0.03688   0.07294   0.03407
  53        3PZ        -0.06658  -0.03605   0.06498   0.01160  -0.04220
  54        4S          0.01012  -0.01079   0.00003  -0.07326   0.07831
  55        4PX        -0.00517  -0.07046  -0.01726  -0.04683  -0.08641
  56        4PY        -0.04706   0.02545  -0.02316   0.03508   0.02768
  57        4PZ        -0.02888  -0.01541   0.04082   0.00012  -0.02087
  58        5S         -0.02893  -0.09903  -0.00026  -0.01111   0.02590
  59        5PX        -0.00258  -0.00333  -0.00040  -0.00678  -0.02673
  60        5PY        -0.01835  -0.02521  -0.00065  -0.00081  -0.01639
  61        5PZ        -0.01150  -0.01571   0.00102  -0.00333  -0.02060
  62        6D 0        0.00086  -0.00294   0.00492   0.00368  -0.00508
  63        6D+1        0.00205  -0.00190  -0.00572   0.00577  -0.00429
  64        6D-1       -0.00597  -0.00270   0.00677   0.00264  -0.00437
  65        6D+2        0.00735   0.00222   0.00667   0.00121   0.00260
  66        6D-2        0.00112  -0.00707  -0.00099   0.01110  -0.01287
  67 4   C  1S         -0.03901  -0.00661  -0.00000  -0.01148   0.00642
  68        2S         -0.06111  -0.01052  -0.00000  -0.01822   0.01010
  69        2PX        -0.02308   0.09097  -0.02488   0.00474   0.13045
  70        2PY        -0.08364  -0.03268  -0.03329  -0.09660   0.01143
  71        2PZ        -0.05722   0.01995   0.05880  -0.05272   0.06172
  72        3S          0.16470   0.02786   0.00001   0.04264  -0.02607
  73        3PX        -0.02970   0.12462  -0.03807   0.00858   0.17833
  74        3PY        -0.11506  -0.05036  -0.05092  -0.13726   0.01053
  75        3PZ        -0.07784   0.02415   0.08994  -0.07413   0.08148
  76        4S          0.17401   0.01208   0.00002   0.09519  -0.07140
[...]
    X6       -6.44694   0.00001   0.00000   0.00047   0.00043  -6.44651
    Y6        5.83309  -0.00001   0.00000   0.00061   0.00059   5.83368
    Z6       -0.37964  -0.00002   0.00000  -0.00149  -0.00138  -0.38101
    X7       -7.41298   0.00001   0.00000   0.00098   0.00087  -7.41211
    Y7        2.59606   0.00000   0.00000   0.00056   0.00057   2.59662
    Z7       -2.62447  -0.00002   0.00000  -0.00184  -0.00175  -2.62621
    X8       -4.15686  -0.00000   0.00000  -0.00008  -0.00002  -4.15688
    Y8        8.21669   0.00000   0.00000   0.00048   0.00045   8.21714
    Z8        1.94131  -0.00001   0.00000  -0.00090  -0.00088   1.94043
    X9       -8.82300   0.00002   0.00000  -0.00003  -0.00011  -8.82312
    Y9        7.34214  -0.00009   0.00000  -0.00007  -0.00015   7.34200
    Z9       -0.53201  -0.00003   0.00000   0.00011   0.00042  -0.53159
   X10      -10.51216  -0.00006   0.00000  -0.00063  -0.00077 -10.51293
   Y10        6.34356  -0.00004   0.00000  -0.00040  -0.00048   6.34307
   Z10       -1.81348  -0.00004   0.00000   0.00101   0.00140  -1.81207
   X11       -8.74874   0.00002   0.00000   0.00014   0.00009  -8.74865
   Y11        9.36804   0.00015   0.00000  -0.00008  -0.00019   9.36785
   Z11        0.64662   0.00010   0.00000   0.00064   0.00099   0.64762
         Item               Value     Threshold  Converged?
 Maximum Force            0.000147     0.000450     YES
 RMS     Force            0.000039     0.000300     YES
 Maximum Displacement     0.001746     0.001800     YES
 RMS     Displacement     0.000723     0.001200     YES
 Predicted change in Energy=-8.981147D-08
 Optimization completed.
    -- Stationary point found.
 GradGradGradGradGradGradGradGradGradGradGradGradGradGradGradGradGradGrad

 Leave Link  103 at Mon Jun 12 09:56:34 2023, MaxMem=  7381975040 cpu:               0.1 elap:               0.1
 (Enter /software/commercial/gaussian/g16/AVX/g16/l9999.exe)

 ----------------------------------------------------------------------

 Electric dipole moment (input orientation):
 (Debye = 10**-18 statcoulomb cm , SI units = C m)
                  (au)            (Debye)         (10**-30 SI)
   Tot        0.108559D+02      0.275929D+02      0.920401D+02
   x          0.793845D+01      0.201775D+02      0.673050D+02
   y         -0.740381D+01     -0.188186D+02     -0.627721D+02
   z          0.123076D+00      0.312827D+00      0.104348D+01

 Dipole polarizability, Alpha (input orientation).
 (esu units = cm**3 , SI units = C**2 m**2 J**-1)
 Alpha(0;0):
               (au)            (10**-24 esu)      (10**-40 SI)
   iso        0.910499D+02      0.134922D+02      0.150121D+02
   aniso      0.526132D+02      0.779647D+01      0.867475D+01
   xx         0.104969D+03      0.155548D+02      0.173070D+02
   yx        -0.106049D+02     -0.157149D+01     -0.174852D+01
   yy         0.956330D+02      0.141713D+02      0.157677D+02
   zx         0.146220D+02      0.216676D+01      0.241085D+01
   zy         0.178303D+02      0.264217D+01      0.293981D+01
   zz         0.725479D+02      0.107505D+02      0.119615D+02

 First dipole hyperpolarizability, Beta (input orientation).
 ||, _|_  parallel and perpendicular components, (z) with respect to z axis,
 vector components x,y,z.  Values do not include the 1/n! factor of 1/2.
 (esu units = statvolt**-1 cm**4 , SI units = C**3 m**3 J**-2)
 Beta(0;0,0):
               (au)            (10**-30 esu)      (10**-50 SI)
   || (z)     0.167084D+01      0.144348D-01      0.535732D-02
   _|_(z)     0.556947D+00      0.481159D-02      0.178577D-02
   x          0.239837D+03      0.207201D+01      0.769004D+00
   y         -0.167223D+03     -0.144467D+01     -0.536176D+00
   z          0.835421D+01      0.721739D-01      0.267866D-01
   ||         0.584996D+02      0.505391D+00      0.187571D+00
   xxx       -0.249338D+01     -0.215408D-01     -0.799467D-02
   xxy        0.630842D+02      0.544999D+00      0.202271D+00
   yxy       -0.886267D+00     -0.765666D-02     -0.284169D-02
   yyy       -0.937486D+02     -0.809915D+00     -0.300592D+00
   xxz       -0.115762D+01     -0.100009D-01     -0.371175D-02
   yxz        0.443423D+02      0.383083D+00      0.142178D+00
   yyz        0.597819D+02      0.516469D+00      0.191682D+00
   zxz        0.833253D+02      0.719866D+00      0.267171D+00
   zyz       -0.250765D+02     -0.216641D+00     -0.804043D-01
   zzz       -0.558395D+02     -0.482410D+00     -0.179042D+00

 ----------------------------------------------------------------------

 Dipole orientation:
     6          0.51423613          1.98896344         -7.54831134
     7          0.66516654          1.77040633         -5.06890225
     6          0.34814073         -0.78459028         -4.58470667
     6          0.00753551         -2.07838556         -6.79989298
     1          0.38549590         -1.52463187         -2.68443381
     7          0.11592391         -0.28777823         -8.69689181
     1         -0.29406605         -4.04341163         -7.22107781
     1          0.67336241          3.71177253         -8.62156624
     6         -0.14822832         -0.74839977        -11.46531129
     8         -0.49960843         -2.99466423        -12.03400586
     8          0.02392590          1.18620425        -12.77932214

 Electric dipole moment (dipole orientation):
 (Debye = 10**-18 statcoulomb cm , SI units = C m)
                  (au)            (Debye)         (10**-30 SI)
   Tot        0.108559D+02      0.275929D+02      0.920401D+02
   x          0.000000D+00      0.000000D+00      0.000000D+00
   y          0.000000D+00      0.000000D+00      0.000000D+00
   z          0.108559D+02      0.275929D+02      0.920401D+02

 Dipole polarizability, Alpha (dipole orientation).
 (esu units = cm**3 , SI units = C**2 m**2 J**-1)
 Alpha(0;0):
               (au)            (10**-24 esu)      (10**-40 SI)
   iso        0.910499D+02      0.134922D+02      0.150121D+02
   aniso      0.526132D+02      0.779647D+01      0.867475D+01
   xx         0.574957D+02      0.851998D+01      0.947975D+01
   yx         0.678617D+01      0.100561D+01      0.111889D+01
   yy         0.104487D+03      0.154834D+02      0.172276D+02
   zx         0.424406D+01      0.628905D+00      0.699751D+00
   zy         0.175622D+01      0.260245D+00      0.289562D+00
   zz         0.111167D+03      0.164732D+02      0.183289D+02

 First dipole hyperpolarizability, Beta (dipole orientation).
 ||, _|_  parallel and perpendicular components, (z) with respect to z axis,
 vector components x,y,z.  Values do not include the 1/n! factor of 1/2.
 (esu units = statvolt**-1 cm**4 , SI units = C**3 m**3 J**-2)
 Beta(0;0,0):
               (au)            (10**-30 esu)      (10**-50 SI)
   || (z)     0.579049D+02      0.500253D+00      0.185664D+00
   _|_(z)     0.193016D+02      0.166751D+00      0.618880D-01
   x          0.244531D+02      0.211256D+00      0.784056D-01
   y          0.336555D+02      0.290757D+00      0.107912D+00
   z          0.289524D+03      0.250127D+01      0.928320D+00
   ||         0.584996D+02      0.505391D+00      0.187571D+00
   xxx       -0.263201D+01     -0.227385D-01     -0.843919D-02
   xxy       -0.547290D+02     -0.472816D+00     -0.175481D+00
   yxy        0.349401D+02      0.301855D+00      0.112031D+00
   yyy        0.113559D+03      0.981060D+00      0.364111D+00
   xxz        0.959376D+02      0.828826D+00      0.307611D+00
   yxz       -0.679298D+01     -0.586860D-01     -0.217807D-01
   yyz        0.422795D+02      0.365262D+00      0.135563D+00
   zxz       -0.241570D+02     -0.208698D+00     -0.774561D-01
   zyz       -0.476115D+02     -0.411326D+00     -0.152660D+00
   zzz       -0.417089D+02     -0.360332D+00     -0.133734D+00

 ----------------------------------------------------------------------
 Unable to Open any file for archive entry.
 1\1\GINC-NODE1667\Freq\RB3LYP\6-311+G(d,p)\C4H3N2O2(1-)\SVICCHI\12-Jun
 -2023\0\\#p freq=raman scale=0.967 pop=(nbo,full,hirshfeld) guess=read
  geom=allcheck b3lyp/6-311+G(d,p) int=grid=ultrafine EmpiricalDispersi
 on=GD3BJ SCRF=(Solvent=ethanol) scf=(xqc,intrep,maxconventionalcycle=3
 50) nosymm\\IMID-CO2_binding-site_index-5.gjf\\-1,1\C,-2.2736599867,3.
 4268420576,0.4735465374\N,-1.3336113279,2.5089385303,0.351138874\C,-1.
 8920418771,1.5212494571,-0.4453846398\C,-3.1718015441,1.8620708763,-0.
 7938070044\H,-1.3405052758,0.633680966,-0.7155225408\N,-3.4115761377,3
 .0867394473,-0.2008946428\H,-3.9227802779,1.3737736197,-1.388808718\H,
 -2.1997142352,4.3480826051,1.0272985214\C,-4.6689313079,3.8852942941,-
 0.2815257069\O,-5.5627951751,3.3568665419,-0.9596496578\O,-4.629631854
 6,4.9573546044,0.3421779776\\Version=ES64L-G16RevC.01\HF=-414.4957615\
 RMSD=7.260e-09\RMSF=3.898e-05\ZeroPoint=0.0701311\Thermal=0.0763883\ET
 ot=-414.4193732\HTot=-414.4184291\GTot=-414.4565987\Dipole=1.4982155,-
 1.5618402,-0.2498342\DipoleDeriv=0.895499,-0.3113355,0.1916164,-0.1919
 701,0.0689837,-0.0548743,0.2609164,-0.1069092,0.0759922,-0.8775405,0.1
 831791,-0.0840595,0.2415372,-0.5344457,0.0438642,-0.0534352,0.0195009,
 -0.4437004,-0.0346766,-0.0135208,0.0708375,0.0707105,0.1145951,0.22110
 36,0.119736,0.1848869,-0.0678353,0.1093752,-0.1670758,0.0156613,-0.498
 1593,0.1785928,-0.024297,-0.1716249,0.1167045,-0.1579255,0.0667138,0.1
 105839,0.0027274,0.0851126,-0.0238629,-0.0956532,-0.0117642,-0.0848622
 ,0.1554304,-1.6529844,0.8181229,-0.2024354,0.887059,-0.6690433,0.04162
 58,-0.1635193,0.0124717,-0.1417642,0.1105173,-0.0348891,-0.0747766,-0.
 0046527,0.1284664,-0.0658926,-0.0589877,-0.0791253,0.1703401,0.1236483
 ,0.0008622,-0.0286684,0.0082794,0.068098,-0.0675628,-0.0244319,-0.0701
 684,0.1425067,2.966643,-0.5537067,0.7699864,-0.5905448,2.5285826,0.951
 6255,0.7500766,0.966403,1.2727459,-1.7173846,-0.2071369,-0.5920872,-0.
 2244413,-1.0343099,-0.3427804,-0.6019039,-0.3353164,-1.040886,-0.98981
 04,0.1749166,-0.068802,0.2170696,-1.8256569,-0.6071588,-0.0450621,-0.6
 235855,-0.9649039\Polar=104.9687583,-10.604922,95.6329659,14.6220295,1
 7.8302508,72.5479399\PolarDeriv=5.4215554,-6.0361852,2.1055874,-1.3509
 928,-2.9162881,-5.0757593,4.6512956,3.8944987,9.2026692,1.7878195,1.94
 9238,2.9194089,3.3894002,-3.6367556,0.0331098,0.553403,3.1109752,7.139
 2473,13.8988052,0.5181599,3.1073424,2.9418496,0.3451182,4.2574649,4.05
 26544,-6.2714186,-7.4212033,-3.7601937,-5.8912075,-6.7634368,4.6945445
 ,-5.4295376,-2.1330772,2.7387217,-4.6298733,0.7662909,4.3400258,6.8541
 608,6.9491044,-0.1514482,5.0087224,10.6272385,-4.7452822,4.4807799,-2.
 7459854,-1.4253914,5.8905552,-0.8156617,-6.2730096,4.3303904,8.0556325
 ,5.7983216,-0.0672407,2.7570121,-4.9406703,-4.2532161,-8.9784302,1.386
 6538,-0.7761945,-5.916371,-5.0942874,0.2719763,1.5128603,0.5080458,1.9
 785154,5.8295073,0.0277626,3.278266,1.2462644,-3.065697,-0.2769466,-8.
 3455549,4.2248349,-4.1444033,5.1121162,-0.3057061,0.8113961,0.5000676,
 -3.9957206,5.0164343,-9.3225252,1.8485509,-3.1583904,-1.5924507,0.1853
 887,1.2951503,-3.7876959,0.1253397,-0.8667811,-0.7019273,-8.8500533,5.
 2505892,-3.4971345,-0.0264347,-0.6704698,-0.1193607,4.1360152,-1.85550
 33,-2.4312613,2.27292,-2.5947997,-1.4689449,0.3678064,1.6127044,-4.748
 1331,-0.8174726,-0.1164544,-0.7292549,-5.2295277,-1.6955099,-2.4056386
 ,-3.2498507,-2.0577921,-3.2753915,-1.669775,-2.2341522,-2.6942528,-2.0
 510172,-2.4219556,-3.2402887,-3.7329707,-2.6155752,-3.2109458,-2.19122
 72,-2.0329202,-2.0806141,0.0744754,1.5812206,0.445219,0.947474,0.88447
 42,1.2166481,1.3459252,0.4514147,7.9205645,0.6193619,4.3310699,3.68568
 71,1.0159423,1.1554105,4.9014981,0.5841277,2.7417661,2.1415174,7.49816
 81,-0.4828477,0.1093505,3.205887,1.3646993,0.1305169,0.8939251,3.25275
 08,-5.8741418,1.0061241,-2.1280644,0.4027931,2.6059683,1.3099693,-2.31
 27878,3.1821694,-1.5081991,0.3631554,-15.7304139,-0.8347408,-3.2369248
 ,-4.7987911,-0.9890929,-2.3548231,-5.8901283,-2.9078055,-4.1675798,-0.
 8757899,-1.7925869,-1.4063759,-6.1463527,1.2377251,-1.9757702,-5.87185
 8,-1.3840424,-7.3920938,-0.7071995,3.2427723,0.2894082,1.4013592,-1.00
 45728,0.0097697,6.3153781,-4.0989752,16.0208556,0.0695698,3.837626,2.4
 497624,3.86552,-2.5377474,3.9319052,-1.0358283,5.0297166,6.082222\Hype
 rPolar=-2.4933766,63.0842217,-0.8862669,-93.7486204,-1.1576192,44.3423
 357,59.7818597,83.3253225,-25.0764892,-55.8395038\Quadrupole=-33.64362
 99,-10.9634508,44.6070807,63.4819007,-5.3793286,1.6556947\PG=C01 [X(C4
 H3N2O2)]\NImag=0\\0.53863268,-0.09127556,0.74840835,0.11593970,0.30561
 824,0.36395325,-0.24539845,0.13957045,0.00797715,0.48786401,0.15490276
 ,-0.23494769,-0.02440817,-0.12302729,0.42663863,0.01668676,-0.03088257
 ,-0.08672089,0.09343986,0.13259011,0.21573885,0.01302981,-0.00004199,0
 .00035509,-0.12645033,-0.04565626,-0.05037564,0.64117120,0.03934522,-0
 .08618251,-0.03909695,-0.03360067,-0.16228273,-0.06752628,-0.23609870,
 0.63845972,0.02270203,-0.05574028,-0.00991076,-0.04353291,-0.07265237,
 -0.12787964,0.08271656,0.18887173,0.27136439,-0.01345035,-0.00842389,-
 0.01659862,-0.03983608,-0.05417038,-0.05522814,-0.34609902,0.08420890,
 -0.07085401,0.72615545,-0.04443366,-0.04592184,-0.05305833,-0.00304698
 ,0.00514617,-0.00861845,0.07025179,-0.11204549,0.00365816,0.01633506,0
 .49888102,-0.03701024,-0.03783508,-0.02259332,-0.02624258,-0.03023621,
 -0.01020561,-0.07878664,0.00958369,-0.09395362,0.26659490,0.22255419,0
 .35757729,-0.00057445,-0.00231268,-0.00363735,0.01093204,-0.01429732,-
 0.00128636,-0.13734395,0.13251219,0.02876561,-0.00270564,0.01927784,0.
 00982962,0.13276795,-0.00185800,-0.00140304,-0.00437594,0.00866442,-0.
 01584209,-0.00237040,0.13037003,-0.24258766,-0.06672161,-0.00192649,0.
 00043463,-0.00051544,-0.13749158,0.25800173,-0.00338171,-0.00456623,0.
 00090360,0.01173538,-0.01209107,-0.00707811,0.02755769,-0.06581959,-0.
 05342852,-0.00219834,0.00845802,0.00377601,-0.03112198,0.07566893,0.05
 181837,-0.20249731,-0.03929910,-0.07916250,-0.09414613,0.07120388,-0.0
 0951717,-0.04882939,0.02601557,-0.01099727,-0.11034042,0.02036794,-0.0
 0960534,-0.00491642,0.00129812,-0.00403351,0.60654245,-0.04776692,-0.1
 2193071,-0.05071366,0.01894127,-0.01539727,-0.01412811,0.07762271,-0.0
 4057158,0.00304263,0.02421129,-0.22211817,-0.08144660,0.00263713,0.001
 76175,-0.00147626,-0.09808564,0.53762295,-0.08404048,-0.04712506,-0.13
 038544,-0.03912650,0.00799092,0.01159031,0.01827620,-0.01880558,0.0091
 0540,-0.00743661,-0.08303881,-0.11066997,-0.00327277,-0.00205070,0.003
 79687,0.15500845,0.20120833,0.28905925,-0.00174181,0.00347612,0.000104
 33,-0.00299477,0.00069054,-0.00383004,-0.00236798,-0.01416789,-0.00895
 700,-0.20499583,-0.09596352,-0.13075931,-0.00025831,0.00002605,0.00096
 693,0.00957444,0.00412144,0.00743600,0.20350809,0.00370508,-0.00420005
 ,-0.00232783,0.00407112,0.00244950,-0.00084650,0.00364273,0.00906518,0
 .00680205,-0.08731800,-0.10969722,-0.08524506,-0.00087811,-0.00080404,
 0.00059520,-0.02199292,-0.01019811,-0.01370465,0.10143101,0.11101486,0
 .00022996,-0.00242434,0.00139079,-0.00192394,-0.00228560,0.00487037,0.
 00115991,-0.00074151,-0.00013816,-0.12588036,-0.08884616,-0.12832816,0
 .00045270,0.00097933,-0.00175991,-0.00737831,-0.00263495,-0.00708200,0
 .13511288,0.09455493,0.13097987,-0.05459052,-0.01496858,-0.01977393,0.
 00548695,0.01882167,0.01495725,-0.00189055,0.00403144,-0.00135294,-0.0
 0493099,0.00147892,-0.00230661,0.00087996,0.00088838,0.00035371,0.0010
 8900,-0.02469792,-0.01361594,0.00087600,-0.00091014,-0.00081975,0.0518
 7068,-0.01968804,-0.26550430,-0.14313039,-0.00212862,-0.01361063,-0.00
 601726,0.00395986,0.00061973,-0.00177390,0.00004140,0.00155962,-0.0005
 1443,-0.00021562,-0.00006043,-0.00082433,0.00023781,-0.00210329,-0.001
 18712,0.00021020,0.00041832,-0.00057658,0.01596520,0.28009017,-0.02240
 756,-0.14122412,-0.11753366,0.00306547,0.00287120,-0.00168801,-0.00139
 650,-0.00174108,0.00512349,-0.00311929,0.00009115,0.00122909,-0.000270
 95,-0.00035731,0.00091622,0.00052877,-0.01173058,-0.00626959,-0.000184
 64,-0.00105040,0.00091854,0.02156756,0.15315563,0.11796697,-0.04588277
 ,0.00308948,-0.01403057,0.01700690,-0.01786746,-0.00580459,0.01600231,
 -0.00488623,0.00304839,-0.00250077,0.02714606,0.01729224,0.00249480,-0
 .00060257,-0.00007741,-0.06578168,-0.00607667,-0.00736416,-0.00109712,
 -0.00286783,-0.00151774,0.00101430,0.00027037,0.00112581,0.47837033,0.
 01782710,0.01390072,0.02034809,-0.01746656,0.01286633,-0.00399200,-0.0
 0811892,-0.00328510,-0.00655387,0.01982839,-0.02290424,-0.00061368,-0.
 00024087,0.00101810,-0.00059022,-0.01153252,-0.08171400,-0.01920452,-0
 .00036256,-0.00041533,0.00036805,-0.00242654,-0.00211116,-0.00149586,0
 .13861113,0.64941635,-0.00569747,0.01405468,-0.00302605,-0.00557626,-0
 .00415577,0.00212741,0.00123389,-0.00520653,-0.00020321,0.01319008,0.0
 0250393,0.00001543,0.00012904,-0.00074366,0.00150814,-0.01052121,-0.01
 687547,-0.07048912,-0.00013940,-0.00073533,-0.00169750,-0.00039896,-0.
 00034853,-0.00166122,0.18454534,0.29600568,0.47633791,0.00992014,0.010
 10469,0.00819229,-0.01112222,0.00621542,-0.00033156,-0.00440064,-0.000
 72659,-0.00243573,0.00214060,-0.00845810,-0.00429251,-0.00052459,0.000
 40596,0.00007248,-0.08105634,-0.00045181,-0.04239443,-0.00071339,0.000
 52332,0.00016743,-0.00012866,-0.00033578,-0.00020690,-0.30848271,-0.12
 593724,-0.16705801,0.38811355,0.00119115,-0.00060162,-0.00215817,0.002
 18116,0.00063182,0.00243670,-0.00132619,0.00154845,0.00010017,0.001781
 52,-0.00234289,-0.00104347,0.00000772,-0.00005755,0.00005858,0.0124524
 6,0.01491741,0.00332937,0.00088350,0.00194015,0.00156578,0.00063208,0.
 00033538,0.00050456,-0.12764138,-0.16627602,-0.10111577,0.15902920,0.1
 9398611,0.00315656,0.00163081,0.00633657,-0.00261342,0.00415431,-0.000
 79747,-0.00278411,0.00035619,-0.00058646,0.00149251,-0.00544784,-0.001
 58164,-0.00015249,0.00022706,-0.00009079,-0.03507702,-0.00214643,0.002
 28787,0.00037512,0.00148563,0.00060124,0.00033564,0.00009374,0.0001200
 2,-0.16798257,-0.10045936,-0.21124179,0.24107930,0.15910563,0.22462317
 ,0.00255301,0.00008107,0.00063442,-0.00134192,0.00318444,0.00128963,-0
 .00282146,0.00336676,0.00089729,-0.00343695,-0.00295534,-0.00471351,-0
 .00075138,0.00022569,0.00012676,-0.00963818,0.04954513,0.01653025,0.00
 021069,0.00059374,0.00039722,0.00032384,0.00168321,0.00129821,-0.09114
 360,-0.01018142,-0.00970705,0.00625426,-0.04919123,-0.03782954,0.09979
 167,-0.01194913,-0.00161728,-0.00669688,0.00584169,-0.00565203,-0.0006
 4523,0.00539494,-0.00273802,0.00096728,0.00543220,0.00900842,0.0053120
 9,0.00100129,-0.00046139,0.00058696,0.03933440,-0.06026898,-0.02741219
 ,-0.00034489,0.00042675,0.00004107,0.00118551,0.00036660,0.00097682,-0
 .00917489,-0.40049564,-0.18338324,-0.04036907,-0.04408123,-0.05899975,
 0.00364795,0.50551281,-0.00617755,-0.00150606,-0.00241407,0.00279774,-
 0.00177734,0.00004278,0.00204355,0.00012591,0.00050709,0.00003789,0.00
 174413,0.00473450,0.00056494,0.00025976,-0.00036188,0.01075510,-0.0230
 9891,0.00905642,-0.00012488,0.00047194,0.00024491,0.00105397,0.0011231
 7,0.00087815,-0.00923475,-0.18381231,-0.19167000,-0.03279236,-0.062783
 37,-0.01967073,0.03107634,0.26925308,0.19865284\\0.00000219,-0.0000039
 9,-0.00000163,0.00000115,0.00000542,-0.00000759,0.00000171,0.00000199,
 0.00000005,-0.00000894,-0.00000340,0.00000642,0.00000171,0.00000914,-0
 .00001176,-0.00000535,0.00000816,0.00001519,-0.00000612,-0.00000144,0.
 00001678,0.00000026,-0.00000436,0.00000702,-0.00002464,0.00009269,0.00
 003387,0.00005514,0.00004277,0.00004202,-0.00001709,-0.00014698,-0.000
 10036\\\@
 The archive entry for this job was punched.


 WE THE UNWILLING
 LED BY THE UNQUALIFIED
 HAVE BEEN DOING THE UNBELIEVABLE SO LONG WITH SO LITTLE
 THAT WE NOW ATTEMPT THE IMPOSSIBLE WITH NOTHING.

                                    -- ANONYMOUS
 Job cpu time:       0 days  0 hours 16 minutes 56.8 seconds.
 Elapsed time:       0 days  0 hours  8 minutes 31.8 seconds.
 File lengths (MBytes):  RWF=    107 Int=      0 D2E=      0 Chk=     14 Scr=      1
 Normal termination of Gaussian 16 at Mon Jun 12 09:56:35 2023.
