 Entering Gaussian System, Link 0=g16
 Input=2methylimidazolide-H_dissociation-site_index-1-freq.gjf
 Output=2methylimidazolide-H_dissociation-site_index-1-freq.log
 Initial command:
 /software/commercial/gaussian/g16/AVX/g16/l1.exe "/scratch1/svicchi/G09-659805.pbs02/Gau-1181741.inp" -scrdir="/scratch1/svicchi/G09-659805.pbs02/"
 Entering Link 1 = /software/commercial/gaussian/g16/AVX/g16/l1.exe PID=   1181742.
  
 Copyright (c) 1988-2019, Gaussian, Inc.  All Rights Reserved.
  
 This is part of the Gaussian(R) 16 program.  It is based on
 the Gaussian(R) 09 system (copyright 2009, Gaussian, Inc.),
 the Gaussian(R) 03 system (copyright 2003, Gaussian, Inc.),
 the Gaussian(R) 98 system (copyright 1998, Gaussian, Inc.),
 the Gaussian(R) 94 system (copyright 1995, Gaussian, Inc.),
 the Gaussian 92(TM) system (copyright 1992, Gaussian, Inc.),
 the Gaussian 90(TM) system (copyright 1990, Gaussian, Inc.),
 the Gaussian 88(TM) system (copyright 1988, Gaussian, Inc.),
 the Gaussian 86(TM) system (copyright 1986, Carnegie Mellon
 University), and the Gaussian 82(TM) system (copyright 1983,
 Carnegie Mellon University). Gaussian is a federally registered
 trademark of Gaussian, Inc.
  
 This software contains proprietary and confidential information,
 including trade secrets, belonging to Gaussian, Inc.
  
 This software is provided under written license and may be
 used, copied, transmitted, or stored only in accord with that
 written license.
  
 The following legend is applicable only to US Government
 contracts under FAR:
  
                    RESTRICTED RIGHTS LEGEND
  
 Use, reproduction and disclosure by the US Government is
 subject to restrictions as set forth in subparagraphs (a)
 and (c) of the Commercial Computer Software - Restricted
 Rights clause in FAR 52.227-19.
  
 Gaussian, Inc.
 340 Quinnipiac St., Bldg. 40, Wallingford CT 06492
  
  
 ---------------------------------------------------------------
 Warning -- This program may not be used in any manner that
 competes with the business of Gaussian, Inc. or will provide
 assistance to any competitor of Gaussian, Inc.  The licensee
 of this program is prohibited from giving any competitor of
 Gaussian, Inc. access to this program.  By using this program,
 the user acknowledges that Gaussian, Inc. is engaged in the
 business of creating and licensing software in the field of
 computational chemistry and represents and warrants to the
 licensee that it is not a competitor of Gaussian, Inc. and that
 it will not use this program in any manner prohibited above.
 ---------------------------------------------------------------
  

 Cite this work as:
 Gaussian 16, Revision C.01,
 M. J. Frisch, G. W. Trucks, H. B. Schlegel, G. E. Scuseria, 
 M. A. Robb, J. R. Cheeseman, G. Scalmani, V. Barone, 
 G. A. Petersson, H. Nakatsuji, X. Li, M. Caricato, A. V. Marenich, 
 J. Bloino, B. G. Janesko, R. Gomperts, B. Mennucci, H. P. Hratchian, 
 J. V. Ortiz, A. F. Izmaylov, J. L. Sonnenberg, D. Williams-Young, 
 F. Ding, F. Lipparini, F. Egidi, J. Goings, B. Peng, A. Petrone, 
 T. Henderson, D. Ranasinghe, V. G. Zakrzewski, J. Gao, N. Rega, 
 G. Zheng, W. Liang, M. Hada, M. Ehara, K. Toyota, R. Fukuda, 
 J. Hasegawa, M. Ishida, T. Nakajima, Y. Honda, O. Kitao, H. Nakai, 
 T. Vreven, K. Throssell, J. A. Montgomery, Jr., J. E. Peralta, 
 F. Ogliaro, M. J. Bearpark, J. J. Heyd, E. N. Brothers, K. N. Kudin, 
 V. N. Staroverov, T. A. Keith, R. Kobayashi, J. Normand, 
 K. Raghavachari, A. P. Rendell, J. C. Burant, S. S. Iyengar, 
 J. Tomasi, M. Cossi, J. M. Millam, M. Klene, C. Adamo, R. Cammi, 
 J. W. Ochterski, R. L. Martin, K. Morokuma, O. Farkas, 
 J. B. Foresman, and D. J. Fox, Gaussian, Inc., Wallingford CT, 2019.
 
 ******************************************
 Gaussian 16:  ES64L-G16RevC.01  3-Jul-2019
                 2-Jun-2023 
 ******************************************
 %NProcShared=2
 Will use up to    2 processors via shared memory.
 %mem=55gb
 %chk=/scratch1/svicchi/G09-659805.pbs02/02-freq/2methylimidazolide-H_dissociatio
 n-site_index-1-freq.chk
 ----------------------------------------------------------------------
 #p freq=raman scale=0.967 pop=(nbo,full,hirshfeld) guess=read geom=all
 check b3lyp/6-311+G(d,p) int=grid=ultrafine EmpiricalDispersion=GD3BJ 
 SCRF=(Solvent=ethanol) scf=(xqc,intrep,maxconventionalcycle=350) nosym
 m
 ----------------------------------------------------------------------
 1/10=4,29=7,30=1,38=1,114=967000/1,3;
 2/12=2,15=1,40=1/2;
 3/5=4,6=6,7=111,11=2,14=-4,25=1,30=1,70=2201,71=2,72=4,74=-5,75=-5,116=-2,124=41,140=1/1,2,3;
 4/5=1/1;
 5/5=2,8=3,13=1,17=20,38=6,53=4,85=350,98=1/2,8;
 8/6=4,10=90,11=11/1;
 10/13=10,15=4,31=1/2;
 11/6=3,8=1,9=11,15=111,16=1,31=1/1,2,10;
 10/6=1,31=1/2;
 6/7=3,28=1,40=1,79=1/1,7;
 7/8=1,10=1,25=1,30=1/1,2,3,16;
 1/10=4,30=1/3;
 99//99;
 Leave Link    1 at Fri Jun  2 11:16:43 2023, MaxMem=  7381975040 cpu:               1.5 elap:               1.6
 (Enter /software/commercial/gaussian/g16/AVX/g16/l101.exe)
 Structure from the checkpoint file:  "/scratch1/svicchi/G09-659805.pbs02/02-freq/2methylimidazolide-H_dissociation-site_index-1-freq.chk"
 --------------------------------------------------
 2methylimidazolide-H_dissociation-site_index-1.gjf
 --------------------------------------------------
 Charge =  0 Multiplicity = 1
 No Z-Matrix found in chk file; cartesian coordinates used.
  N                                                -1.154922628719     -0.042561528789      0.002570898456
  N                                                 0.950626832521     -0.704042337207      0.014629643100
  C                                                -0.357175272266     -1.097364033119      0.010317729083
  C                                                -0.781045084516     -2.526643808487      0.013948889528
  C                                                -0.326641598028      1.065706845687      0.001906131974
  C                                                 0.985525635465      0.676086653664      0.009307720670
  H                                                -0.405829655142     -3.056151192809     -0.866388055450
  H                                                -0.411436203559     -3.049999320424      0.900303103276
  H                                                -1.869207830834     -2.576544523288      0.010640695389
  H                                                -0.722975889798      2.069002953283     -0.003824479583
  H                                                 1.910698034891      1.226841051000      0.011327455565
  H                                                 1.753668659986     -1.315044759512      0.020713267992
 Recover connectivity data from disk.
 ITRead=  0  0  0  0  0  0  0  0  0  0  0  0
 MicOpt= -1 -1 -1 -1 -1 -1 -1 -1 -1 -1 -1 -1
 NAtoms=     12 NQM=       12 NQMF=       0 NMMI=      0 NMMIF=      0
                NMic=       0 NMicF=      0.
                    Isotopes and Nuclear Properties:
 (Nuclear quadrupole moments (NQMom) in fm**2, nuclear magnetic moments (NMagM)
  in nuclear magnetons)

  Atom         1           2           3           4           5           6           7           8           9          10
 IAtWgt=          14          14          12          12          12          12           1           1           1           1
 AtmWgt=  14.0030740  14.0030740  12.0000000  12.0000000  12.0000000  12.0000000   1.0078250   1.0078250   1.0078250   1.0078250
 NucSpn=           2           2           0           0           0           0           1           1           1           1
 AtZEff=   4.5500000   4.5500000   3.6000000   3.6000000   3.6000000   3.6000000   1.0000000   1.0000000   1.0000000   1.0000000
 NQMom=    2.0440000   2.0440000   0.0000000   0.0000000   0.0000000   0.0000000   0.0000000   0.0000000   0.0000000   0.0000000
 NMagM=    0.4037610   0.4037610   0.0000000   0.0000000   0.0000000   0.0000000   2.7928460   2.7928460   2.7928460   2.7928460
 AtZNuc=   7.0000000   7.0000000   6.0000000   6.0000000   6.0000000   6.0000000   1.0000000   1.0000000   1.0000000   1.0000000

  Atom        11          12
 IAtWgt=           1           1
 AtmWgt=   1.0078250   1.0078250
 NucSpn=           1           1
 AtZEff=   1.0000000   1.0000000
 NQMom=    0.0000000   0.0000000
 NMagM=    2.7928460   2.7928460
 AtZNuc=   1.0000000   1.0000000
 Leave Link  101 at Fri Jun  2 11:16:45 2023, MaxMem=  7381975040 cpu:               0.4 elap:               1.2
 (Enter /software/commercial/gaussian/g16/AVX/g16/l103.exe)

 GradGradGradGradGradGradGradGradGradGradGradGradGradGradGradGradGradGrad
 Berny optimization.
 Initialization pass.
 Trust Radius=3.00D-01 FncErr=1.00D-07 GrdErr=1.00D-07 EigMax=2.50D+02 EigMin=1.00D-04
 Number of steps in this run=      2 maximum allowed number of steps=      2.
 GradGradGradGradGradGradGradGradGradGradGradGradGradGradGradGradGradGrad

 Leave Link  103 at Fri Jun  2 11:16:47 2023, MaxMem=  7381975040 cpu:               0.1 elap:               1.1
 (Enter /software/commercial/gaussian/g16/AVX/g16/l202.exe)
                          Input orientation:                          
 ---------------------------------------------------------------------
 Center     Atomic      Atomic             Coordinates (Angstroms)
 Number     Number       Type             X           Y           Z
 ---------------------------------------------------------------------
      1          7           0       -1.154923   -0.042562    0.002571
      2          7           0        0.950627   -0.704042    0.014630
      3          6           0       -0.357175   -1.097364    0.010318
      4          6           0       -0.781045   -2.526644    0.013949
      5          6           0       -0.326642    1.065707    0.001906
      6          6           0        0.985526    0.676087    0.009308
      7          1           0       -0.405830   -3.056151   -0.866388
      8          1           0       -0.411436   -3.049999    0.900303
      9          1           0       -1.869208   -2.576545    0.010641
     10          1           0       -0.722976    2.069003   -0.003824
     11          1           0        1.910698    1.226841    0.011327
     12          1           0        1.753669   -1.315045    0.020713
 ---------------------------------------------------------------------
                    Distance matrix (angstroms):
                    1          2          3          4          5
     1  N    0.000000
     2  N    2.207043   0.000000
     3  C    1.322524   1.365675   0.000000
     4  C    2.512087   2.514073   1.490812   0.000000
     5  C    1.383585   2.182565   2.163303   3.620996   0.000000
     6  C    2.257879   1.380580   2.224404   3.657633   1.368810
     7  H    3.224586   2.854572   2.146585   1.093690   4.213065
     8  H    3.225427   2.853620   2.146579   1.093680   4.213472
     9  H    2.632743   3.384930   2.115235   1.089311   3.955450
    10  H    2.155301   3.238992   3.187458   4.596048   1.078757
    11  H    3.318055   2.156399   3.247334   4.618889   2.243154
    12  H    3.174814   1.009077   2.122064   2.809411   3.161649
                    6          7          8          9         10
     6  C    0.000000
     7  H    4.078273   0.000000
     8  H    4.077878   1.766711   0.000000
     9  H    4.327715   1.772196   1.772218   0.000000
    10  H    2.204397   5.206900   5.207561   4.784890   0.000000
    11  H    1.076698   4.947798   4.947115   5.362223   2.765087
    12  H    2.134193   2.912359   2.910571   3.836237   4.193584
                   11         12
    11  H    0.000000
    12  H    2.546749   0.000000
 Symmetry turned off by external request.
 Stoichiometry    C4H6N2
 Framework group  C1[X(C4H6N2)]
 Deg. of freedom    30
 Full point group                 C1      NOp   1
 Rotational constants (GHZ):           8.9396292           3.5858433           2.6007027
 Leave Link  202 at Fri Jun  2 11:16:50 2023, MaxMem=  7381975040 cpu:               0.1 elap:               1.9
 (Enter /software/commercial/gaussian/g16/AVX/g16/l301.exe)
 Standard basis: 6-311+G(d,p) (5D, 7F)
 Ernie: Thresh=  0.10000D-02 Tol=  0.10000D-05 Strict=F.
   168 basis functions,   264 primitive gaussians,   174 cartesian basis functions
    22 alpha electrons       22 beta electrons
       nuclear repulsion energy       224.7185572316 Hartrees.
 IExCor=  402 DFT=T Ex+Corr=B3LYP ExCW=0 ScaHFX=  0.200000
 ScaDFX=  0.800000  0.720000  1.000000  0.810000 ScalE2=  1.000000  1.000000
 IRadAn=      5 IRanWt=     -1 IRanGd=            0 ICorTp=0 IEmpDi=141
 NAtoms=   12 NActive=   12 NUniq=   12 SFac= 1.00D+00 NAtFMM=   60 NAOKFM=F Big=F
 Integral buffers will be    131072 words long.
 Raffenetti 2 integral format.
 Two-electron integral symmetry is turned off.
 R6Disp:  Grimme-D3(BJ) Dispersion energy=       -0.0160796501 Hartrees.
 Nuclear repulsion after empirical dispersion term =      224.7024775816 Hartrees.
 Force inversion solution in PCM.
 ------------------------------------------------------------------------------
 Polarizable Continuum Model (PCM)
 =================================
 Model                : PCM.
 Atomic radii         : UFF (Universal Force Field).
 Polarization charges : Total charges.
 Charge compensation  : None.
 Solution method      : Matrix inversion.
 Cavity type          : Scaled VdW (van der Waals Surface) (Alpha=1.100).
 Cavity algorithm     : GePol (No added spheres)
                        Default sphere list used, NSphG=   12.
                        Lebedev-Laikov grids with approx.  5.0 points / Ang**2.
                        Smoothing algorithm: York/Karplus (Gamma=1.0000).
                        Polarization charges: spherical gaussians, with
                                              point-specific exponents (IZeta= 3).
                        Self-potential: point-specific (ISelfS= 7).
                        Self-field    : sphere-specific E.n sum rule (ISelfD= 2).
 1st derivatives      : Analytical E(r).r(x)/FMM algorithm (CHGder, D1EAlg=3).
                        Cavity 1st derivative terms included.
 2nd derivatives      : Analytical E(r).r(xy)/FMM algorithm (CHGder, D2EAlg=3).
                        Cavity 2nd derivative terms included.
 Solvent              : Ethanol, Eps=  24.852000 Eps(inf)=   1.852593
 ------------------------------------------------------------------------------
 Spheres list:
 ISph  on   Nord     Re0    Alpha      Xe            Ye            Ze
    1   N      1    1.8300  1.100     -1.154923     -0.042562      0.002571
    2   N      2    1.8300  1.100      0.950627     -0.704042      0.014630
    3   C      3    1.9255  1.100     -0.357175     -1.097364      0.010318
    4   C      4    1.9255  1.100     -0.781045     -2.526644      0.013949
    5   C      5    1.9255  1.100     -0.326642      1.065707      0.001906
    6   C      6    1.9255  1.100      0.985526      0.676087      0.009308
    7   H      7    1.4430  1.100     -0.405830     -3.056151     -0.866388
    8   H      8    1.4430  1.100     -0.411436     -3.049999      0.900303
    9   H      9    1.4430  1.100     -1.869208     -2.576545      0.010641
   10   H     10    1.4430  1.100     -0.722976      2.069003     -0.003824
   11   H     11    1.4430  1.100      1.910698      1.226841      0.011327
   12   H     12    1.4430  1.100      1.753669     -1.315045      0.020713
 ------------------------------------------------------------------------------
 GePol: Number of generator spheres                  =      12
 GePol: Total number of spheres                      =      12
 GePol: Number of exposed spheres                    =      12 (100.00%)
 GePol: Number of points                             =    1085
 GePol: Average weight of points                     =       0.13
 GePol: Minimum weight of points                     =   0.76D-08
 GePol: Maximum weight of points                     =    0.20577
 GePol: Number of points with low weight             =      60
 GePol: Fraction of low-weight points (<1% of avg)   =       5.53%
 GePol: Cavity surface area                          =    143.783 Ang**2
 GePol: Cavity volume                                =    131.996 Ang**3
 Leave Link  301 at Fri Jun  2 11:16:53 2023, MaxMem=  7381975040 cpu:               1.0 elap:               1.6
 (Enter /software/commercial/gaussian/g16/AVX/g16/l302.exe)
 NPDir=0 NMtPBC=     1 NCelOv=     1 NCel=       1 NClECP=     1 NCelD=      1
         NCelK=      1 NCelE2=     1 NClLst=     1 CellRange=     0.0.
 One-electron integrals computed using PRISM.
 NBasis=   168 RedAO= T EigKep=  1.88D-05  NBF=   168
 NBsUse=   168 1.00D-06 EigRej= -1.00D+00 NBFU=   168
 Precomputing XC quadrature grid using
 IXCGrd= 4 IRadAn=           5 IRanWt=          -1 IRanGd=           0 AccXCQ= 0.00D+00.
 Generated NRdTot=       0 NPtTot=           0 NUsed=           0 NTot=          32
 NSgBfM=   174   174   174   174   174 MxSgAt=    12 MxSgA2=    12.
 Leave Link  302 at Fri Jun  2 11:16:55 2023, MaxMem=  7381975040 cpu:               0.6 elap:               0.9
 (Enter /software/commercial/gaussian/g16/AVX/g16/l303.exe)
 DipDrv:  MaxL=1.
 Leave Link  303 at Fri Jun  2 11:16:58 2023, MaxMem=  7381975040 cpu:               0.4 elap:               1.5
 (Enter /software/commercial/gaussian/g16/AVX/g16/l401.exe)
 Initial guess from the checkpoint file:  "/scratch1/svicchi/G09-659805.pbs02/02-freq/2methylimidazolide-H_dissociation-site_index-1-freq.chk"
 B after Tr=     0.000000    0.000000    0.000000
         Rot=    1.000000    0.000000    0.000000    0.000000 Ang=   0.00 deg.
 Guess basis will be translated and rotated to current coordinates.
 JPrj=2 DoOrth=T DoCkMO=T.
 Leave Link  401 at Fri Jun  2 11:17:00 2023, MaxMem=  7381975040 cpu:               0.6 elap:               1.4
 (Enter /software/commercial/gaussian/g16/AVX/g16/l502.exe)
 Keep R1 ints in memory in canonical form, NReq=103450806.
 FoFCou: FMM=F IPFlag=           0 FMFlag=           0 FMFlg1=           0
         NFxFlg=           0 DoJE=F BraDBF=F KetDBF=F FulRan=T
         wScrn=  0.000000 ICntrl=       600 IOpCl=  0 I1Cent=           0 NGrid=           0
         NMat0=    1 NMatS0=  14196 NMatT0=    0 NMatD0=    1 NMtDS0=    0 NMtDT0=    0
 Symmetry not used in FoFCou.
 Two-electron integral symmetry not used.
 Closed shell SCF:
 Using DIIS extrapolation, IDIIS=  1040.
 NGot=  7381975040 LenX=  7281141454 LenY=  7281110737
 Requested convergence on RMS density matrix=1.00D-08 within 350 cycles.
 Requested convergence on MAX density matrix=1.00D-06.
 Requested convergence on             energy=1.00D-06.
 No special actions if energy rises.

 Cycle   1  Pass 1  IDiag  1:
 Inv3:  Mode=1 IEnd=     3531675.
 Iteration    1 A*A^-1 deviation from unit magnitude is 3.33D-15 for   1076.
 Iteration    1 A*A^-1 deviation from orthogonality  is 2.16D-15 for   1075    450.
 Iteration    1 A^-1*A deviation from unit magnitude is 3.33D-15 for   1076.
 Iteration    1 A^-1*A deviation from orthogonality  is 1.53D-15 for    693    607.
 E= -265.641802570823    
 DIIS: error= 7.97D-08 at cycle   1 NSaved=   1.
 NSaved= 1 IEnMin= 1 EnMin= -265.641802570823     IErMin= 1 ErrMin= 7.97D-08
 ErrMax= 7.97D-08  0.00D+00 EMaxC= 1.00D-01 BMatC= 4.55D-13 BMatP= 4.55D-13
 IDIUse=1 WtCom= 1.00D+00 WtEn= 0.00D+00
 Coeff-Com:  0.100D+01
 Coeff:      0.100D+01
 Gap=     0.238 Goal=   None    Shift=    0.000
 RMSDP=1.20D-08 MaxDP=4.36D-07              OVMax= 8.42D-07

 Cycle   2  Pass 1  IDiag  1:
 E= -265.641802570822     Delta-E=        0.000000000001 Rises=F Damp=F
 DIIS: error= 1.34D-07 at cycle   2 NSaved=   2.
 NSaved= 2 IEnMin= 1 EnMin= -265.641802570823     IErMin= 1 ErrMin= 7.97D-08
 ErrMax= 1.34D-07  0.00D+00 EMaxC= 1.00D-01 BMatC= 1.30D-12 BMatP= 4.55D-13
 IDIUse=1 WtCom= 1.00D+00 WtEn= 0.00D+00
 Coeff-Com:  0.628D+00 0.372D+00
 Coeff:      0.628D+00 0.372D+00
 Gap=     0.238 Goal=   None    Shift=    0.000
 RMSDP=7.50D-09 MaxDP=2.76D-07 DE= 9.66D-13 OVMax= 5.26D-07

 Error on total polarization charges =  0.01336
 SCF Done:  E(RB3LYP) =  -265.641802571     A.U. after    2 cycles
            NFock=  2  Conv=0.75D-08     -V/T= 2.0044
 KE= 2.644677521522D+02 PE=-1.067438584047D+03 EE= 3.126265517424D+02
 Leave Link  502 at Fri Jun  2 11:17:15 2023, MaxMem=  7381975040 cpu:              23.3 elap:              14.1
 (Enter /software/commercial/gaussian/g16/AVX/g16/l508.exe)
 QCSCF skips out because SCF is already converged.
 Leave Link  508 at Fri Jun  2 11:17:17 2023, MaxMem=  7381975040 cpu:               0.0 elap:               0.6
 (Enter /software/commercial/gaussian/g16/AVX/g16/l801.exe)
 DoSCS=F DFT=T ScalE2(SS,OS)=  1.000000  1.000000
 Range of M.O.s used for correlation:     1   168
 NBasis=   168 NAE=    22 NBE=    22 NFC=     0 NFV=     0
 NROrb=    168 NOA=    22 NOB=    22 NVA=   146 NVB=   146

 **** Warning!!: The largest alpha MO coefficient is  0.56154623D+02

 Leave Link  801 at Fri Jun  2 11:17:19 2023, MaxMem=  7381975040 cpu:               0.1 elap:               0.6
 (Enter /software/commercial/gaussian/g16/AVX/g16/l1002.exe)
 Minotr:  Closed shell wavefunction.
 NEqPCM:  Using equilibrium solvation (IEInf=0, Eps=  24.8520, EpsInf=   1.8526)
          Direct CPHF calculation.
          Differentiating once with respect to electric field.
                with respect to dipole field.
          Electric field/nuclear overlap derivatives assumed to be zero.
          Requested convergence is 1.0D-08 RMS, and 1.0D-07 maximum.
          Secondary convergence is 1.0D-12 RMS, and 1.0D-12 maximum.
          NewPWx=F KeepS1=T KeepF1=T KeepIn=T MapXYZ=F SortEE=F KeepMc=T.
         3668 words used for storage of precomputed grid.
 Keep R1 ints in memory in canonical form, NReq=104926257.
 FoFCou: FMM=F IPFlag=           0 FMFlag=           0 FMFlg1=           0
         NFxFlg=           0 DoJE=F BraDBF=F KetDBF=F FulRan=T
         wScrn=  0.000000 ICntrl=       600 IOpCl=  0 I1Cent=           0 NGrid=           0
         NMat0=    1 NMatS0=  14196 NMatT0=    0 NMatD0=    1 NMtDS0=    0 NMtDT0=    0
 Symmetry not used in FoFCou.
 Two-electron integral symmetry not used.
          MDV=    7381975040 using IRadAn=       1.
          Solving linear equations simultaneously, MaxMat=       0.
          There are     3 degrees of freedom in the 1st order CPHF.  IDoFFX=0 NUNeed=     3.
      3 vectors produced by pass  0 Test12= 1.07D-13 3.33D-08 XBig12= 6.38D+01 4.13D+00.
 AX will form     3 AO Fock derivatives at one time.
      3 vectors produced by pass  1 Test12= 1.07D-13 3.33D-08 XBig12= 3.16D+01 1.29D+00.
      3 vectors produced by pass  2 Test12= 1.07D-13 3.33D-08 XBig12= 3.17D+00 3.72D-01.
      3 vectors produced by pass  3 Test12= 1.07D-13 3.33D-08 XBig12= 7.61D-01 2.75D-01.
      3 vectors produced by pass  4 Test12= 1.07D-13 3.33D-08 XBig12= 1.10D-01 5.66D-02.
      3 vectors produced by pass  5 Test12= 1.07D-13 3.33D-08 XBig12= 1.26D-02 3.55D-02.
      3 vectors produced by pass  6 Test12= 1.07D-13 3.33D-08 XBig12= 1.53D-03 7.46D-03.
      3 vectors produced by pass  7 Test12= 1.07D-13 3.33D-08 XBig12= 9.90D-05 2.00D-03.
      3 vectors produced by pass  8 Test12= 1.07D-13 3.33D-08 XBig12= 2.97D-06 3.20D-04.
      3 vectors produced by pass  9 Test12= 1.07D-13 3.33D-08 XBig12= 4.96D-08 7.80D-05.
      2 vectors produced by pass 10 Test12= 1.07D-13 3.33D-08 XBig12= 1.57D-09 8.46D-06.
      2 vectors produced by pass 11 Test12= 1.07D-13 3.33D-08 XBig12= 3.90D-11 1.14D-06.
      2 vectors produced by pass 12 Test12= 1.07D-13 3.33D-08 XBig12= 8.62D-13 1.84D-07.
 InvSVY:  IOpt=1 It=  1 EMax= 1.98D-15
 Solved reduced A of dimension    36 with     3 vectors.
 End of Minotr F.D. properties file   721 does not exist.
 End of Minotr F.D. properties file   722 does not exist.
 End of Minotr F.D. properties file   788 does not exist.
 Leave Link 1002 at Fri Jun  2 11:18:15 2023, MaxMem=  7381975040 cpu:              97.9 elap:              55.3
 (Enter /software/commercial/gaussian/g16/AVX/g16/l1101.exe)
 Using compressed storage, NAtomX=    12.
 Will process     13 centers per pass.
 R6Disp: Adding Grimme-D3(BJ) dispersion energy 1st derivatives to the gradient.
 Leave Link 1101 at Fri Jun  2 11:18:17 2023, MaxMem=  7381975040 cpu:               0.5 elap:               1.0
 (Enter /software/commercial/gaussian/g16/AVX/g16/l1102.exe)
 Symmetrizing basis deriv contribution to polar:
 IMax=3 JMax=2 DiffMx= 0.00D+00
 Leave Link 1102 at Fri Jun  2 11:18:20 2023, MaxMem=  7381975040 cpu:               0.1 elap:               1.9
 (Enter /software/commercial/gaussian/g16/AVX/g16/l1110.exe)
 Forming Gx(P) for the SCF density, NAtomX=    12.
 Integral derivatives from FoFJK, PRISM(SPDF).
 Do as many integral derivatives as possible in FoFJK.
 G2DrvN: MDV=    7381973668.
 G2DrvN: will do    13 centers at a time, making    1 passes.
 PxScal for G2LodP:  IOpCl= 0 ISclPx=1 IMOff=     1 NMtTot=     4 NTT=   14196 ScalPx= 6.48D+00
 Calling FoFCou, ICntrl=  3107 FMM=F I1Cent=   0 AccDes= 0.00D+00.
 FoFJK:  IHMeth= 1 ICntrl=    3107 DoSepK=F KAlg= 0 I1Cent=           0 FoldK=F
 IRaf=         0 NMat=       1 IRICut=       1 DoRegI=T DoRafI=F ISym2E= 0 IDoP0=0 IntGTp=1.
 FoFCou: FMM=F IPFlag=           0 FMFlag=      100000 FMFlg1=           0
         NFxFlg=           0 DoJE=F BraDBF=F KetDBF=F FulRan=T
         wScrn=  0.000000 ICntrl=      3107 IOpCl=  0 I1Cent=           0 NGrid=           0
         NMat0=    1 NMatS0=      1 NMatT0=    0 NMatD0=    4 NMtDS0=    3 NMtDT0=    0
 Symmetry not used in FoFCou.
 PxScal for G2LodP:  IOpCl= 0 ISclPx=0 IMOff=     1 NMtTot=     4 NTT=   14196 ScalPx= 1.00D+00
 NEqPCM:  Using equilibrium solvation (IEInf=0, Eps=  24.8520, EpsInf=   1.8526)
 G2PCM: DoFxE=T DoFxN=T DoGrad=T DoDP/DQ/DG/TGxP=TFFF NFrqRd=   0 IEInf=0 SqF1=F DoCFld=F IF1Alg=4.
 GePol: Maximum number of non-zero 1st derivatives   =     229
 End of G2Drv F.D. properties file   721 does not exist.
 End of G2Drv F.D. properties file   722 does not exist.
 End of G2Drv F.D. properties file   788 does not exist.
 Leave Link 1110 at Fri Jun  2 11:20:42 2023, MaxMem=  7381975040 cpu:             276.7 elap:             141.7
 (Enter /software/commercial/gaussian/g16/AVX/g16/l1002.exe)
 Minotr:  Closed shell wavefunction.
          IDoAtm=111111111111
 NEqPCM:  Using equilibrium solvation (IEInf=0, Eps=  24.8520, EpsInf=   1.8526)
          Direct CPHF calculation.
          Differentiating once with respect to electric field.
                with respect to dipole field.
          Differentiating once with respect to nuclear coordinates.
          Requested convergence is 1.0D-08 RMS, and 1.0D-07 maximum.
          Secondary convergence is 1.0D-12 RMS, and 1.0D-12 maximum.
          NewPWx=T KeepS1=F KeepF1=F KeepIn=T MapXYZ=F SortEE=F KeepMc=T.
         3668 words used for storage of precomputed grid.
 Keep R1 ints in memory in canonical form, NReq=104926533.
 FoFCou: FMM=F IPFlag=           0 FMFlag=           0 FMFlg1=           0
         NFxFlg=           0 DoJE=F BraDBF=F KetDBF=F FulRan=T
         wScrn=  0.000000 ICntrl=       600 IOpCl=  0 I1Cent=           0 NGrid=           0
         NMat0=    1 NMatS0=  14196 NMatT0=    0 NMatD0=    1 NMtDS0=    0 NMtDT0=    0
 Symmetry not used in FoFCou.
 Two-electron integral symmetry not used.
          MDV=    7381975040 using IRadAn=       1.
          Solving linear equations simultaneously, MaxMat=       0.
          There are    39 degrees of freedom in the 1st order CPHF.  IDoFFX=5 NUNeed=    39.
 Will reuse    3 saved solutions.
     33 vectors produced by pass  0 Test12= 8.24D-15 2.56D-09 XBig12= 1.36D-01 1.58D-01.
 AX will form    33 AO Fock derivatives at one time.
     33 vectors produced by pass  1 Test12= 8.24D-15 2.56D-09 XBig12= 1.90D-02 6.36D-02.
     33 vectors produced by pass  2 Test12= 8.24D-15 2.56D-09 XBig12= 1.89D-04 3.50D-03.
     33 vectors produced by pass  3 Test12= 8.24D-15 2.56D-09 XBig12= 1.22D-06 2.10D-04.
     33 vectors produced by pass  4 Test12= 8.24D-15 2.56D-09 XBig12= 2.64D-09 7.25D-06.
     28 vectors produced by pass  5 Test12= 8.24D-15 2.56D-09 XBig12= 5.00D-12 2.89D-07.
     10 vectors produced by pass  6 Test12= 8.24D-15 2.56D-09 XBig12= 6.57D-15 1.36D-08.
 InvSVY:  IOpt=1 It=  1 EMax= 2.00D-15
 Solved reduced A of dimension   203 with    33 vectors.
 FullF1:  Do perturbations      1 to       3.
 Isotropic polarizability for W=    0.000000       76.32 Bohr**3.
 FullF1:  Do perturbations      1 to       6.
 End of Minotr F.D. properties file   721 does not exist.
 End of Minotr F.D. properties file   722 does not exist.
 End of Minotr F.D. properties file   788 does not exist.
 Leave Link 1002 at Fri Jun  2 11:23:10 2023, MaxMem=  7381975040 cpu:             277.3 elap:             146.4
 (Enter /software/commercial/gaussian/g16/AVX/g16/l601.exe)
 Copying SCF densities to generalized density rwf, IOpCl= 0 IROHF=0.

 **********************************************************************

            Population analysis using the SCF Density.

 **********************************************************************

 Alpha  occ. eigenvalues --  -14.36886 -14.29991 -10.23700 -10.20196 -10.18716
 Alpha  occ. eigenvalues --  -10.17720  -1.02123  -0.87462  -0.78151  -0.69990
 Alpha  occ. eigenvalues --   -0.61348  -0.59688  -0.53494  -0.45755  -0.45110
 Alpha  occ. eigenvalues --   -0.44001  -0.40817  -0.40053  -0.39296  -0.29267
 Alpha  occ. eigenvalues --   -0.28678  -0.23442
 Alpha virt. eigenvalues --    0.00346   0.01153   0.02266   0.03176   0.04131
 Alpha virt. eigenvalues --    0.04643   0.04990   0.05532   0.06861   0.08059
 Alpha virt. eigenvalues --    0.08427   0.09098   0.10389   0.11862   0.12597
 Alpha virt. eigenvalues --    0.14019   0.14467   0.15466   0.15910   0.18279
 Alpha virt. eigenvalues --    0.18806   0.19325   0.21045   0.21310   0.21799
 Alpha virt. eigenvalues --    0.22385   0.23147   0.23187   0.25956   0.26358
 Alpha virt. eigenvalues --    0.27033   0.28906   0.29467   0.30768   0.32165
 Alpha virt. eigenvalues --    0.40941   0.42782   0.43215   0.44651   0.45461
 Alpha virt. eigenvalues --    0.50525   0.54821   0.56598   0.56992   0.57579
 Alpha virt. eigenvalues --    0.59537   0.61296   0.62054   0.63787   0.65729
 Alpha virt. eigenvalues --    0.68830   0.71353   0.73491   0.76361   0.77679
 Alpha virt. eigenvalues --    0.80394   0.81274   0.83316   0.86280   0.88005
 Alpha virt. eigenvalues --    0.88358   0.94409   0.96076   0.97768   0.97846
 Alpha virt. eigenvalues --    1.02432   1.05925   1.08482   1.13734   1.17612
 Alpha virt. eigenvalues --    1.21581   1.25180   1.29993   1.41127   1.42970
 Alpha virt. eigenvalues --    1.44933   1.47725   1.53363   1.54853   1.56518
 Alpha virt. eigenvalues --    1.60803   1.61292   1.64644   1.66496   1.68923
 Alpha virt. eigenvalues --    1.74215   1.75740   1.76587   1.79528   1.87371
 Alpha virt. eigenvalues --    1.89554   1.92833   1.98065   2.03142   2.05938
 Alpha virt. eigenvalues --    2.07529   2.11923   2.16893   2.18036   2.25570
 Alpha virt. eigenvalues --    2.34084   2.42380   2.44267   2.44647   2.47145
 Alpha virt. eigenvalues --    2.47722   2.49759   2.53850   2.58451   2.59657
 Alpha virt. eigenvalues --    2.63275   2.66265   2.68571   2.73100   2.74226
 Alpha virt. eigenvalues --    2.76581   2.79624   2.84337   2.90049   2.90318
 Alpha virt. eigenvalues --    2.92556   2.94647   2.98801   3.10182   3.22679
 Alpha virt. eigenvalues --    3.34455   3.49578   3.55264   3.65081   3.69109
 Alpha virt. eigenvalues --    3.77931   3.85480   3.86325   3.93231   4.07459
 Alpha virt. eigenvalues --    4.09425   4.49815   4.77144   4.92128   5.26165
 Alpha virt. eigenvalues --   23.78521  23.85360  23.95900  24.16207  35.53301
 Alpha virt. eigenvalues --   35.68439
     Molecular Orbital Coefficients:
                           1         2         3         4         5
                           O         O         O         O         O
     Eigenvalues --   -14.36886 -14.29991 -10.23700 -10.20196 -10.18716
   1 1   N  1S         -0.00010   0.55737  -0.00008  -0.00000  -0.00005
   2        2S         -0.00001   0.46577  -0.00001   0.00002  -0.00007
   3        2PX         0.00004   0.00136   0.00038   0.00002   0.00028
   4        2PY        -0.00007   0.00005  -0.00043   0.00011   0.00024
   5        2PZ         0.00000   0.00001   0.00000  -0.00000   0.00000
   6        3S         -0.00042   0.01621   0.00072   0.00021   0.00088
   7        3PX        -0.00034   0.00108  -0.00122  -0.00022  -0.00062
   8        3PY         0.00040  -0.00052   0.00145  -0.00054  -0.00025
   9        3PZ        -0.00000   0.00001  -0.00001   0.00000  -0.00000
  10        4S         -0.00094  -0.01848  -0.00656  -0.00460  -0.00354
  11        4PX        -0.00079  -0.00435  -0.00242  -0.00161  -0.00119
  12        4PY        -0.00057   0.00099   0.00084   0.00035  -0.00143
  13        4PZ        -0.00000  -0.00002  -0.00001  -0.00001   0.00000
  14        5S         -0.00310   0.00236   0.00810  -0.00234   0.00781
  15        5PX        -0.00159  -0.00005   0.00330  -0.00146   0.00288
  16        5PY        -0.00219   0.00037  -0.00344   0.00117   0.00235
  17        5PZ         0.00000  -0.00000   0.00003  -0.00001   0.00000
  18        6D 0        0.00001  -0.00036   0.00085   0.00010   0.00055
  19        6D+1       -0.00000   0.00000  -0.00001   0.00000  -0.00000
  20        6D-1        0.00000  -0.00000   0.00001  -0.00000   0.00000
  21        6D+2       -0.00000  -0.00029   0.00013   0.00014  -0.00001
  22        6D-2        0.00013  -0.00019   0.00105  -0.00030  -0.00060
  23 2   N  1S          0.55735   0.00009  -0.00005  -0.00005   0.00000
  24        2S          0.46561   0.00015  -0.00006  -0.00007   0.00000
  25        2PX         0.00008  -0.00010  -0.00045  -0.00011   0.00007
  26        2PY         0.00000  -0.00004  -0.00009   0.00038   0.00005
  27        2PZ         0.00000  -0.00000  -0.00000  -0.00000   0.00000
  28        3S          0.01677  -0.00042   0.00093   0.00085   0.00024
  29        3PX        -0.00018   0.00064   0.00112   0.00051  -0.00023
  30        3PY        -0.00002   0.00015   0.00018  -0.00061  -0.00036
  31        3PZ        -0.00000   0.00000   0.00000   0.00000   0.00000
  32        4S         -0.01578   0.00101  -0.00382  -0.00240  -0.00385
  33        4PX         0.00665   0.00102   0.00367   0.00033   0.00194
  34        4PY        -0.00450  -0.00215  -0.00179  -0.00256  -0.00141
  35        4PZ         0.00005   0.00001   0.00002   0.00001   0.00001
  36        5S         -0.00217  -0.00330   0.00512   0.00759  -0.00107
  37        5PX        -0.00009   0.00048  -0.00189  -0.00206   0.00113
  38        5PY         0.00036  -0.00220  -0.00238   0.00459  -0.00027
  39        5PZ        -0.00000   0.00001   0.00000  -0.00003   0.00001
  40        6D 0       -0.00076  -0.00002   0.00059   0.00049   0.00005
  41        6D+1        0.00001   0.00000  -0.00001  -0.00000   0.00000
  42        6D-1       -0.00001  -0.00000  -0.00000   0.00001   0.00000
  43        6D+2        0.00019  -0.00013  -0.00064   0.00058   0.00027
  44        6D-2       -0.00057  -0.00024  -0.00048   0.00012  -0.00022
  45 3   C  1S          0.00000  -0.00001   0.56293   0.00002  -0.00001
  46        2S          0.00004   0.00011   0.46332  -0.00001  -0.00003
  47        2PX         0.00044  -0.00035   0.00051  -0.00002  -0.00001
  48        2PY         0.00011   0.00041   0.00004  -0.00004  -0.00001
  49        2PZ         0.00000  -0.00000   0.00000   0.00000  -0.00000
  50        3S          0.00032   0.00014   0.01827   0.00006   0.00011
  51        3PX        -0.00100   0.00108  -0.00040   0.00010   0.00003
  52        3PY        -0.00029  -0.00130   0.00125  -0.00002  -0.00004
  53        3PZ        -0.00000   0.00001  -0.00001   0.00000   0.00000
  54        4S          0.00508   0.00508  -0.00806   0.00016   0.00015
  55        4PX         0.00595  -0.00274   0.00125   0.00008   0.00314
  56        4PY         0.00768   0.00861   0.00466   0.00783   0.00739
  57        4PZ        -0.00000  -0.00005  -0.00001  -0.00003  -0.00001
  58        5S         -0.00195   0.00095   0.00350   0.00026  -0.00219
  59        5PX         0.00217   0.00100  -0.00460  -0.00122  -0.00429
  60        5PY         0.00339   0.00244  -0.01381  -0.01020  -0.00611
  61        5PZ        -0.00000  -0.00001   0.00003   0.00003   0.00001
  62        6D 0        0.00014   0.00024  -0.00164  -0.00015  -0.00014
  63        6D+1       -0.00000  -0.00001   0.00001  -0.00000   0.00000
  64        6D-1       -0.00000   0.00001  -0.00001  -0.00000  -0.00000
  65        6D+2       -0.00084   0.00024  -0.00044  -0.00015  -0.00016
  66        6D-2       -0.00043   0.00126  -0.00022   0.00022   0.00008
  67 4   C  1S         -0.00000  -0.00001   0.00129  -0.00002  -0.00002
  68        2S          0.00003   0.00004   0.00108  -0.00000  -0.00000
  69        2PX         0.00007  -0.00005   0.00013  -0.00002   0.00001
  70        2PY         0.00004   0.00010   0.00059  -0.00004  -0.00004
  71        2PZ         0.00000  -0.00000  -0.00000  -0.00000   0.00000
  72        3S         -0.00024  -0.00020   0.00034  -0.00031  -0.00027
  73        3PX        -0.00027   0.00013  -0.00034   0.00003  -0.00003
  74        3PY        -0.00028  -0.00050  -0.00190   0.00014   0.00016
  75        3PZ        -0.00000   0.00000   0.00000  -0.00000  -0.00000
  76        4S          0.00590   0.00414   0.00423   0.00654   0.00653
  77        4PX        -0.00052   0.00161   0.00006   0.00103   0.00081
  78        4PY         0.00248   0.00127   0.00141   0.00202   0.00238
  79        4PZ        -0.00001   0.00000  -0.00000  -0.00000  -0.00001
  80        5S          0.00394   0.00088  -0.02263  -0.00904  -0.00576
  81        5PX         0.00011  -0.00066  -0.00181  -0.00034   0.00029
  82        5PY         0.00046  -0.00004  -0.00512  -0.00138  -0.00099
  83        5PZ        -0.00000  -0.00000   0.00001   0.00000   0.00000
  84        6D 0        0.00003   0.00005   0.00079  -0.00001   0.00001
  85        6D+1        0.00000   0.00000   0.00000   0.00000  -0.00000
  86        6D-1       -0.00000   0.00000   0.00001   0.00000  -0.00000
  87        6D+2        0.00010   0.00038   0.00086   0.00006  -0.00004
  88        6D-2       -0.00029   0.00010  -0.00066   0.00006  -0.00002
  89 5   C  1S         -0.00001   0.00001   0.00001   0.01235   0.56278
  90        2S          0.00002  -0.00000  -0.00002   0.01043   0.46306
  91        2PX         0.00010  -0.00031  -0.00000   0.00084  -0.00043
  92        2PY         0.00006  -0.00027   0.00011  -0.00022  -0.00017
  93        2PZ         0.00000  -0.00000  -0.00000   0.00000  -0.00000
  94        3S         -0.00008   0.00036   0.00016   0.00003   0.01965
  95        3PX        -0.00098   0.00091  -0.00007  -0.00405   0.00165
  96        3PY         0.00021   0.00048  -0.00059   0.00114   0.00011
  97        3PZ        -0.00001   0.00000   0.00000  -0.00002   0.00001
  98        4S         -0.00411   0.00709  -0.00010   0.00143  -0.01097
  99        4PX        -0.00316   0.00020  -0.00030   0.00142  -0.00307
 100        4PY         0.00380  -0.00447  -0.00075  -0.00081   0.00423
 101        4PZ        -0.00003   0.00002   0.00000   0.00001  -0.00003
 102        5S          0.00489  -0.00835  -0.00002   0.01664  -0.00765
 103        5PX         0.00055  -0.00026  -0.00329   0.00283  -0.00002
 104        5PY        -0.00056   0.00156  -0.00071  -0.00333   0.00029
 105        5PZ         0.00000  -0.00001  -0.00001   0.00003  -0.00000
 106        6D 0       -0.00012  -0.00001  -0.00010   0.00089  -0.00196
 107        6D+1       -0.00000   0.00001   0.00000  -0.00002   0.00002
 108        6D-1       -0.00000  -0.00000  -0.00000   0.00001  -0.00002
 109        6D+2       -0.00061   0.00034  -0.00020  -0.00168   0.00011
 110        6D-2       -0.00004  -0.00095  -0.00003   0.00142  -0.00143
 111 6   C  1S          0.00001  -0.00001  -0.00002   0.56277  -0.01251
 112        2S          0.00002   0.00003  -0.00004   0.46304  -0.01004
 113        2PX         0.00010  -0.00007   0.00009   0.00039  -0.00080
 114        2PY        -0.00039   0.00009   0.00010  -0.00078   0.00032
 115        2PZ         0.00000  -0.00000  -0.00000   0.00000  -0.00000
 116        3S          0.00037  -0.00002   0.00018   0.01978  -0.00070
 117        3PX        -0.00056   0.00096  -0.00036  -0.00135   0.00374
 118        3PY         0.00074  -0.00038  -0.00060   0.00102  -0.00141
 119        3PZ        -0.00001   0.00001   0.00000  -0.00001   0.00002
 120        4S          0.00962  -0.00157   0.00112  -0.00970   0.00289
 121        4PX        -0.00501   0.00337  -0.00095   0.00416  -0.00265
 122        4PY        -0.00380   0.00142  -0.00007   0.00134  -0.00018
 123        4PZ        -0.00001   0.00001  -0.00000   0.00001  -0.00001
 124        5S         -0.00605   0.00563   0.01234  -0.01080   0.01175
 125        5PX         0.00077  -0.00126  -0.00124   0.00128  -0.00319
 126        5PY         0.00049  -0.00011  -0.00102  -0.00048  -0.00147
 127        5PZ         0.00000  -0.00001  -0.00000   0.00001  -0.00001
 128        6D 0        0.00010  -0.00002  -0.00007  -0.00199   0.00100
 129        6D+1        0.00000  -0.00000  -0.00000   0.00002  -0.00002
 130        6D-1        0.00000   0.00000  -0.00000  -0.00000   0.00000
 131        6D+2        0.00095  -0.00029  -0.00009   0.00164  -0.00188
 132        6D-2       -0.00011   0.00042   0.00018   0.00059   0.00095
 133 7   H  1S          0.00003   0.00002  -0.00012  -0.00001   0.00002
 134        2S         -0.00036  -0.00043  -0.00093  -0.00025  -0.00037
 135        3S          0.00046   0.00041   0.00059  -0.00073  -0.00014
 136        4PX         0.00008  -0.00003   0.00021   0.00003   0.00002
 137        4PY        -0.00006   0.00005  -0.00010   0.00001  -0.00002
 138        4PZ        -0.00005  -0.00012  -0.00036  -0.00004  -0.00004
 139 8   H  1S          0.00003   0.00002  -0.00012  -0.00001   0.00002
 140        2S         -0.00036  -0.00043  -0.00093  -0.00025  -0.00037
 141        3S          0.00046   0.00041   0.00059  -0.00072  -0.00014
 142        4PX         0.00008  -0.00003   0.00021   0.00003   0.00002
 143        4PY        -0.00006   0.00005  -0.00010   0.00001  -0.00002
 144        4PZ         0.00006   0.00012   0.00036   0.00004   0.00005
 145 9   H  1S         -0.00001  -0.00006  -0.00007   0.00004   0.00001
 146        2S         -0.00072  -0.00004  -0.00073  -0.00051  -0.00031
 147        3S         -0.00019   0.00020  -0.00049   0.00026   0.00008
 148        4PX        -0.00014  -0.00010  -0.00028  -0.00009  -0.00004
 149        4PY         0.00006  -0.00004   0.00011  -0.00000   0.00003
 150        4PZ        -0.00000  -0.00000  -0.00000  -0.00000  -0.00000
 151 10  H  1S          0.00003  -0.00016  -0.00008  -0.00012   0.00016
 152        2S         -0.00160   0.00002   0.00041  -0.00057  -0.00491
 153        3S         -0.00070   0.00137   0.00016   0.00035   0.00097
 154        4PX        -0.00010   0.00017   0.00004  -0.00038  -0.00074
 155        4PY         0.00035   0.00034  -0.00006   0.00033   0.00244
 156        4PZ        -0.00000  -0.00000   0.00000  -0.00000  -0.00001
 157 11  H  1S         -0.00015   0.00007  -0.00006   0.00007  -0.00007
 158        2S          0.00049  -0.00148   0.00050  -0.00491  -0.00015
 159        3S          0.00213  -0.00062  -0.00001   0.00122   0.00070
 160        4PX         0.00001   0.00029  -0.00006   0.00215   0.00036
 161        4PY         0.00027   0.00011  -0.00011   0.00154  -0.00011
 162        4PZ        -0.00000   0.00000   0.00000   0.00000   0.00000
 163 12  H  1S          0.00017  -0.00004   0.00004   0.00008  -0.00003
 164        2S         -0.00449  -0.00119  -0.00171  -0.00110  -0.00058
 165        3S          0.00161  -0.00044  -0.00134   0.00147  -0.00022
 166        4PX         0.00158   0.00026   0.00021   0.00018   0.00007
 167        4PY        -0.00122  -0.00017  -0.00026  -0.00004  -0.00003
 168        4PZ         0.00001   0.00000   0.00000   0.00000   0.00000
                           6         7         8         9        10
                           O         O         O         O         O
     Eigenvalues --   -10.17720  -1.02123  -0.87462  -0.78151  -0.69990
   1 1   N  1S          0.00000  -0.05032  -0.08198  -0.00200   0.02832
   2        2S          0.00003  -0.07862  -0.12882  -0.00310   0.04490
   3        2PX        -0.00000   0.04192   0.04601  -0.00712  -0.01510
   4        2PY        -0.00008  -0.00757  -0.00267  -0.04913   0.02636
   5        2PZ         0.00000   0.00022   0.00022   0.00016  -0.00017
   6        3S         -0.00012   0.21129   0.35392   0.00904  -0.12758
   7        3PX        -0.00005   0.06336   0.06849  -0.01137  -0.02246
   8        3PY         0.00038  -0.01075  -0.00144  -0.07315   0.03847
   9        3PZ        -0.00000   0.00033   0.00031   0.00024  -0.00025
  10        4S         -0.00004   0.14074   0.24814   0.00393  -0.09355
  11        4PX         0.00004   0.02687   0.02722  -0.00456  -0.00758
  12        4PY        -0.00004  -0.00429  -0.00323  -0.02574   0.01363
  13        4PZ         0.00000   0.00014   0.00013   0.00008  -0.00009
  14        5S          0.00214  -0.03457  -0.07854   0.00451  -0.00731
  15        5PX         0.00208  -0.00804  -0.02405  -0.00276  -0.00506
  16        5PY         0.00159   0.00582   0.00063   0.01130  -0.00310
  17        5PZ         0.00000  -0.00006  -0.00011  -0.00006  -0.00001
  18        6D 0        0.00006  -0.00764  -0.00785   0.00071   0.00135
  19        6D+1       -0.00000   0.00008   0.00005   0.00002  -0.00005
  20        6D-1        0.00000  -0.00005  -0.00006  -0.00006   0.00004
  21        6D+2        0.00013   0.00247  -0.00268  -0.00362  -0.00145
  22        6D-2        0.00011  -0.00254  -0.00006  -0.01037   0.00805
  23 2   N  1S          0.00000  -0.07961   0.07481  -0.00385   0.02384
  24        2S          0.00002  -0.12490   0.11805  -0.00608   0.03791
  25        2PX        -0.00007  -0.02929  -0.02069  -0.02552   0.01235
  26        2PY        -0.00004   0.01572   0.00188  -0.06523   0.05052
  27        2PZ        -0.00000  -0.00019  -0.00010   0.00014  -0.00015
  28        3S         -0.00011   0.34058  -0.32985   0.01778  -0.10861
  29        3PX         0.00035  -0.04376  -0.03087  -0.03860   0.01858
  30        3PY         0.00015   0.02371   0.00145  -0.09750   0.07592
  31        3PZ         0.00000  -0.00029  -0.00015   0.00021  -0.00022
  32        4S          0.00042   0.22906  -0.23820   0.00604  -0.09089
  33        4PX        -0.00026  -0.02911  -0.01414  -0.01396   0.00977
  34        4PY        -0.00025   0.01882   0.00641  -0.05176   0.03551
  35        4PZ         0.00000  -0.00021  -0.00009   0.00014  -0.00010
  36        5S          0.00044  -0.05595   0.03773  -0.00608  -0.03019
  37        5PX        -0.00034   0.02174  -0.02151   0.01291  -0.00595
  38        5PY        -0.00138  -0.01052   0.02144   0.01421  -0.00391
  39        5PZ         0.00000   0.00014  -0.00018   0.00001  -0.00001
  40        6D 0        0.00002  -0.01089   0.00622   0.00028   0.00107
  41        6D+1        0.00000   0.00010  -0.00003   0.00002  -0.00006
  42        6D-1       -0.00000  -0.00008   0.00005   0.00006  -0.00002
  43        6D+2       -0.00007   0.00162   0.00286   0.00846  -0.00981
  44        6D-2       -0.00020  -0.00161  -0.00039   0.00527   0.00173
  45 3   C  1S         -0.00133  -0.05792  -0.01956  -0.06172   0.01261
  46        2S         -0.00110  -0.08876  -0.03008  -0.09580   0.01946
  47        2PX        -0.00018   0.02244  -0.07004  -0.00574  -0.01891
  48        2PY        -0.00058   0.04054   0.04072  -0.03965  -0.07068
  49        2PZ         0.00000  -0.00006  -0.00048   0.00013   0.00019
  50        3S          0.00036   0.22963   0.08039   0.26207  -0.05724
  51        3PX         0.00046   0.03554  -0.09974  -0.00784  -0.02932
  52        3PY         0.00158   0.05934   0.05675  -0.06170  -0.10239
  53        3PZ        -0.00000  -0.00008  -0.00067   0.00020   0.00027
  54        4S          0.00177   0.07675   0.03033   0.15120  -0.00514
  55        4PX        -0.00156  -0.00319  -0.01005  -0.00149  -0.00986
  56        4PY        -0.00388  -0.02574   0.00311  -0.01392  -0.05248
  57        4PZ         0.00001   0.00009  -0.00006   0.00005   0.00016
  58        5S          0.03780   0.03063   0.01348  -0.16054  -0.13714
  59        5PX        -0.01140   0.01910   0.00082   0.03292   0.03977
  60        5PY        -0.02593   0.05903   0.01451   0.08946   0.12098
  61        5PZ         0.00005  -0.00015  -0.00005  -0.00020  -0.00030
  62        6D 0        0.00025  -0.01540  -0.00369  -0.00812   0.00160
  63        6D+1        0.00000   0.00011   0.00001   0.00008  -0.00011
  64        6D-1        0.00000  -0.00009  -0.00017  -0.00006   0.00001
  65        6D+2        0.00069   0.00031  -0.01851   0.00174  -0.01243
  66        6D-2       -0.00050   0.00381  -0.01623  -0.00199   0.01039
  67 4   C  1S          0.56295  -0.00932  -0.00399  -0.06986  -0.07678
  68        2S          0.46314  -0.01420  -0.00608  -0.10794  -0.11907
  69        2PX         0.00017   0.00343  -0.00487   0.00836  -0.00305
  70        2PY         0.00033   0.00893   0.00485   0.02429  -0.00803
  71        2PZ        -0.00000  -0.00002  -0.00004  -0.00006   0.00002
  72        3S          0.01960   0.03658   0.01580   0.28237   0.31492
  73        3PX        -0.00053   0.00529  -0.00956   0.01524  -0.00215
  74        3PY        -0.00130   0.01257   0.00602   0.04506  -0.00770
  75        3PZ         0.00000  -0.00003  -0.00007  -0.00010   0.00002
  76        4S         -0.01308  -0.00769   0.00676   0.15274   0.17686
  77        4PX        -0.00064   0.00008  -0.00685   0.00620  -0.00496
  78        4PY        -0.00232  -0.00540   0.00247   0.00538  -0.01563
  79        4PZ         0.00001   0.00002  -0.00004   0.00000   0.00004
  80        5S         -0.05797   0.06077   0.01495   0.23652   0.24047
  81        5PX        -0.00265   0.00238   0.00451   0.01589   0.01291
  82        5PY        -0.01182   0.01193   0.00187   0.05230   0.04851
  83        5PZ         0.00003  -0.00003   0.00001  -0.00014  -0.00013
  84        6D 0        0.00026  -0.00078  -0.00024  -0.00467   0.00048
  85        6D+1        0.00000  -0.00001   0.00001  -0.00001   0.00000
  86        6D-1        0.00000  -0.00001  -0.00003  -0.00004   0.00001
  87        6D+2        0.00043  -0.00175  -0.00202  -0.00619   0.00110
  88        6D-2       -0.00032   0.00154  -0.00378   0.00448  -0.00045
  89 5   C  1S          0.00001  -0.03409  -0.03877   0.04987  -0.04480
  90        2S          0.00003  -0.05220  -0.05973   0.07710  -0.06946
  91        2PX         0.00000   0.00402  -0.02930  -0.02427   0.05130
  92        2PY         0.00001  -0.03302  -0.03476   0.01352   0.01738
  93        2PZ        -0.00000   0.00015   0.00001  -0.00016   0.00016
  94        3S         -0.00013   0.13117   0.15475  -0.20365   0.18452
  95        3PX        -0.00004   0.00586  -0.04639  -0.03293   0.07065
  96        3PY        -0.00003  -0.04820  -0.05331   0.02056   0.02477
  97        3PZ        -0.00000   0.00022   0.00000  -0.00023   0.00022
  98        4S          0.00030   0.06045   0.07077  -0.11358   0.11353
  99        4PX         0.00041   0.00914  -0.00493  -0.01165   0.01956
 100        4PY        -0.00071  -0.01218  -0.00670   0.01165   0.00215
 101        4PZ         0.00000   0.00009   0.00000  -0.00010   0.00008
 102        5S         -0.00136  -0.05143   0.12015  -0.02962  -0.04297
 103        5PX        -0.00124  -0.00459   0.02142   0.00797  -0.00094
 104        5PY        -0.00049   0.00794  -0.01437   0.00300   0.01836
 105        5PZ        -0.00000  -0.00005   0.00015   0.00002  -0.00008
 106        6D 0       -0.00003  -0.00972  -0.00843   0.00770  -0.00432
 107        6D+1        0.00000   0.00005  -0.00003  -0.00009   0.00011
 108        6D-1       -0.00000  -0.00009  -0.00003   0.00005  -0.00003
 109        6D+2       -0.00003  -0.00538  -0.00952  -0.00403   0.00953
 110        6D-2       -0.00003   0.00041   0.01392   0.00360  -0.00839
 111 6   C  1S          0.00002  -0.04138   0.01986   0.05592  -0.06147
 112        2S          0.00004  -0.06337   0.03056   0.08658  -0.09558
 113        2PX         0.00001  -0.02000  -0.02123   0.02525  -0.02292
 114        2PY        -0.00001  -0.03669   0.03716   0.00520   0.02605
 115        2PZ         0.00000   0.00006  -0.00024   0.00009  -0.00020
 116        3S         -0.00022   0.16011  -0.07965  -0.23003   0.25649
 117        3PX        -0.00000  -0.02705  -0.03246   0.03405  -0.03081
 118        3PY         0.00006  -0.05331   0.05904   0.00830   0.03425
 119        3PZ        -0.00000   0.00009  -0.00038   0.00012  -0.00027
 120        4S          0.00066   0.04784  -0.04059  -0.10591   0.15984
 121        4PX        -0.00011   0.00393  -0.00669   0.00364  -0.01107
 122        4PY        -0.00077  -0.00317   0.00690  -0.00376   0.00843
 123        4PZ         0.00000   0.00003  -0.00006   0.00003  -0.00008
 124        5S          0.01655   0.01054  -0.13216  -0.03134  -0.02958
 125        5PX        -0.00299  -0.00480   0.03088  -0.00615   0.01323
 126        5PY        -0.00236   0.00564   0.00233   0.00864   0.00368
 127        5PZ        -0.00000  -0.00004   0.00013  -0.00006   0.00004
 128        6D 0       -0.00006  -0.01166   0.00399   0.00885  -0.00708
 129        6D+1        0.00000   0.00004   0.00004  -0.00009   0.00010
 130        6D-1       -0.00000  -0.00008   0.00010   0.00005  -0.00003
 131        6D+2        0.00002  -0.00668   0.01690  -0.00361   0.00762
 132        6D-2        0.00003   0.00511   0.00083   0.00109  -0.00299
 133 7   H  1S          0.00021   0.00393   0.00047   0.04518   0.06209
 134        2S         -0.00296   0.00433   0.00084   0.05535   0.07597
 135        3S          0.00421   0.00040  -0.00058  -0.01259  -0.00422
 136        4PX         0.00076  -0.00008  -0.00011  -0.00299  -0.00440
 137        4PY        -0.00084   0.00063   0.00005   0.00631   0.00561
 138        4PZ        -0.00166   0.00070  -0.00008   0.00814   0.00983
 139 8   H  1S          0.00021   0.00393   0.00047   0.04518   0.06209
 140        2S         -0.00296   0.00434   0.00084   0.05535   0.07597
 141        3S          0.00421   0.00041  -0.00058  -0.01258  -0.00422
 142        4PX         0.00075  -0.00007  -0.00011  -0.00294  -0.00433
 143        4PY        -0.00083   0.00063   0.00005   0.00626   0.00554
 144        4PZ         0.00167  -0.00070   0.00008  -0.00820  -0.00989
 145 9   H  1S          0.00022   0.00379   0.00538   0.04512   0.06215
 146        2S         -0.00316   0.00556   0.00320   0.05584   0.07591
 147        3S          0.00455   0.00084   0.00024  -0.00800  -0.00513
 148        4PX        -0.00207   0.00125   0.00046   0.01061   0.01220
 149        4PY         0.00003   0.00047   0.00023   0.00176   0.00018
 150        4PZ        -0.00001   0.00000   0.00000   0.00003   0.00004
 151 10  H  1S         -0.00005   0.00676   0.01584  -0.02641   0.03562
 152        2S          0.00026   0.00740   0.01721  -0.03085   0.04176
 153        3S         -0.00018   0.00175  -0.00227  -0.00188   0.00439
 154        4PX         0.00001  -0.00045  -0.00105  -0.00295   0.00516
 155        4PY        -0.00000  -0.00108  -0.00422   0.00429  -0.00483
 156        4PZ         0.00000   0.00000   0.00001  -0.00003   0.00004
 157 11  H  1S         -0.00003   0.00995  -0.01272  -0.03058   0.04873
 158        2S          0.00006   0.00796  -0.01410  -0.03302   0.05654
 159        3S         -0.00005  -0.00386   0.00335   0.00156   0.00489
 160        4PX         0.00001  -0.00064   0.00206   0.00478  -0.00800
 161        4PY         0.00004  -0.00171   0.00389   0.00203  -0.00243
 162        4PZ        -0.00000   0.00000  -0.00001   0.00001  -0.00003
 163 12  H  1S          0.00001   0.04000  -0.06826   0.01448  -0.03566
 164        2S         -0.00034   0.04404  -0.06465   0.01097  -0.04027
 165        3S         -0.00009  -0.01162   0.01991   0.00093   0.00554
 166        4PX         0.00015  -0.00867   0.01137  -0.00400   0.00654
 167        4PY        -0.00002   0.00637  -0.00928  -0.00123  -0.00172
 168        4PZ         0.00000  -0.00006   0.00009  -0.00001   0.00004
                          11        12        13        14        15
                           O         O         O         O         O
     Eigenvalues --    -0.61348  -0.59688  -0.53494  -0.45755  -0.45110
   1 1   N  1S         -0.02289  -0.03980   0.00460   0.00000  -0.01890
   2        2S         -0.03642  -0.06344   0.00743   0.00000  -0.03015
   3        2PX        -0.01816  -0.01288  -0.02189  -0.00036  -0.00458
   4        2PY         0.09493  -0.05453  -0.08079   0.00032   0.09199
   5        2PZ        -0.00046   0.00016   0.00022   0.08204  -0.00038
   6        3S          0.10509   0.18225  -0.02148  -0.00001   0.08782
   7        3PX        -0.02457  -0.01812  -0.03206  -0.00054  -0.00620
   8        3PY         0.13992  -0.07889  -0.11747   0.00048   0.13243
   9        3PZ        -0.00066   0.00023   0.00032   0.12439  -0.00055
  10        4S          0.09978   0.15472  -0.01902   0.00001   0.11411
  11        4PX        -0.01266  -0.01752  -0.01940  -0.00039   0.00234
  12        4PY         0.06996  -0.04103  -0.05867   0.00033   0.08350
  13        4PZ        -0.00033   0.00008   0.00015   0.09069  -0.00032
  14        5S          0.03363   0.01440   0.02054   0.00004   0.07070
  15        5PX         0.01216   0.01458   0.01247   0.00008   0.00982
  16        5PY        -0.02860   0.02440   0.02145  -0.00012  -0.03090
  17        5PZ         0.00017  -0.00003  -0.00003  -0.01834   0.00016
  18        6D 0        0.00122   0.00016   0.00185   0.00014   0.00169
  19        6D+1       -0.00010  -0.00000   0.00001   0.01442  -0.00004
  20        6D-1        0.00005  -0.00006  -0.00006  -0.00425   0.00005
  21        6D+2       -0.00671  -0.00689  -0.00561  -0.00004   0.00100
  22        6D-2        0.01552  -0.00735  -0.01167   0.00008   0.00859
  23 2   N  1S         -0.02076  -0.00291   0.01365   0.00000   0.00745
  24        2S         -0.03304  -0.00459   0.02196   0.00001   0.01180
  25        2PX         0.11410   0.14797   0.02500  -0.00056  -0.07263
  26        2PY        -0.10403   0.06632  -0.09930   0.00048  -0.02055
  27        2PZ         0.00093   0.00040   0.00051   0.12539  -0.00024
  28        3S          0.09319   0.01341  -0.06489  -0.00002  -0.03197
  29        3PX         0.16463   0.21582   0.03510  -0.00085  -0.10579
  30        3PY        -0.15160   0.09824  -0.14472   0.00073  -0.03305
  31        3PZ         0.00135   0.00058   0.00074   0.19016  -0.00034
  32        4S          0.09558   0.00882  -0.07044  -0.00002  -0.06444
  33        4PX         0.09541   0.14144   0.03667  -0.00071  -0.04900
  34        4PY        -0.09528   0.06437  -0.10117   0.00059  -0.02661
  35        4PZ         0.00081   0.00038   0.00057   0.15639  -0.00011
  36        5S          0.05174   0.03609  -0.00812  -0.00003  -0.09444
  37        5PX         0.01999  -0.00950   0.01977   0.00005   0.00421
  38        5PY        -0.00466  -0.04609  -0.01380  -0.00010   0.02239
  39        5PZ         0.00011   0.00014   0.00014  -0.00541  -0.00006
  40        6D 0       -0.00058   0.00050   0.00102  -0.00010   0.00012
  41        6D+1        0.00004  -0.00003   0.00000  -0.01018  -0.00005
  42        6D-1       -0.00002  -0.00005   0.00004   0.00314   0.00010
  43        6D+2        0.00221  -0.00881   0.00514   0.00003   0.00434
  44        6D-2       -0.00594  -0.00389   0.00346  -0.00006   0.01725
  45 3   C  1S          0.03677   0.02185  -0.04447   0.00000   0.00104
  46        2S          0.05750   0.03433  -0.06985   0.00001   0.00153
  47        2PX         0.00703  -0.12642  -0.03999  -0.00053   0.09017
  48        2PY        -0.04443   0.02111  -0.03737   0.00048  -0.01144
  49        2PZ         0.00021  -0.00065  -0.00003   0.11874   0.00045
  50        3S         -0.16278  -0.09631   0.20154  -0.00002  -0.00337
  51        3PX         0.00757  -0.17805  -0.05458  -0.00084   0.13172
  52        3PY        -0.06380   0.02733  -0.05523   0.00076  -0.01454
  53        3PZ         0.00029  -0.00091  -0.00002   0.18729   0.00065
  54        4S         -0.10306  -0.03983   0.16925  -0.00007   0.01503
  55        4PX         0.00090  -0.05068  -0.02111  -0.00047   0.08349
  56        4PY        -0.02846   0.01847  -0.02311   0.00046  -0.02036
  57        4PZ         0.00012  -0.00030  -0.00000   0.11086   0.00046
  58        5S         -0.06820  -0.03898  -0.04006  -0.00047   0.01545
  59        5PX         0.00622  -0.07759   0.00481  -0.00005   0.04272
  60        5PY        -0.03974  -0.01963   0.10170   0.00045  -0.06180
  61        5PZ         0.00018  -0.00027  -0.00037   0.03028   0.00044
  62        6D 0        0.00528   0.00424  -0.00017   0.00001  -0.00011
  63        6D+1        0.00002  -0.00001   0.00011   0.00751   0.00000
  64        6D-1       -0.00000  -0.00007  -0.00003   0.00661  -0.00001
  65        6D+2        0.00296  -0.00737   0.01059  -0.00006  -0.00128
  66        6D-2       -0.01126  -0.01504  -0.01495  -0.00000  -0.00192
  67 4   C  1S         -0.01225  -0.00980   0.02657  -0.00000  -0.00075
  68        2S         -0.01917  -0.01532   0.04147  -0.00000  -0.00117
  69        2PX         0.00423  -0.03108   0.01856  -0.00053   0.08424
  70        2PY        -0.01897  -0.00720   0.08569   0.00044  -0.04010
  71        2PZ         0.00010  -0.00011  -0.00024   0.11860   0.00054
  72        3S          0.05058   0.04085  -0.10882   0.00000   0.00291
  73        3PX         0.00554  -0.04547   0.02703  -0.00078   0.12114
  74        3PY        -0.02335  -0.00797   0.12852   0.00064  -0.05856
  75        3PZ         0.00012  -0.00017  -0.00037   0.17388   0.00077
  76        4S          0.03108   0.03017  -0.11283   0.00002  -0.00495
  77        4PX         0.00603  -0.02419   0.01424  -0.00048   0.07645
  78        4PY        -0.01698  -0.00395   0.05850   0.00041  -0.04041
  79        4PZ         0.00009  -0.00009  -0.00017   0.10360   0.00049
  80        5S         -0.00761  -0.03498   0.13899   0.00055  -0.05741
  81        5PX        -0.00199   0.00975   0.01506   0.00003  -0.00733
  82        5PY        -0.00001  -0.01069   0.03070   0.00010  -0.00992
  83        5PZ        -0.00001   0.00009  -0.00006  -0.00322  -0.00000
  84        6D 0        0.00060  -0.00081  -0.00912   0.00004   0.00775
  85        6D+1        0.00001   0.00002  -0.00001   0.01105  -0.00004
  86        6D-1        0.00001  -0.00004  -0.00008   0.00125   0.00004
  87        6D+2        0.00168  -0.00077  -0.01213  -0.00004  -0.00174
  88        6D-2       -0.00052  -0.00677   0.00687   0.00002   0.00183
  89 5   C  1S         -0.04678   0.04575  -0.00973   0.00000   0.02241
  90        2S         -0.07303   0.07158  -0.01498   0.00000   0.03570
  91        2PX        -0.08045  -0.01842   0.04730  -0.00022  -0.09183
  92        2PY         0.01943  -0.02237   0.08296   0.00019  -0.04223
  93        2PZ        -0.00044   0.00001  -0.00011   0.05474  -0.00024
  94        3S          0.20051  -0.19305   0.03709  -0.00000  -0.09730
  95        3PX        -0.11459  -0.02601   0.06600  -0.00034  -0.12961
  96        3PY         0.02157  -0.03144   0.11770   0.00031  -0.05804
  97        3PZ        -0.00060   0.00001  -0.00017   0.08424  -0.00035
  98        4S          0.13990  -0.13833   0.02023  -0.00001  -0.10506
  99        4PX        -0.03279  -0.00975   0.02564  -0.00024  -0.06382
 100        4PY         0.01344  -0.00867   0.06375   0.00021  -0.02192
 101        4PZ        -0.00020  -0.00001  -0.00014   0.05452  -0.00019
 102        5S          0.04119  -0.04779  -0.12407  -0.00023   0.01310
 103        5PX        -0.02357   0.00846  -0.00345  -0.00006  -0.03028
 104        5PY        -0.01891   0.01316   0.03351   0.00005  -0.02269
 105        5PZ        -0.00003  -0.00002  -0.00015   0.00512  -0.00004
 106        6D 0       -0.00343   0.00526   0.00294   0.00011   0.00113
 107        6D+1       -0.00002  -0.00007   0.00001   0.00232  -0.00009
 108        6D-1        0.00003   0.00007   0.00005  -0.01303   0.00013
 109        6D+2       -0.00061  -0.00041   0.00738   0.00004   0.00286
 110        6D-2        0.01232   0.00801  -0.00085   0.00007   0.02407
 111 6   C  1S          0.03658  -0.02573  -0.02429  -0.00000  -0.01364
 112        2S          0.05736  -0.04023  -0.03803  -0.00000  -0.02155
 113        2PX         0.00790   0.09293   0.04160  -0.00031   0.14425
 114        2PY         0.02464  -0.03920   0.11967   0.00027   0.04196
 115        2PZ        -0.00006   0.00057  -0.00028   0.06487   0.00049
 116        3S         -0.15662   0.11088   0.09899   0.00001   0.05454
 117        3PX         0.01045   0.12738   0.05456  -0.00048   0.19496
 118        3PY         0.03582  -0.05824   0.16824   0.00042   0.05312
 119        3PZ        -0.00009   0.00080  -0.00042   0.10011   0.00067
 120        4S         -0.09955   0.08070   0.12675   0.00005   0.11255
 121        4PX         0.00232   0.04834   0.01923  -0.00027   0.09917
 122        4PY         0.00370  -0.01627   0.05826   0.00021   0.02551
 123        4PZ        -0.00001   0.00028  -0.00014   0.05510   0.00035
 124        5S          0.01614   0.11123   0.02575   0.00012   0.05093
 125        5PX        -0.00946  -0.00934  -0.00505  -0.00005  -0.00384
 126        5PY         0.01421  -0.03372   0.00932   0.00003   0.01743
 127        5PZ        -0.00010   0.00009  -0.00006   0.00287  -0.00009
 128        6D 0        0.00648  -0.00268   0.00200   0.00003  -0.00090
 129        6D+1        0.00002   0.00001   0.00008  -0.00798  -0.00005
 130        6D-1       -0.00001  -0.00008   0.00003  -0.01325   0.00010
 131        6D+2        0.00326  -0.00888   0.01318   0.00009   0.00548
 132        6D-2       -0.01495  -0.00628  -0.00863   0.00003   0.01984
 133 7   H  1S          0.01778   0.00423  -0.05135  -0.07759   0.03952
 134        2S          0.02350   0.00692  -0.06275  -0.10598   0.05330
 135        3S         -0.00243  -0.00056  -0.01441  -0.03456   0.01529
 136        4PX        -0.00079  -0.00203   0.00370   0.00409   0.00297
 137        4PY         0.00129  -0.00005   0.00118  -0.00701   0.00085
 138        4PZ         0.00298   0.00072  -0.00620  -0.00350   0.00518
 139 8   H  1S          0.01780   0.00419  -0.05135   0.07749   0.03969
 140        2S          0.02354   0.00688  -0.06275   0.10585   0.05352
 141        3S         -0.00243  -0.00057  -0.01439   0.03458   0.01539
 142        4PX        -0.00077  -0.00203   0.00366  -0.00408   0.00299
 143        4PY         0.00128  -0.00006   0.00123   0.00698   0.00083
 144        4PZ        -0.00299  -0.00074   0.00621  -0.00356  -0.00517
 145 9   H  1S          0.00884   0.02998  -0.04215   0.00012  -0.06578
 146        2S          0.01304   0.03727  -0.05073   0.00016  -0.08675
 147        3S         -0.00078   0.00417  -0.00659   0.00004  -0.02889
 148        4PX         0.00182   0.00407  -0.00503  -0.00001  -0.00578
 149        4PY        -0.00126   0.00065   0.00478   0.00003  -0.00327
 150        4PZ         0.00001   0.00001  -0.00003   0.00742   0.00000
 151 10  H  1S          0.07142  -0.05302   0.05075  -0.00002  -0.03390
 152        2S          0.09034  -0.06595   0.06528  -0.00004  -0.04656
 153        3S          0.00973  -0.01530   0.00472   0.00000  -0.01637
 154        4PX         0.00223  -0.00431   0.00637  -0.00002  -0.00643
 155        4PY        -0.01302   0.00632  -0.00662   0.00002  -0.00030
 156        4PZ         0.00006  -0.00004   0.00005   0.00398  -0.00003
 157 11  H  1S         -0.02355   0.06195   0.09394  -0.00000   0.13490
 158        2S         -0.02616   0.08028   0.12672  -0.00001   0.19093
 159        3S         -0.00610   0.01203   0.02514   0.00001   0.05551
 160        4PX         0.00072  -0.00775  -0.01505  -0.00002  -0.01144
 161        4PY         0.00204  -0.00862  -0.00385   0.00002  -0.00990
 162        4PZ        -0.00000  -0.00000  -0.00005   0.00517  -0.00001
 163 12  H  1S          0.12973   0.05838   0.04485   0.00001  -0.05032
 164        2S          0.14835   0.06640   0.04823   0.00002  -0.07909
 165        3S         -0.00544  -0.00816  -0.00261  -0.00002  -0.00364
 166        4PX        -0.01518  -0.00134  -0.00602  -0.00004   0.00159
 167        4PY         0.01038   0.01138  -0.00013   0.00004  -0.00719
 168        4PZ        -0.00011  -0.00005  -0.00003   0.00910   0.00004
                          16        17        18        19        20
                           O         O         O         O         O
     Eigenvalues --    -0.44001  -0.40817  -0.40053  -0.39296  -0.29267
   1 1   N  1S          0.00286   0.00003  -0.00000  -0.00207   0.00000
   2        2S          0.00450  -0.00011  -0.00000  -0.00327   0.00000
   3        2PX        -0.05784   0.01480   0.00026   0.00215   0.00083
   4        2PY         0.01909  -0.06876  -0.00027  -0.11179  -0.00072
   5        2PZ        -0.00031   0.00037  -0.05829   0.00044  -0.18451
   6        3S         -0.01286   0.00188   0.00001   0.01032  -0.00001
   7        3PX        -0.08712   0.02303   0.00039  -0.00132   0.00125
   8        3PY         0.02543  -0.10201  -0.00041  -0.16041  -0.00109
   9        3PZ        -0.00046   0.00056  -0.08666   0.00062  -0.27762
  10        4S         -0.02061  -0.01888   0.00002  -0.00374   0.00003
  11        4PX        -0.06073   0.00594   0.00033  -0.00148   0.00116
  12        4PY         0.02559  -0.05541  -0.00034  -0.09795  -0.00101
  13        4PZ        -0.00035   0.00029  -0.07130   0.00037  -0.25341
  14        5S         -0.03404  -0.01699   0.00004   0.02098   0.00009
  15        5PX        -0.00875   0.00069  -0.00003   0.01444   0.00018
  16        5PY        -0.00228   0.00278  -0.00004   0.00643  -0.00019
  17        5PZ        -0.00003  -0.00001   0.00561   0.00002  -0.03786
  18        6D 0        0.00203  -0.00106  -0.00006   0.00084  -0.00013
  19        6D+1       -0.00007   0.00010  -0.00954   0.00004  -0.01895
  20        6D-1       -0.00006  -0.00006  -0.00233  -0.00008  -0.00317
  21        6D+2       -0.01542   0.00426   0.00005  -0.00261   0.00010
  22        6D-2       -0.00168  -0.01638  -0.00004  -0.01587  -0.00006
  23 2   N  1S         -0.01202  -0.01132  -0.00001  -0.00090   0.00000
  24        2S         -0.01949  -0.01822  -0.00001  -0.00155   0.00000
  25        2PX        -0.03927  -0.06624   0.00045   0.03301  -0.00082
  26        2PY         0.12215  -0.05209  -0.00046   0.04677   0.00072
  27        2PZ        -0.00064  -0.00003  -0.10935  -0.00003   0.18153
  28        3S          0.06303   0.05540   0.00003   0.00498   0.00000
  29        3PX        -0.05582  -0.09640   0.00068   0.04396  -0.00124
  30        3PY         0.17620  -0.07682  -0.00070   0.07002   0.00109
  31        3PZ        -0.00092  -0.00004  -0.16572  -0.00007   0.27386
  32        4S          0.07078   0.06699   0.00004   0.00749  -0.00004
  33        4PX        -0.02318  -0.06547   0.00060   0.03985  -0.00125
  34        4PY         0.12976  -0.05446  -0.00063   0.05808   0.00112
  35        4PZ        -0.00059  -0.00000  -0.14409  -0.00004   0.27881
  36        5S          0.02599   0.05619   0.00002   0.00130  -0.00006
  37        5PX        -0.02870  -0.02373  -0.00003   0.00181  -0.00032
  38        5PY         0.01267  -0.01081  -0.00008   0.01787   0.00026
  39        5PZ        -0.00018  -0.00008   0.00613  -0.00005   0.07390
  40        6D 0        0.00181   0.00099   0.00008  -0.00037  -0.00000
  41        6D+1       -0.00010   0.00005   0.00376   0.00003   0.00252
  42        6D-1        0.00005   0.00006  -0.00765  -0.00002   0.00354
  43        6D+2       -0.00617   0.01294   0.00002   0.00088  -0.00002
  44        6D-2        0.01327  -0.00119   0.00005  -0.00480  -0.00001
  45 3   C  1S         -0.01495   0.00898   0.00001  -0.00257  -0.00000
  46        2S         -0.02392   0.01449   0.00001  -0.00391  -0.00000
  47        2PX        -0.00380   0.04489   0.00015  -0.05027   0.00015
  48        2PY        -0.05350   0.15309  -0.00001   0.06839  -0.00013
  49        2PZ         0.00022  -0.00038  -0.02763  -0.00050  -0.03306
  50        3S          0.07168  -0.03475  -0.00003   0.01350   0.00000
  51        3PX        -0.00371   0.06633   0.00023  -0.07227   0.00023
  52        3PY        -0.07506   0.21830  -0.00003   0.09856  -0.00019
  53        3PZ         0.00032  -0.00053  -0.04099  -0.00072  -0.04983
  54        4S          0.10329  -0.06372  -0.00012   0.02014  -0.00001
  55        4PX        -0.02517   0.01921   0.00017  -0.03208   0.00034
  56        4PY        -0.05308   0.15251  -0.00002   0.05892  -0.00027
  57        4PZ         0.00011  -0.00049  -0.03236  -0.00038  -0.06022
  58        5S         -0.12356   0.06476  -0.00069   0.16278  -0.00020
  59        5PX        -0.00095  -0.04244   0.00022  -0.05516   0.00016
  60        5PY         0.05364  -0.08198   0.00021  -0.10562  -0.00006
  61        5PZ        -0.00021   0.00015  -0.03246   0.00017  -0.02199
  62        6D 0        0.00134  -0.00117   0.00009   0.00131   0.00037
  63        6D+1       -0.00006   0.00012  -0.01058   0.00005   0.03270
  64        6D-1        0.00011   0.00010  -0.02634  -0.00012  -0.01747
  65        6D+2        0.00501   0.02340   0.00017  -0.00714  -0.00008
  66        6D-2        0.01742   0.00012   0.00007  -0.02281   0.00021
  67 4   C  1S          0.00090   0.00287   0.00000   0.00274  -0.00000
  68        2S          0.00131   0.00462   0.00000   0.00437  -0.00000
  69        2PX        -0.02406  -0.11721  -0.00081   0.14293  -0.00005
  70        2PY         0.07153  -0.12335   0.00056  -0.08900   0.00003
  71        2PZ        -0.00036  -0.00015   0.16462   0.00098   0.00640
  72        3S          0.00139  -0.01951  -0.00002  -0.01493   0.00000
  73        3PX        -0.03089  -0.16954  -0.00115   0.20382  -0.00006
  74        3PY         0.10555  -0.18164   0.00080  -0.12916   0.00004
  75        3PZ        -0.00051  -0.00021   0.23537   0.00141   0.00700
  76        4S         -0.04751   0.03367   0.00005  -0.00110  -0.00002
  77        4PX        -0.03160  -0.11016  -0.00086   0.15629  -0.00014
  78        4PY         0.04687  -0.09991   0.00062  -0.08674   0.00006
  79        4PZ        -0.00029  -0.00021   0.17370   0.00101   0.00850
  80        5S          0.12731  -0.13965   0.00069  -0.20312   0.00011
  81        5PX         0.01093  -0.01428  -0.00007   0.00844  -0.00005
  82        5PY         0.03128  -0.03547   0.00023  -0.05014   0.00004
  83        5PZ        -0.00007   0.00006   0.02225   0.00021   0.00058
  84        6D 0       -0.00735   0.00314   0.00015   0.01602   0.00004
  85        6D+1        0.00001   0.00006   0.01203  -0.00007   0.00195
  86        6D-1       -0.00003   0.00008  -0.01685   0.00000  -0.00448
  87        6D+2       -0.00348   0.01890   0.00005  -0.01101   0.00001
  88        6D-2        0.00624  -0.00795   0.00010  -0.00952   0.00003
  89 5   C  1S         -0.00218   0.00686   0.00001  -0.00015   0.00000
  90        2S         -0.00333   0.01099   0.00001  -0.00034   0.00000
  91        2PX        -0.12151  -0.01703   0.00028   0.01614   0.00044
  92        2PY         0.11170   0.08914  -0.00020   0.09799  -0.00040
  93        2PZ        -0.00097  -0.00039  -0.06486  -0.00032  -0.10057
  94        3S          0.00523  -0.03669  -0.00003  -0.00407  -0.00000
  95        3PX        -0.16635  -0.02105   0.00044   0.02673   0.00069
  96        3PY         0.15412   0.12390  -0.00032   0.13614  -0.00061
  97        3PZ        -0.00133  -0.00053  -0.10046  -0.00042  -0.15537
  98        4S          0.04217  -0.01672  -0.00001   0.00540  -0.00002
  99        4PX        -0.09474  -0.00861   0.00029   0.01094   0.00060
 100        4PY         0.08360   0.07992  -0.00021   0.09050  -0.00053
 101        4PZ        -0.00074  -0.00032  -0.06896  -0.00030  -0.13897
 102        5S          0.03368   0.06821  -0.00014  -0.05541  -0.00008
 103        5PX         0.00106   0.00795  -0.00003  -0.01109   0.00007
 104        5PY         0.00829  -0.00184   0.00003   0.02166  -0.00009
 105        5PZ        -0.00003   0.00004   0.00260  -0.00012  -0.02337
 106        6D 0        0.00081   0.00037  -0.00012   0.00063   0.00000
 107        6D+1       -0.00001  -0.00003  -0.00472   0.00001   0.01609
 108        6D-1       -0.00005  -0.00004   0.01158  -0.00010   0.01766
 109        6D+2       -0.00651  -0.00801  -0.00003  -0.00999  -0.00014
 110        6D-2       -0.00589  -0.00087  -0.00007  -0.01570  -0.00002
 111 6   C  1S          0.01178   0.00991   0.00000   0.00697   0.00000
 112        2S          0.01891   0.01584   0.00001   0.01120   0.00000
 113        2PX         0.08286   0.05818   0.00039  -0.01223  -0.00019
 114        2PY        -0.10489   0.05429  -0.00029  -0.03513   0.00017
 115        2PZ         0.00080   0.00009  -0.08046   0.00008   0.04423
 116        3S         -0.04945  -0.05037  -0.00002  -0.02954  -0.00001
 117        3PX         0.11426   0.07672   0.00060  -0.01651  -0.00031
 118        3PY        -0.15284   0.07842  -0.00045  -0.04817   0.00028
 119        3PZ         0.00114   0.00010  -0.12396   0.00012   0.07010
 120        4S         -0.05995  -0.03420   0.00005  -0.05781   0.00003
 121        4PX         0.05418   0.05042   0.00040  -0.01638  -0.00024
 122        4PY        -0.05692   0.04718  -0.00033  -0.02047   0.00018
 123        4PZ         0.00048   0.00009  -0.08498   0.00000   0.05031
 124        5S         -0.02026  -0.00090   0.00010   0.09315   0.00014
 125        5PX         0.01315   0.01311   0.00002  -0.02027  -0.00009
 126        5PY        -0.01416  -0.01070  -0.00004  -0.01463   0.00004
 127        5PZ         0.00012   0.00011  -0.00958  -0.00005   0.01190
 128        6D 0       -0.00026   0.00088  -0.00002   0.00040   0.00024
 129        6D+1       -0.00013  -0.00004   0.00877  -0.00001   0.01143
 130        6D-1       -0.00012   0.00001   0.01262  -0.00011  -0.02180
 131        6D+2       -0.02867  -0.00223  -0.00009  -0.01334   0.00003
 132        6D-2        0.00034   0.00462  -0.00002  -0.01263   0.00014
 133 7   H  1S         -0.03749   0.01463  -0.11815   0.07951  -0.00854
 134        2S         -0.04644   0.01898  -0.16438   0.11050  -0.01504
 135        3S         -0.02226   0.00932  -0.06826   0.04660  -0.01976
 136        4PX        -0.00010  -0.00756   0.00577   0.00490  -0.00076
 137        4PY         0.00154  -0.00666  -0.00870  -0.00004  -0.00152
 138        4PZ        -0.00414   0.00134  -0.00413   0.00940  -0.00027
 139 8   H  1S         -0.03754   0.01434   0.11799   0.07983   0.00852
 140        2S         -0.04652   0.01858   0.16416   0.11096   0.01504
 141        3S         -0.02229   0.00914   0.06818   0.04683   0.01980
 142        4PX        -0.00012  -0.00754  -0.00577   0.00494   0.00076
 143        4PY         0.00156  -0.00669   0.00865  -0.00008   0.00153
 144        4PZ         0.00413  -0.00133  -0.00421  -0.00938  -0.00027
 145 9   H  1S          0.01528   0.10555   0.00025  -0.12677   0.00002
 146        2S          0.02455   0.14475   0.00034  -0.17632   0.00000
 147        3S          0.00213   0.05774   0.00011  -0.06882  -0.00004
 148        4PX         0.00224   0.00808  -0.00001  -0.01028   0.00000
 149        4PY         0.00510  -0.00661   0.00004  -0.00572  -0.00001
 150        4PZ        -0.00001   0.00004   0.00996   0.00000  -0.00078
 151 10  H  1S          0.12294   0.06794   0.00004   0.07766   0.00000
 152        2S          0.17177   0.09781   0.00005   0.11179  -0.00000
 153        3S          0.05403   0.03081   0.00003   0.03995   0.00000
[...]
 Predicted change in Energy=-5.955963D-08
 GradGradGradGradGradGradGradGradGradGradGradGradGradGradGradGradGradGrad

 Leave Link  103 at Fri Jun  2 11:25:51 2023, MaxMem=  7381975040 cpu:               2.6 elap:               3.3
 (Enter /software/commercial/gaussian/g16/AVX/g16/l9999.exe)

 ----------------------------------------------------------------------

 Electric dipole moment (input orientation):
 (Debye = 10**-18 statcoulomb cm , SI units = C m)
                  (au)            (Debye)         (10**-30 SI)
   Tot        0.197252D+01      0.501365D+01      0.167237D+02
   x          0.175553D+01      0.446211D+01      0.148840D+02
   y         -0.899352D+00     -0.228592D+01     -0.762502D+01
   z          0.114384D-01      0.290735D-01      0.969787D-01

 Dipole polarizability, Alpha (input orientation).
 (esu units = cm**3 , SI units = C**2 m**2 J**-1)
 Alpha(0;0):
               (au)            (10**-24 esu)      (10**-40 SI)
   iso        0.763200D+02      0.113095D+02      0.125835D+02
   aniso      0.348810D+02      0.516883D+01      0.575110D+01
   xx         0.844193D+02      0.125096D+02      0.139189D+02
   yx         0.274702D+01      0.407066D+00      0.452922D+00
   yy         0.909461D+02      0.134768D+02      0.149950D+02
   zx         0.128123D+00      0.189859D-01      0.211246D-01
   zy        -0.132555D+00     -0.196427D-01     -0.218554D-01
   zz         0.535947D+02      0.794191D+01      0.883657D+01

 First dipole hyperpolarizability, Beta (input orientation).
 ||, _|_  parallel and perpendicular components, (z) with respect to z axis,
 vector components x,y,z.  Values do not include the 1/n! factor of 1/2.
 (esu units = statvolt**-1 cm**4 , SI units = C**3 m**3 J**-2)
 Beta(0;0,0):
               (au)            (10**-30 esu)      (10**-50 SI)
   || (z)    -0.486494D+00     -0.420293D-02     -0.155988D-02
   _|_(z)    -0.162165D+00     -0.140098D-02     -0.519959D-03
   x         -0.160140D+02     -0.138349D+00     -0.513467D-01
   y          0.564609D+03      0.487778D+01      0.181034D+01
   z         -0.243247D+01     -0.210147D-01     -0.779938D-02
   ||         0.112968D+03      0.975958D+00      0.362217D+00
   xxx        0.847123D+01      0.731848D-01      0.271618D-01
   xxy        0.693215D+02      0.598884D+00      0.222270D+00
   yxy       -0.482160D+02     -0.416549D+00     -0.154598D+00
   yyy       -0.114461D+02     -0.988854D-01     -0.367003D-01
   xxz       -0.477482D+00     -0.412507D-02     -0.153098D-02
   yxz        0.245323D-01      0.211940D-03      0.786593D-04
   yyz        0.824083D+00      0.711944D-02      0.264231D-02
   zxz        0.344068D+02      0.297248D+00      0.110321D+00
   zyz        0.130328D+03      0.112593D+01      0.417877D+00
   zzz       -0.115743D+01     -0.999925D-02     -0.371112D-02

 ----------------------------------------------------------------------

 Dipole orientation:
     7         -0.50051103         -0.94210095         -1.90569634
     7         -0.17965756         -0.31810654          2.20556703
     6         -0.99739739         -1.90853557          0.34489191
     6         -2.26338068         -4.37127230          0.86352014
     6          0.67812909          1.35026862         -1.46755295
     6          0.89551258          1.77293849          1.07508150
     1         -1.03582835         -5.63752112          1.94115011
     1         -4.00468205         -4.11038891          1.94578018
     1         -2.73279316         -5.27854370         -0.92363771
     1          1.29353635          2.54726070         -2.99862839
     1          1.68349568          3.30569234          2.15656510
     1         -0.33326881         -0.61661374          4.08266263

 Electric dipole moment (dipole orientation):
 (Debye = 10**-18 statcoulomb cm , SI units = C m)
                  (au)            (Debye)         (10**-30 SI)
   Tot        0.197252D+01      0.501365D+01      0.167237D+02
   x          0.000000D+00      0.000000D+00      0.000000D+00
   y          0.000000D+00      0.000000D+00      0.000000D+00
   z          0.197252D+01      0.501365D+01      0.167237D+02

 Dipole polarizability, Alpha (dipole orientation).
 (esu units = cm**3 , SI units = C**2 m**2 J**-1)
 Alpha(0;0):
               (au)            (10**-24 esu)      (10**-40 SI)
   iso        0.763200D+02      0.113095D+02      0.125835D+02
   aniso      0.348810D+02      0.516883D+01      0.575110D+01
   xx         0.615836D+02      0.912575D+01      0.101538D+02
   yx         0.155429D+02      0.230321D+01      0.256267D+01
   yy         0.838287D+02      0.124221D+02      0.138215D+02
   zx        -0.476707D+00     -0.706407D-01     -0.785984D-01
   zy        -0.928835D+00     -0.137639D+00     -0.153144D+00
   zz         0.835477D+02      0.123805D+02      0.137752D+02

 First dipole hyperpolarizability, Beta (dipole orientation).
 ||, _|_  parallel and perpendicular components, (z) with respect to z axis,
 vector components x,y,z.  Values do not include the 1/n! factor of 1/2.
 (esu units = statvolt**-1 cm**4 , SI units = C**3 m**3 J**-2)
 Beta(0;0,0):
               (au)            (10**-30 esu)      (10**-50 SI)
   || (z)    -0.543389D+02     -0.469445D+00     -0.174230D+00
   _|_(z)    -0.181130D+02     -0.156482D+00     -0.580767D-01
   x          0.226550D+03      0.195721D+01      0.726401D+00
   y          0.440344D+03      0.380423D+01      0.141190D+01
   z         -0.271694D+03     -0.234723D+01     -0.871150D+00
   ||         0.112968D+03      0.975958D+00      0.362217D+00
   xxx        0.140934D+03      0.121756D+01      0.451887D+00
   xxy        0.397386D+02      0.343311D+00      0.127416D+00
   yxy       -0.902377D+02     -0.779584D+00     -0.289335D+00
   yyy        0.586188D+02      0.506421D+00      0.187953D+00
   xxz       -0.158907D+02     -0.137284D+00     -0.509514D-01
   yxz        0.251412D+02      0.217200D+00      0.806118D-01
   yyz        0.201429D+02      0.174019D+00      0.645853D-01
   zxz        0.248199D+02      0.214424D+00      0.795815D-01
   zyz        0.484240D+02      0.418346D+00      0.155265D+00
   zzz       -0.948169D+02     -0.819144D+00     -0.304017D+00

 ----------------------------------------------------------------------
 Unable to Open any file for archive entry.
 1\1\GINC-NODE1936\Freq\RB3LYP\6-311+G(d,p)\C4H6N2\SVICCHI\02-Jun-2023\
 0\\#p freq=raman scale=0.967 pop=(nbo,full,hirshfeld) guess=read geom=
 allcheck b3lyp/6-311+G(d,p) int=grid=ultrafine EmpiricalDispersion=GD3
 BJ SCRF=(Solvent=ethanol) scf=(xqc,intrep,maxconventionalcycle=350) no
 symm\\2methylimidazolide-H_dissociation-site_index-1.gjf\\0,1\N,-1.154
 9226287,-0.0425615288,0.0025708985\N,0.9506268325,-0.7040423372,0.0146
 296431\C,-0.3571752723,-1.0973640331,0.0103177291\C,-0.7810450845,-2.5
 266438085,0.0139488895\C,-0.326641598,1.0657068457,0.001906132\C,0.985
 5256355,0.6760866537,0.0093077207\H,-0.4058296551,-3.0561511928,-0.866
 3880554\H,-0.4114362036,-3.0499993204,0.9003031033\H,-1.8692078308,-2.
 5765445233,0.0106406954\H,-0.7229758898,2.0690029533,-0.0038244796\H,1
 .9106980349,1.226841051,0.0113274556\H,1.75366866,-1.3150447595,0.0207
 13268\\Version=ES64L-G16RevC.01\HF=-265.6418026\RMSD=7.496e-09\RMSF=3.
 956e-05\ZeroPoint=0.0951196\Thermal=0.1007516\ETot=-265.5410509\HTot=-
 265.5401067\GTot=-265.5761259\Dipole=1.7555289,-0.899352,0.0114384\Dip
 oleDeriv=-0.7432695,0.1500342,-0.0021652,-0.0197575,-0.6340912,0.00083
 93,-0.0014877,0.0016058,-0.4072053,-0.6985422,0.1863372,-0.002662,0.42
 63116,-0.461524,0.0026121,-0.0037458,0.0015341,-0.2794249,0.7535897,-0
 .1177321,0.0035184,-0.0804888,0.6035082,-0.0024055,0.0033519,-0.002225
 7,0.0808552,0.0655161,0.0562793,-0.0004438,-0.0576763,-0.0342962,0.000
 4812,-0.0001717,0.0005025,0.1409514,0.2162074,-0.0241372,0.0019588,0.1
 580959,0.1759969,-0.0008495,0.0011418,-0.0019254,-0.2133843,-0.0146396
 ,-0.1826661,0.0015425,-0.3728283,0.1665295,-0.0031223,0.0024801,-0.001
 9543,-0.1923696,0.0646352,0.0064339,0.0825445,-0.0206627,-0.0636223,-0
 .0567333,0.0638962,-0.1240041,-0.0456627,0.0655606,0.0050663,-0.081899
 2,-0.0214367,-0.0620813,0.0566722,-0.0630229,0.1241941,-0.0478954,-0.1
 02719,-0.0538659,-0.0004856,0.0250644,0.0574347,0.0002627,-0.0006651,0
 .0000906,0.1119133,0.0931551,0.0556759,-0.0007451,0.0262852,-0.073381,
 0.001242,-0.0005822,0.0013122,0.2107962,0.0129581,-0.0644077,-0.000793
 7,-0.0400666,0.0753545,0.0004913,-0.0009267,0.0003794,0.246027,0.28754
 83,-0.0170178,-0.0003698,-0.0228401,0.2501722,0.0005098,-0.000268,0.00
 04909,0.3953992\Polar=84.419264,2.7470155,90.9460994,0.128123,-0.13255
 54,53.5946558\PolarDeriv=-8.8794712,2.2581478,-4.3444581,-0.0199967,0.
 0112605,-3.1498739,4.0987406,10.9121401,17.9936258,-0.0401225,-0.01882
 22,-0.1114072,-0.0265525,-0.053902,-0.0855954,-4.2417171,0.5221251,-0.
 051957,-3.8926126,1.0024197,4.6333213,-0.0373638,-0.0030013,0.5719069,
 -1.3908513,0.7996301,9.0305345,0.0030177,-0.0419224,-0.7990392,-0.0400
 147,0.0234215,-0.0276402,2.5838997,-1.6819383,0.0435569,-0.1554298,3.6
 668546,-3.3201602,-0.0117052,0.0525631,1.0752355,-8.7814633,-8.6281586
 ,-26.4678497,-0.0028857,0.0317958,-2.4127561,0.0468418,0.0666529,0.062
 8204,-1.3685464,-4.7245647,0.0367789,8.1630613,2.4664975,-2.5655035,0.
 0421956,-0.0318769,-4.8223175,0.609323,-0.4606027,13.6004878,-0.018782
 ,0.0102337,5.4138143,0.0378169,-0.028041,0.0193083,-2.1643802,9.749176
 4,-0.1127278,-9.6721357,-10.1602424,-13.1705249,0.0497909,-0.0469806,-
 6.9407915,5.0701141,-6.2577003,-2.5638326,0.0080237,0.0257509,4.614781
 4,-0.0245786,-0.0600632,-0.0043749,-4.4878812,5.9699734,-0.1210358,6.5
 81794,4.0327882,9.8344841,-0.0633092,-0.0074414,7.9797733,0.4645912,-0
 .5181573,-6.9841206,0.0449471,0.0349108,-1.3338271,-0.0500312,0.032027
 8,0.0956044,8.5596489,4.1162849,0.0633187,0.6235283,-1.7245511,3.66578
 48,-1.7210673,1.014157,2.385951,-0.2409641,0.5337188,-9.2266087,0.3106
 495,-3.7452227,-2.8606655,-1.5636354,0.2194262,-6.7843019,1.2804292,-5
 .7166003,-6.4776996,0.5964731,-1.7017626,3.6105925,1.7137409,-0.996336
 7,2.3800401,-0.2265248,0.509909,-9.1106334,-0.2888546,3.7508561,-2.871
 4749,1.5523897,-0.191364,6.7812051,1.2633188,-5.7472201,6.6053035,-11.
 7181421,-2.9363757,-2.7279544,-0.019049,0.0009134,-0.9466886,-0.799883
 1,-1.527794,0.1972831,-0.0007769,-0.0112058,-0.3433797,-0.0199875,-0.0
 04345,-0.0211273,-1.3896881,-1.1032333,-0.0032399,-2.4831991,2.5528968
 ,-3.5226326,-0.0228101,0.0269806,-0.0937148,1.8336406,-3.3351498,13.12
 36085,0.0206798,-0.0666815,0.6849906,-0.0210515,0.0258692,-0.0645533,0
 .544677,-0.571827,0.0090771,10.9601473,4.9826218,3.9305855,0.0327684,0
 .0131179,0.5897732,4.5318736,4.1473814,4.522746,-0.0042571,-0.0001443,
 0.6897611,0.0426872,0.0050326,-0.0065379,-1.2016637,-0.8755255,-0.0041
 235,9.8759865,-4.4392946,3.9764655,0.0568055,-0.0333557,0.9707063,-5.1
 685964,3.8247833,-4.1152407,-0.0316389,0.0304517,-0.6707977,0.0661157,
 -0.034715,0.0351927,0.6219032,0.0633493,0.0127486\HyperPolar=8.4712299
 ,69.3215491,-48.2159942,-11.4461028,-0.4774817,0.0245323,0.8240835,34.
 4067576,130.3275895,-1.1574254\Quadrupole=-1.2718138,4.6936922,-3.4218
 784,-0.9060585,0.0386605,-0.0488677\PG=C01 [X(C4H6N2)]\NImag=0\\0.5098
 9414,-0.05764586,0.52893981,0.00203781,-0.00193701,0.10365832,-0.09234
 817,0.07383836,-0.00080072,0.82943791,0.01124914,-0.01976232,0.0002076
 0,-0.17606764,0.74046194,-0.00055392,0.00048982,0.02046491,0.00405964,
 -0.00342377,0.08370102,-0.20409463,0.13706913,-0.00108846,-0.26544547,
 -0.05253403,-0.00068632,0.60529337,0.11899986,-0.27263668,0.00130739,-
 0.06341363,-0.13836094,0.00000464,0.02037188,0.82266265,-0.00102670,0.
 00137381,-0.07896184,-0.00064732,0.00004336,-0.06603098,0.00183240,-0.
 00243110,0.17888869,0.01064768,0.01791313,-0.00000947,-0.00826828,-0.0
 4062020,0.00011879,-0.10049467,-0.04076749,-0.00000935,0.57659156,-0.0
 0412046,-0.02792553,0.00008146,-0.00479419,-0.00396099,-0.00000143,-0.
 04232997,-0.21854190,0.00039982,-0.02013413,0.50115555,0.00008207,0.00
 019390,-0.00242641,-0.00001419,-0.00014360,0.00113949,-0.00000317,0.00
 041975,-0.06440127,0.00025606,0.00001608,0.53330276,-0.16207559,-0.082
 60392,-0.00009417,-0.03493103,0.07435526,-0.00051405,0.01868111,-0.021
 94406,0.00013752,0.00020904,0.00278793,-0.00005306,0.64707034,-0.06616
 757,-0.19186153,0.00018193,0.01911187,-0.06157124,0.00038841,0.0265062
 6,-0.10786078,0.00059129,0.00394238,-0.00086962,0.00004989,-0.16215183
 ,0.78695888,-0.00015750,0.00011363,-0.06912156,-0.00029370,0.00063833,
 0.01433459,-0.00006913,0.00036553,0.01004023,-0.00004123,0.00004790,0.
 00774219,0.00296515,-0.00331487,0.13013063,-0.06484454,-0.07065397,-0.
 00008762,-0.11634587,-0.00952986,-0.00025892,-0.03577780,-0.02472316,-
 0.00013917,-0.00679691,0.00091966,-0.00003530,-0.36057143,0.09358520,-
 0.00169516,0.85862258,-0.00441993,-0.00135415,0.00005615,-0.00434809,-
 0.28962176,0.00092400,-0.07325468,-0.05410333,-0.00004124,0.00485285,0
 .00054749,0.00001277,0.08080430,-0.12239322,0.00057320,0.11268694,0.60
 907972,-0.00035306,-0.00024099,0.01738870,-0.00027604,0.00089790,-0.05
 175351,0.00006152,0.00016202,0.01589244,-0.00005997,0.00001158,0.00144
 377,-0.00164859,0.00063441,-0.06670568,0.00293488,-0.00146118,0.111797
 13,0.00034457,0.00095459,0.00029366,0.00009530,0.00081493,0.00018557,0
 .00293417,-0.00470750,-0.00965469,-0.07781343,0.04148644,0.07378391,-0
 .00062682,-0.00075539,-0.00021593,0.00062212,-0.00090788,-0.00012218,0
 .07926147,-0.00187038,-0.00148334,-0.00159218,0.00106381,0.00301195,0.
 00069696,0.01252230,-0.01849502,-0.02483130,0.04163886,-0.10247771,-0.
 10031553,-0.00136258,-0.00144728,0.00149989,0.00063663,-0.00246943,0.0
 0025901,-0.04569455,0.11568367,-0.00012837,0.00111442,-0.00029322,0.00
 009957,0.00016022,0.00073893,-0.00183964,0.00041101,0.00369532,0.07450
 931,-0.10028439,-0.21564237,-0.00058702,0.00000433,-0.00029216,0.00004
 131,-0.00075413,-0.00002083,-0.08147752,0.11000295,0.23244466,0.000344
 14,0.00095341,-0.00029943,0.00009769,0.00082153,-0.00019821,0.00285683
 ,-0.00463411,0.00967925,-0.07687719,0.04034724,-0.07319125,-0.00062980
 ,-0.00075289,0.00021684,0.00062075,-0.00091058,0.00013918,0.00404904,-
 0.00614197,0.00970978,0.07822837,-0.00189059,-0.00149790,0.00158794,0.
 00106842,0.00300830,-0.00071126,0.01239304,-0.01830567,0.02507214,0.04
 048530,-0.10110165,0.09978243,-0.00133729,-0.00145841,-0.00150241,0.00
 063762,-0.00246046,-0.00023121,-0.00613213,0.00760687,-0.01206105,-0.0
 4444093,0.11417765,0.00014633,-0.00109859,-0.00029682,-0.00011234,-0.0
 0017223,0.00074123,0.00174081,-0.00029485,0.00359065,-0.07391293,0.099
 76732,-0.21798846,0.00059331,-0.00000466,-0.00027259,-0.00003960,0.000
 76718,-0.00002472,-0.00950516,0.01182100,-0.02145372,0.08081303,-0.109
 48188,0.23502454,0.00108773,0.00204604,0.00000033,0.00073274,-0.001769
 60,0.00000938,-0.01030484,0.00040256,-0.00003162,-0.31871678,-0.013591
 95,-0.00082894,0.00000957,-0.00051965,0.00000135,-0.00026371,0.0003464
 1,-0.00000484,-0.00874504,-0.00031701,-0.00021550,-0.00857256,-0.00030
 148,0.00015772,0.34436018,0.00102922,0.00277519,-0.00001210,-0.0004988
 5,-0.00710647,0.00003171,-0.03593093,-0.00042718,-0.00012712,-0.006983
 83,-0.04713188,-0.00000839,-0.00010547,-0.00000326,-0.00000125,-0.0016
 3797,0.00015316,-0.00000672,0.01506949,0.00042416,0.00162187,0.0148978
 9,0.00039643,-0.00152472,0.01368272,0.05150340,0.00000586,-0.00000538,
 0.00024089,0.00000086,0.00001814,0.00096095,0.00009381,-0.00000992,-0.
 00229207,-0.00085445,-0.00002937,-0.04498236,0.00000345,-0.00000301,-0
 .00033134,0.00000191,0.00000500,0.00051206,0.02627065,0.00241122,0.001
 05890,-0.02643300,-0.00241296,0.00092213,0.00090901,0.00002424,0.04421
 224,0.01196868,-0.02043049,0.00015656,-0.00570730,0.00201479,-0.000057
 71,-0.00286413,-0.00425991,-0.00001637,0.00090396,-0.00050287,0.000000
 02,-0.10302830,0.10816472,-0.00076388,0.00088221,0.02365476,-0.0000905
 7,-0.00003303,-0.00019776,-0.00000128,-0.00003152,-0.00019563,0.000002
 71,0.00002305,0.00010846,0.00000008,0.09702954,0.00759171,-0.01867080,
 0.00008825,0.00018634,0.00099331,0.00001783,-0.00373500,-0.00254764,0.
 00001027,0.00081708,-0.00030552,0.00001096,0.10579092,-0.30444001,0.00
 156476,-0.00213494,0.00038407,-0.00000985,-0.00002282,-0.00025505,0.00
 001118,-0.00002454,-0.00025838,-0.00000975,-0.00000528,0.00007829,-0.0
 0000054,-0.10889602,0.32508036,0.00004653,-0.00003772,-0.00503348,-0.0
 0005000,0.00002471,0.00530199,-0.00001789,0.00000917,0.00447327,-0.000
 00505,0.00000360,0.00140868,-0.00075516,0.00157695,-0.02761428,0.00001
 089,0.00010616,0.00024969,0.00018590,0.00033190,-0.00002391,-0.0001862
 9,-0.00033187,-0.00002268,0.00000064,-0.00000040,-0.00007795,0.0007646
 1,-0.00168190,0.02219538,-0.00484621,-0.00029823,-0.00005358,0.0085377
 1,0.00611491,0.00002883,-0.00127428,0.00294668,-0.00003002,0.00043747,
 -0.00010587,-0.00000273,-0.00485449,-0.01643179,0.00004335,-0.28660621
 ,-0.13570394,-0.00066070,0.00001681,-0.00004684,0.00000720,0.00001908,
 -0.00004592,-0.00000673,0.00013641,0.00010555,-0.00000017,0.00002590,0
 .00047750,0.00001013,0.28859431,0.00389655,0.00150027,0.00004014,-0.03
 013253,-0.01165653,-0.00010416,0.00385507,-0.00575482,0.00005044,-0.00
 161836,0.00031178,-0.00000292,0.00630268,0.01188385,-0.00001975,-0.125
 64938,-0.13256402,-0.00013174,0.00002219,0.00006830,-0.00000641,0.0000
 2053,0.00006777,0.00000587,-0.00013266,-0.00053969,0.00000161,-0.00063
 305,-0.00032298,-0.00001189,0.14372462,0.13628542,-0.00006929,0.000020
 08,0.00735445,0.00017325,0.00006088,-0.00327698,-0.00003393,0.00004815
 ,0.00274437,0.00000120,0.00000271,0.00120268,-0.00004214,-0.00012126,-
 0.00037774,-0.00070490,-0.00017823,-0.02234995,0.00023962,0.00013326,-
 0.00000728,-0.00023903,-0.00013349,-0.00000833,0.00000091,0.00000169,0
 .00008178,0.00001447,-0.00000687,-0.00262716,0.00065534,0.00018550,0.0
 1873118,-0.00607781,-0.00114218,-0.00005493,-0.31585524,0.18515077,-0.
 00213308,-0.00950966,0.02172887,-0.00009392,0.00017755,0.00003816,0.00
 000658,0.00074741,-0.00453131,0.00000986,0.01045880,-0.00280017,0.0000
 8038,-0.00010517,-0.00023050,-0.00011785,-0.00010484,-0.00024041,0.000
 12284,0.00025323,0.00026371,0.00000199,0.00083093,-0.00004496,-0.00000
 430,-0.00018650,0.00034435,0.00000450,0.31937129,-0.00665170,0.0019769
 7,-0.00000959,0.18398612,-0.21543525,0.00168725,-0.00493307,0.01437132
 ,-0.00011038,0.00047440,0.00029999,-0.00001535,-0.00053593,-0.00693736
 ,0.00003504,0.02586322,-0.00519807,0.00011677,-0.00012737,-0.00016713,
 -0.00022002,-0.00013557,-0.00017455,0.00022531,0.00015991,-0.00012214,
 0.00000096,0.00117299,0.00026434,0.00001127,-0.00073667,0.00072065,-0.
 00001243,-0.19853633,0.21040124,-0.00002977,0.00001402,0.00702606,-0.0
 0213902,0.00168846,-0.00632163,0.00001000,0.00000821,-0.00763881,0.000
 00709,-0.00001527,-0.00079869,-0.00000524,0.00001658,0.00246771,-0.000
 02833,-0.00000970,-0.00642910,0.00001617,-0.00041719,-0.00020432,-0.00
 001086,0.00042361,-0.00021123,0.00000156,0.00000118,-0.00030523,-0.000
 00863,0.00000564,0.00177046,0.00000910,-0.00000670,-0.00146702,0.00217
 793,-0.00170884,0.01211181\\0.00010121,-0.00006341,-0.00000072,-0.0000
 4629,-0.00002570,0.00000196,-0.00000382,0.00013584,-0.00000064,0.00004
 899,0.00005203,0.00000072,-0.00005178,-0.00006893,-0.00000069,-0.00000
 025,-0.00001577,0.00000060,0.00000916,-0.00002519,-0.00002556,0.000008
 66,-0.00002428,0.00002498,-0.00006528,0.00000462,-0.00000081,-0.000014
 93,0.00000368,-0.00000078,0.00001595,0.00002338,0.00000050,-0.00000162
 ,0.00000375,0.00000043\\\@
 The archive entry for this job was punched.


 I DO NOT DEFINE TIME, SPACE, PLACE, AND MOTION, AS BEING WELL KNOWN TO ALL.
                                            -- NEWTON (1642-1726), PRINCIPIA
 Job cpu time:       0 days  0 hours 16 minutes  9.5 seconds.
 Elapsed time:       0 days  0 hours  8 minutes 49.3 seconds.
 File lengths (MBytes):  RWF=     95 Int=      0 D2E=      0 Chk=     12 Scr=      1
 Normal termination of Gaussian 16 at Fri Jun  2 11:25:56 2023.
