 Entering Gaussian System, Link 0=g16
 Input=TDA-isolated-freq.gjf
 Output=TDA-isolated-freq.log
 Initial command:
 /software/commercial/gaussian/g16/AVX/g16/l1.exe "/scratch1/svicchi/G09-659906.pbs02/Gau-1739054.inp" -scrdir="/scratch1/svicchi/G09-659906.pbs02/"
 Entering Link 1 = /software/commercial/gaussian/g16/AVX/g16/l1.exe PID=   1739055.
  
 Copyright (c) 1988-2019, Gaussian, Inc.  All Rights Reserved.
  
 This is part of the Gaussian(R) 16 program.  It is based on
 the Gaussian(R) 09 system (copyright 2009, Gaussian, Inc.),
 the Gaussian(R) 03 system (copyright 2003, Gaussian, Inc.),
 the Gaussian(R) 98 system (copyright 1998, Gaussian, Inc.),
 the Gaussian(R) 94 system (copyright 1995, Gaussian, Inc.),
 the Gaussian 92(TM) system (copyright 1992, Gaussian, Inc.),
 the Gaussian 90(TM) system (copyright 1990, Gaussian, Inc.),
 the Gaussian 88(TM) system (copyright 1988, Gaussian, Inc.),
 the Gaussian 86(TM) system (copyright 1986, Carnegie Mellon
 University), and the Gaussian 82(TM) system (copyright 1983,
 Carnegie Mellon University). Gaussian is a federally registered
 trademark of Gaussian, Inc.
  
 This software contains proprietary and confidential information,
 including trade secrets, belonging to Gaussian, Inc.
  
 This software is provided under written license and may be
 used, copied, transmitted, or stored only in accord with that
 written license.
  
 The following legend is applicable only to US Government
 contracts under FAR:
  
                    RESTRICTED RIGHTS LEGEND
  
 Use, reproduction and disclosure by the US Government is
 subject to restrictions as set forth in subparagraphs (a)
 and (c) of the Commercial Computer Software - Restricted
 Rights clause in FAR 52.227-19.
  
 Gaussian, Inc.
 340 Quinnipiac St., Bldg. 40, Wallingford CT 06492
  
  
 ---------------------------------------------------------------
 Warning -- This program may not be used in any manner that
 competes with the business of Gaussian, Inc. or will provide
 assistance to any competitor of Gaussian, Inc.  The licensee
 of this program is prohibited from giving any competitor of
 Gaussian, Inc. access to this program.  By using this program,
 the user acknowledges that Gaussian, Inc. is engaged in the
 business of creating and licensing software in the field of
 computational chemistry and represents and warrants to the
 licensee that it is not a competitor of Gaussian, Inc. and that
 it will not use this program in any manner prohibited above.
 ---------------------------------------------------------------
  

 Cite this work as:
 Gaussian 16, Revision C.01,
 M. J. Frisch, G. W. Trucks, H. B. Schlegel, G. E. Scuseria, 
 M. A. Robb, J. R. Cheeseman, G. Scalmani, V. Barone, 
 G. A. Petersson, H. Nakatsuji, X. Li, M. Caricato, A. V. Marenich, 
 J. Bloino, B. G. Janesko, R. Gomperts, B. Mennucci, H. P. Hratchian, 
 J. V. Ortiz, A. F. Izmaylov, J. L. Sonnenberg, D. Williams-Young, 
 F. Ding, F. Lipparini, F. Egidi, J. Goings, B. Peng, A. Petrone, 
 T. Henderson, D. Ranasinghe, V. G. Zakrzewski, J. Gao, N. Rega, 
 G. Zheng, W. Liang, M. Hada, M. Ehara, K. Toyota, R. Fukuda, 
 J. Hasegawa, M. Ishida, T. Nakajima, Y. Honda, O. Kitao, H. Nakai, 
 T. Vreven, K. Throssell, J. A. Montgomery, Jr., J. E. Peralta, 
 F. Ogliaro, M. J. Bearpark, J. J. Heyd, E. N. Brothers, K. N. Kudin, 
 V. N. Staroverov, T. A. Keith, R. Kobayashi, J. Normand, 
 K. Raghavachari, A. P. Rendell, J. C. Burant, S. S. Iyengar, 
 J. Tomasi, M. Cossi, J. M. Millam, M. Klene, C. Adamo, R. Cammi, 
 J. W. Ochterski, R. L. Martin, K. Morokuma, O. Farkas, 
 J. B. Foresman, and D. J. Fox, Gaussian, Inc., Wallingford CT, 2019.
 
 ******************************************
 Gaussian 16:  ES64L-G16RevC.01  3-Jul-2019
                 2-Jun-2023 
 ******************************************
 %NProcShared=2
 Will use up to    2 processors via shared memory.
 %mem=55gb
 %chk=/scratch1/svicchi/G09-659906.pbs02/02-freq/TDA-isolated-freq.chk
 ----------------------------------------------------------------------
 #p freq=raman scale=0.967 pop=(nbo,full,hirshfeld) guess=read geom=all
 check b3lyp/6-311+G(d,p) int=grid=ultrafine EmpiricalDispersion=GD3BJ 
 SCRF=(Solvent=ethanol) scf=(xqc,intrep,maxconventionalcycle=350) nosym
 m
 ----------------------------------------------------------------------
 1/10=4,29=7,30=1,38=1,114=967000/1,3;
 2/12=2,15=1,40=1/2;
 3/5=4,6=6,7=111,11=2,14=-4,25=1,30=1,70=2201,71=2,72=4,74=-5,75=-5,116=-2,124=41,140=1/1,2,3;
 4/5=1/1;
 5/5=2,8=3,13=1,17=20,38=6,53=4,85=350,98=1/2,8;
 8/6=4,10=90,11=11/1;
 10/13=10,15=4,31=1/2;
 11/6=3,8=1,9=11,15=111,16=1,31=1/1,2,10;
 10/6=1,31=1/2;
 6/7=3,28=1,40=1,79=1/1,7;
 7/8=1,10=1,25=1,30=1/1,2,3,16;
 1/10=4,30=1/3;
 99//99;
 Leave Link    1 at Fri Jun  2 11:23:49 2023, MaxMem=  7381975040 cpu:               0.8 elap:               1.1
 (Enter /software/commercial/gaussian/g16/AVX/g16/l101.exe)
 Structure from the checkpoint file:  "/scratch1/svicchi/G09-659906.pbs02/02-freq/TDA-isolated-freq.chk"
 ----------------
 TDA-isolated.gjf
 ----------------
 Charge =  0 Multiplicity = 1
 No Z-Matrix found in chk file; cartesian coordinates used.
  C                                                -3.567810066800      0.810514441683      0.119556198270
  C                                                -2.291491797159      1.643448217869      0.040212955034
  C                                                -1.036667293280      0.787789603513     -0.108983353373
  H                                                -2.196881905929      2.258720580106      0.942627110493
  H                                                -2.369371507453      2.333349173106     -0.808240056619
  N                                                -4.749849232513      1.676771895727      0.260509224305
  H                                                -3.473086552169      0.084399929861      0.941266882479
  H                                                -3.685897754612      0.232232978641     -0.802150320104
  H                                                -4.712944956212      2.166515490289      1.150615861315
  H                                                -5.594600101053      1.113416712043      0.282913514877
  N                                                 0.167188131365      1.632510446118     -0.177323102316
  H                                                -1.148325918597      0.135643262343     -0.988556991139
  H                                                -0.934916703048      0.131606735077      0.761076074102
  H                                                 0.143307272997      2.197254994414     -1.022311567042
  H                                                 0.997279384463      1.051755539210     -0.249222430281
 Recover connectivity data from disk.
 ITRead=  0  0  0  0  0  0  0  0  0  0  0  0  0  0  0
 MicOpt= -1 -1 -1 -1 -1 -1 -1 -1 -1 -1 -1 -1 -1 -1 -1
 NAtoms=     15 NQM=       15 NQMF=       0 NMMI=      0 NMMIF=      0
                NMic=       0 NMicF=      0.
                    Isotopes and Nuclear Properties:
 (Nuclear quadrupole moments (NQMom) in fm**2, nuclear magnetic moments (NMagM)
  in nuclear magnetons)

  Atom         1           2           3           4           5           6           7           8           9          10
 IAtWgt=          12          12          12           1           1          14           1           1           1           1
 AtmWgt=  12.0000000  12.0000000  12.0000000   1.0078250   1.0078250  14.0030740   1.0078250   1.0078250   1.0078250   1.0078250
 NucSpn=           0           0           0           1           1           2           1           1           1           1
 AtZEff=   3.6000000   3.6000000   3.6000000   1.0000000   1.0000000   4.5500000   1.0000000   1.0000000   1.0000000   1.0000000
 NQMom=    0.0000000   0.0000000   0.0000000   0.0000000   0.0000000   2.0440000   0.0000000   0.0000000   0.0000000   0.0000000
 NMagM=    0.0000000   0.0000000   0.0000000   2.7928460   2.7928460   0.4037610   2.7928460   2.7928460   2.7928460   2.7928460
 AtZNuc=   6.0000000   6.0000000   6.0000000   1.0000000   1.0000000   7.0000000   1.0000000   1.0000000   1.0000000   1.0000000

  Atom        11          12          13          14          15
 IAtWgt=          14           1           1           1           1
 AtmWgt=  14.0030740   1.0078250   1.0078250   1.0078250   1.0078250
 NucSpn=           2           1           1           1           1
 AtZEff=   4.5500000   1.0000000   1.0000000   1.0000000   1.0000000
 NQMom=    2.0440000   0.0000000   0.0000000   0.0000000   0.0000000
 NMagM=    0.4037610   2.7928460   2.7928460   2.7928460   2.7928460
 AtZNuc=   7.0000000   1.0000000   1.0000000   1.0000000   1.0000000
 Leave Link  101 at Fri Jun  2 11:23:52 2023, MaxMem=  7381975040 cpu:               0.3 elap:               1.2
 (Enter /software/commercial/gaussian/g16/AVX/g16/l103.exe)

 GradGradGradGradGradGradGradGradGradGradGradGradGradGradGradGradGradGrad
 Berny optimization.
 Initialization pass.
 Trust Radius=3.00D-01 FncErr=1.00D-07 GrdErr=1.00D-07 EigMax=2.50D+02 EigMin=1.00D-04
 Number of steps in this run=      2 maximum allowed number of steps=      2.
 GradGradGradGradGradGradGradGradGradGradGradGradGradGradGradGradGradGrad

 Leave Link  103 at Fri Jun  2 11:23:55 2023, MaxMem=  7381975040 cpu:               0.2 elap:               1.6
 (Enter /software/commercial/gaussian/g16/AVX/g16/l202.exe)
                          Input orientation:                          
 ---------------------------------------------------------------------
 Center     Atomic      Atomic             Coordinates (Angstroms)
 Number     Number       Type             X           Y           Z
 ---------------------------------------------------------------------
      1          6           0       -3.567810    0.810514    0.119556
      2          6           0       -2.291492    1.643448    0.040213
      3          6           0       -1.036667    0.787790   -0.108983
      4          1           0       -2.196882    2.258721    0.942627
      5          1           0       -2.369372    2.333349   -0.808240
      6          7           0       -4.749849    1.676772    0.260509
      7          1           0       -3.473087    0.084400    0.941267
      8          1           0       -3.685898    0.232233   -0.802150
      9          1           0       -4.712945    2.166515    1.150616
     10          1           0       -5.594600    1.113417    0.282914
     11          7           0        0.167188    1.632510   -0.177323
     12          1           0       -1.148326    0.135643   -0.988557
     13          1           0       -0.934917    0.131607    0.761076
     14          1           0        0.143307    2.197255   -1.022312
     15          1           0        0.997279    1.051756   -0.249222
 ---------------------------------------------------------------------
                    Distance matrix (angstroms):
                    1          2          3          4          5
     1  C    0.000000
     2  C    1.526127   0.000000
     3  C    2.541541   1.526105   0.000000
     4  H    2.157357   1.096295   2.148400   0.000000
     5  H    2.148508   1.096312   2.157270   1.760925   0.000000
     6  N    1.472239   2.468433   3.835953   2.705844   2.690723
     7  H    1.100647   2.153763   2.744799   2.521184   3.055607
     8  H    1.094485   2.155336   2.794199   3.060730   2.479510
     9  H    2.052598   2.714780   4.123408   2.526328   3.058968
    10  H    2.055800   3.354156   4.586324   3.645742   3.616760
    11  N    3.835887   2.468309   1.472240   2.689843   2.706172
    12  H    2.745409   2.153758   1.100642   3.055552   2.520591
    13  H    2.793670   2.155366   1.094501   2.479946   3.060733
    14  H    4.123021   2.713652   2.052584   3.056345   2.525451
    15  H    4.586310   3.354085   2.055793   3.616619   3.645452
                    6          7          8          9         10
     6  N    0.000000
     7  H    2.151558   0.000000
     8  H    2.085169   1.762568   0.000000
     9  H    1.016612   2.432341   2.934207   0.000000
    10  H    1.015616   2.448086   2.365796   1.624574   0.000000
    11  N    4.936690   4.110899   4.146982   5.085694   5.803402
    12  H    4.111717   3.021814   2.546242   4.626771   4.726736
    13  H    4.146301   2.544996   3.165707   4.308839   4.785942
    14  H    5.085225   4.625808   4.309593   5.320314   5.983469
    15  H    5.803444   4.726226   4.786386   5.984054   6.613611
                   11         12         13         14         15
    11  N    0.000000
    12  H    2.151578   0.000000
    13  H    2.085171   1.762605   0.000000
    14  H    1.016618   2.433043   2.934270   0.000000
    15  H    1.015627   2.447345   2.366592   1.624532   0.000000
 Symmetry turned off by external request.
 Stoichiometry    C3H10N2
 Framework group  C1[X(C3H10N2)]
 Deg. of freedom    39
 Full point group                 C1      NOp   1
 Rotational constants (GHZ):          19.3148884           1.9671508           1.8662697
 Leave Link  202 at Fri Jun  2 11:23:57 2023, MaxMem=  7381975040 cpu:               0.0 elap:               0.9
 (Enter /software/commercial/gaussian/g16/AVX/g16/l301.exe)
 Standard basis: 6-311+G(d,p) (5D, 7F)
 Ernie: Thresh=  0.10000D-02 Tol=  0.10000D-05 Strict=F.
   170 basis functions,   260 primitive gaussians,   175 cartesian basis functions
    21 alpha electrons       21 beta electrons
       nuclear repulsion energy       186.1267074056 Hartrees.
 IExCor=  402 DFT=T Ex+Corr=B3LYP ExCW=0 ScaHFX=  0.200000
 ScaDFX=  0.800000  0.720000  1.000000  0.810000 ScalE2=  1.000000  1.000000
 IRadAn=      5 IRanWt=     -1 IRanGd=            0 ICorTp=0 IEmpDi=141
 NAtoms=   15 NActive=   15 NUniq=   15 SFac= 1.00D+00 NAtFMM=   60 NAOKFM=F Big=F
 Integral buffers will be    131072 words long.
 Raffenetti 2 integral format.
 Two-electron integral symmetry is turned off.
 R6Disp:  Grimme-D3(BJ) Dispersion energy=       -0.0166438009 Hartrees.
 Nuclear repulsion after empirical dispersion term =      186.1100636046 Hartrees.
 Force inversion solution in PCM.
 ------------------------------------------------------------------------------
 Polarizable Continuum Model (PCM)
 =================================
 Model                : PCM.
 Atomic radii         : UFF (Universal Force Field).
 Polarization charges : Total charges.
 Charge compensation  : None.
 Solution method      : Matrix inversion.
 Cavity type          : Scaled VdW (van der Waals Surface) (Alpha=1.100).
 Cavity algorithm     : GePol (No added spheres)
                        Default sphere list used, NSphG=   15.
                        Lebedev-Laikov grids with approx.  5.0 points / Ang**2.
                        Smoothing algorithm: York/Karplus (Gamma=1.0000).
                        Polarization charges: spherical gaussians, with
                                              point-specific exponents (IZeta= 3).
                        Self-potential: point-specific (ISelfS= 7).
                        Self-field    : sphere-specific E.n sum rule (ISelfD= 2).
 1st derivatives      : Analytical E(r).r(x)/FMM algorithm (CHGder, D1EAlg=3).
                        Cavity 1st derivative terms included.
 2nd derivatives      : Analytical E(r).r(xy)/FMM algorithm (CHGder, D2EAlg=3).
                        Cavity 2nd derivative terms included.
 Solvent              : Ethanol, Eps=  24.852000 Eps(inf)=   1.852593
 ------------------------------------------------------------------------------
 Spheres list:
 ISph  on   Nord     Re0    Alpha      Xe            Ye            Ze
    1   C      1    1.9255  1.100     -3.567810      0.810514      0.119556
    2   C      2    1.9255  1.100     -2.291492      1.643448      0.040213
    3   C      3    1.9255  1.100     -1.036667      0.787790     -0.108983
    4   H      4    1.4430  1.100     -2.196882      2.258721      0.942627
    5   H      5    1.4430  1.100     -2.369372      2.333349     -0.808240
    6   N      6    1.8300  1.100     -4.749849      1.676772      0.260509
    7   H      7    1.4430  1.100     -3.473087      0.084400      0.941267
    8   H      8    1.4430  1.100     -3.685898      0.232233     -0.802150
    9   H      9    1.4430  1.100     -4.712945      2.166515      1.150616
   10   H     10    1.4430  1.100     -5.594600      1.113417      0.282914
   11   N     11    1.8300  1.100      0.167188      1.632510     -0.177323
   12   H     12    1.4430  1.100     -1.148326      0.135643     -0.988557
   13   H     13    1.4430  1.100     -0.934917      0.131607      0.761076
   14   H     14    1.4430  1.100      0.143307      2.197255     -1.022312
   15   H     15    1.4430  1.100      0.997279      1.051756     -0.249222
 ------------------------------------------------------------------------------
 GePol: Number of generator spheres                  =      15
 GePol: Total number of spheres                      =      15
 GePol: Number of exposed spheres                    =      15 (100.00%)
 GePol: Number of points                             =    1168
 GePol: Average weight of points                     =       0.13
 GePol: Minimum weight of points                     =   0.12D-09
 GePol: Maximum weight of points                     =    0.20577
 GePol: Number of points with low weight             =      61
 GePol: Fraction of low-weight points (<1% of avg)   =       5.22%
 GePol: Cavity surface area                          =    157.145 Ang**2
 GePol: Cavity volume                                =    141.880 Ang**3
 Leave Link  301 at Fri Jun  2 11:23:59 2023, MaxMem=  7381975040 cpu:               0.7 elap:               1.1
 (Enter /software/commercial/gaussian/g16/AVX/g16/l302.exe)
 NPDir=0 NMtPBC=     1 NCelOv=     1 NCel=       1 NClECP=     1 NCelD=      1
         NCelK=      1 NCelE2=     1 NClLst=     1 CellRange=     0.0.
 One-electron integrals computed using PRISM.
 NBasis=   170 RedAO= T EigKep=  3.58D-05  NBF=   170
 NBsUse=   170 1.00D-06 EigRej= -1.00D+00 NBFU=   170
 Precomputing XC quadrature grid using
 IXCGrd= 4 IRadAn=           5 IRanWt=          -1 IRanGd=           0 AccXCQ= 0.00D+00.
 Generated NRdTot=       0 NPtTot=           0 NUsed=           0 NTot=          32
 NSgBfM=   175   175   175   175   175 MxSgAt=    15 MxSgA2=    15.
 Leave Link  302 at Fri Jun  2 11:24:02 2023, MaxMem=  7381975040 cpu:               0.8 elap:               1.9
 (Enter /software/commercial/gaussian/g16/AVX/g16/l303.exe)
 DipDrv:  MaxL=1.
 Leave Link  303 at Fri Jun  2 11:24:03 2023, MaxMem=  7381975040 cpu:               0.4 elap:               0.9
 (Enter /software/commercial/gaussian/g16/AVX/g16/l401.exe)
 Initial guess from the checkpoint file:  "/scratch1/svicchi/G09-659906.pbs02/02-freq/TDA-isolated-freq.chk"
 B after Tr=     0.000000    0.000000    0.000000
         Rot=    1.000000    0.000000    0.000000    0.000000 Ang=   0.00 deg.
 Guess basis will be translated and rotated to current coordinates.
 JPrj=2 DoOrth=T DoCkMO=T.
 Leave Link  401 at Fri Jun  2 11:24:07 2023, MaxMem=  7381975040 cpu:               0.7 elap:               2.6
 (Enter /software/commercial/gaussian/g16/AVX/g16/l502.exe)
 Keep R1 ints in memory in canonical form, NReq=108367237.
 FoFCou: FMM=F IPFlag=           0 FMFlag=           0 FMFlg1=           0
         NFxFlg=           0 DoJE=F BraDBF=F KetDBF=F FulRan=T
         wScrn=  0.000000 ICntrl=       600 IOpCl=  0 I1Cent=           0 NGrid=           0
         NMat0=    1 NMatS0=  14535 NMatT0=    0 NMatD0=    1 NMtDS0=    0 NMtDT0=    0
 Symmetry not used in FoFCou.
 Two-electron integral symmetry not used.
 Closed shell SCF:
 Using DIIS extrapolation, IDIIS=  1040.
 NGot=  7381975040 LenX=  7276270509 LenY=  7276239443
 Requested convergence on RMS density matrix=1.00D-08 within 350 cycles.
 Requested convergence on MAX density matrix=1.00D-06.
 Requested convergence on             energy=1.00D-06.
 No special actions if energy rises.

 Cycle   1  Pass 1  IDiag  1:
 Inv3:  Mode=1 IEnd=     4092672.
 Iteration    1 A*A^-1 deviation from unit magnitude is 3.44D-15 for   1152.
 Iteration    1 A*A^-1 deviation from orthogonality  is 2.49D-15 for   1161    415.
 Iteration    1 A^-1*A deviation from unit magnitude is 3.44D-15 for   1152.
 Iteration    1 A^-1*A deviation from orthogonality  is 1.20D-15 for   1160    488.
 E= -229.935024277758    
 DIIS: error= 1.42D-08 at cycle   1 NSaved=   1.
 NSaved= 1 IEnMin= 1 EnMin= -229.935024277758     IErMin= 1 ErrMin= 1.42D-08
 ErrMax= 1.42D-08  0.00D+00 EMaxC= 1.00D-01 BMatC= 4.60D-14 BMatP= 4.60D-14
 IDIUse=1 WtCom= 1.00D+00 WtEn= 0.00D+00
 Coeff-Com:  0.100D+01
 Coeff:      0.100D+01
 Gap=     0.254 Goal=   None    Shift=    0.000
 RMSDP=2.51D-09 MaxDP=9.58D-08              OVMax= 1.13D-07

 Error on total polarization charges =  0.01494
 SCF Done:  E(RB3LYP) =  -229.935024278     A.U. after    1 cycles
            NFock=  1  Conv=0.25D-08     -V/T= 2.0047
 KE= 2.288499587202D+02 PE=-9.069252311186D+02 EE= 2.620301845160D+02
 Leave Link  502 at Fri Jun  2 11:24:22 2023, MaxMem=  7381975040 cpu:              20.0 elap:              12.9
 (Enter /software/commercial/gaussian/g16/AVX/g16/l508.exe)
 QCSCF skips out because SCF is already converged.
 Leave Link  508 at Fri Jun  2 11:24:24 2023, MaxMem=  7381975040 cpu:               0.1 elap:               0.7
 (Enter /software/commercial/gaussian/g16/AVX/g16/l801.exe)
 DoSCS=F DFT=T ScalE2(SS,OS)=  1.000000  1.000000
 Range of M.O.s used for correlation:     1   170
 NBasis=   170 NAE=    21 NBE=    21 NFC=     0 NFV=     0
 NROrb=    170 NOA=    21 NOB=    21 NVA=   149 NVB=   149

 **** Warning!!: The largest alpha MO coefficient is  0.68858905D+02

 Leave Link  801 at Fri Jun  2 11:24:27 2023, MaxMem=  7381975040 cpu:               0.3 elap:               1.7
 (Enter /software/commercial/gaussian/g16/AVX/g16/l1002.exe)
 Minotr:  Closed shell wavefunction.
 NEqPCM:  Using equilibrium solvation (IEInf=0, Eps=  24.8520, EpsInf=   1.8526)
          Direct CPHF calculation.
          Differentiating once with respect to electric field.
                with respect to dipole field.
          Electric field/nuclear overlap derivatives assumed to be zero.
          Requested convergence is 1.0D-08 RMS, and 1.0D-07 maximum.
          Secondary convergence is 1.0D-12 RMS, and 1.0D-12 maximum.
          NewPWx=F KeepS1=T KeepF1=T KeepIn=T MapXYZ=F SortEE=F KeepMc=T.
         4583 words used for storage of precomputed grid.
 Keep R1 ints in memory in canonical form, NReq=110221306.
 FoFCou: FMM=F IPFlag=           0 FMFlag=           0 FMFlg1=           0
         NFxFlg=           0 DoJE=F BraDBF=F KetDBF=F FulRan=T
         wScrn=  0.000000 ICntrl=       600 IOpCl=  0 I1Cent=           0 NGrid=           0
         NMat0=    1 NMatS0=  14535 NMatT0=    0 NMatD0=    1 NMtDS0=    0 NMtDT0=    0
 Symmetry not used in FoFCou.
 Two-electron integral symmetry not used.
          MDV=    7381975040 using IRadAn=       1.
          Solving linear equations simultaneously, MaxMat=       0.
          There are     3 degrees of freedom in the 1st order CPHF.  IDoFFX=0 NUNeed=     3.
      3 vectors produced by pass  0 Test12= 1.04D-13 3.33D-08 XBig12= 3.55D+01 1.81D+00.
 AX will form     3 AO Fock derivatives at one time.
      3 vectors produced by pass  1 Test12= 1.04D-13 3.33D-08 XBig12= 3.16D+00 3.68D-01.
      3 vectors produced by pass  2 Test12= 1.04D-13 3.33D-08 XBig12= 8.37D-01 1.53D-01.
      3 vectors produced by pass  3 Test12= 1.04D-13 3.33D-08 XBig12= 8.95D-02 5.29D-02.
      3 vectors produced by pass  4 Test12= 1.04D-13 3.33D-08 XBig12= 2.39D-02 3.90D-02.
      3 vectors produced by pass  5 Test12= 1.04D-13 3.33D-08 XBig12= 2.34D-03 8.79D-03.
      3 vectors produced by pass  6 Test12= 1.04D-13 3.33D-08 XBig12= 1.24D-04 2.93D-03.
      3 vectors produced by pass  7 Test12= 1.04D-13 3.33D-08 XBig12= 2.70D-05 9.62D-04.
      3 vectors produced by pass  8 Test12= 1.04D-13 3.33D-08 XBig12= 1.71D-06 1.86D-04.
      3 vectors produced by pass  9 Test12= 1.04D-13 3.33D-08 XBig12= 5.93D-08 4.08D-05.
      2 vectors produced by pass 10 Test12= 1.04D-13 3.33D-08 XBig12= 1.24D-09 4.47D-06.
      1 vectors produced by pass 11 Test12= 1.04D-13 3.33D-08 XBig12= 1.80D-11 5.40D-07.
      1 vectors produced by pass 12 Test12= 1.04D-13 3.33D-08 XBig12= 4.82D-13 9.33D-08.
 InvSVY:  IOpt=1 It=  1 EMax= 8.88D-16
 Solved reduced A of dimension    34 with     3 vectors.
 End of Minotr F.D. properties file   721 does not exist.
 End of Minotr F.D. properties file   722 does not exist.
 End of Minotr F.D. properties file   788 does not exist.
 Leave Link 1002 at Fri Jun  2 11:25:34 2023, MaxMem=  7381975040 cpu:             109.7 elap:              66.0
 (Enter /software/commercial/gaussian/g16/AVX/g16/l1101.exe)
 Using compressed storage, NAtomX=    15.
 Will process     16 centers per pass.
 R6Disp: Adding Grimme-D3(BJ) dispersion energy 1st derivatives to the gradient.
 Leave Link 1101 at Fri Jun  2 11:25:37 2023, MaxMem=  7381975040 cpu:               1.2 elap:               2.2
 (Enter /software/commercial/gaussian/g16/AVX/g16/l1102.exe)
 Symmetrizing basis deriv contribution to polar:
 IMax=3 JMax=2 DiffMx= 0.00D+00
 Leave Link 1102 at Fri Jun  2 11:25:39 2023, MaxMem=  7381975040 cpu:               0.1 elap:               0.7
 (Enter /software/commercial/gaussian/g16/AVX/g16/l1110.exe)
 Forming Gx(P) for the SCF density, NAtomX=    15.
 Integral derivatives from FoFJK, PRISM(SPDF).
 Do as many integral derivatives as possible in FoFJK.
 G2DrvN: MDV=    7381973359.
 G2DrvN: will do    16 centers at a time, making    1 passes.
 PxScal for G2LodP:  IOpCl= 0 ISclPx=1 IMOff=     1 NMtTot=     4 NTT=   14535 ScalPx= 9.45D+00
 Calling FoFCou, ICntrl=  3107 FMM=F I1Cent=   0 AccDes= 0.00D+00.
 FoFJK:  IHMeth= 1 ICntrl=    3107 DoSepK=F KAlg= 0 I1Cent=           0 FoldK=F
 IRaf=         0 NMat=       1 IRICut=       1 DoRegI=T DoRafI=F ISym2E= 0 IDoP0=0 IntGTp=1.
 FoFCou: FMM=F IPFlag=           0 FMFlag=      100000 FMFlg1=           0
         NFxFlg=           0 DoJE=F BraDBF=F KetDBF=F FulRan=T
         wScrn=  0.000000 ICntrl=      3107 IOpCl=  0 I1Cent=           0 NGrid=           0
         NMat0=    1 NMatS0=      1 NMatT0=    0 NMatD0=    4 NMtDS0=    3 NMtDT0=    0
 Symmetry not used in FoFCou.
 PxScal for G2LodP:  IOpCl= 0 ISclPx=0 IMOff=     1 NMtTot=     4 NTT=   14535 ScalPx= 1.00D+00
 NEqPCM:  Using equilibrium solvation (IEInf=0, Eps=  24.8520, EpsInf=   1.8526)
 G2PCM: DoFxE=T DoFxN=T DoGrad=T DoDP/DQ/DG/TGxP=TFFF NFrqRd=   0 IEInf=0 SqF1=F DoCFld=F IF1Alg=4.
 GePol: Maximum number of non-zero 1st derivatives   =     193
 End of G2Drv F.D. properties file   721 does not exist.
 End of G2Drv F.D. properties file   722 does not exist.
 End of G2Drv F.D. properties file   788 does not exist.
 Leave Link 1110 at Fri Jun  2 11:28:35 2023, MaxMem=  7381975040 cpu:             339.4 elap:             174.4
 (Enter /software/commercial/gaussian/g16/AVX/g16/l1002.exe)
 Minotr:  Closed shell wavefunction.
          IDoAtm=111111111111111
 NEqPCM:  Using equilibrium solvation (IEInf=0, Eps=  24.8520, EpsInf=   1.8526)
          Direct CPHF calculation.
          Differentiating once with respect to electric field.
                with respect to dipole field.
          Differentiating once with respect to nuclear coordinates.
          Requested convergence is 1.0D-08 RMS, and 1.0D-07 maximum.
          Secondary convergence is 1.0D-12 RMS, and 1.0D-12 maximum.
          NewPWx=T KeepS1=F KeepF1=F KeepIn=T MapXYZ=F SortEE=F KeepMc=T.
         4583 words used for storage of precomputed grid.
 Keep R1 ints in memory in canonical form, NReq=110221651.
 FoFCou: FMM=F IPFlag=           0 FMFlag=           0 FMFlg1=           0
         NFxFlg=           0 DoJE=F BraDBF=F KetDBF=F FulRan=T
         wScrn=  0.000000 ICntrl=       600 IOpCl=  0 I1Cent=           0 NGrid=           0
         NMat0=    1 NMatS0=  14535 NMatT0=    0 NMatD0=    1 NMtDS0=    0 NMtDT0=    0
 Symmetry not used in FoFCou.
 Two-electron integral symmetry not used.
          MDV=    7381975040 using IRadAn=       1.
          Solving linear equations simultaneously, MaxMat=       0.
          There are    48 degrees of freedom in the 1st order CPHF.  IDoFFX=5 NUNeed=    48.
 Will reuse    3 saved solutions.
     42 vectors produced by pass  0 Test12= 6.52D-15 2.08D-09 XBig12= 8.82D-02 7.50D-02.
 AX will form    42 AO Fock derivatives at one time.
     42 vectors produced by pass  1 Test12= 6.52D-15 2.08D-09 XBig12= 5.22D-03 1.24D-02.
     42 vectors produced by pass  2 Test12= 6.52D-15 2.08D-09 XBig12= 7.69D-05 2.18D-03.
     42 vectors produced by pass  3 Test12= 6.52D-15 2.08D-09 XBig12= 3.77D-07 8.15D-05.
     42 vectors produced by pass  4 Test12= 6.52D-15 2.08D-09 XBig12= 6.42D-10 3.32D-06.
     23 vectors produced by pass  5 Test12= 6.52D-15 2.08D-09 XBig12= 7.11D-13 1.21D-07.
      3 vectors produced by pass  6 Test12= 6.52D-15 2.08D-09 XBig12= 6.27D-16 4.44D-09.
 InvSVY:  IOpt=1 It=  1 EMax= 1.78D-15
 Solved reduced A of dimension   236 with    42 vectors.
 FullF1:  Do perturbations      1 to       3.
 Isotropic polarizability for W=    0.000000       70.95 Bohr**3.
 FullF1:  Do perturbations      1 to       6.
 End of Minotr F.D. properties file   721 does not exist.
 End of Minotr F.D. properties file   722 does not exist.
 End of Minotr F.D. properties file   788 does not exist.
 Leave Link 1002 at Fri Jun  2 11:31:18 2023, MaxMem=  7381975040 cpu:             299.3 elap:             161.7
 (Enter /software/commercial/gaussian/g16/AVX/g16/l601.exe)
 Copying SCF densities to generalized density rwf, IOpCl= 0 IROHF=0.

 **********************************************************************

            Population analysis using the SCF Density.

 **********************************************************************

 Alpha  occ. eigenvalues --  -14.29648 -14.29646 -10.19201 -10.19200 -10.16327
 Alpha  occ. eigenvalues --   -0.88920  -0.87964  -0.75458  -0.64537  -0.58944
 Alpha  occ. eigenvalues --   -0.50328  -0.47433  -0.46999  -0.46137  -0.41363
 Alpha  occ. eigenvalues --   -0.39622  -0.35507  -0.35152  -0.33770  -0.25116
 Alpha  occ. eigenvalues --   -0.25008
 Alpha virt. eigenvalues --    0.00393   0.01003   0.02552   0.03553   0.04707
 Alpha virt. eigenvalues --    0.06421   0.06997   0.07537   0.08036   0.10625
 Alpha virt. eigenvalues --    0.10769   0.11988   0.13489   0.14626   0.15602
 Alpha virt. eigenvalues --    0.15655   0.17600   0.17655   0.18562   0.19561
 Alpha virt. eigenvalues --    0.20047   0.20583   0.20710   0.22402   0.23705
 Alpha virt. eigenvalues --    0.24035   0.24280   0.25167   0.27815   0.28194
 Alpha virt. eigenvalues --    0.29592   0.30034   0.30896   0.32451   0.41234
 Alpha virt. eigenvalues --    0.42535   0.43652   0.46648   0.50942   0.51759
 Alpha virt. eigenvalues --    0.56275   0.57974   0.59116   0.61265   0.63065
 Alpha virt. eigenvalues --    0.63365   0.64155   0.64421   0.67473   0.69034
 Alpha virt. eigenvalues --    0.70828   0.72104   0.74668   0.76696   0.78733
 Alpha virt. eigenvalues --    0.81353   0.84380   0.86831   0.89696   0.90933
 Alpha virt. eigenvalues --    0.93645   0.97526   1.02146   1.11642   1.14698
 Alpha virt. eigenvalues --    1.20178   1.22469   1.24612   1.26345   1.36405
 Alpha virt. eigenvalues --    1.38154   1.40278   1.47415   1.48561   1.53088
 Alpha virt. eigenvalues --    1.54419   1.55928   1.58842   1.63562   1.65145
 Alpha virt. eigenvalues --    1.65976   1.66968   1.68675   1.69246   1.71228
 Alpha virt. eigenvalues --    1.73138   1.77613   1.78991   1.81316   1.84277
 Alpha virt. eigenvalues --    1.88623   1.92216   1.94038   2.02363   2.02516
 Alpha virt. eigenvalues --    2.08060   2.10055   2.14888   2.16694   2.17183
 Alpha virt. eigenvalues --    2.29748   2.32943   2.33551   2.44346   2.46085
 Alpha virt. eigenvalues --    2.46427   2.49896   2.50918   2.55302   2.56843
 Alpha virt. eigenvalues --    2.58183   2.60800   2.61195   2.63445   2.65521
 Alpha virt. eigenvalues --    2.68014   2.68135   2.73599   2.74190   2.78423
 Alpha virt. eigenvalues --    2.78829   2.79635   2.84411   2.86529   2.95528
 Alpha virt. eigenvalues --    2.96022   2.97130   3.07644   3.14342   3.14634
 Alpha virt. eigenvalues --    3.29659   3.50427   3.55484   3.76727   3.81959
 Alpha virt. eigenvalues --    3.84160   4.07146   4.09115   4.16154   4.31760
 Alpha virt. eigenvalues --    4.71880   4.72070   4.82757   4.84969  23.83621
 Alpha virt. eigenvalues --   23.86639  23.90082  35.58318  35.58848
     Molecular Orbital Coefficients:
                           1         2         3         4         5
                           O         O         O         O         O
     Eigenvalues --   -14.29648 -14.29646 -10.19201 -10.19200 -10.16327
   1 1   C  1S          0.00001  -0.00000   0.53819   0.16538  -0.00222
   2        2S         -0.00003   0.00001   0.44284   0.13610  -0.00182
   3        2PX        -0.00026   0.00003  -0.00041  -0.00007   0.00040
   4        2PY         0.00023   0.00000   0.00050   0.00020   0.00033
   5        2PZ         0.00003  -0.00000   0.00007   0.00002  -0.00001
   6        3S          0.00002  -0.00024   0.01786   0.00545  -0.00015
   7        3PX         0.00038  -0.00011   0.00053  -0.00015  -0.00084
   8        3PY        -0.00064  -0.00008  -0.00197  -0.00084  -0.00099
   9        3PZ        -0.00003   0.00001  -0.00028  -0.00008  -0.00002
  10        4S          0.00569   0.00219  -0.01335  -0.00526   0.00630
  11        4PX        -0.00108   0.00123  -0.00114   0.00018   0.00198
  12        4PY         0.00179   0.00010  -0.00133  -0.00141   0.00167
  13        4PZ        -0.00011  -0.00002   0.00025  -0.00019  -0.00011
  14        5S         -0.00654  -0.01156  -0.02422  -0.01445  -0.00049
  15        5PX         0.00047  -0.00152  -0.00209  -0.00146  -0.00071
  16        5PY        -0.00193  -0.00158  -0.00261  -0.00252   0.00029
  17        5PZ         0.00001   0.00010  -0.00006  -0.00010  -0.00003
  18        6D 0        0.00032   0.00002   0.00079   0.00032   0.00044
  19        6D+1        0.00009   0.00001   0.00026   0.00010   0.00010
  20        6D-1       -0.00009  -0.00001  -0.00005  -0.00000   0.00003
  21        6D+2       -0.00016   0.00001  -0.00055  -0.00024  -0.00022
  22        6D-2        0.00040  -0.00002   0.00022  -0.00011  -0.00062
  23 2   C  1S          0.00000   0.00000   0.00145   0.00275   0.56295
  24        2S         -0.00000  -0.00000   0.00120   0.00227   0.46325
  25        2PX        -0.00004   0.00005  -0.00051   0.00026  -0.00000
  26        2PY        -0.00003  -0.00003  -0.00022  -0.00043  -0.00023
  27        2PZ         0.00000  -0.00001   0.00004  -0.00004  -0.00001
  28        3S          0.00018   0.00017   0.00006   0.00012   0.01917
  29        3PX         0.00028  -0.00030   0.00118  -0.00060   0.00002
  30        3PY         0.00015   0.00014   0.00065   0.00126   0.00178
  31        3PZ        -0.00003   0.00004  -0.00009   0.00011   0.00007
  32        4S         -0.00309  -0.00287   0.00313   0.00590  -0.01713
  33        4PX         0.00003   0.00001  -0.00234   0.00122   0.00004
  34        4PY         0.00168   0.00158  -0.00065  -0.00129   0.00281
  35        4PZ         0.00025  -0.00013   0.00001  -0.00007   0.00011
  36        5S          0.01438   0.01334   0.01706   0.03222  -0.00255
  37        5PX         0.00371  -0.00406  -0.00446   0.00230  -0.00001
  38        5PY        -0.00222  -0.00200  -0.00275  -0.00528  -0.00160
  39        5PZ        -0.00047   0.00032   0.00039  -0.00049  -0.00007
  40        6D 0        0.00005   0.00005   0.00030   0.00055   0.00075
  41        6D+1        0.00001   0.00002   0.00003   0.00013   0.00019
  42        6D-1        0.00001  -0.00001   0.00006  -0.00007  -0.00003
  43        6D+2       -0.00009  -0.00008  -0.00015  -0.00024  -0.00053
  44        6D-2       -0.00013   0.00014  -0.00085   0.00045   0.00001
  45 3   C  1S         -0.00000   0.00001  -0.16539   0.53819  -0.00222
  46        2S          0.00001  -0.00003  -0.13607   0.44285  -0.00182
  47        2PX        -0.00001   0.00026  -0.00018   0.00039  -0.00039
  48        2PY         0.00002   0.00023  -0.00011   0.00051   0.00034
  49        2PZ         0.00000  -0.00001   0.00001  -0.00003   0.00004
  50        3S         -0.00023   0.00004  -0.00552   0.01784  -0.00015
  51        3PX         0.00008  -0.00040   0.00043  -0.00041   0.00082
  52        3PY        -0.00013  -0.00063   0.00041  -0.00211  -0.00101
  53        3PZ        -0.00002  -0.00002  -0.00005   0.00010  -0.00006
  54        4S          0.00261   0.00552   0.00314  -0.01400   0.00630
  55        4PX        -0.00114   0.00122  -0.00080   0.00079  -0.00193
  56        4PY         0.00025   0.00173  -0.00043  -0.00190   0.00171
  57        4PZ         0.00004   0.00026   0.00026  -0.00026   0.00025
  58        5S         -0.01202  -0.00566   0.00164  -0.02820  -0.00053
  59        5PX         0.00144  -0.00063   0.00001   0.00246   0.00072
  60        5PY        -0.00174  -0.00179  -0.00062  -0.00365   0.00026
  61        5PZ        -0.00024  -0.00015  -0.00001  -0.00019   0.00005
  62        6D 0        0.00005   0.00033  -0.00018   0.00083   0.00044
  63        6D+1        0.00002   0.00006  -0.00005   0.00026   0.00015
  64        6D-1        0.00001   0.00005  -0.00001  -0.00003  -0.00008
  65        6D+2        0.00000  -0.00017   0.00012  -0.00059  -0.00020
  66        6D-2       -0.00002  -0.00040   0.00022  -0.00011   0.00062
  67 4   H  1S          0.00005   0.00003  -0.00008  -0.00012   0.00009
  68        2S         -0.00024  -0.00012  -0.00037  -0.00090  -0.00264
  69        3S         -0.00123  -0.00112  -0.00047  -0.00079   0.00393
  70        4PX         0.00012  -0.00011  -0.00003   0.00006   0.00018
  71        4PY         0.00001   0.00000   0.00008   0.00016   0.00102
  72        4PZ         0.00011   0.00013   0.00019   0.00035   0.00185
  73 5   H  1S          0.00004   0.00004  -0.00006  -0.00014   0.00009
  74        2S         -0.00013  -0.00023  -0.00054  -0.00082  -0.00264
  75        3S         -0.00121  -0.00114  -0.00039  -0.00083   0.00393
  76        4PX         0.00011  -0.00013  -0.00006  -0.00000  -0.00015
  77        4PY         0.00001   0.00002   0.00010   0.00018   0.00118
  78        4PZ        -0.00014  -0.00010  -0.00018  -0.00034  -0.00175
  79 6   N  1S          0.55701  -0.02055  -0.00002  -0.00001   0.00000
  80        2S          0.46543  -0.01717  -0.00005  -0.00000   0.00000
  81        2PX         0.00010  -0.00001   0.00018   0.00008   0.00002
  82        2PY        -0.00083   0.00002  -0.00014  -0.00006  -0.00004
  83        2PZ         0.00089  -0.00003  -0.00001  -0.00001  -0.00000
  84        3S          0.01561  -0.00052   0.00045   0.00001   0.00014
  85        3PX        -0.00051   0.00006  -0.00012  -0.00017  -0.00007
  86        3PY        -0.00010   0.00003   0.00013   0.00012   0.00015
  87        3PZ         0.00072  -0.00003  -0.00007   0.00001   0.00001
  88        4S         -0.00902   0.00008  -0.00014   0.00075  -0.00155
  89        4PX        -0.00245  -0.00019   0.00024   0.00078  -0.00049
  90        4PY         0.00091  -0.00003  -0.00011  -0.00036   0.00039
  91        4PZ         0.00087  -0.00002  -0.00024   0.00003   0.00012
  92        5S          0.00687   0.00107   0.01031   0.00617   0.00021
  93        5PX         0.00201  -0.00039   0.00042   0.00052   0.00049
  94        5PY        -0.00001  -0.00073  -0.00224  -0.00056   0.00052
  95        5PZ        -0.00046   0.00001   0.00034   0.00019   0.00034
  96        6D 0        0.00005   0.00000   0.00015   0.00005   0.00004
  97        6D+1       -0.00004   0.00000   0.00002   0.00001   0.00003
  98        6D-1        0.00051  -0.00002  -0.00008  -0.00000  -0.00001
  99        6D+2        0.00015  -0.00001  -0.00005   0.00000  -0.00001
 100        6D-2        0.00050  -0.00001   0.00031   0.00011   0.00009
 101 7   H  1S         -0.00000   0.00005   0.00008   0.00004  -0.00006
 102        2S         -0.00104  -0.00051  -0.00266  -0.00104  -0.00097
 103        3S         -0.00022   0.00003   0.00374   0.00064   0.00074
 104        4PX         0.00016  -0.00003   0.00021  -0.00003   0.00011
 105        4PY        -0.00033  -0.00003  -0.00121  -0.00038  -0.00016
 106        4PZ         0.00022   0.00007   0.00158   0.00059   0.00024
 107 8   H  1S         -0.00001   0.00004   0.00004   0.00004  -0.00006
 108        2S         -0.00112  -0.00043  -0.00264  -0.00112  -0.00104
 109        3S         -0.00032   0.00007   0.00395   0.00059   0.00091
 110        4PX         0.00001  -0.00005  -0.00019  -0.00018   0.00004
 111        4PY        -0.00022  -0.00001  -0.00095  -0.00030  -0.00013
 112        4PZ        -0.00023  -0.00006  -0.00181  -0.00064  -0.00029
 113 9   H  1S         -0.00000   0.00001  -0.00014  -0.00003   0.00001
 114        2S         -0.00169   0.00009   0.00062  -0.00004   0.00004
 115        3S          0.00039  -0.00010  -0.00100  -0.00048  -0.00070
 116        4PX         0.00019  -0.00001   0.00014   0.00002  -0.00006
 117        4PY         0.00077  -0.00001  -0.00015  -0.00002   0.00001
 118        4PZ         0.00142  -0.00006  -0.00011   0.00000   0.00002
 119 10  H  1S         -0.00001  -0.00001  -0.00012  -0.00005  -0.00004
 120        2S         -0.00188   0.00013   0.00045   0.00015   0.00035
 121        3S          0.00108  -0.00064  -0.00282  -0.00102   0.00045
 122        4PX        -0.00128   0.00009   0.00003  -0.00003   0.00014
 123        4PY        -0.00102   0.00002  -0.00004   0.00002  -0.00002
 124        4PZ        -0.00002  -0.00000   0.00001  -0.00002  -0.00002
 125 11  N  1S          0.02055   0.55701   0.00001  -0.00002   0.00000
 126        2S          0.01716   0.46543   0.00003  -0.00005   0.00000
 127        2PX         0.00000  -0.00012   0.00003  -0.00020  -0.00002
 128        2PY        -0.00003  -0.00075   0.00003  -0.00015  -0.00004
 129        2PZ        -0.00004  -0.00096   0.00000   0.00000  -0.00000
 130        3S          0.00063   0.01560  -0.00025   0.00038   0.00014
 131        3PX        -0.00002   0.00051   0.00007   0.00020   0.00008
 132        3PY         0.00002  -0.00005   0.00003   0.00016   0.00015
 133        3PZ        -0.00002  -0.00073  -0.00004   0.00006  -0.00000
 134        4S         -0.00058  -0.00900   0.00070   0.00031  -0.00155
 135        4PX         0.00037   0.00245  -0.00052  -0.00064   0.00050
 136        4PY         0.00003   0.00092  -0.00021  -0.00029   0.00038
 137        4PZ        -0.00004  -0.00079  -0.00017   0.00015  -0.00009
 138        5S          0.00158   0.00677  -0.00069   0.01202   0.00021
 139        5PX         0.00022  -0.00203  -0.00017  -0.00069  -0.00047
 140        5PY        -0.00074   0.00006   0.00079  -0.00211   0.00056
 141        5PZ        -0.00004   0.00047   0.00010  -0.00058  -0.00030
 142        6D 0        0.00000  -0.00003  -0.00004   0.00016   0.00004
 143        6D+1       -0.00000  -0.00010   0.00000   0.00000   0.00002
 144        6D-1       -0.00001  -0.00052  -0.00004   0.00005   0.00001
 145        6D+2       -0.00000   0.00008   0.00003  -0.00005  -0.00002
 146        6D-2       -0.00002  -0.00050   0.00008  -0.00032  -0.00009
 147 12  H  1S          0.00005  -0.00001  -0.00001   0.00009  -0.00006
 148        2S         -0.00059  -0.00100   0.00063  -0.00278  -0.00097
 149        3S          0.00002  -0.00022  -0.00157   0.00345   0.00074
 150        4PX         0.00001  -0.00016   0.00015  -0.00018  -0.00012
 151        4PY        -0.00004  -0.00030   0.00033  -0.00107  -0.00014
 152        4PZ        -0.00009  -0.00024   0.00043  -0.00173  -0.00026
 153 13  H  1S          0.00004  -0.00001   0.00001   0.00006  -0.00006
 154        2S         -0.00051  -0.00108   0.00056  -0.00281  -0.00104
 155        3S          0.00005  -0.00032  -0.00172   0.00360   0.00091
 156        4PX         0.00005  -0.00002   0.00005   0.00023  -0.00005
 157        4PY        -0.00003  -0.00023   0.00033  -0.00111  -0.00015
 158        4PZ         0.00007   0.00021  -0.00046   0.00177   0.00028
 159 14  H  1S          0.00001  -0.00000   0.00005  -0.00013   0.00001
 160        2S         -0.00004  -0.00169  -0.00038   0.00049   0.00004
 161        3S         -0.00008   0.00039   0.00018  -0.00111  -0.00070
 162        4PX        -0.00001  -0.00017   0.00006  -0.00013   0.00006
 163        4PY         0.00005   0.00089   0.00007  -0.00014   0.00001
 164        4PZ        -0.00004  -0.00135  -0.00005   0.00008  -0.00001
 165 15  H  1S         -0.00001  -0.00001   0.00003  -0.00013  -0.00004
 166        2S         -0.00000  -0.00188  -0.00013   0.00046   0.00036
 167        3S         -0.00056   0.00112   0.00074  -0.00291   0.00045
 168        4PX         0.00001   0.00126   0.00004  -0.00001  -0.00014
 169        4PY        -0.00006  -0.00105   0.00003  -0.00002  -0.00002
 170        4PZ         0.00000  -0.00007   0.00002  -0.00000   0.00002
                           6         7         8         9        10
                           O         O         O         O         O
     Eigenvalues --    -0.88920  -0.87964  -0.75458  -0.64537  -0.58944
   1 1   C  1S         -0.04302   0.03692  -0.04083  -0.06844   0.04370
   2        2S         -0.06634   0.05695  -0.06325  -0.10669   0.06832
   3        2PX        -0.01601   0.02603   0.04856   0.00943   0.02762
   4        2PY         0.01800  -0.01701   0.00217  -0.01301   0.05773
   5        2PZ         0.00335  -0.00442  -0.00640  -0.00792   0.00757
   6        3S          0.17365  -0.14914   0.16775   0.28996  -0.18782
   7        3PX        -0.02603   0.04282   0.07536   0.01252   0.04500
   8        3PY         0.03409  -0.03106   0.00831  -0.01262   0.08187
   9        3PZ         0.00611  -0.00798  -0.00971  -0.01113   0.01049
  10        4S          0.06274  -0.05930   0.09794   0.19809  -0.11330
  11        4PX        -0.00568   0.00736   0.01981   0.00138   0.01920
  12        4PY         0.00024  -0.00171   0.00046  -0.01005   0.05335
  13        4PZ         0.00397  -0.00489  -0.00035   0.00169   0.00719
  14        5S          0.09307   0.00133   0.05181   0.11520  -0.00870
  15        5PX         0.00864   0.00182   0.00659   0.00610   0.00287
  16        5PY         0.01426   0.00116   0.00445   0.01464   0.00208
  17        5PZ         0.00036  -0.00040   0.00353   0.00418   0.00056
  18        6D 0       -0.00739   0.00626  -0.00190   0.00229  -0.00629
  19        6D+1       -0.00274   0.00255   0.00099   0.00233  -0.00229
  20        6D-1        0.00204  -0.00232  -0.00134  -0.00060   0.00031
  21        6D+2        0.00498  -0.00350   0.00119  -0.00405  -0.00123
  22        6D-2       -0.00704   0.00956   0.01133   0.00278   0.00774
  23 2   C  1S         -0.03060  -0.00001  -0.08048   0.00000  -0.06092
  24        2S         -0.04708  -0.00002  -0.12451   0.00001  -0.09508
  25        2PX        -0.00010   0.02058  -0.00023  -0.06467   0.00083
  26        2PY        -0.00781  -0.00016  -0.01771   0.00070   0.06394
  27        2PZ        -0.00032  -0.00243  -0.00074   0.00293   0.00265
  28        3S          0.11981   0.00005   0.32679  -0.00001   0.25812
  29        3PX        -0.00022   0.03550  -0.00044  -0.10030   0.00118
  30        3PY        -0.01738  -0.00030  -0.03401   0.00108   0.09085
  31        3PZ        -0.00071  -0.00377  -0.00141   0.00485   0.00377
  32        4S          0.07544   0.00003   0.18716  -0.00001   0.15652
  33        4PX        -0.00013   0.01241  -0.00015  -0.03510   0.00074
  34        4PY        -0.01060  -0.00022  -0.01208   0.00058   0.05660
  35        4PZ        -0.00043   0.00161  -0.00051  -0.00328   0.00234
  36        5S         -0.13399   0.00001  -0.06785   0.00014   0.00896
  37        5PX         0.00035   0.02979   0.00021   0.05185   0.00022
  38        5PY         0.02602  -0.00028   0.02040  -0.00028   0.01067
  39        5PZ         0.00109  -0.00230   0.00085  -0.00960   0.00044
  40        6D 0       -0.00458   0.00003  -0.00449  -0.00008   0.00862
  41        6D+1       -0.00129  -0.00022  -0.00059   0.00065   0.00030
  42        6D-1        0.00014   0.00051   0.00032  -0.00114  -0.00056
  43        6D+2        0.00488  -0.00011   0.00014   0.00036  -0.00146
  44        6D-2       -0.00007  -0.00538   0.00002   0.01595   0.00003
  45 3   C  1S         -0.04301  -0.03694  -0.04082   0.06843   0.04370
  46        2S         -0.06632  -0.05698  -0.06324   0.10669   0.06833
  47        2PX         0.01645   0.02646  -0.04850   0.00978  -0.02615
  48        2PY         0.01780   0.01666   0.00286   0.01338   0.05886
  49        2PZ        -0.00184  -0.00300   0.00658  -0.00680  -0.00272
  50        3S          0.17359   0.14923   0.16772  -0.28995  -0.18784
  51        3PX         0.02688   0.04361  -0.07514   0.01286  -0.04292
  52        3PY         0.03380   0.03054   0.00938   0.01319   0.08361
  53        3PZ        -0.00324  -0.00538   0.01041  -0.01002  -0.00361
  54        4S          0.06271   0.05933   0.09792  -0.19809  -0.11332
  55        4PX         0.00568   0.00741  -0.01980   0.00164  -0.01783
  56        4PY         0.00042   0.00192   0.00093   0.00983   0.05425
  57        4PZ        -0.00395  -0.00473   0.00039   0.00255  -0.00271
  58        5S          0.09300  -0.00134   0.05197  -0.11536  -0.00887
  59        5PX        -0.00827   0.00179  -0.00649   0.00575  -0.00283
  60        5PY         0.01445  -0.00117   0.00494  -0.01513   0.00216
  61        5PZ         0.00082  -0.00047  -0.00314   0.00295  -0.00039
  62        6D 0       -0.00763  -0.00655  -0.00169  -0.00237  -0.00626
  63        6D+1       -0.00218  -0.00180   0.00007  -0.00211  -0.00291
  64        6D-1       -0.00130  -0.00164   0.00150  -0.00055   0.00078
  65        6D+2        0.00520   0.00382   0.00073   0.00414  -0.00160
  66        6D-2        0.00698   0.00956  -0.01143   0.00276  -0.00745
  67 4   H  1S          0.01729  -0.00015   0.05228  -0.00193   0.07922
  68        2S          0.01971  -0.00144   0.06098  -0.00210   0.09937
  69        3S          0.00226  -0.00081  -0.00412   0.00320   0.00963
  70        4PX        -0.00062   0.00142  -0.00103  -0.00300  -0.00184
  71        4PY        -0.00265   0.00013  -0.00707   0.00022  -0.00464
  72        4PZ        -0.00399  -0.00006  -0.00926   0.00044  -0.01107
  73 5   H  1S          0.01729   0.00017   0.05229   0.00192   0.07921
  74        2S          0.01970   0.00146   0.06098   0.00210   0.09936
  75        3S          0.00227   0.00080  -0.00412  -0.00321   0.00962
  76        4PX         0.00054   0.00142   0.00084  -0.00300   0.00171
  77        4PY        -0.00299  -0.00016  -0.00784  -0.00018  -0.00558
  78        4PZ         0.00376  -0.00006   0.00865   0.00042   0.01065
  79 6   N  1S         -0.06768   0.07327   0.03903   0.02955  -0.01109
  80        2S         -0.10627   0.11510   0.06161   0.04677  -0.01759
  81        2PX         0.00833  -0.00601   0.02599   0.05564  -0.01558
  82        2PY        -0.01933   0.02041   0.00262  -0.02183   0.04083
  83        2PZ         0.01696  -0.01920  -0.01912  -0.03159   0.02730
  84        3S          0.29073  -0.31591  -0.17256  -0.13188   0.05033
  85        3PX         0.01532  -0.01212   0.03808   0.08255  -0.02336
  86        3PY        -0.03141   0.03304   0.00434  -0.03273   0.06034
  87        3PZ         0.02547  -0.02868  -0.02833  -0.04654   0.03973
  88        4S          0.20306  -0.21795  -0.12714  -0.11100   0.03214
  89        4PX         0.01171  -0.00797   0.01683   0.03996  -0.01359
  90        4PY        -0.01337   0.01424   0.00332  -0.01717   0.03990
  91        4PZ         0.00853  -0.00949  -0.01123  -0.02364   0.02060
  92        5S         -0.02664   0.01505  -0.03592  -0.06580   0.00633
  93        5PX        -0.01030   0.01465   0.00043   0.00098  -0.00462
  94        5PY         0.00287   0.00145   0.00169   0.01332  -0.00339
  95        5PZ         0.00164  -0.00284  -0.00710  -0.00701   0.00144
  96        6D 0       -0.00234   0.00221  -0.00153  -0.00490   0.00485
  97        6D+1       -0.00024   0.00028   0.00058   0.00107   0.00015
  98        6D-1        0.00308  -0.00325  -0.00179  -0.00225   0.00226
  99        6D+2        0.00210  -0.00179   0.00110  -0.00006   0.00333
 100        6D-2       -0.00170   0.00128  -0.00416  -0.00928   0.00507
 101 7   H  1S          0.02161  -0.01812   0.02882   0.05754  -0.05854
 102        2S          0.02688  -0.02173   0.03224   0.06765  -0.07383
 103        3S         -0.00743   0.00664  -0.00488  -0.00094  -0.00681
 104        4PX        -0.00085   0.00118   0.00166  -0.00033   0.00154
 105        4PY         0.00463  -0.00390   0.00393   0.00614  -0.00390
 106        4PZ        -0.00466   0.00381  -0.00463  -0.00832   0.00793
 107 8   H  1S          0.02174  -0.01823   0.02959   0.06348  -0.06515
 108        2S          0.02887  -0.02410   0.03421   0.07737  -0.08044
 109        3S         -0.00469   0.00382  -0.00236   0.00447  -0.00592
 110        4PX         0.00027   0.00030   0.00292   0.00199  -0.00035
 111        4PY         0.00399  -0.00344   0.00343   0.00562  -0.00285
 112        4PZ         0.00534  -0.00454   0.00478   0.00946  -0.00901
 113 9   H  1S          0.05229  -0.05743  -0.04005  -0.05079   0.04246
 114        2S          0.04847  -0.05469  -0.04367  -0.05842   0.05198
 115        3S         -0.00114   0.00309   0.00840   0.00421   0.00951
 116        4PX         0.00014   0.00001   0.00203   0.00403  -0.00083
 117        4PY        -0.00706   0.00776   0.00468   0.00388  -0.00188
 118        4PZ        -0.00949   0.01054   0.00672   0.00696  -0.00559
 119 10  H  1S          0.05138  -0.05722  -0.04591  -0.04995   0.00415
 120        2S          0.04903  -0.05508  -0.04776  -0.05855   0.00958
 121        3S         -0.00362   0.00941   0.00687   0.00951  -0.00232
 122        4PX         0.01052  -0.01158  -0.00689  -0.00489  -0.00075
 123        4PY         0.00545  -0.00601  -0.00528  -0.00721   0.00372
 124        4PZ         0.00074  -0.00089  -0.00120  -0.00215   0.00194
 125 11  N  1S         -0.06764  -0.07330   0.03904  -0.02955  -0.01108
 126        2S         -0.10621  -0.11514   0.06162  -0.04677  -0.01758
 127        2PX        -0.00881  -0.00653  -0.02593   0.05620   0.01661
 128        2PY        -0.01758  -0.01855   0.00165   0.02302   0.04263
 129        2PZ        -0.01853  -0.02088   0.01931  -0.02970  -0.02379
 130        3S          0.29058   0.31602  -0.17260   0.13189   0.05029
 131        3PX        -0.01610  -0.01295  -0.03797   0.08339   0.02488
 132        3PY        -0.02870  -0.03017   0.00289   0.03445   0.06294
 133        3PZ        -0.02802  -0.03139   0.02865  -0.04371  -0.03455
 134        4S          0.20295   0.21803  -0.12716   0.11100   0.03209
 135        4PX        -0.01204  -0.00833  -0.01675   0.04040   0.01460
 136        4PY        -0.01229  -0.01317   0.00278   0.01810   0.04117
 137        4PZ        -0.00962  -0.01067   0.01149  -0.02216  -0.01718
 138        5S         -0.02665  -0.01501  -0.03596   0.06587   0.00631
 139        5PX         0.01037   0.01461  -0.00040   0.00063   0.00457
 140        5PY         0.00273  -0.00158   0.00111  -0.01270  -0.00341
 141        5PZ        -0.00139  -0.00298   0.00724  -0.00813  -0.00170
 142        6D 0       -0.00278  -0.00268  -0.00126   0.00452   0.00445
 143        6D+1       -0.00018  -0.00026   0.00098  -0.00192  -0.00035
 144        6D-1       -0.00287  -0.00303   0.00187  -0.00288  -0.00321
 145        6D+2        0.00193   0.00159   0.00147  -0.00063   0.00283
 146        6D-2        0.00162   0.00122   0.00403  -0.00914  -0.00522
 147 12  H  1S          0.02160   0.01813   0.02881  -0.05755  -0.05853
 148        2S          0.02687   0.02174   0.03223  -0.06766  -0.07382
 149        3S         -0.00743  -0.00664  -0.00489   0.00095  -0.00680
 150        4PX         0.00096   0.00127  -0.00157  -0.00047  -0.00163
 151        4PY         0.00420   0.00354   0.00357  -0.00541  -0.00319
 152        4PZ         0.00502   0.00413   0.00495  -0.00881  -0.00823
 153 13  H  1S          0.02172   0.01823   0.02958  -0.06347  -0.06517
 154        2S          0.02886   0.02411   0.03420  -0.07736  -0.08046
 155        3S         -0.00467  -0.00384  -0.00235  -0.00448  -0.00593
 156        4PX        -0.00016   0.00040  -0.00282   0.00183   0.00026
 157        4PY         0.00443   0.00380   0.00389  -0.00644  -0.00360
 158        4PZ        -0.00499  -0.00424  -0.00447   0.00896   0.00874
 159 14  H  1S          0.05226   0.05745  -0.04005   0.05078   0.04250
 160        2S          0.04845   0.05472  -0.04367   0.05841   0.05203
 161        3S         -0.00112  -0.00311   0.00841  -0.00423   0.00955
 162        4PX        -0.00033  -0.00019  -0.00191   0.00392   0.00078
 163        4PY        -0.00783  -0.00863   0.00529  -0.00456  -0.00237
 164        4PZ         0.00885   0.00984  -0.00629   0.00660   0.00541
 165 15  H  1S          0.05135   0.05724  -0.04592   0.04995   0.00412
 166        2S          0.04901   0.05510  -0.04777   0.05856   0.00954
 167        3S         -0.00362  -0.00943   0.00689  -0.00952  -0.00235
 168        4PX        -0.01037  -0.01143   0.00675  -0.00470   0.00085
 169        4PY         0.00576   0.00636  -0.00554   0.00749   0.00385
 170        4PZ        -0.00025  -0.00035   0.00073  -0.00151  -0.00162
                          11        12        13        14        15
                           O         O         O         O         O
     Eigenvalues --    -0.50328  -0.47433  -0.46999  -0.46137  -0.41363
   1 1   C  1S          0.00284   0.00873  -0.00510   0.00911  -0.00689
   2        2S          0.00442   0.01364  -0.00796   0.01455  -0.01070
   3        2PX        -0.03139  -0.02587   0.00119   0.09030   0.05171
   4        2PY        -0.03674   0.00844  -0.07759  -0.06661  -0.08966
   5        2PZ        -0.06746  -0.05574   0.07586   0.01052  -0.03523
   6        3S         -0.01219  -0.03586   0.01948  -0.04448   0.02598
   7        3PX        -0.04616  -0.03795   0.00210   0.13600   0.07861
   8        3PY        -0.05494   0.01184  -0.11541  -0.10054  -0.13216
   9        3PZ        -0.10006  -0.08243   0.11085   0.01506  -0.05110
  10        4S         -0.00658  -0.05114   0.02933  -0.04243   0.03869
  11        4PX        -0.03700  -0.04068  -0.00083   0.07264   0.05286
  12        4PY        -0.03506  -0.00458  -0.06541  -0.05897  -0.07875
  13        4PZ        -0.06740  -0.05883   0.06234   0.00024  -0.03799
  14        5S          0.04059  -0.10607   0.01592  -0.03437  -0.00626
  15        5PX        -0.01421  -0.03001   0.00566   0.01387   0.03164
  16        5PY         0.01247  -0.01525  -0.00332  -0.01115  -0.01863
  17        5PZ        -0.00685  -0.00553  -0.00126  -0.01114  -0.00893
  18        6D 0        0.00296  -0.00297   0.00625   0.00598   0.01478
  19        6D+1        0.00099   0.00586   0.00593  -0.00026  -0.00517
  20        6D-1       -0.00033   0.00058  -0.00496  -0.00359   0.00088
  21        6D+2        0.00775   0.00761   0.00328   0.00490  -0.00939
  22        6D-2        0.00023   0.00408   0.00280   0.01482   0.01021
  23 2   C  1S         -0.00001  -0.01832  -0.00007  -0.01621  -0.00000
  24        2S         -0.00001  -0.02876  -0.00012  -0.02547  -0.00001
  25        2PX         0.04137   0.00013   0.05667  -0.00059   0.00465
  26        2PY         0.00235   0.04643  -0.00413  -0.05657   0.00321
  27        2PZ        -0.06873   0.00147   0.09157  -0.00217  -0.07561
  28        3S          0.00002   0.07584   0.00029   0.07036   0.00001
  29        3PX         0.05802   0.00022   0.08119  -0.00087   0.00797
  30        3PY         0.00348   0.06874  -0.00605  -0.08308   0.00467
  31        3PZ        -0.10072   0.00218   0.13485  -0.00319  -0.11034
  32        4S          0.00012   0.12669   0.00064   0.06287   0.00004
  33        4PX         0.02846  -0.00014   0.05554  -0.00056   0.01029
  34        4PY         0.00178   0.02544  -0.00425  -0.05167   0.00333
  35        4PZ        -0.05107   0.00063   0.09217  -0.00197  -0.08078
  36        5S          0.00026   0.22540   0.00115   0.01870   0.00019
  37        5PX         0.04651  -0.00084   0.02675  -0.00006  -0.02564
  38        5PY        -0.00062  -0.03842  -0.00097   0.00087   0.00041
  39        5PZ        -0.00027  -0.00164   0.01043   0.00007  -0.00272
  40        6D 0       -0.00003   0.00591   0.00021  -0.00072  -0.00043
  41        6D+1       -0.00014   0.00803   0.00012  -0.00215   0.00017
  42        6D-1       -0.00053  -0.00049   0.00245   0.00056  -0.00616
  43        6D+2       -0.00011  -0.00106   0.00013  -0.01165  -0.00010
  44        6D-2       -0.00353  -0.00030   0.00033   0.00039   0.00594
  45 3   C  1S         -0.00283   0.00867   0.00517   0.00915   0.00689
  46        2S         -0.00441   0.01354   0.00807   0.01460   0.01071
  47        2PX        -0.03031   0.02608   0.00375  -0.09187   0.05422
  48        2PY         0.04298   0.00203   0.07124  -0.06279   0.09094
  49        2PZ        -0.06398   0.05532   0.08300  -0.01561  -0.02774
  50        3S          0.01216  -0.03563  -0.01974  -0.04461  -0.02599
  51        3PX        -0.04454   0.03824   0.00591  -0.13838   0.08231
  52        3PY         0.06418   0.00235   0.10611  -0.09485   0.13392
  53        3PZ        -0.09486   0.08177   0.12146  -0.02275  -0.04007
  54        4S          0.00651  -0.05072  -0.02978  -0.04256  -0.03869
  55        4PX        -0.03591   0.04056   0.00152  -0.07406   0.05509
  56        4PY         0.04143  -0.01142   0.06008  -0.05655   0.08028
  57        4PZ        -0.06405   0.05745   0.06850  -0.00476  -0.03145
  58        5S         -0.04084  -0.10539  -0.01687  -0.03422   0.00610
  59        5PX        -0.01446   0.02953   0.00613  -0.01407   0.03215
  60        5PY        -0.01154  -0.01636   0.00315  -0.01161   0.01849
  61        5PZ        -0.00783   0.00426  -0.00094   0.01018  -0.00741
  62        6D 0       -0.00293  -0.00297  -0.00694   0.00637  -0.01455
  63        6D+1       -0.00092   0.00553  -0.00568  -0.00147   0.00604
  64        6D-1        0.00077  -0.00087  -0.00360   0.00228   0.00206
  65        6D+2       -0.00769   0.00738  -0.00341   0.00438   0.01001
  66        6D-2        0.00069  -0.00497   0.00346  -0.01497   0.00926
  67 4   H  1S         -0.03946   0.03844   0.06066  -0.00915  -0.04940
  68        2S         -0.05161   0.04610   0.07597  -0.01348  -0.06285
  69        3S         -0.01661   0.00727   0.01134  -0.00731  -0.02318
  70        4PX         0.00381   0.00055   0.00280  -0.00023   0.00083
  71        4PY         0.00420  -0.00046  -0.00577  -0.00184   0.00437
  72        4PZ         0.00149  -0.00464  -0.00279   0.00175   0.00174
  73 5   H  1S          0.03951   0.03905  -0.06017  -0.00937   0.04955
  74        2S          0.05164   0.04688  -0.07540  -0.01377   0.06305
  75        3S          0.01659   0.00734  -0.01122  -0.00735   0.02324
  76        4PX         0.00370  -0.00062   0.00293   0.00020   0.00072
  77        4PY        -0.00440  -0.00089   0.00591  -0.00168  -0.00452
  78        4PZ         0.00114   0.00461  -0.00225  -0.00191   0.00139
  79 6   N  1S         -0.00297  -0.00338   0.00903   0.00423   0.00858
  80        2S         -0.00476  -0.00543   0.01451   0.00693   0.01387
  81        2PX        -0.06852  -0.06342  -0.06733  -0.13441  -0.05633
  82        2PY        -0.06921  -0.08205  -0.04399   0.01992   0.08134
  83        2PZ        -0.06764  -0.09085   0.01338   0.03890   0.07996
  84        3S          0.01412   0.01606  -0.04366  -0.02367  -0.04397
  85        3PX        -0.09924  -0.09173  -0.09866  -0.19692  -0.08339
  86        3PY        -0.10055  -0.11891  -0.06396   0.03140   0.11910
  87        3PZ        -0.09909  -0.13242   0.02057   0.05627   0.11450
  88        4S          0.01105   0.01421  -0.04317  -0.01694  -0.04041
  89        4PX        -0.06325  -0.05688  -0.06349  -0.12963  -0.05903
  90        4PY        -0.06049  -0.07303  -0.04732   0.01483   0.07843
  91        4PZ        -0.06128  -0.08775   0.01955   0.04221   0.08478
  92        5S         -0.00696  -0.01404   0.04371   0.08982   0.06954
  93        5PX         0.00388  -0.00708   0.00535  -0.00281  -0.00733
  94        5PY         0.00357  -0.00031  -0.00817  -0.01453  -0.00736
  95        5PZ        -0.00035  -0.00677   0.00514   0.01762   0.02029
  96        6D 0       -0.00942  -0.01296  -0.00275   0.00393   0.01217
  97        6D+1       -0.00617  -0.00585   0.00118  -0.00346  -0.00232
  98        6D-1       -0.00190  -0.00299  -0.00607  -0.00075   0.00519
  99        6D+2       -0.00263  -0.00003  -0.00380  -0.00020  -0.00224
 100        6D-2        0.00611   0.00665   0.00483   0.01435   0.00452
 101 7   H  1S         -0.02487  -0.04632   0.08783   0.03691   0.03701
 102        2S         -0.02882  -0.05667   0.11503   0.05136   0.05162
 103        3S         -0.00434  -0.01139   0.03189   0.01179   0.01526
 104        4PX        -0.00160  -0.00040  -0.00042   0.00397   0.00056
 105        4PY        -0.00397  -0.00353   0.00515   0.00096  -0.00119
 106        4PZ        -0.00063   0.00241  -0.00615  -0.00366  -0.00587
 107 8   H  1S          0.05588   0.02445  -0.01345   0.00558   0.06909
 108        2S          0.06711   0.02701  -0.01961   0.00555   0.09396
 109        3S          0.00926   0.00432  -0.01249  -0.00923   0.02891
 110        4PX         0.00001  -0.00108  -0.00136   0.00444   0.00318
 111        4PY         0.00269   0.00270  -0.00581  -0.00336   0.00014
 112        4PZ         0.00383   0.00031   0.00231   0.00108   0.00638
 113 9   H  1S         -0.07333  -0.09576  -0.01986   0.02704   0.08506
 114        2S         -0.09479  -0.12623  -0.02764   0.03598   0.11940
 115        3S         -0.02899  -0.03288  -0.01989  -0.01008   0.03126
 116        4PX        -0.00555  -0.00438  -0.00394  -0.01014  -0.00569
 117        4PY         0.00353   0.00485  -0.00153  -0.00127  -0.00234
 118        4PZ         0.00766   0.00945   0.00441  -0.00134  -0.00743
 119 10  H  1S          0.07821   0.08416   0.05621   0.08018  -0.00739
 120        2S          0.10143   0.11416   0.07237   0.10656  -0.01124
 121        3S          0.03158   0.03856   0.01446   0.01473  -0.02445
 122        4PX         0.00916   0.00964   0.00522   0.00324  -0.00527
 123        4PY         0.00289   0.00265   0.00210   0.00946   0.00506
 124        4PZ        -0.00461  -0.00634   0.00140   0.00340   0.00613
 125 11  N  1S          0.00297  -0.00328  -0.00909   0.00417  -0.00856
 126        2S          0.00477  -0.00526  -0.01462   0.00684  -0.01384
 127        2PX        -0.06648   0.06218  -0.06603   0.13459  -0.05855
 128        2PY         0.07622  -0.09180   0.04322   0.01983  -0.08656
 129        2PZ        -0.06124   0.08332   0.01842  -0.03708   0.07278
 130        3S         -0.01414   0.01556   0.04398  -0.02342   0.04390
 131        3PX        -0.09627   0.08995  -0.09679   0.19724  -0.08663
 132        3PY         0.11080  -0.13311   0.06276   0.03120  -0.12649
 133        3PZ        -0.08978   0.12150   0.02790  -0.05342   0.10399
 134        4S         -0.01108   0.01370   0.04346  -0.01670   0.04030
 135        4PX        -0.06145   0.05581  -0.06215   0.12970  -0.06117
 136        4PY         0.06688  -0.08240   0.04603   0.01520  -0.08401
 137        4PZ        -0.05566   0.08094   0.02483  -0.04078   0.07782
 138        5S          0.00700  -0.01346  -0.04430   0.08958  -0.06956
 139        5PX         0.00381   0.00694   0.00564   0.00242  -0.00717
 140        5PY        -0.00364  -0.00113   0.00760  -0.01296   0.00576
 141        5PZ        -0.00065   0.00661   0.00598  -0.01877   0.02087
 142        6D 0        0.00898  -0.01240   0.00163   0.00401  -0.01130
 143        6D+1        0.00658  -0.00630  -0.00099  -0.00466   0.00285
 144        6D-1       -0.00364   0.00512  -0.00664   0.00030   0.00665
 145        6D+2        0.00268  -0.00007   0.00352  -0.00087   0.00296
 146        6D-2        0.00541  -0.00619   0.00471  -0.01395   0.00418
 147 12  H  1S          0.02480  -0.04523  -0.08866   0.03643  -0.03695
 148        2S          0.02874  -0.05527  -0.11607   0.05072  -0.05155
 149        3S          0.00431  -0.01103  -0.03210   0.01161  -0.01525
 150        4PX        -0.00149   0.00033  -0.00052  -0.00395   0.00062
 151        4PY         0.00404  -0.00328  -0.00465   0.00073   0.00167
 152        4PZ        -0.00030  -0.00261  -0.00661   0.00369  -0.00574
 153 13  H  1S         -0.05576   0.02443   0.01382   0.00564  -0.06916
 154        2S         -0.06697   0.02696   0.02003   0.00561  -0.09402
 155        3S         -0.00924   0.00420   0.01262  -0.00916  -0.02894
 156        4PX        -0.00006   0.00117  -0.00119  -0.00453   0.00318
 157        4PY        -0.00299   0.00262   0.00569  -0.00312  -0.00076
 158        4PZ         0.00358  -0.00013   0.00280  -0.00134   0.00635
 159 14  H  1S          0.07313  -0.09615   0.01855   0.02701  -0.08512
 160        2S          0.09453  -0.12676   0.02591   0.03594  -0.11948
 161        3S          0.02892  -0.03323   0.01951  -0.01007  -0.03128
 162        4PX        -0.00563   0.00457  -0.00389   0.01009  -0.00563
 163        4PY        -0.00402   0.00552   0.00133  -0.00162   0.00310
 164        4PZ         0.00732  -0.00908   0.00441   0.00122  -0.00721
 165 15  H  1S         -0.07797   0.08499  -0.05553   0.07998   0.00736
 166        2S         -0.10112   0.11524  -0.07144   0.10631   0.01120
 167        3S         -0.03152   0.03882  -0.01403   0.01474   0.02442
 168        4PX         0.00906  -0.00965   0.00507  -0.00299  -0.00540
 169        4PY        -0.00271   0.00237  -0.00236   0.00978  -0.00544
 170        4PZ        -0.00484   0.00656   0.00130  -0.00256   0.00568
                          16        17        18        19        20
                           O         O         O         O         O
     Eigenvalues --    -0.39622  -0.35507  -0.35152  -0.33770  -0.25116
   1 1   C  1S         -0.00019   0.00815   0.00511   0.00340  -0.00527
   2        2S         -0.00036   0.01288   0.00832   0.00545  -0.00842
   3        2PX        -0.03860  -0.12214  -0.05587  -0.03500  -0.00196
   4        2PY        -0.01919  -0.04457  -0.09816  -0.03126   0.04319
   5        2PZ         0.12513   0.02469  -0.04513  -0.08485  -0.03518
   6        3S          0.00120  -0.03736  -0.03040  -0.01718   0.02588
   7        3PX        -0.05743  -0.18163  -0.08207  -0.05131  -0.00368
   8        3PY        -0.02736  -0.06530  -0.14217  -0.04649   0.06338
   9        3PZ         0.18131   0.03608  -0.06454  -0.11876  -0.04654
  10        4S         -0.01348  -0.03946  -0.00813  -0.01601   0.02215
  11        4PX        -0.03840  -0.10650  -0.05349  -0.04027   0.01866
  12        4PY        -0.02672  -0.05252  -0.10141  -0.03586   0.04697
  13        4PZ         0.13201   0.04046  -0.04854  -0.09124  -0.01689
  14        5S         -0.12617   0.09887  -0.04283   0.03286  -0.03472
  15        5PX        -0.01797   0.00398  -0.01562  -0.00862   0.02403
  16        5PY        -0.02414   0.01225  -0.01731   0.00645  -0.00486
  17        5PZ         0.01335   0.00416  -0.00656  -0.00831  -0.01286
  18        6D 0       -0.00057   0.00175   0.01405   0.00434  -0.00089
  19        6D+1       -0.00320  -0.00766   0.00235   0.01091  -0.01227
  20        6D-1       -0.01240  -0.00149   0.00635   0.02010   0.01616
  21        6D+2       -0.00067   0.00256  -0.01681  -0.00086   0.00958
  22        6D-2       -0.00099  -0.02004   0.00282  -0.00411   0.00838
  23 2   C  1S         -0.00299   0.00003   0.01171   0.00001  -0.00006
  24        2S         -0.00473   0.00005   0.01872   0.00001  -0.00009
  25        2PX         0.00116   0.15304   0.00134   0.07152  -0.04847
  26        2PY         0.07664   0.00147   0.15523  -0.00654   0.00004
  27        2PZ         0.00330  -0.06951   0.00665   0.13662   0.01053
  28        3S          0.01176  -0.00018  -0.06031  -0.00004   0.00027
  29        3PX         0.00170   0.22422   0.00194   0.10769  -0.07791
  30        3PY         0.11247   0.00209   0.22611  -0.00929   0.00024
  31        3PZ         0.00484  -0.10047   0.00968   0.19211   0.01351
  32        4S          0.03449  -0.00012  -0.04148   0.00003   0.00059
  33        4PX         0.00097   0.15986   0.00156   0.05288  -0.02457
  34        4PY         0.06568   0.00258   0.17240  -0.00724   0.00153
  35        4PZ         0.00284  -0.09723   0.00745   0.15811  -0.03783
  36        5S          0.23414   0.00041   0.13337   0.00002   0.00063
  37        5PX        -0.00057   0.09113  -0.00033   0.01229  -0.01489
  38        5PY        -0.03527  -0.00040  -0.00832  -0.00091   0.00043
  39        5PZ        -0.00142  -0.01886  -0.00029   0.01757  -0.00928
  40        6D 0        0.01064  -0.00047   0.01556   0.00212   0.00053
  41        6D+1       -0.01251  -0.00085   0.00930   0.00030   0.00028
  42        6D-1       -0.00044  -0.00733  -0.00059   0.02958   0.00737
  43        6D+2       -0.00380  -0.00085  -0.01511   0.00118   0.00044
  44        6D-2        0.00060  -0.01931   0.00008  -0.00219   0.00430
  45 3   C  1S         -0.00020  -0.00811   0.00517  -0.00341   0.00524
  46        2S         -0.00038  -0.01280   0.00842  -0.00546   0.00837
  47        2PX         0.03803  -0.12061   0.05420  -0.03405  -0.00292
  48        2PY        -0.00957   0.04472  -0.10346   0.03902  -0.03980
  49        2PZ        -0.12622   0.02893   0.03660  -0.08174  -0.03842
  50        3S          0.00124   0.03709  -0.03068   0.01722  -0.02569
  51        3PX         0.05660  -0.17939   0.07968  -0.04992  -0.00509
  52        3PY        -0.01346   0.06560  -0.14982   0.05739  -0.05880
  53        3PZ        -0.18285   0.04228   0.05218  -0.11417  -0.05134
  54        4S         -0.01338   0.03936  -0.00843   0.01596  -0.02256
  55        4PX         0.03766  -0.10480   0.05163  -0.03914   0.01774
  56        4PY        -0.01645   0.05091  -0.10699   0.04420  -0.04570
  57        4PZ        -0.13368   0.04538   0.03962  -0.08770  -0.02048
  58        5S         -0.12594  -0.09912  -0.04218  -0.03281   0.03378
  59        5PX         0.01741   0.00375   0.01506  -0.00872   0.02413
  60        5PY        -0.02332  -0.01276  -0.01815  -0.00552   0.00523
  61        5PZ        -0.01531   0.00325   0.00507  -0.00880  -0.01223
  62        6D 0        0.00124  -0.00185   0.01311  -0.00137   0.00323
  63        6D+1       -0.00281   0.00595   0.00193  -0.01069   0.01328
  64        6D-1        0.01243  -0.00124  -0.00695   0.02062   0.01618
  65        6D+2        0.00041  -0.00381  -0.01748   0.00236  -0.00771
  66        6D-2        0.00120  -0.02047  -0.00197  -0.00332   0.00769
  67 4   H  1S          0.04160  -0.04049   0.07628   0.11376   0.01297
  68        2S          0.06016  -0.05235   0.11284   0.16745   0.04111
  69        3S          0.01268  -0.02404   0.05141   0.10319   0.04260
  70        4PX        -0.00122   0.00878  -0.00157   0.00225  -0.00212
  71        4PY         0.00100   0.00256   0.00357  -0.00850  -0.00160
  72        4PZ        -0.00519   0.00019  -0.00755  -0.00366  -0.00012
  73 5   H  1S          0.04141   0.04104   0.07604  -0.11375  -0.01303
  74        2S          0.05989   0.05317   0.11254  -0.16742  -0.04121
  75        3S          0.01262   0.02441   0.05128  -0.10316  -0.04278
  76        4PX         0.00126   0.00872   0.00158   0.00247  -0.00207
  77        4PY         0.00056  -0.00277   0.00291   0.00871   0.00164
  78        4PZ         0.00525   0.00002   0.00782  -0.00294   0.00001
  79 6   N  1S          0.01006  -0.00305   0.00830  -0.00498   0.02315
  80        2S          0.01617  -0.00495   0.01341  -0.00803   0.03741
  81        2PX        -0.00349   0.09473  -0.00976   0.02070  -0.00183
  82        2PY        -0.07654  -0.02720   0.03700   0.03861  -0.11214
  83        2PZ         0.01269   0.03342   0.03996  -0.00934   0.13074
  84        3S         -0.04811   0.01628  -0.04155   0.02453  -0.11021
  85        3PX        -0.00550   0.13700  -0.01644   0.02953  -0.00281
  86        3PY        -0.11194  -0.04231   0.05269   0.05503  -0.16191
  87        3PZ         0.02064   0.04972   0.05642  -0.01594   0.18826
  88        4S         -0.04831   0.02605  -0.04884   0.02366  -0.16375
  89        4PX         0.00058   0.10818  -0.01050   0.02151   0.00183
  90        4PY        -0.08723  -0.04175   0.03754   0.04464  -0.17088
  91        4PZ         0.02580   0.03979   0.04225  -0.02109   0.19759
  92        5S          0.04168   0.02347  -0.00575  -0.04840   0.06385
  93        5PX         0.00544   0.03515  -0.00033   0.00130   0.01068
  94        5PY        -0.01632   0.00503   0.00792   0.01710  -0.08042
  95        5PZ         0.00395   0.01004   0.01068  -0.00689   0.08765
  96        6D 0       -0.00564   0.00336   0.00637   0.00348   0.00372
  97        6D+1        0.00477   0.00445  -0.00156  -0.00171  -0.00133
  98        6D-1       -0.01016  -0.00114   0.00420   0.00759  -0.00717
  99        6D+2       -0.00278  -0.00820  -0.00614  -0.00240  -0.00175
 100        6D-2       -0.00084  -0.01160  -0.00082  -0.00281   0.00133
 101 7   H  1S          0.08691   0.02477   0.02219  -0.05187  -0.06189
 102        2S          0.11834   0.03268   0.03405  -0.08025  -0.11112
 103        3S          0.04313   0.00931   0.01859  -0.05283  -0.11551
 104        4PX        -0.00353  -0.00670  -0.00288  -0.00241  -0.00131
 105        4PY         0.00702  -0.00116  -0.00443  -0.00578  -0.00184
 106        4PZ        -0.00253  -0.00130  -0.00438  -0.00030   0.00283
 107 8   H  1S         -0.07743   0.00260   0.08700   0.08731   0.02099
 108        2S         -0.10376   0.00928   0.12862   0.13189   0.04356
 109        3S         -0.04687  -0.00137   0.06602   0.08543   0.03427
 110        4PX        -0.00254  -0.00633  -0.00188  -0.00034   0.00177
 111        4PY        -0.00704  -0.00190  -0.00019   0.00358   0.00370
 112        4PZ        -0.00241   0.00267   0.00688   0.00424  -0.00072
 113 9   H  1S         -0.03673   0.01984   0.04457   0.02274   0.02765
 114        2S         -0.05907   0.02603   0.07097   0.04463   0.03877
 115        3S         -0.03495  -0.00075   0.03713   0.03819  -0.00824
 116        4PX         0.00120   0.00621  -0.00069   0.00247  -0.00086
 117        4PY        -0.00301  -0.00426  -0.00058   0.00200  -0.01419
 118        4PZ         0.00708  -0.00059  -0.00343  -0.00437   0.00671
 119 10  H  1S          0.02854  -0.06046  -0.02133  -0.03173   0.03442
 120        2S          0.03710  -0.09619  -0.03167  -0.04682   0.05177
 121        3S          0.00536  -0.03905  -0.01751  -0.01189   0.00161
 122        4PX         0.00456  -0.00027  -0.00319  -0.00267   0.00650
 123        4PY        -0.00343  -0.00861  -0.00017  -0.00025  -0.00587
 124        4PZ         0.00155   0.00245   0.00300  -0.00178   0.01304
 125 11  N  1S          0.01008   0.00311   0.00826   0.00500  -0.02302
 126        2S          0.01620   0.00504   0.01335   0.00807  -0.03721
 127        2PX         0.00172   0.09545   0.01005   0.01977   0.00087
 128        2PY        -0.07508   0.02210   0.03998  -0.03808   0.09995
 129        2PZ        -0.01927   0.03523  -0.03687  -0.01273   0.13892
 130        3S         -0.04820  -0.01655  -0.04136  -0.02466   0.10960
 131        3PX         0.00291   0.13814   0.01683   0.02820   0.00109
 132        3PY        -0.10963   0.03480   0.05682  -0.05406   0.14436
 133        3PZ        -0.03024   0.05260  -0.05203  -0.02076   0.20008
 134        4S         -0.04844  -0.02641  -0.04856  -0.02376   0.16287
 135        4PX        -0.00261   0.10930   0.01070   0.02037   0.00593
[...]
   ||         0.154146D+02      0.133170D+00      0.494247D-01
   xxx        0.250679D+00      0.216567D-02      0.803768D-03
   xxy        0.576439D-01      0.497998D-03      0.184827D-03
   yxy        0.219494D-01      0.189625D-03      0.703776D-04
   yyy       -0.350815D-01     -0.303077D-03     -0.112484D-03
   xxz        0.478041D+02      0.412991D+00      0.153277D+00
   yxz        0.790795D+01      0.683185D-01      0.253557D-01
   yyz       -0.809627D+01     -0.699455D-01     -0.259596D-01
   zxz       -0.528348D-01     -0.456451D-03     -0.169407D-03
   zyz       -0.794931D-01     -0.686759D-03     -0.254884D-03
   zzz       -0.653978D+02     -0.564986D+00     -0.209689D+00

 ----------------------------------------------------------------------
 Unable to Open any file for archive entry.
 1\1\GINC-NODE1694\Freq\RB3LYP\6-311+G(d,p)\C3H10N2\SVICCHI\02-Jun-2023
 \0\\#p freq=raman scale=0.967 pop=(nbo,full,hirshfeld) guess=read geom
 =allcheck b3lyp/6-311+G(d,p) int=grid=ultrafine EmpiricalDispersion=GD
 3BJ SCRF=(Solvent=ethanol) scf=(xqc,intrep,maxconventionalcycle=350) n
 osymm\\TDA-isolated.gjf\\0,1\C,-3.5678100668,0.8105144417,0.1195561983
 \C,-2.2914917972,1.6434482179,0.040212955\C,-1.0366672933,0.7877896035
 ,-0.1089833534\H,-2.1968819059,2.2587205801,0.9426271105\H,-2.36937150
 75,2.3333491731,-0.8082400566\N,-4.7498492325,1.6767718957,0.260509224
 3\H,-3.4730865522,0.0843999299,0.9412668825\H,-3.6858977546,0.23223297
 86,-0.8021503201\H,-4.7129449562,2.1665154903,1.1506158613\H,-5.594600
 1011,1.113416712,0.2829135149\N,0.1671881314,1.6325104461,-0.177323102
 3\H,-1.1483259186,0.1356432623,-0.9885569911\H,-0.934916703,0.13160673
 51,0.7610760741\H,0.143307273,2.1972549944,-1.022311567\H,0.9972793845
 ,1.0517555392,-0.2492224303\\Version=ES64L-G16RevC.01\HF=-229.9350243\
 RMSD=2.510e-09\RMSF=4.500e-06\ZeroPoint=0.1342066\Thermal=0.1412244\ET
 ot=-229.7937999\HTot=-229.7928557\GTot=-229.8310677\Dipole=-0.0118333,
 -0.8898775,-0.038176\DipoleDeriv=0.6115253,-0.2298473,0.0048703,-0.142
 7977,0.4108129,-0.0670164,-0.0969318,0.004594,0.3829331,-0.0914651,0.0
 000689,0.0561677,0.0016727,0.1148867,-0.0056239,0.0198542,-0.0052073,0
 .2338685,0.6197595,0.2235017,0.0258269,0.1452028,0.3951984,0.0683881,-
 0.0847548,-0.0000915,0.3875963,0.023579,-0.007782,-0.0072626,-0.006608
 7,-0.0494264,-0.1200039,-0.0013351,-0.1598458,-0.1318985,0.0239347,0.0
 055182,-0.0030495,0.0045717,-0.073126,0.1248887,0.0030568,0.1644241,-0
 .1070731,-0.7487895,0.2031051,-0.003494,0.2057227,-0.5928127,0.1375667
 ,0.0136897,0.1132936,-0.4715701,-0.0741544,0.0936019,-0.0286092,0.0823
 626,-0.1776863,0.1511637,-0.0344353,0.2030215,-0.1139663,0.0029302,-0.
 0126328,-0.0116175,0.0036936,-0.0431892,-0.1096084,-0.0274159,-0.15380
 61,-0.1255652,0.1682283,0.0087251,-0.0432877,0.0317501,0.2783641,-0.06
 73507,0.0043455,-0.1459586,0.0453675,0.0631073,-0.0531516,0.0592108,-0
 .1211486,0.127792,-0.0386038,0.1322591,-0.0252286,0.2860103,-0.7585274
 ,-0.1975718,-0.0233602,-0.2016149,-0.5606928,-0.1451518,-0.0067396,-0.
 1218384,-0.4935809,-0.0785919,-0.0924424,-0.0399723,-0.0810305,-0.1433
 657,-0.1528856,-0.0463105,-0.204871,-0.1442182,0.0029809,0.0118918,-0.
 0077564,-0.0031475,-0.0658345,0.1148669,-0.0236512,0.1594028,-0.103013
 5,0.1672641,-0.0021489,-0.0421757,-0.0293601,0.2592305,0.0862467,0.005
 7781,0.1641762,0.0646785,0.0682189,0.0491641,0.0645092,0.1107319,0.119
 8492,0.0231237,0.1425908,0.0079351,0.2904315\Polar=76.0771575,-0.05157
 92,70.9879461,-0.3959935,0.2211452,65.7933546\PolarDeriv=-1.9625931,-3
 .0889716,-1.6008556,-0.7733682,1.7654607,0.8313903,-4.4715104,-0.82339
 27,8.4704319,2.4813168,-2.0638491,6.5164902,-0.8775934,3.2213725,-4.22
 18256,-0.5888014,11.6262555,1.5356543,0.1658555,4.3553903,-0.0276414,0
 .1537778,-1.98745,-0.2498955,4.1977331,-0.116228,-7.2706067,-0.8440451
 ,0.6118483,-8.8984761,0.1325951,-1.204604,0.7710478,-0.2278001,-12.406
 4706,-1.3231868,1.664537,-3.1255093,1.6057788,0.6364443,1.9437846,-0.3
 901262,-4.5191542,0.7129634,7.8665756,2.4899937,1.0921808,6.8558116,0.
 6810819,3.2567639,2.752953,1.3742043,12.0326778,1.0134121,0.6943163,0.
 5465384,0.5752552,1.7912092,0.5412691,0.619188,-0.2683004,0.2578309,4.
 9401612,0.1565027,3.211085,3.4170506,2.8822628,0.3944504,4.084677,0.27
 8639,5.4591776,7.7783598,-0.6660589,0.6860824,-0.5757364,-1.7224657,0.
 5014916,-0.4443241,-0.0225558,-0.1821751,5.8833425,0.1136614,-3.532586
 ,3.4622802,-2.8789823,0.3534685,-4.5874312,-0.0964799,5.4500667,-6.705
 5359,0.2989937,5.3947726,2.1138432,-1.0261175,-0.8364655,-0.4062346,7.
 6872093,0.4131929,1.5589826,-0.7402407,0.028379,-4.8529206,-2.0412505,
 0.2058854,-0.2561165,-0.5585745,-4.6923531,-5.4001824,2.2494539,-1.543
 6995,1.1874396,1.9937167,-0.9020626,0.446172,-0.5380871,1.3447432,-8.2
 304947,-0.5142065,4.3043864,-2.8747416,2.9127892,-1.4008826,5.9437389,
 0.630874,-5.9722845,6.0829461,-0.4668581,-0.8292632,-0.5219778,-1.9580
 889,-0.2740677,-0.953842,0.1527115,-0.8208295,-4.5369428,-0.6424203,-3
 .1796652,-2.8001414,-2.3579971,-0.8717749,-3.2962326,-0.8143991,-5.262
 6275,-7.5509336,0.58905,0.9344056,0.1714731,1.0215106,0.1054178,0.0979
 408,0.760397,-0.7083683,2.9026694,-0.6031538,1.719032,5.4501708,1.8813
 522,-0.7122375,2.8776476,-1.5794623,4.5486995,7.1042951,-11.7070953,-3
 .6034804,-2.6485963,1.2226992,0.6164387,-1.0248008,-5.4863626,-2.76286
 42,-1.8752681,0.3128137,-0.6835651,-0.431714,0.2466482,-0.2026743,-1.4
 768603,-0.7774034,0.5200217,-0.8463045,0.1801029,5.2263595,-2.1784858,
 1.4322764,-1.0620037,0.0760403,7.4778109,-0.6391963,1.5391431,-0.86336
 23,1.0093068,-5.1449453,2.7407467,0.0877512,1.212253,0.3632527,-5.0084
 38,4.1667993,-2.3201452,-1.385399,-1.124019,-2.1645749,-0.998458,-0.67
 42205,-0.3057367,-1.3011286,-6.9414895,-0.6050294,-4.1372241,-3.022685
 8,-3.0185693,-1.513733,-5.4696221,-0.9572035,-6.2168262,-7.3161661,0.4
 210327,-0.9698246,0.4903931,1.8687225,-0.2768179,0.8378158,-0.0154604,
 0.8375764,-5.4412984,-0.5969391,3.4628182,-2.8751463,2.3265855,-0.8280
 707,3.8144785,0.5534286,-5.2864285,6.4306459,-0.5117212,1.0555356,-0.1
 341414,-0.9551613,0.061979,0.0928633,0.9739746,0.8617948,3.4520579,-0.
 6805499,-2.3043984,5.6334623,-1.8469465,-0.8084665,-3.3490222,1.586364
 6,4.6157895,-5.8667335,11.3711299,-3.6529369,2.6672706,-1.5205801,0.80
 14839,1.1420333,-5.6226686,2.9260811,-2.317264,0.5356586,0.4622514,-0.
 4344946,-0.7827224,0.0227516,1.2003149,0.8133609,0.5927402,0.8969302\H
 yperPolar=-1.6473474,-47.4868765,2.8202902,65.2013634,-2.2075115,-8.56
 32979,2.2731371,-0.6111275,7.9489617,0.9814171\Quadrupole=2.402677,-4.
 522981,2.120304,4.0381226,-5.3959781,-0.1631044\PG=C01 [X(C3H10N2)]\NI
 mag=0\\0.45634169,0.01311595,0.52587147,0.01717634,0.01690172,0.588306
 18,-0.14290510,-0.04915046,0.00553364,0.46530533,-0.06013170,-0.122252
 63,0.00317591,0.00043972,0.53343290,0.00289600,0.00222155,-0.07929358,
 0.01252648,-0.00218497,0.58325636,-0.02628832,0.01208058,0.00272101,-0
 .14013659,0.06014491,0.00775602,0.45561591,-0.01121799,0.01479145,0.00
 176403,0.04897054,-0.12427948,-0.00594122,-0.01266128,0.52984466,0.001
 72023,-0.00035958,-0.00281169,0.00947707,-0.00698368,-0.08005468,0.015
 46770,-0.02236886,0.58506593,-0.00503991,-0.01639747,-0.02451716,-0.04
 807000,-0.01241490,-0.01869109,0.00007548,0.01661227,0.02418060,0.0560
 0141,-0.00226937,-0.01172025,-0.01620996,-0.01174948,-0.12198288,-0.11
 130507,-0.00060494,-0.01341711,-0.01722352,0.01324694,0.13498529,0.000
 54947,0.00141414,0.00151539,-0.01750275,-0.11263637,-0.22197323,-0.000
 62415,-0.00217478,-0.00335499,0.01951431,0.12619220,0.23870186,-0.0003
 8074,-0.01892049,0.02315929,-0.04748650,0.01162796,-0.01474130,-0.0045
 5924,0.01814956,-0.02268364,-0.00057222,0.00161223,-0.00187311,0.05539
 594,0.00030566,-0.01447817,0.01567991,0.01087354,-0.14165419,0.1183650
 5,0.00200659,-0.01339459,0.01561336,-0.00115935,0.01136830,-0.01349134
 ,-0.01238847,0.15713202,-0.00055765,0.00124880,-0.00185124,-0.01359012
 ,0.11970105,-0.20282861,0.00069784,-0.00262517,0.00261166,-0.00161286,
 0.01623423,-0.02116452,0.01512418,-0.13340734,0.21722963,-0.15860380,0
 .06437970,-0.01486773,-0.03708559,0.02344710,0.00506081,-0.00213409,-0
 .00580591,-0.00090351,0.00225731,0.00110745,-0.00046472,0.00202085,0.0
 0110786,0.00015589,0.57186136,0.04209323,-0.13027608,-0.00789648,-0.01
 348879,0.01305154,0.00080604,-0.00223209,-0.00276910,0.00002470,-0.000
 10105,0.00104730,0.00057426,0.00035115,0.00157071,-0.00061211,0.102246
 94,0.42065263,0.01577735,-0.03277775,-0.07508400,-0.00030010,-0.000644
 61,0.00053384,0.00001859,-0.00046771,0.00000050,-0.00044055,0.00069964
 ,0.00074344,-0.00013505,-0.00078165,0.00015406,-0.01073111,0.20509496,
 0.42868992,-0.04832590,0.00599978,-0.01042111,0.00003656,-0.01795717,0
 .02225691,0.00129559,-0.00105101,0.00070658,0.00113186,0.00064513,-0.0
 0058611,-0.00460275,-0.00331604,0.00040376,-0.01288644,0.02773180,-0.0
 1970017,0.06060819,0.00487293,-0.14283092,0.11048660,-0.00120373,-0.01
 267776,0.01624416,0.00098698,-0.00012555,0.00024980,0.00087099,0.00044
 729,-0.00029892,-0.00304891,-0.00164062,0.00034717,0.01358901,-0.01767
 160,0.01267947,-0.01335951,0.16075849,-0.00909716,0.11125830,-0.191346
 22,-0.00025506,0.00114246,-0.00203182,-0.00045110,0.00035270,0.0001163
 9,0.00042736,0.00005393,0.00100242,0.00050436,0.00026859,0.00154095,-0
 .00147939,-0.00268864,0.00889125,0.01213571,-0.12676790,0.20124162,-0.
 05137284,-0.01852390,-0.03000924,-0.00439281,-0.01474196,-0.02459787,0
 .00110639,-0.00088544,-0.00113537,-0.00452827,-0.00291206,0.00074484,0
 .00122759,0.00070442,0.00047652,-0.00070201,0.02127695,0.02649433,0.00
 078636,-0.00126051,-0.00101862,0.06210271,-0.01407538,-0.11337919,-0.1
 0399600,-0.00394187,-0.01070519,-0.01607997,0.00103094,0.00012576,-0.0
 0014208,-0.00307122,-0.00132195,0.00010303,0.00076918,0.00044249,-0.00
 006230,0.00119119,-0.01461727,-0.01872255,0.00223197,0.01138290,0.0171
 5092,0.01267527,0.12796092,-0.02586637,-0.10920613,-0.23363077,-0.0004
 0001,0.00155121,0.00201295,0.00024396,-0.00024160,0.00011590,0.0005547
 9,0.00026916,0.00152169,-0.00037127,-0.00016395,0.00109290,0.00234023,
 -0.00317914,-0.00098562,-0.00386705,-0.01142820,-0.02193339,0.02642022
 ,0.12162112,0.24971414,0.00071271,0.01709318,0.03015636,0.00172004,0.0
 0077214,0.00149462,-0.00027273,0.00015627,-0.00029211,-0.00060632,-0.0
 0065802,-0.00074217,-0.00007788,-0.00003510,-0.00011815,-0.06188611,-0
 .01122550,-0.01469840,0.00088669,-0.00035192,-0.00048242,-0.00476082,0
 .00369739,0.00092772,0.06526684,0.00178698,-0.01456279,-0.02144135,-0.
 00050626,0.00117308,0.00083508,-0.00018419,-0.00003477,0.00007203,0.00
 032368,0.00034195,-0.00014772,-0.00004855,-0.00005636,0.00011564,-0.00
 916884,-0.10360194,-0.14153069,-0.00171458,0.00062143,-0.00021741,0.00
 356135,-0.00131354,0.00044456,0.00715496,0.12980597,-0.00320506,0.0033
 9151,-0.00459411,0.00015885,0.00034765,0.00023840,0.00012876,0.0001060
 8,0.00030280,0.00059285,0.00021069,-0.00017611,0.00004570,-0.00002562,
 -0.00007953,-0.01693719,-0.19115166,-0.33198533,-0.00016418,0.00027773
 ,0.00185769,0.00141066,-0.00061028,0.00172248,0.01599693,0.18242337,0.
 33433378,-0.02413427,-0.01919486,0.00191607,-0.00386459,0.00607968,0.0
 0084506,-0.00023706,-0.00189215,0.00000591,0.00040931,0.00015000,-0.00
 012503,0.00032679,0.00008879,0.00009117,-0.29940304,-0.16470598,0.0036
 8075,0.00134368,-0.00051560,-0.00101239,0.00101729,-0.00022360,0.00044
 597,-0.00118927,-0.00112776,0.00213924,0.32667048,0.02580675,0.0109018
 0,0.00182513,0.00206102,-0.00235269,-0.00028181,0.00062661,0.00092094,
 -0.00013416,0.00011059,0.00002336,0.00024898,0.00009188,0.00009701,-0.
 00025866,-0.19323796,-0.16843927,-0.02372061,0.00009229,0.00073393,-0.
 00003054,-0.00064366,0.00070235,-0.00013742,-0.01623916,-0.01228884,0.
 00495058,0.18092594,0.16977879,0.00044248,0.00648560,-0.00238699,0.001
 89680,-0.00166136,-0.00017160,0.00024861,0.00056991,0.00070493,0.00011
 606,0.00026107,0.00021187,-0.00036508,-0.00031967,0.00014907,0.0371568
 9,-0.00114128,-0.03183351,-0.00011274,-0.00098516,0.00030873,0.0001582
 0,0.00009950,-0.00001126,-0.03197076,-0.02066630,-0.00160148,-0.008060
 05,0.01758335,0.03472192,-0.00192624,0.00583455,-0.00042253,-0.0373612
 5,-0.02254861,0.00307263,-0.16130128,-0.06211367,-0.02010836,0.0019512
 5,-0.00109525,0.00005024,0.00223511,-0.00109787,-0.00055815,-0.0024846
 6,-0.00132002,-0.00006220,-0.00004936,-0.00021470,0.00033093,-0.000168
 04,0.00002831,-0.00006352,0.00005094,0.00000100,0.00000548,-0.00076581
 ,0.00042523,0.00035930,0.56656007,0.00220218,-0.00299588,-0.00024321,0
 .01471724,0.01318358,0.00013754,-0.04258700,-0.13065542,0.00350764,-0.
 00030492,0.00149036,0.00070763,0.00012022,0.00117266,-0.00052110,0.001
 40451,0.00076701,0.00005018,0.00008921,0.00032040,-0.00031168,0.000251
 07,0.00016369,0.00027940,-0.00010752,0.00000369,-0.00001985,0.00041364
 ,-0.00019734,-0.00017263,-0.10414914,0.46087714,0.00021765,0.00022465,
 0.00000933,0.00088588,0.00166209,0.00061640,0.01294592,0.02757840,-0.0
 7198706,-0.00012525,0.00089104,0.00028937,-0.00045238,-0.00065035,0.00
 064126,0.00005223,-0.00002420,0.00044499,-0.00011247,-0.00044268,0.000
 23845,0.00037583,0.00027043,0.00014722,-0.00009300,0.00004808,-0.00000
 050,-0.00002689,-0.00001482,0.00001853,-0.02491866,-0.20208577,0.39370
 482,0.00129560,0.00094274,0.00077330,0.00048302,0.01574764,0.02325325,
 -0.04860558,-0.00710024,-0.01361897,-0.00444296,0.00334482,0.00067114,
 0.00109499,-0.00061276,-0.00063249,-0.00004771,-0.00007245,-0.00010721
 ,-0.00004642,-0.00013201,0.00000651,-0.00026854,-0.00025410,-0.0003413
 7,0.00012076,-0.00007789,-0.00018656,-0.00002086,-0.00005820,-0.000040
 73,-0.01390557,-0.02605042,-0.02230373,0.06126799,-0.00097962,-0.00006
 610,-0.00027807,0.00091488,-0.01158759,-0.01760846,-0.00607883,-0.1243
 9817,-0.10456145,0.00306482,-0.00173030,-0.00062892,-0.00092163,0.0004
 6772,0.00027479,0.00019570,0.00025314,0.00044484,0.00013341,0.00002319
 ,0.00001489,0.00042635,0.00054878,0.00030290,-0.00027420,0.00002113,0.
 00008751,0.00008235,0.00002759,0.00000113,-0.01349076,-0.01564637,-0.0
 1425780,0.01434620,0.13924920,-0.00053768,-0.00035129,0.00006422,-0.00
 020983,-0.00190576,-0.00357180,-0.01222134,-0.10538677,-0.20951602,0.0
 0074387,-0.00054748,0.00146619,0.00034898,-0.00010955,0.00102457,0.000
 35788,0.00030283,0.00029958,0.00001550,-0.00001471,-0.00000145,0.00050
 731,0.00024763,0.00023328,-0.00018418,0.00002675,-0.00000194,0.0001110
 1,-0.00002404,-0.00007398,-0.00258019,0.00061479,0.00787545,0.01633295
 ,0.12122933,0.22214151,0.00110632,0.00095510,-0.00105842,-0.00388469,0
 .01653135,-0.02288751,-0.05046879,0.01897463,-0.02551443,0.00118875,-0
 .00075914,0.00041575,-0.00437492,0.00292303,0.00098072,-0.00017645,-0.
 00027453,0.00034874,-0.00028871,-0.00043128,0.00044981,-0.00006265,-0.
 00003471,0.00006512,0.00001177,0.00002864,0.00000853,0.00000302,-0.000
 07893,0.00008927,-0.00135456,-0.02383448,0.02502597,0.00078024,0.00161
 994,-0.00128051,0.06144370,-0.00107309,0.00009309,0.00017462,0.0037567
 7,-0.01234146,0.01550316,0.01419700,-0.13283322,0.11319281,-0.00075461
 ,0.00046426,-0.00000225,0.00308920,-0.00142355,-0.00036665,-0.00001447
 ,0.00021987,-0.00027618,0.00032057,0.00061177,-0.00023523,0.00003120,0
 .00004249,-0.00003948,-0.00001176,-0.00010127,0.00001720,0.00004167,0.
 00006992,-0.00010307,-0.00178238,-0.01572618,0.01679971,-0.00162861,0.
 01162933,-0.01429913,-0.01267153,0.14974223,0.00016460,0.00023634,0.00
 014724,-0.00013978,-0.00271019,0.00312560,-0.02163320,0.11832650,-0.21
 499773,-0.00042799,0.00012155,0.00110732,0.00079840,-0.00052504,0.0014
 7883,-0.00007210,-0.00027405,0.00010106,-0.00033760,-0.00027484,0.0001
 9742,0.00006915,0.00003755,0.00002620,0.00002171,0.00003173,-0.0000245
 6,-0.00010635,0.00004277,-0.00000186,0.00227412,0.00184868,0.00073284,
 -0.00368631,0.01434076,-0.02217761,0.02200768,-0.13066104,0.22858347,-
 0.00027580,-0.00012637,-0.00030591,0.00171669,-0.00091209,0.00141223,0
 .00023083,-0.02001830,0.02913739,-0.00007815,0.00004565,-0.00011766,-0
 .00064973,0.00074668,-0.00071625,0.00005679,0.00011488,-0.00008448,0.0
 0013157,0.00028813,-0.00016271,0.00001166,0.00000786,0.00002193,-0.000
 00489,-0.00001782,0.00000395,0.00002897,-0.00001105,-0.00002323,-0.061
 38571,0.01094146,-0.01002296,0.00093191,0.00037446,-0.00044372,-0.0049
 5151,-0.00367383,0.00059463,0.06499203,0.00017875,-0.00002189,-0.00009
 437,0.00048309,0.00128526,-0.00079132,-0.00190966,-0.01548567,0.019780
 70,0.00004774,-0.00005028,-0.00011121,-0.00035329,0.00032032,0.0001918
 0,-0.00000103,0.00000338,-0.00004487,0.00009155,0.00002131,-0.00001999
 ,-0.00003211,-0.00009540,-0.00003741,0.00001749,0.00000469,-0.00001093
 ,0.00000980,-0.00001222,0.00000365,0.00901968,-0.13417131,0.15880160,0
 .00170008,0.00056921,0.00012852,-0.00356920,-0.00111514,-0.00072210,-0
 .00634830,0.16280621,0.00014013,-0.00013694,0.00028224,0.00017514,-0.0
 0027229,0.00017240,-0.00343336,-0.00423242,-0.00320758,0.00005615,0.00
 002844,-0.00009170,0.00054149,-0.00017620,-0.00017125,0.00000640,0.000
 02004,-0.00000257,-0.00018109,-0.00008033,-0.00001080,0.00000499,-0.00
 002364,-0.00002870,0.00000570,0.00001237,-0.00001067,0.00000285,-0.000
 00879,0.00001876,-0.01113781,0.20845643,-0.30196629,-0.00002875,-0.000
 38137,0.00183342,0.00112293,0.00033728,0.00170696,0.01063911,-0.197478
 29,0.30176075,-0.00020339,0.00191196,0.00016607,-0.00407453,-0.0060840
 6,0.00034376,-0.02432052,0.01988272,0.00356092,0.00032246,-0.00010397,
 0.00008996,0.00040272,-0.00014697,-0.00014440,-0.00078639,-0.00039452,
 -0.00006048,-0.00002090,-0.00008988,0.00010418,0.00000399,-0.00003123,
 -0.00011036,0.00002826,-0.00001072,0.00000203,-0.00018466,0.00012864,0
 .00010497,-0.29009487,0.16689397,0.01855187,0.00136313,0.00058692,-0.0
 0096006,0.00102848,0.00017385,0.00047304,-0.00075465,0.00066541,0.0020
 8613,0.31729085,-0.00061528,0.00092608,0.00015153,-0.00217623,-0.00229
 250,0.00008025,-0.02481561,0.01171026,-0.00066770,-0.00007352,0.000054
 67,0.00025127,-0.00013005,0.00007627,-0.00026015,-0.00044123,-0.000190
 32,-0.00000247,0.00006260,0.00002573,0.00002958,0.00007301,0.00006316,
 -0.00003501,0.00001175,-0.00001242,0.00000602,-0.00013192,0.00003468,0
 .00004526,0.19250364,-0.17858603,0.01119962,-0.00009480,0.00063923,0.0
 0008888,0.00062111,0.00066785,0.00018138,0.01858865,-0.01405848,-0.006
 06430,-0.18338213,0.18094184,0.00017965,-0.00055092,0.00067400,0.00174
 379,0.00141886,-0.00003063,-0.00186524,-0.00525907,-0.00298833,-0.0003
 7109,0.00032408,0.00020099,0.00009945,-0.00027621,0.00017224,0.0003254
 3,0.00014472,0.00003240,-0.00003594,0.00000782,-0.00007124,0.00009904,
 0.00010665,0.00000298,-0.00002186,-0.00000613,0.00001907,0.00009266,-0
 .00003995,-0.00005312,0.05375874,-0.01224805,-0.03076483,-0.00009101,0
 .00101992,0.00040458,0.00022637,-0.00004177,-0.00000520,-0.02993233,0.
 02040422,-0.00028498,-0.02420763,-0.00500417,0.03269209\\-0.00000068,-
 0.00000062,-0.00000377,-0.00000018,0.00000042,-0.00000043,0.00000098,-
 0.00000007,0.00000478,-0.00000136,0.00000032,-0.00000080,0.00000097,-0
 .00000058,-0.00000017,-0.00000381,-0.00000858,-0.00001662,-0.00000081,
 0.00000027,-0.00000128,0.00000104,-0.00000010,-0.00000110,-0.00000068,
 0.00000731,0.00000632,0.00000240,0.00000029,-0.00000457,0.00000344,-0.
 00000735,0.00001386,0.00000126,-0.00000036,0.00000228,-0.00000063,0.00
 000098,0.00000216,0.00000061,0.00000678,-0.00000546,-0.00000256,0.0000
 0130,0.00000482\\\@
 The archive entry for this job was punched.


 ALL MY ATTEMPTS TO ADAPT THE THEORETICAL FOUNDATIONS OF PHYSICS
 TO THESE NEW NOTIONS FAILED COMPLETELY. IT WAS AS IF THE GROUND HAD
 BEEN PULLED OUT FROM UNDER ONE WITH NO FIRM FOUNDATION TO BE SEEN ANYWHERE,
 UPON WHICH ONE COULD HAVE BUILT.  -- A.EINSTEIN
 Job cpu time:       0 days  0 hours 18 minutes 40.7 seconds.
 Elapsed time:       0 days  0 hours 10 minutes 25.2 seconds.
 File lengths (MBytes):  RWF=    104 Int=      0 D2E=      0 Chk=     12 Scr=      1
 Normal termination of Gaussian 16 at Fri Jun  2 11:34:41 2023.
