 Entering Gaussian System, Link 0=g16
 Input=tetrazolide-CO2_binding-site_index-3-freq.gjf
 Output=tetrazolide-CO2_binding-site_index-3-freq.log
 Initial command:
 /software/commercial/gaussian/g16/AVX/g16/l1.exe "/scratch1/svicchi/G09-659847.pbs02/Gau-2085850.inp" -scrdir="/scratch1/svicchi/G09-659847.pbs02/"
 Entering Link 1 = /software/commercial/gaussian/g16/AVX/g16/l1.exe PID=   2085851.
  
 Copyright (c) 1988-2019, Gaussian, Inc.  All Rights Reserved.
  
 This is part of the Gaussian(R) 16 program.  It is based on
 the Gaussian(R) 09 system (copyright 2009, Gaussian, Inc.),
 the Gaussian(R) 03 system (copyright 2003, Gaussian, Inc.),
 the Gaussian(R) 98 system (copyright 1998, Gaussian, Inc.),
 the Gaussian(R) 94 system (copyright 1995, Gaussian, Inc.),
 the Gaussian 92(TM) system (copyright 1992, Gaussian, Inc.),
 the Gaussian 90(TM) system (copyright 1990, Gaussian, Inc.),
 the Gaussian 88(TM) system (copyright 1988, Gaussian, Inc.),
 the Gaussian 86(TM) system (copyright 1986, Carnegie Mellon
 University), and the Gaussian 82(TM) system (copyright 1983,
 Carnegie Mellon University). Gaussian is a federally registered
 trademark of Gaussian, Inc.
  
 This software contains proprietary and confidential information,
 including trade secrets, belonging to Gaussian, Inc.
  
 This software is provided under written license and may be
 used, copied, transmitted, or stored only in accord with that
 written license.
  
 The following legend is applicable only to US Government
 contracts under FAR:
  
                    RESTRICTED RIGHTS LEGEND
  
 Use, reproduction and disclosure by the US Government is
 subject to restrictions as set forth in subparagraphs (a)
 and (c) of the Commercial Computer Software - Restricted
 Rights clause in FAR 52.227-19.
  
 Gaussian, Inc.
 340 Quinnipiac St., Bldg. 40, Wallingford CT 06492
  
  
 ---------------------------------------------------------------
 Warning -- This program may not be used in any manner that
 competes with the business of Gaussian, Inc. or will provide
 assistance to any competitor of Gaussian, Inc.  The licensee
 of this program is prohibited from giving any competitor of
 Gaussian, Inc. access to this program.  By using this program,
 the user acknowledges that Gaussian, Inc. is engaged in the
 business of creating and licensing software in the field of
 computational chemistry and represents and warrants to the
 licensee that it is not a competitor of Gaussian, Inc. and that
 it will not use this program in any manner prohibited above.
 ---------------------------------------------------------------
  

 Cite this work as:
 Gaussian 16, Revision C.01,
 M. J. Frisch, G. W. Trucks, H. B. Schlegel, G. E. Scuseria, 
 M. A. Robb, J. R. Cheeseman, G. Scalmani, V. Barone, 
 G. A. Petersson, H. Nakatsuji, X. Li, M. Caricato, A. V. Marenich, 
 J. Bloino, B. G. Janesko, R. Gomperts, B. Mennucci, H. P. Hratchian, 
 J. V. Ortiz, A. F. Izmaylov, J. L. Sonnenberg, D. Williams-Young, 
 F. Ding, F. Lipparini, F. Egidi, J. Goings, B. Peng, A. Petrone, 
 T. Henderson, D. Ranasinghe, V. G. Zakrzewski, J. Gao, N. Rega, 
 G. Zheng, W. Liang, M. Hada, M. Ehara, K. Toyota, R. Fukuda, 
 J. Hasegawa, M. Ishida, T. Nakajima, Y. Honda, O. Kitao, H. Nakai, 
 T. Vreven, K. Throssell, J. A. Montgomery, Jr., J. E. Peralta, 
 F. Ogliaro, M. J. Bearpark, J. J. Heyd, E. N. Brothers, K. N. Kudin, 
 V. N. Staroverov, T. A. Keith, R. Kobayashi, J. Normand, 
 K. Raghavachari, A. P. Rendell, J. C. Burant, S. S. Iyengar, 
 J. Tomasi, M. Cossi, J. M. Millam, M. Klene, C. Adamo, R. Cammi, 
 J. W. Ochterski, R. L. Martin, K. Morokuma, O. Farkas, 
 J. B. Foresman, and D. J. Fox, Gaussian, Inc., Wallingford CT, 2019.
 
 ******************************************
 Gaussian 16:  ES64L-G16RevC.01  3-Jul-2019
                 2-Jun-2023 
 ******************************************
 %NProcShared=2
 Will use up to    2 processors via shared memory.
 %mem=55gb
 %chk=/scratch1/svicchi/G09-659847.pbs02/02-freq/tetrazolide-CO2_binding-site_ind
 ex-3-freq.chk
 ----------------------------------------------------------------------
 #p freq=raman scale=0.967 pop=(nbo,full,hirshfeld) guess=read geom=all
 check b3lyp/6-311+G(d,p) int=grid=ultrafine EmpiricalDispersion=GD3BJ 
 SCRF=(Solvent=ethanol) scf=(xqc,intrep,maxconventionalcycle=350) nosym
 m
 ----------------------------------------------------------------------
 1/10=4,29=7,30=1,38=1,114=967000/1,3;
 2/12=2,15=1,40=1/2;
 3/5=4,6=6,7=111,11=2,14=-4,25=1,30=1,70=2201,71=2,72=4,74=-5,75=-5,116=-2,124=41,140=1/1,2,3;
 4/5=1/1;
 5/5=2,8=3,13=1,17=20,38=6,53=4,85=350,98=1/2,8;
 8/6=4,10=90,11=11/1;
 10/13=10,15=4,31=1/2;
 11/6=3,8=1,9=11,15=111,16=1,31=1/1,2,10;
 10/6=1,31=1/2;
 6/7=3,28=1,40=1,79=1/1,7;
 7/8=1,10=1,25=1,30=1/1,2,3,16;
 1/10=4,30=1/3;
 99//99;
 Leave Link    1 at Fri Jun  2 11:33:36 2023, MaxMem=  7381975040 cpu:               1.1 elap:               1.2
 (Enter /software/commercial/gaussian/g16/AVX/g16/l101.exe)
 Structure from the checkpoint file:  "/scratch1/svicchi/G09-659847.pbs02/02-freq/tetrazolide-CO2_binding-site_index-3-freq.chk"
 ----------------------------------------
 tetrazolide-CO2_binding-site_index-3.gjf
 ----------------------------------------
 Charge = -1 Multiplicity = 1
 No Z-Matrix found in chk file; cartesian coordinates used.
  N                                                 0.045736352963      1.041438398686      0.011557682742
  N                                                 1.144403644011      0.368506376432      0.028817930960
  N                                                -1.084547973758      0.303565373199     -0.037093054723
  N                                                 0.710546038335     -0.885575475721     -0.007528212465
  C                                                -0.676069080728     -0.982437126622     -0.050281708756
  H                                                 0.056744343585      2.055436206972      0.035441227541
  C                                                 1.764123554105     -2.042644210908      0.004287209818
  O                                                 2.920414677200     -1.633124665174     -0.061290721644
  O                                                 1.242114444286     -3.150034876866      0.078087646527
 Recover connectivity data from disk.
 ITRead=  0  0  0  0  0  0  0  0  0
 MicOpt= -1 -1 -1 -1 -1 -1 -1 -1 -1
 NAtoms=      9 NQM=        9 NQMF=       0 NMMI=      0 NMMIF=      0
                NMic=       0 NMicF=      0.
                    Isotopes and Nuclear Properties:
 (Nuclear quadrupole moments (NQMom) in fm**2, nuclear magnetic moments (NMagM)
  in nuclear magnetons)

  Atom         1           2           3           4           5           6           7           8           9
 IAtWgt=          14          14          14          14          12           1          12          16          16
 AtmWgt=  14.0030740  14.0030740  14.0030740  14.0030740  12.0000000   1.0078250  12.0000000  15.9949146  15.9949146
 NucSpn=           2           2           2           2           0           1           0           0           0
 AtZEff=   4.5500000   4.5500000   4.5500000   4.5500000   3.6000000   1.0000000   3.6000000   5.6000000   5.6000000
 NQMom=    2.0440000   2.0440000   2.0440000   2.0440000   0.0000000   0.0000000   0.0000000   0.0000000   0.0000000
 NMagM=    0.4037610   0.4037610   0.4037610   0.4037610   0.0000000   2.7928460   0.0000000   0.0000000   0.0000000
 AtZNuc=   7.0000000   7.0000000   7.0000000   7.0000000   6.0000000   1.0000000   6.0000000   8.0000000   8.0000000
 Leave Link  101 at Fri Jun  2 11:33:38 2023, MaxMem=  7381975040 cpu:               0.4 elap:               0.8
 (Enter /software/commercial/gaussian/g16/AVX/g16/l103.exe)

 GradGradGradGradGradGradGradGradGradGradGradGradGradGradGradGradGradGrad
 Berny optimization.
 Initialization pass.
 Trust Radius=3.00D-01 FncErr=1.00D-07 GrdErr=1.00D-07 EigMax=2.50D+02 EigMin=1.00D-04
 Number of steps in this run=      2 maximum allowed number of steps=      2.
 GradGradGradGradGradGradGradGradGradGradGradGradGradGradGradGradGradGrad

 Leave Link  103 at Fri Jun  2 11:33:39 2023, MaxMem=  7381975040 cpu:               0.2 elap:               1.1
 (Enter /software/commercial/gaussian/g16/AVX/g16/l202.exe)
                          Input orientation:                          
 ---------------------------------------------------------------------
 Center     Atomic      Atomic             Coordinates (Angstroms)
 Number     Number       Type             X           Y           Z
 ---------------------------------------------------------------------
      1          7           0        0.045736    1.041438    0.011558
      2          7           0        1.144404    0.368506    0.028818
      3          7           0       -1.084548    0.303565   -0.037093
      4          7           0        0.710546   -0.885575   -0.007528
      5          6           0       -0.676069   -0.982437   -0.050282
      6          1           0        0.056744    2.055436    0.035441
      7          6           0        1.764124   -2.042644    0.004287
      8          8           0        2.920415   -1.633125   -0.061291
      9          8           0        1.242114   -3.150035    0.078088
 ---------------------------------------------------------------------
                    Distance matrix (angstroms):
                    1          2          3          4          5
     1  N    0.000000
     2  N    1.288490   0.000000
     3  N    1.350691   2.230871   0.000000
     4  N    2.038558   1.327507   2.153437   0.000000
     5  C    2.149628   2.268353   1.349382   1.390651   0.000000
     6  H    1.014339   2.007182   2.092095   3.013113   3.126186
     7  C    3.530506   2.489639   3.690710   1.564920   2.661119
     8  O    3.927133   2.677473   4.448717   2.333504   3.654889
     9  O    4.359380   3.520243   4.165811   2.327589   2.897307
                    6          7          8          9
     6  H    0.000000
     7  C    4.439637   0.000000
     8  O    4.670701   1.228420   0.000000
     9  O    5.338900   1.226480   2.266525   0.000000
 Symmetry turned off by external request.
 Stoichiometry    C2HN4O2(1-)
 Framework group  C1[X(C2HN4O2)]
 Deg. of freedom    21
 Full point group                 C1      NOp   1
 Rotational constants (GHZ):           5.7048122           1.7197228           1.3228075
 Leave Link  202 at Fri Jun  2 11:33:42 2023, MaxMem=  7381975040 cpu:               0.0 elap:               1.5
 (Enter /software/commercial/gaussian/g16/AVX/g16/l301.exe)
 Standard basis: 6-311+G(d,p) (5D, 7F)
 Ernie: Thresh=  0.10000D-02 Tol=  0.10000D-05 Strict=F.
   182 basis functions,   296 primitive gaussians,   190 cartesian basis functions
    29 alpha electrons       29 beta electrons
       nuclear repulsion energy       347.4429320960 Hartrees.
 IExCor=  402 DFT=T Ex+Corr=B3LYP ExCW=0 ScaHFX=  0.200000
 ScaDFX=  0.800000  0.720000  1.000000  0.810000 ScalE2=  1.000000  1.000000
 IRadAn=      5 IRanWt=     -1 IRanGd=            0 ICorTp=0 IEmpDi=141
 NAtoms=    9 NActive=    9 NUniq=    9 SFac= 1.00D+00 NAtFMM=   60 NAOKFM=F Big=F
 Integral buffers will be    131072 words long.
 Raffenetti 2 integral format.
 Two-electron integral symmetry is turned off.
 R6Disp:  Grimme-D3(BJ) Dispersion energy=       -0.0140264971 Hartrees.
 Nuclear repulsion after empirical dispersion term =      347.4289055990 Hartrees.
 Force inversion solution in PCM.
 ------------------------------------------------------------------------------
 Polarizable Continuum Model (PCM)
 =================================
 Model                : PCM.
 Atomic radii         : UFF (Universal Force Field).
 Polarization charges : Total charges.
 Charge compensation  : None.
 Solution method      : Matrix inversion.
 Cavity type          : Scaled VdW (van der Waals Surface) (Alpha=1.100).
 Cavity algorithm     : GePol (No added spheres)
                        Default sphere list used, NSphG=    9.
                        Lebedev-Laikov grids with approx.  5.0 points / Ang**2.
                        Smoothing algorithm: York/Karplus (Gamma=1.0000).
                        Polarization charges: spherical gaussians, with
                                              point-specific exponents (IZeta= 3).
                        Self-potential: point-specific (ISelfS= 7).
                        Self-field    : sphere-specific E.n sum rule (ISelfD= 2).
 1st derivatives      : Analytical E(r).r(x)/FMM algorithm (CHGder, D1EAlg=3).
                        Cavity 1st derivative terms included.
 2nd derivatives      : Analytical E(r).r(xy)/FMM algorithm (CHGder, D2EAlg=3).
                        Cavity 2nd derivative terms included.
 Solvent              : Ethanol, Eps=  24.852000 Eps(inf)=   1.852593
 ------------------------------------------------------------------------------
 Spheres list:
 ISph  on   Nord     Re0    Alpha      Xe            Ye            Ze
    1   N      1    1.8300  1.100      0.045736      1.041438      0.011558
    2   N      2    1.8300  1.100      1.144404      0.368506      0.028818
    3   N      3    1.8300  1.100     -1.084548      0.303565     -0.037093
    4   N      4    1.8300  1.100      0.710546     -0.885575     -0.007528
    5   C      5    1.9255  1.100     -0.676069     -0.982437     -0.050282
    6   H      6    1.4430  1.100      0.056744      2.055436      0.035441
    7   C      7    1.9255  1.100      1.764124     -2.042644      0.004287
    8   O      8    1.7500  1.100      2.920415     -1.633125     -0.061291
    9   O      9    1.7500  1.100      1.242114     -3.150035      0.078088
 ------------------------------------------------------------------------------
 GePol: Number of generator spheres                  =       9
 GePol: Total number of spheres                      =       9
 GePol: Number of exposed spheres                    =       9 (100.00%)
 GePol: Number of points                             =    1070
 GePol: Average weight of points                     =       0.14
 GePol: Minimum weight of points                     =   0.23D-07
 GePol: Maximum weight of points                     =    0.20577
 GePol: Number of points with low weight             =      32
 GePol: Fraction of low-weight points (<1% of avg)   =       2.99%
 GePol: Cavity surface area                          =    145.072 Ang**2
 GePol: Cavity volume                                =    135.142 Ang**3
 Leave Link  301 at Fri Jun  2 11:33:45 2023, MaxMem=  7381975040 cpu:               0.4 elap:               1.8
 (Enter /software/commercial/gaussian/g16/AVX/g16/l302.exe)
 NPDir=0 NMtPBC=     1 NCelOv=     1 NCel=       1 NClECP=     1 NCelD=      1
         NCelK=      1 NCelE2=     1 NClLst=     1 CellRange=     0.0.
 One-electron integrals computed using PRISM.
 NBasis=   182 RedAO= T EigKep=  3.33D-05  NBF=   182
 NBsUse=   182 1.00D-06 EigRej= -1.00D+00 NBFU=   182
 Precomputing XC quadrature grid using
 IXCGrd= 4 IRadAn=           5 IRanWt=          -1 IRanGd=           0 AccXCQ= 0.00D+00.
 Generated NRdTot=       0 NPtTot=           0 NUsed=           0 NTot=          32
 NSgBfM=   190   190   190   190   190 MxSgAt=     9 MxSgA2=     9.
 Leave Link  302 at Fri Jun  2 11:33:48 2023, MaxMem=  7381975040 cpu:               0.7 elap:               2.0
 (Enter /software/commercial/gaussian/g16/AVX/g16/l303.exe)
 DipDrv:  MaxL=1.
 Leave Link  303 at Fri Jun  2 11:33:51 2023, MaxMem=  7381975040 cpu:               0.1 elap:               1.8
 (Enter /software/commercial/gaussian/g16/AVX/g16/l401.exe)
 Initial guess from the checkpoint file:  "/scratch1/svicchi/G09-659847.pbs02/02-freq/tetrazolide-CO2_binding-site_index-3-freq.chk"
 B after Tr=     0.000000    0.000000    0.000000
         Rot=    1.000000    0.000000    0.000000    0.000000 Ang=   0.00 deg.
 Guess basis will be translated and rotated to current coordinates.
 JPrj=2 DoOrth=T DoCkMO=T.
 Leave Link  401 at Fri Jun  2 11:33:53 2023, MaxMem=  7381975040 cpu:               0.9 elap:               1.7
 (Enter /software/commercial/gaussian/g16/AVX/g16/l502.exe)
 Keep R1 ints in memory in canonical form, NReq=142154113.
 FoFCou: FMM=F IPFlag=           0 FMFlag=           0 FMFlg1=           0
         NFxFlg=           0 DoJE=F BraDBF=F KetDBF=F FulRan=T
         wScrn=  0.000000 ICntrl=       600 IOpCl=  0 I1Cent=           0 NGrid=           0
         NMat0=    1 NMatS0=  16653 NMatT0=    0 NMatD0=    1 NMtDS0=    0 NMtDT0=    0
 Symmetry not used in FoFCou.
 Two-electron integral symmetry not used.
 Closed shell SCF:
 Using DIIS extrapolation, IDIIS=  1040.
 NGot=  7381975040 LenX=  7243230585 LenY=  7243194044
 Requested convergence on RMS density matrix=1.00D-08 within 350 cycles.
 Requested convergence on MAX density matrix=1.00D-06.
 Requested convergence on             energy=1.00D-06.
 No special actions if energy rises.

 Cycle   1  Pass 1  IDiag  1:
 Inv3:  Mode=1 IEnd=     3434700.
 Iteration    1 A*A^-1 deviation from unit magnitude is 5.33D-15 for   1058.
 Iteration    1 A*A^-1 deviation from orthogonality  is 1.39D-15 for    879    597.
 Iteration    1 A^-1*A deviation from unit magnitude is 5.33D-15 for   1058.
 Iteration    1 A^-1*A deviation from orthogonality  is 1.25D-15 for    842    370.
 E= -446.476977744390    
 DIIS: error= 2.43D-08 at cycle   1 NSaved=   1.
 NSaved= 1 IEnMin= 1 EnMin= -446.476977744390     IErMin= 1 ErrMin= 2.43D-08
 ErrMax= 2.43D-08  0.00D+00 EMaxC= 1.00D-01 BMatC= 3.22D-14 BMatP= 3.22D-14
 IDIUse=1 WtCom= 1.00D+00 WtEn= 0.00D+00
 Coeff-Com:  0.100D+01
 Coeff:      0.100D+01
 Gap=     0.177 Goal=   None    Shift=    0.000
 RMSDP=3.00D-09 MaxDP=9.58D-08              OVMax= 2.02D-07

 Error on total polarization charges =  0.01848
 SCF Done:  E(RB3LYP) =  -446.476977744     A.U. after    1 cycles
            NFock=  1  Conv=0.30D-08     -V/T= 2.0034
 KE= 4.449424569835D+02 PE=-1.752612970685D+03 EE= 5.137646303585D+02
 Leave Link  502 at Fri Jun  2 11:34:06 2023, MaxMem=  7381975040 cpu:              17.5 elap:              11.4
 (Enter /software/commercial/gaussian/g16/AVX/g16/l508.exe)
 QCSCF skips out because SCF is already converged.
 Leave Link  508 at Fri Jun  2 11:34:08 2023, MaxMem=  7381975040 cpu:               0.0 elap:               1.8
 (Enter /software/commercial/gaussian/g16/AVX/g16/l801.exe)
 DoSCS=F DFT=T ScalE2(SS,OS)=  1.000000  1.000000
 Range of M.O.s used for correlation:     1   182
 NBasis=   182 NAE=    29 NBE=    29 NFC=     0 NFV=     0
 NROrb=    182 NOA=    29 NOB=    29 NVA=   153 NVB=   153

 **** Warning!!: The largest alpha MO coefficient is  0.58215437D+02

 Leave Link  801 at Fri Jun  2 11:34:11 2023, MaxMem=  7381975040 cpu:               0.1 elap:               1.5
 (Enter /software/commercial/gaussian/g16/AVX/g16/l1002.exe)
 Minotr:  Closed shell wavefunction.
 NEqPCM:  Using equilibrium solvation (IEInf=0, Eps=  24.8520, EpsInf=   1.8526)
          Direct CPHF calculation.
          Differentiating once with respect to electric field.
                with respect to dipole field.
          Electric field/nuclear overlap derivatives assumed to be zero.
          Requested convergence is 1.0D-08 RMS, and 1.0D-07 maximum.
          Secondary convergence is 1.0D-12 RMS, and 1.0D-12 maximum.
          NewPWx=F KeepS1=T KeepF1=T KeepIn=T MapXYZ=F SortEE=F KeepMc=T.
         2767 words used for storage of precomputed grid.
 Keep R1 ints in memory in canonical form, NReq=142735334.
 FoFCou: FMM=F IPFlag=           0 FMFlag=           0 FMFlg1=           0
         NFxFlg=           0 DoJE=F BraDBF=F KetDBF=F FulRan=T
         wScrn=  0.000000 ICntrl=       600 IOpCl=  0 I1Cent=           0 NGrid=           0
         NMat0=    1 NMatS0=  16653 NMatT0=    0 NMatD0=    1 NMtDS0=    0 NMtDT0=    0
 Symmetry not used in FoFCou.
 Two-electron integral symmetry not used.
          MDV=    7381975040 using IRadAn=       1.
          Solving linear equations simultaneously, MaxMat=       0.
          There are     3 degrees of freedom in the 1st order CPHF.  IDoFFX=0 NUNeed=     3.
      3 vectors produced by pass  0 Test12= 1.48D-13 3.33D-08 XBig12= 8.00D+01 5.54D+00.
 AX will form     3 AO Fock derivatives at one time.
      3 vectors produced by pass  1 Test12= 1.48D-13 3.33D-08 XBig12= 6.73D+01 2.65D+00.
      3 vectors produced by pass  2 Test12= 1.48D-13 3.33D-08 XBig12= 6.67D+00 7.04D-01.
      3 vectors produced by pass  3 Test12= 1.48D-13 3.33D-08 XBig12= 3.06D+00 4.27D-01.
      3 vectors produced by pass  4 Test12= 1.48D-13 3.33D-08 XBig12= 2.49D-01 1.24D-01.
      3 vectors produced by pass  5 Test12= 1.48D-13 3.33D-08 XBig12= 6.58D-02 6.07D-02.
      3 vectors produced by pass  6 Test12= 1.48D-13 3.33D-08 XBig12= 7.03D-03 2.61D-02.
      3 vectors produced by pass  7 Test12= 1.48D-13 3.33D-08 XBig12= 5.29D-04 6.00D-03.
      3 vectors produced by pass  8 Test12= 1.48D-13 3.33D-08 XBig12= 1.27D-05 6.57D-04.
      3 vectors produced by pass  9 Test12= 1.48D-13 3.33D-08 XBig12= 8.07D-07 3.48D-04.
      3 vectors produced by pass 10 Test12= 1.48D-13 3.33D-08 XBig12= 1.12D-08 2.98D-05.
      3 vectors produced by pass 11 Test12= 1.48D-13 3.33D-08 XBig12= 3.64D-10 3.42D-06.
      3 vectors produced by pass 12 Test12= 1.48D-13 3.33D-08 XBig12= 8.34D-12 5.85D-07.
      1 vectors produced by pass 13 Test12= 1.48D-13 3.33D-08 XBig12= 4.66D-13 1.95D-07.
 InvSVY:  IOpt=1 It=  1 EMax= 5.33D-15
 Solved reduced A of dimension    40 with     3 vectors.
 End of Minotr F.D. properties file   721 does not exist.
 End of Minotr F.D. properties file   722 does not exist.
 End of Minotr F.D. properties file   788 does not exist.
 Leave Link 1002 at Fri Jun  2 11:35:05 2023, MaxMem=  7381975040 cpu:              94.6 elap:              53.8
 (Enter /software/commercial/gaussian/g16/AVX/g16/l1101.exe)
 Using compressed storage, NAtomX=     9.
 Will process     10 centers per pass.
 R6Disp: Adding Grimme-D3(BJ) dispersion energy 1st derivatives to the gradient.
 Leave Link 1101 at Fri Jun  2 11:35:08 2023, MaxMem=  7381975040 cpu:               0.4 elap:               1.3
 (Enter /software/commercial/gaussian/g16/AVX/g16/l1102.exe)
 Symmetrizing basis deriv contribution to polar:
 IMax=3 JMax=2 DiffMx= 0.00D+00
 Leave Link 1102 at Fri Jun  2 11:35:09 2023, MaxMem=  7381975040 cpu:               0.2 elap:               0.7
 (Enter /software/commercial/gaussian/g16/AVX/g16/l1110.exe)
 Forming Gx(P) for the SCF density, NAtomX=     9.
 Integral derivatives from FoFJK, PRISM(SPDF).
 Do as many integral derivatives as possible in FoFJK.
 G2DrvN: MDV=    7381973995.
 G2DrvN: will do    10 centers at a time, making    1 passes.
 PxScal for G2LodP:  IOpCl= 0 ISclPx=1 IMOff=     1 NMtTot=     4 NTT=   16653 ScalPx= 1.24D+01
 Calling FoFCou, ICntrl=  3107 FMM=F I1Cent=   0 AccDes= 0.00D+00.
 FoFJK:  IHMeth= 1 ICntrl=    3107 DoSepK=F KAlg= 0 I1Cent=           0 FoldK=F
 IRaf=         0 NMat=       1 IRICut=       1 DoRegI=T DoRafI=F ISym2E= 0 IDoP0=0 IntGTp=1.
 FoFCou: FMM=F IPFlag=           0 FMFlag=      100000 FMFlg1=           0
         NFxFlg=           0 DoJE=F BraDBF=F KetDBF=F FulRan=T
         wScrn=  0.000000 ICntrl=      3107 IOpCl=  0 I1Cent=           0 NGrid=           0
         NMat0=    1 NMatS0=      1 NMatT0=    0 NMatD0=    4 NMtDS0=    3 NMtDT0=    0
 Symmetry not used in FoFCou.
 PxScal for G2LodP:  IOpCl= 0 ISclPx=0 IMOff=     1 NMtTot=     4 NTT=   16653 ScalPx= 1.00D+00
 NEqPCM:  Using equilibrium solvation (IEInf=0, Eps=  24.8520, EpsInf=   1.8526)
 G2PCM: DoFxE=T DoFxN=T DoGrad=T DoDP/DQ/DG/TGxP=TFFF NFrqRd=   0 IEInf=0 SqF1=F DoCFld=F IF1Alg=4.
 GePol: Maximum number of non-zero 1st derivatives   =     213
 End of G2Drv F.D. properties file   721 does not exist.
 End of G2Drv F.D. properties file   722 does not exist.
 End of G2Drv F.D. properties file   788 does not exist.
 Leave Link 1110 at Fri Jun  2 11:37:03 2023, MaxMem=  7381975040 cpu:             220.4 elap:             113.2
 (Enter /software/commercial/gaussian/g16/AVX/g16/l1002.exe)
 Minotr:  Closed shell wavefunction.
          IDoAtm=111111111
 NEqPCM:  Using equilibrium solvation (IEInf=0, Eps=  24.8520, EpsInf=   1.8526)
          Direct CPHF calculation.
          Differentiating once with respect to electric field.
                with respect to dipole field.
          Differentiating once with respect to nuclear coordinates.
          Requested convergence is 1.0D-08 RMS, and 1.0D-07 maximum.
          Secondary convergence is 1.0D-12 RMS, and 1.0D-12 maximum.
          NewPWx=T KeepS1=F KeepF1=F KeepIn=T MapXYZ=F SortEE=F KeepMc=T.
         2767 words used for storage of precomputed grid.
 Keep R1 ints in memory in canonical form, NReq=142735541.
 FoFCou: FMM=F IPFlag=           0 FMFlag=           0 FMFlg1=           0
         NFxFlg=           0 DoJE=F BraDBF=F KetDBF=F FulRan=T
         wScrn=  0.000000 ICntrl=       600 IOpCl=  0 I1Cent=           0 NGrid=           0
         NMat0=    1 NMatS0=  16653 NMatT0=    0 NMatD0=    1 NMtDS0=    0 NMtDT0=    0
 Symmetry not used in FoFCou.
 Two-electron integral symmetry not used.
          MDV=    7381975040 using IRadAn=       1.
          Solving linear equations simultaneously, MaxMat=       0.
          There are    30 degrees of freedom in the 1st order CPHF.  IDoFFX=5 NUNeed=    30.
 Will reuse    3 saved solutions.
     24 vectors produced by pass  0 Test12= 1.48D-14 3.33D-09 XBig12= 2.02D-01 1.29D-01.
 AX will form    24 AO Fock derivatives at one time.
     24 vectors produced by pass  1 Test12= 1.48D-14 3.33D-09 XBig12= 6.26D-02 1.29D-01.
     24 vectors produced by pass  2 Test12= 1.48D-14 3.33D-09 XBig12= 1.05D-03 6.55D-03.
     24 vectors produced by pass  3 Test12= 1.48D-14 3.33D-09 XBig12= 3.03D-05 9.07D-04.
     24 vectors produced by pass  4 Test12= 1.48D-14 3.33D-09 XBig12= 2.12D-07 6.66D-05.
     24 vectors produced by pass  5 Test12= 1.48D-14 3.33D-09 XBig12= 5.20D-10 2.94D-06.
     19 vectors produced by pass  6 Test12= 1.48D-14 3.33D-09 XBig12= 9.37D-13 1.38D-07.
      3 vectors produced by pass  7 Test12= 1.48D-14 3.33D-09 XBig12= 1.42D-15 7.13D-09.
 InvSVY:  IOpt=1 It=  1 EMax= 9.99D-16
 Solved reduced A of dimension   166 with    24 vectors.
 FullF1:  Do perturbations      1 to       3.
 Isotropic polarizability for W=    0.000000       84.00 Bohr**3.
 FullF1:  Do perturbations      1 to       6.
 End of Minotr F.D. properties file   721 does not exist.
 End of Minotr F.D. properties file   722 does not exist.
 End of Minotr F.D. properties file   788 does not exist.
 Leave Link 1002 at Fri Jun  2 11:38:50 2023, MaxMem=  7381975040 cpu:             196.2 elap:             105.0
 (Enter /software/commercial/gaussian/g16/AVX/g16/l601.exe)
 Copying SCF densities to generalized density rwf, IOpCl= 0 IROHF=0.

 **********************************************************************

            Population analysis using the SCF Density.

 **********************************************************************

 Alpha  occ. eigenvalues --  -19.08330 -19.08320 -14.44914 -14.41225 -14.39783
 Alpha  occ. eigenvalues --  -14.34940 -10.30244 -10.19090  -1.16761  -1.06184
 Alpha  occ. eigenvalues --   -0.97919  -0.95016  -0.89757  -0.71106  -0.65458
 Alpha  occ. eigenvalues --   -0.57137  -0.55001  -0.51506  -0.46612  -0.42929
 Alpha  occ. eigenvalues --   -0.42750  -0.38074  -0.33478  -0.32842  -0.30053
 Alpha  occ. eigenvalues --   -0.28370  -0.27467  -0.26134  -0.23128
 Alpha virt. eigenvalues --   -0.05387   0.01291   0.01467   0.03285   0.04536
 Alpha virt. eigenvalues --    0.05392   0.05913   0.07078   0.07594   0.07995
 Alpha virt. eigenvalues --    0.10114   0.11403   0.12214   0.12424   0.15142
 Alpha virt. eigenvalues --    0.17358   0.17535   0.17647   0.19256   0.19461
 Alpha virt. eigenvalues --    0.20482   0.21081   0.22292   0.22373   0.22697
 Alpha virt. eigenvalues --    0.24381   0.25418   0.26099   0.26512   0.27810
 Alpha virt. eigenvalues --    0.27863   0.28144   0.28709   0.30702   0.31928
 Alpha virt. eigenvalues --    0.33721   0.34815   0.36345   0.39688   0.40085
 Alpha virt. eigenvalues --    0.41777   0.45088   0.47839   0.54890   0.57191
 Alpha virt. eigenvalues --    0.59114   0.62533   0.64891   0.70282   0.73604
 Alpha virt. eigenvalues --    0.74621   0.76855   0.80039   0.80703   0.81150
 Alpha virt. eigenvalues --    0.84427   0.85253   0.85428   0.88003   0.88556
 Alpha virt. eigenvalues --    0.89473   0.95012   1.00522   1.06748   1.07660
 Alpha virt. eigenvalues --    1.08052   1.13806   1.14801   1.17996   1.18898
 Alpha virt. eigenvalues --    1.18964   1.21992   1.23453   1.26501   1.27830
 Alpha virt. eigenvalues --    1.29415   1.30896   1.35920   1.38195   1.42848
 Alpha virt. eigenvalues --    1.48149   1.55388   1.58958   1.66894   1.72796
 Alpha virt. eigenvalues --    1.77851   1.79817   1.81164   1.86096   1.92760
 Alpha virt. eigenvalues --    1.95167   1.99497   2.02541   2.08222   2.21506
 Alpha virt. eigenvalues --    2.26443   2.26848   2.32927   2.40025   2.47332
 Alpha virt. eigenvalues --    2.48995   2.57992   2.60997   2.66462   2.67540
 Alpha virt. eigenvalues --    2.73618   2.74119   2.82426   2.84287   2.87122
 Alpha virt. eigenvalues --    2.88166   2.89277   2.93432   2.96399   3.01628
 Alpha virt. eigenvalues --    3.14191   3.19324   3.22458   3.28830   3.30837
 Alpha virt. eigenvalues --    3.39646   3.43245   3.46284   3.59029   3.64053
 Alpha virt. eigenvalues --    3.64576   3.76428   3.82590   3.90422   3.90704
 Alpha virt. eigenvalues --    3.97090   4.02549   4.08379   4.17340   4.52137
 Alpha virt. eigenvalues --    4.71055   4.91688   5.03322   5.04078   5.05694
 Alpha virt. eigenvalues --    5.13710   5.18552   5.61504   5.71473   5.87759
 Alpha virt. eigenvalues --   23.79507  23.89396  35.32261  35.47682  35.50243
 Alpha virt. eigenvalues --   35.55634  49.94930  50.04782
     Molecular Orbital Coefficients:
                           1         2         3         4         5
                           O         O         O         O         O
     Eigenvalues --   -19.08330 -19.08320 -14.44914 -14.41225 -14.39783
   1 1   N  1S         -0.00000  -0.00000   0.55735  -0.00264   0.00011
   2        2S          0.00001   0.00001   0.46571  -0.00215   0.00013
   3        2PX         0.00000   0.00001   0.00015   0.00037   0.00004
   4        2PY         0.00001  -0.00000  -0.00024  -0.00022   0.00004
   5        2PZ         0.00000   0.00000   0.00000   0.00001   0.00000
   6        3S         -0.00009  -0.00003   0.01594  -0.00022  -0.00025
   7        3PX        -0.00001  -0.00004   0.00030  -0.00087  -0.00020
   8        3PY        -0.00000   0.00002   0.00041   0.00063  -0.00003
   9        3PZ        -0.00000   0.00000   0.00002  -0.00001  -0.00001
  10        4S          0.00115  -0.00015  -0.01101   0.00487   0.00050
  11        4PX         0.00053   0.00017   0.00039   0.00180   0.00006
  12        4PY         0.00007   0.00024   0.00516  -0.00177  -0.00018
  13        4PZ         0.00002   0.00002   0.00012   0.00001  -0.00000
  14        5S         -0.00357  -0.00767   0.01521  -0.03422   0.00514
  15        5PX        -0.00346  -0.00341  -0.00035  -0.00518  -0.00290
  16        5PY         0.00015   0.00062  -0.00550   0.00488  -0.00046
  17        5PZ        -0.00020  -0.00018  -0.00014  -0.00009  -0.00009
  18        6D 0       -0.00002  -0.00001  -0.00072   0.00024  -0.00006
  19        6D+1       -0.00000   0.00000   0.00002  -0.00001  -0.00000
  20        6D-1       -0.00000   0.00000   0.00004   0.00002   0.00001
  21        6D+2       -0.00004  -0.00003  -0.00048  -0.00044  -0.00021
  22        6D-2        0.00001   0.00001  -0.00018   0.00069   0.00003
  23 2   N  1S         -0.00000  -0.00000   0.00261   0.55733  -0.00525
  24        2S          0.00001   0.00001   0.00226   0.46588  -0.00434
  25        2PX         0.00002   0.00003  -0.00033  -0.00199  -0.00008
  26        2PY        -0.00005  -0.00003   0.00022  -0.00064  -0.00033
  27        2PZ        -0.00000  -0.00001  -0.00000  -0.00007  -0.00001
  28        3S         -0.00001  -0.00010   0.00005   0.01541  -0.00007
  29        3PX        -0.00010  -0.00009   0.00074  -0.00034   0.00018
  30        3PY         0.00024   0.00009  -0.00051   0.00014   0.00069
  31        3PZ         0.00000   0.00002   0.00001  -0.00001   0.00002
  32        4S         -0.00188   0.00202   0.00226  -0.01678   0.00157
  33        4PX         0.00077  -0.00038  -0.00129   0.00339  -0.00040
  34        4PY        -0.00006  -0.00134  -0.00053   0.00117  -0.00117
  35        4PZ         0.00005  -0.00011  -0.00005   0.00011  -0.00004
  36        5S         -0.00939   0.01021  -0.00175   0.04771  -0.01625
  37        5PX        -0.00135  -0.00280   0.00186  -0.01107   0.00179
  38        5PY         0.00583   0.00240  -0.00163  -0.00123   0.00535
  39        5PZ         0.00027   0.00007   0.00003  -0.00026   0.00017
  40        6D 0        0.00001  -0.00000   0.00040  -0.00022   0.00031
  41        6D+1       -0.00000   0.00001  -0.00002   0.00001  -0.00001
  42        6D-1       -0.00001   0.00001   0.00001   0.00000  -0.00003
  43        6D+2        0.00004  -0.00002  -0.00032  -0.00002   0.00040
  44        6D-2        0.00001   0.00002   0.00063  -0.00024  -0.00043
  45 3   N  1S         -0.00000  -0.00000   0.00063  -0.00010  -0.00008
  46        2S          0.00000   0.00002   0.00055  -0.00004  -0.00003
  47        2PX         0.00001  -0.00001   0.00022   0.00005  -0.00002
  48        2PY         0.00001  -0.00000   0.00017   0.00002  -0.00007
  49        2PZ         0.00000  -0.00000   0.00001   0.00000  -0.00000
  50        3S         -0.00003  -0.00011   0.00007  -0.00006  -0.00011
  51        3PX        -0.00003   0.00003  -0.00032  -0.00029  -0.00003
  52        3PY        -0.00003   0.00003  -0.00029  -0.00005   0.00042
  53        3PZ        -0.00000   0.00001  -0.00002  -0.00001   0.00001
  54        4S          0.00007   0.00065   0.00341  -0.00108  -0.00123
  55        4PX        -0.00001   0.00004   0.00202  -0.00054  -0.00058
  56        4PY         0.00026   0.00002  -0.00016   0.00025   0.00029
  57        4PZ        -0.00001  -0.00001   0.00006  -0.00001  -0.00001
  58        5S         -0.00475  -0.00431  -0.00697   0.00782  -0.00674
  59        5PX        -0.00193  -0.00090  -0.00278   0.00255  -0.00268
  60        5PY        -0.00119  -0.00047  -0.00056  -0.00008  -0.00139
  61        5PZ        -0.00000   0.00004  -0.00009   0.00009  -0.00010
  62        6D 0       -0.00001   0.00001   0.00024   0.00006   0.00005
  63        6D+1        0.00000  -0.00000  -0.00003  -0.00001   0.00000
  64        6D-1        0.00000  -0.00000  -0.00002  -0.00000  -0.00000
  65        6D+2        0.00000   0.00001  -0.00016  -0.00005   0.00021
  66        6D-2        0.00000   0.00002  -0.00044  -0.00009   0.00006
  67 4   N  1S         -0.00000  -0.00000  -0.00009   0.00523   0.55731
  68        2S          0.00002   0.00002  -0.00004   0.00441   0.46582
  69        2PX         0.00007   0.00006   0.00000   0.00014   0.00024
  70        2PY        -0.00006  -0.00012   0.00003   0.00035   0.00058
  71        2PZ        -0.00000   0.00000   0.00000   0.00001   0.00002
  72        3S          0.00001  -0.00001  -0.00023   0.00007   0.01556
  73        3PX        -0.00035  -0.00017   0.00014  -0.00032  -0.00060
  74        3PY         0.00017   0.00049  -0.00029  -0.00072   0.00026
  75        3PZ         0.00000  -0.00001  -0.00000  -0.00002  -0.00001
  76        4S         -0.00076  -0.00110  -0.00064   0.00350  -0.01412
  77        4PX         0.00252  -0.00191  -0.00235   0.00051   0.00001
  78        4PY         0.00163  -0.00248   0.00128   0.00336  -0.00036
  79        4PZ        -0.00005   0.00003  -0.00004   0.00008   0.00000
  80        5S          0.00989  -0.00099  -0.00407  -0.01852   0.02239
  81        5PX         0.00463  -0.00324  -0.00475  -0.00122   0.00130
  82        5PY         0.00874   0.00061   0.00016  -0.00502   0.00921
  83        5PZ         0.00014  -0.00004  -0.00012  -0.00017   0.00016
  84        6D 0        0.00003   0.00004  -0.00005   0.00019  -0.00032
  85        6D+1       -0.00001   0.00000  -0.00000  -0.00000   0.00002
  86        6D-1        0.00001  -0.00001  -0.00000  -0.00002   0.00002
  87        6D+2        0.00002   0.00001   0.00001   0.00040   0.00007
  88        6D-2        0.00014   0.00017  -0.00018  -0.00033   0.00019
  89 5   C  1S         -0.00000  -0.00000  -0.00001  -0.00001  -0.00000
  90        2S          0.00000   0.00002   0.00004   0.00003   0.00008
  91        2PX        -0.00004   0.00007  -0.00003   0.00005   0.00041
  92        2PY        -0.00004  -0.00004   0.00001  -0.00004  -0.00010
  93        2PZ        -0.00000   0.00000  -0.00000  -0.00000   0.00001
  94        3S         -0.00001  -0.00013  -0.00042  -0.00017   0.00013
  95        3PX         0.00027  -0.00036  -0.00002  -0.00037  -0.00095
  96        3PY         0.00011   0.00016  -0.00033   0.00005   0.00048
  97        3PZ         0.00001  -0.00001  -0.00001  -0.00001  -0.00002
  98        4S          0.00337  -0.00178  -0.00287   0.00030   0.00273
  99        4PX         0.00111  -0.00023  -0.00058   0.00035   0.00186
 100        4PY        -0.00021  -0.00000  -0.00042  -0.00029   0.00039
 101        4PZ         0.00008  -0.00006  -0.00003  -0.00000   0.00007
 102        5S          0.00651  -0.00050  -0.00519  -0.00290  -0.00143
 103        5PX         0.00287  -0.00013  -0.00082  -0.00128   0.00010
 104        5PY        -0.00113   0.00074  -0.00106  -0.00010  -0.00161
 105        5PZ         0.00003  -0.00007  -0.00005  -0.00004  -0.00003
 106        6D 0       -0.00000   0.00000  -0.00009  -0.00006   0.00024
 107        6D+1        0.00001  -0.00002   0.00001  -0.00001  -0.00004
 108        6D-1        0.00001   0.00000   0.00001   0.00000   0.00000
 109        6D+2        0.00008  -0.00007   0.00002  -0.00020  -0.00084
 110        6D-2        0.00001   0.00008   0.00016  -0.00011  -0.00024
 111 6   H  1S          0.00002  -0.00000   0.00019  -0.00011  -0.00009
 112        2S         -0.00033  -0.00011  -0.00405  -0.00055   0.00016
 113        3S          0.00045   0.00048   0.00280   0.00204  -0.00040
 114        4PX        -0.00003  -0.00000   0.00000  -0.00016   0.00004
 115        4PY         0.00007   0.00001   0.00194   0.00032   0.00003
 116        4PZ         0.00000   0.00000   0.00005   0.00000   0.00000
 117 7   C  1S         -0.00002  -0.00003  -0.00000  -0.00000   0.00001
 118        2S          0.00010   0.00014   0.00001   0.00001  -0.00005
 119        2PX        -0.00018   0.00031   0.00000  -0.00001  -0.00015
 120        2PY        -0.00033   0.00007  -0.00001   0.00006   0.00017
 121        2PZ         0.00002  -0.00001   0.00000  -0.00000  -0.00001
 122        3S          0.00029   0.00023  -0.00017  -0.00011   0.00008
 123        3PX         0.00043  -0.00066  -0.00007  -0.00003   0.00017
 124        3PY         0.00074  -0.00016   0.00006  -0.00024  -0.00019
 125        3PZ        -0.00003   0.00003  -0.00000   0.00002   0.00002
 126        4S          0.00045   0.00224   0.00231   0.00009   0.00179
 127        4PX        -0.00654   0.00609  -0.00102  -0.00116  -0.00156
 128        4PY        -0.00691   0.00425   0.00172   0.00003   0.00210
 129        4PZ         0.00045  -0.00036  -0.00000  -0.00004  -0.00009
 130        5S         -0.00526  -0.00066   0.00252   0.00029  -0.00244
 131        5PX         0.00201  -0.00080  -0.00083  -0.00041   0.00054
 132        5PY        -0.00003  -0.00009   0.00058  -0.00054  -0.00069
 133        5PZ        -0.00004   0.00006  -0.00001  -0.00005  -0.00001
 134        6D 0        0.00025   0.00030  -0.00011  -0.00006  -0.00015
 135        6D+1        0.00003   0.00007  -0.00001   0.00000  -0.00003
 136        6D-1        0.00007   0.00003  -0.00001  -0.00001  -0.00003
 137        6D+2        0.00057  -0.00061  -0.00004   0.00008   0.00001
 138        6D-2       -0.00067  -0.00071  -0.00004   0.00015   0.00037
 139 8   O  1S         -0.06491   0.54747   0.00000   0.00000   0.00000
 140        2S         -0.05526   0.46645   0.00000   0.00001   0.00002
 141        2PX         0.00010  -0.00105  -0.00001  -0.00003  -0.00005
 142        2PY        -0.00001  -0.00038   0.00001  -0.00000  -0.00002
 143        2PZ        -0.00000   0.00006   0.00000   0.00000   0.00000
 144        3S         -0.00206   0.01377  -0.00001  -0.00010  -0.00013
 145        3PX         0.00021  -0.00064   0.00006   0.00015   0.00025
 146        3PY         0.00019  -0.00015  -0.00003   0.00003   0.00008
 147        3PZ        -0.00002   0.00004  -0.00000  -0.00001  -0.00001
 148        4S          0.00439  -0.01148  -0.00032   0.00034  -0.00032
 149        4PX        -0.00142   0.00210  -0.00002  -0.00036   0.00011
 150        4PY         0.00029   0.00039  -0.00006  -0.00027  -0.00042
 151        4PZ         0.00007  -0.00012   0.00000   0.00002   0.00002
 152        5S          0.00401   0.00275   0.00149   0.00158   0.00038
 153        5PX        -0.00150  -0.00003  -0.00050   0.00003   0.00021
 154        5PY         0.00012   0.00094  -0.00010   0.00046  -0.00010
 155        5PZ         0.00008  -0.00004   0.00001   0.00008   0.00001
 156        6D 0        0.00003  -0.00014  -0.00002   0.00000   0.00001
 157        6D+1        0.00001  -0.00002  -0.00000   0.00000   0.00000
 158        6D-1        0.00002  -0.00001  -0.00000   0.00000  -0.00000
 159        6D+2        0.00010   0.00018  -0.00001  -0.00000  -0.00010
 160        6D-2       -0.00021   0.00014   0.00001   0.00001   0.00000
 161 9   O  1S          0.54747   0.06492   0.00000   0.00000   0.00000
 162        2S          0.46644   0.05535   0.00001   0.00001   0.00002
 163        2PX         0.00049   0.00010   0.00001  -0.00000   0.00002
 164        2PY         0.00101   0.00014   0.00000   0.00003   0.00005
 165        2PZ        -0.00007  -0.00001  -0.00000  -0.00000  -0.00000
 166        3S          0.01391   0.00123  -0.00005  -0.00007  -0.00011
 167        3PX         0.00025  -0.00012  -0.00003  -0.00001  -0.00011
 168        3PY         0.00065  -0.00004  -0.00002  -0.00013  -0.00026
 169        3PZ        -0.00005   0.00001   0.00001   0.00001   0.00001
 170        4S         -0.01231   0.00145   0.00009  -0.00031  -0.00039
 171        4PX        -0.00049  -0.00047   0.00014   0.00004   0.00038
 172        4PY        -0.00223   0.00083  -0.00010   0.00004  -0.00005
 173        4PZ         0.00016  -0.00004  -0.00002  -0.00000  -0.00001
 174        5S          0.00374   0.00386   0.00039   0.00037   0.00299
 175        5PX        -0.00091   0.00035   0.00033   0.00013   0.00009
 176        5PY         0.00040   0.00113   0.00031   0.00051   0.00080
 177        5PZ        -0.00001  -0.00007   0.00003   0.00005  -0.00006
 178        6D 0       -0.00015  -0.00000  -0.00000  -0.00001   0.00000
 179        6D+1       -0.00002   0.00001  -0.00000  -0.00000  -0.00000
 180        6D-1       -0.00003  -0.00000   0.00000   0.00000   0.00000
 181        6D+2       -0.00012  -0.00017   0.00001   0.00003   0.00009
 182        6D-2        0.00021  -0.00015  -0.00000  -0.00001  -0.00003
                           6         7         8         9        10
                           O         O         O         O         O
     Eigenvalues --   -14.34940 -10.30244 -10.19090  -1.16761  -1.06184
   1 1   N  1S         -0.00065  -0.00000   0.00000  -0.07252   0.02003
   2        2S         -0.00052   0.00000   0.00004  -0.11367   0.03151
   3        2PX        -0.00029   0.00002  -0.00003   0.01882  -0.00005
   4        2PY        -0.00017  -0.00001   0.00007  -0.04166   0.00635
   5        2PZ        -0.00001  -0.00000   0.00000  -0.00031   0.00012
   6        3S         -0.00004  -0.00004  -0.00038   0.31458  -0.08837
   7        3PX         0.00057  -0.00008   0.00010   0.02712   0.00093
   8        3PY         0.00036   0.00006  -0.00020  -0.06729   0.01053
   9        3PZ         0.00002   0.00000   0.00000  -0.00058   0.00024
  10        4S          0.00317   0.00057   0.00160   0.17614  -0.05856
  11        4PX        -0.00220   0.00088  -0.00032   0.00344  -0.00268
  12        4PY        -0.00230   0.00003  -0.00192  -0.03593   0.00619
  13        4PZ        -0.00012   0.00002  -0.00006  -0.00069   0.00001
  14        5S         -0.01397   0.00466  -0.02267   0.03867   0.03954
  15        5PX         0.00603  -0.00554   0.00158   0.01202   0.02797
  16        5PY         0.00216  -0.00281   0.00698   0.00820  -0.00836
  17        5PZ         0.00028  -0.00029   0.00017   0.00105   0.00131
  18        6D 0        0.00011  -0.00001  -0.00008  -0.01333   0.00291
  19        6D+1       -0.00002  -0.00000  -0.00000   0.00057  -0.00017
  20        6D-1       -0.00001   0.00000   0.00000   0.00036  -0.00012
  21        6D+2       -0.00023  -0.00003  -0.00016  -0.00015  -0.00038
  22        6D-2       -0.00048  -0.00001  -0.00004  -0.00442  -0.00069
  23 2   N  1S          0.00009   0.00000   0.00000  -0.06759   0.00415
  24        2S          0.00012   0.00001   0.00002  -0.10573   0.00646
  25        2PX        -0.00007   0.00003  -0.00001  -0.06025   0.01130
  26        2PY         0.00001  -0.00001  -0.00003  -0.01040  -0.01345
  27        2PZ        -0.00000   0.00000   0.00000  -0.00186   0.00004
  28        3S         -0.00013  -0.00006  -0.00004   0.29327  -0.01811
  29        3PX         0.00038  -0.00012   0.00011  -0.09450   0.01763
  30        3PY        -0.00005   0.00009   0.00012  -0.01823  -0.02145
  31        3PZ         0.00001  -0.00000   0.00000  -0.00297  -0.00003
  32        4S         -0.00103  -0.00014  -0.00178   0.13759  -0.01136
  33        4PX        -0.00005   0.00041   0.00036  -0.01904   0.00294
  34        4PY         0.00079  -0.00077   0.00036  -0.00011   0.00175
  35        4PZ         0.00003  -0.00000   0.00005  -0.00039   0.00025
  36        5S          0.01767  -0.01787   0.02997  -0.05792   0.03285
  37        5PX        -0.00223  -0.00038  -0.00320   0.02061   0.01087
  38        5PY        -0.00607   0.01035  -0.00575  -0.00776  -0.04043
  39        5PZ        -0.00027   0.00032  -0.00023  -0.00042  -0.00153
  40        6D 0        0.00002  -0.00003  -0.00000  -0.01330   0.00067
  41        6D+1       -0.00000   0.00000   0.00000   0.00074  -0.00011
  42        6D-1        0.00000   0.00000  -0.00000   0.00033   0.00015
  43        6D+2       -0.00008  -0.00003   0.00009   0.00428  -0.00404
  44        6D-2        0.00006   0.00002   0.00000  -0.00087   0.00269
  45 3   N  1S          0.55735   0.00000  -0.00006  -0.03801   0.01136
  46        2S          0.46591   0.00001  -0.00001  -0.05926   0.01777
  47        2PX         0.00177   0.00001   0.00018   0.03823  -0.01032
  48        2PY        -0.00007  -0.00001  -0.00053   0.00115  -0.00293
  49        2PZ         0.00005   0.00000  -0.00001   0.00117  -0.00037
  50        3S          0.01545  -0.00010   0.00051   0.15926  -0.04846
  51        3PX         0.00021  -0.00003  -0.00051   0.05970  -0.01633
  52        3PY        -0.00083   0.00005   0.00156   0.00331  -0.00538
  53        3PZ        -0.00001  -0.00000   0.00001   0.00185  -0.00061
  54        4S         -0.01556   0.00072  -0.00322   0.08059  -0.02880
  55        4PX        -0.00304   0.00029  -0.00081   0.01156  -0.00315
  56        4PY         0.00088   0.00004   0.00025  -0.00316  -0.00114
  57        4PZ        -0.00007   0.00002  -0.00001   0.00030  -0.00005
  58        5S          0.02604  -0.00855   0.01801  -0.02274   0.03974
  59        5PX         0.00668  -0.00254   0.00515  -0.00277   0.01192
  60        5PY         0.00177  -0.00230   0.00018   0.00058   0.00799
  61        5PZ         0.00019  -0.00008   0.00015  -0.00046  -0.00007
  62        6D 0       -0.00022   0.00000   0.00070  -0.00808   0.00192
  63        6D+1        0.00000   0.00000  -0.00000   0.00065  -0.00018
  64        6D-1        0.00001   0.00000  -0.00002   0.00027  -0.00010
  65        6D+2       -0.00028  -0.00000   0.00079   0.00554  -0.00150
  66        6D-2       -0.00003   0.00001   0.00061   0.00331  -0.00204
  67 4   N  1S          0.00008  -0.00002  -0.00005  -0.04995  -0.01864
  68        2S          0.00011  -0.00007  -0.00003  -0.07814  -0.02945
  69        2PX        -0.00005   0.00002  -0.00043  -0.00501   0.01240
  70        2PY        -0.00003  -0.00004  -0.00005   0.03967  -0.01293
  71        2PZ        -0.00000   0.00000  -0.00002   0.00062   0.00015
  72        3S         -0.00014   0.00034   0.00038   0.21176   0.08186
  73        3PX         0.00032   0.00025   0.00086  -0.00543   0.02253
  74        3PY         0.00005  -0.00019   0.00019   0.06153  -0.02403
  75        3PZ         0.00002   0.00000   0.00004   0.00106   0.00027
  76        4S         -0.00111   0.00024   0.00057   0.13365   0.06185
  77        4PX         0.00152  -0.00004   0.00116  -0.00714   0.00920
  78        4PY         0.00053  -0.00065   0.00023   0.02289  -0.00086
  79        4PZ         0.00003   0.00000  -0.00006   0.00007   0.00017
  80        5S         -0.02056   0.02253  -0.00644  -0.06380  -0.08986
  81        5PX         0.00108   0.00981  -0.01774   0.03975  -0.02172
  82        5PY        -0.01016   0.00515  -0.00598  -0.03371  -0.03892
  83        5PZ        -0.00012   0.00033  -0.00043   0.00108  -0.00091
  84        6D 0        0.00001   0.00008   0.00047  -0.01016  -0.00280
  85        6D+1       -0.00001   0.00000  -0.00005   0.00032   0.00012
  86        6D-1        0.00000   0.00000   0.00000   0.00047  -0.00002
  87        6D+2       -0.00027   0.00002  -0.00084  -0.00723   0.00054
  88        6D-2       -0.00013   0.00004  -0.00009  -0.00046  -0.00308
  89 5   C  1S         -0.00001  -0.00002   0.56294  -0.02388   0.00012
  90        2S          0.00010   0.00001   0.46363  -0.03612   0.00010
  91        2PX        -0.00026   0.00001   0.00135   0.01672   0.00511
  92        2PY         0.00036  -0.00003   0.00160   0.02263  -0.00596
  93        2PZ         0.00000  -0.00000   0.00007   0.00094   0.00004
  94        3S          0.00014  -0.00023   0.01776   0.08754   0.00050
  95        3PX         0.00084  -0.00009   0.00056   0.02548   0.00850
  96        3PY        -0.00079   0.00013   0.00146   0.03472  -0.01024
  97        3PZ         0.00001   0.00001   0.00006   0.00141   0.00011
  98        4S          0.00543   0.00082  -0.01637   0.03210  -0.00361
  99        4PX         0.00097   0.00017  -0.00214   0.00144  -0.00277
 100        4PY         0.00296  -0.00020  -0.00067  -0.00046   0.00069
 101        4PZ         0.00010  -0.00003  -0.00009   0.00011  -0.00004
 102        5S         -0.00512   0.00741  -0.01874   0.09634  -0.03257
 103        5PX        -0.00126   0.00313  -0.00576   0.02918  -0.01250
 104        5PY        -0.00150  -0.00114   0.00000   0.01740  -0.00010
 105        5PZ        -0.00004   0.00006  -0.00021   0.00136   0.00006
 106        6D 0        0.00027  -0.00003  -0.00086  -0.00884   0.00020
 107        6D+1        0.00002   0.00000   0.00003   0.00052   0.00013
 108        6D-1       -0.00001   0.00000   0.00002   0.00045  -0.00013
 109        6D+2        0.00083   0.00003  -0.00024  -0.00109   0.00399
 110        6D-2        0.00051   0.00003  -0.00048   0.00469  -0.00060
 111 6   H  1S         -0.00012   0.00002  -0.00018   0.02672  -0.01039
 112        2S          0.00028  -0.00026   0.00121   0.03337  -0.01017
 113        3S          0.00071   0.00025  -0.00091  -0.01422   0.00227
 114        4PX         0.00023  -0.00006   0.00003   0.00060   0.00016
 115        4PY         0.00013   0.00006  -0.00011  -0.00894   0.00275
 116        4PZ         0.00001   0.00000   0.00000  -0.00019   0.00007
 117 7   C  1S         -0.00000   0.56308   0.00002  -0.01046  -0.08010
 118        2S          0.00001   0.46331   0.00004  -0.01601  -0.12211
 119        2PX        -0.00002  -0.00056  -0.00007  -0.00165   0.02406
 120        2PY         0.00003   0.00062   0.00005   0.00435  -0.02649
 121        2PZ         0.00000  -0.00001   0.00001  -0.00005   0.00035
 122        3S         -0.00010   0.01824  -0.00025   0.04223   0.32860
 123        3PX         0.00009   0.00147   0.00030  -0.00497   0.02708
 124        3PY        -0.00014  -0.00164  -0.00024   0.00926  -0.02990
 125        3PZ        -0.00000   0.00004  -0.00004  -0.00015   0.00036
 126        4S         -0.00043  -0.01258   0.00011   0.01731   0.08770
 127        4PX        -0.00085   0.00074  -0.00251  -0.00274  -0.00356
 128        4PY        -0.00019  -0.00137  -0.00168  -0.00536   0.00233
 129        4PZ         0.00005  -0.00003   0.00034   0.00045   0.00023
 130        5S          0.00044  -0.01107   0.00909  -0.02704   0.04342
 131        5PX        -0.00010   0.00301  -0.00200   0.00764  -0.00629
 132        5PY         0.00077  -0.00189   0.00215  -0.00103   0.00362
 133        5PZ         0.00001   0.00002   0.00003   0.00031  -0.00012
 134        6D 0       -0.00002  -0.00161  -0.00004  -0.00323  -0.02091
 135        6D+1       -0.00000  -0.00023  -0.00000  -0.00016  -0.00259
 136        6D-1       -0.00001  -0.00022  -0.00000  -0.00020  -0.00249
 137        6D+2        0.00004   0.00016   0.00001  -0.00069   0.00234
 138        6D-2        0.00002   0.00230   0.00014  -0.00138   0.02281
 139 8   O  1S          0.00000  -0.00008   0.00000  -0.00622  -0.06862
 140        2S          0.00001  -0.00003   0.00002  -0.00992  -0.10946
 141        2PX        -0.00000  -0.00051  -0.00003  -0.00540  -0.04913
 142        2PY         0.00000  -0.00015   0.00000  -0.00056  -0.01864
 143        2PZ         0.00000   0.00003   0.00000   0.00027   0.00287
 144        3S         -0.00012   0.00018  -0.00014   0.02809   0.31280
 145        3PX         0.00002   0.00171   0.00015  -0.00860  -0.07071
 146        3PY         0.00000   0.00049  -0.00000  -0.00114  -0.02851
 147        3PZ        -0.00001  -0.00009  -0.00001   0.00043   0.00420
 148        4S          0.00064  -0.00348   0.00084   0.01986   0.20804
 149        4PX        -0.00012   0.00153  -0.00061  -0.00235  -0.02315
 150        4PY        -0.00004   0.00036   0.00002   0.00087  -0.00976
 151        4PZ         0.00002  -0.00007   0.00000   0.00014   0.00139
 152        5S         -0.00085   0.00445   0.00658  -0.01231  -0.02247
 153        5PX         0.00015  -0.00224  -0.00265   0.00275   0.00419
 154        5PY        -0.00046   0.00055  -0.00002  -0.00380  -0.00257
 155        5PZ        -0.00004   0.00011   0.00009  -0.00036  -0.00019
 156        6D 0        0.00000   0.00056   0.00001  -0.00060  -0.00466
 157        6D+1        0.00000   0.00009   0.00000  -0.00011  -0.00094
 158        6D-1       -0.00000   0.00003   0.00000  -0.00002  -0.00037
 159        6D+2       -0.00000  -0.00081  -0.00001   0.00100   0.00643
 160        6D-2       -0.00000  -0.00043  -0.00001   0.00044   0.00733
 161 9   O  1S          0.00000  -0.00008   0.00000  -0.00484  -0.06847
 162        2S          0.00000  -0.00003   0.00001  -0.00771  -0.10922
 163        2PX        -0.00001   0.00019  -0.00001   0.00116   0.02373
 164        2PY         0.00002   0.00051   0.00002   0.00412   0.04692
 165        2PZ        -0.00000  -0.00003  -0.00000  -0.00023  -0.00319
 166        3S         -0.00003   0.00027  -0.00002   0.02207   0.31217
 167        3PX         0.00003  -0.00062   0.00002   0.00204   0.03577
 168        3PY        -0.00007  -0.00172  -0.00008   0.00644   0.06736
 169        3PZ         0.00001   0.00010   0.00002  -0.00040  -0.00462
 170        4S         -0.00015  -0.00419  -0.00068   0.01222   0.20690
 171        4PX        -0.00000  -0.00072   0.00002  -0.00072   0.01279
 172        4PY         0.00007  -0.00147  -0.00039   0.00138   0.02101
 173        4PZ        -0.00001   0.00012  -0.00001   0.00003  -0.00156
 174        5S         -0.00167   0.00699  -0.00502  -0.01888  -0.03393
 175        5PX         0.00027   0.00018  -0.00004   0.00044   0.00026
 176        5PY        -0.00066   0.00269  -0.00187  -0.01013  -0.00745
 177        5PZ         0.00006  -0.00021   0.00011   0.00019   0.00060
 178        6D 0       -0.00002   0.00057   0.00001  -0.00043  -0.00461
 179        6D+1       -0.00000   0.00004  -0.00000  -0.00002  -0.00054
 180        6D-1       -0.00000   0.00010   0.00000  -0.00009  -0.00095
 181        6D+2        0.00001   0.00071   0.00002  -0.00073  -0.00480
 182        6D-2       -0.00000  -0.00060   0.00000   0.00054   0.00858
                          11        12        13        14        15
                           O         O         O         O         O
     Eigenvalues --    -0.97919  -0.95016  -0.89757  -0.71106  -0.65458
   1 1   N  1S         -0.00718   0.05967   0.04146  -0.04252  -0.00700
   2        2S         -0.01135   0.09437   0.06558  -0.06781  -0.01091
   3        2PX        -0.00753   0.05142  -0.09501  -0.05877   0.12376
   4        2PY        -0.00063  -0.00560  -0.02369   0.12359   0.03160
   5        2PZ        -0.00021   0.00136  -0.00328   0.00111   0.00421
   6        3S          0.03258  -0.26976  -0.19090   0.19700   0.03055
   7        3PX        -0.01178   0.08021  -0.14278  -0.08674   0.18508
   8        3PY        -0.00136  -0.00476  -0.03624   0.18159   0.04870
   9        3PZ        -0.00031   0.00222  -0.00494   0.00162   0.00631
  10        4S          0.01657  -0.19841  -0.12373   0.18572   0.02942
  11        4PX        -0.00368   0.01447  -0.03987  -0.04234   0.11216
  12        4PY        -0.00064   0.00954  -0.01946   0.09232   0.02097
  13        4PZ        -0.00012   0.00055  -0.00157   0.00089   0.00371
  14        5S         -0.03482   0.05731  -0.06465  -0.16072   0.09386
  15        5PX        -0.00231   0.01383  -0.02684   0.01295   0.03117
  16        5PY         0.00703  -0.03436  -0.01717   0.06842  -0.00632
  17        5PZ         0.00008  -0.00014  -0.00134   0.00125   0.00120
  18        6D 0       -0.00076   0.00579   0.00230   0.00021  -0.00036
  19        6D+1        0.00010  -0.00063   0.00007   0.00002  -0.00022
  20        6D-1        0.00008  -0.00056   0.00049   0.00030  -0.00009
  21        6D+2        0.00014  -0.00253  -0.00530  -0.00390  -0.00312
  22        6D-2        0.00200  -0.01321   0.01653   0.00643  -0.00661
  23 2   N  1S          0.00722  -0.04076   0.05007   0.04040   0.01717
  24        2S          0.01140  -0.06433   0.07911   0.06423   0.02751
  25        2PX        -0.00112  -0.00319   0.03840   0.03721  -0.04532
  26        2PY         0.00974  -0.06728  -0.05208  -0.00464   0.11668
  27        2PZ         0.00028  -0.00134  -0.00002   0.00104   0.00084
  28        3S         -0.03264   0.18396  -0.22859  -0.19045  -0.08282
  29        3PX        -0.00107  -0.00822   0.05998   0.05877  -0.06528
  30        3PY         0.01463  -0.10346  -0.07642  -0.00608   0.17579
  31        3PZ         0.00050  -0.00216   0.00008   0.00165   0.00134
  32        4S         -0.00751   0.12771  -0.17307  -0.15170  -0.07886
  33        4PX        -0.00447  -0.01413   0.02808   0.02343  -0.02056
  34        4PY        -0.00076  -0.02325  -0.01785   0.00497   0.06252
  35        4PZ        -0.00032  -0.00066   0.00035   0.00081   0.00038
  36        5S          0.08597   0.03851   0.20143   0.14100  -0.18987
  37        5PX        -0.01115   0.00817  -0.05073  -0.03852   0.04934
  38        5PY        -0.00946  -0.02213  -0.00253  -0.02601  -0.01247
  39        5PZ        -0.00083  -0.00072  -0.00134  -0.00076   0.00078
  40        6D 0        0.00087  -0.00497   0.00424   0.00270  -0.00063
  41        6D+1        0.00001   0.00019   0.00002  -0.00048   0.00013
  42        6D-1       -0.00013   0.00077   0.00039   0.00006  -0.00051
  43        6D+2        0.00196  -0.01224  -0.00414  -0.01028   0.01299
  44        6D-2       -0.00108   0.01442   0.01632  -0.00195  -0.01316
  45 3   N  1S         -0.00877   0.05597  -0.06579   0.02220   0.03057
  46        2S         -0.01376   0.08809  -0.10358   0.03505   0.04872
  47        2PX         0.00631  -0.03996   0.03122  -0.00107  -0.02062
  48        2PY         0.00063  -0.01830  -0.03890   0.06747  -0.08101
  49        2PZ         0.00021  -0.00158   0.00017   0.00138  -0.00229
  50        3S          0.03797  -0.24675   0.29005  -0.09840  -0.14399
  51        3PX         0.01031  -0.06482   0.05005  -0.00191  -0.03453
  52        3PY         0.00136  -0.03076  -0.05676   0.09771  -0.12381
  53        3PZ         0.00037  -0.00258   0.00037   0.00199  -0.00360
  54        4S          0.02788  -0.15210   0.20692  -0.09024  -0.10708
  55        4PX         0.00455  -0.01764   0.02679  -0.00524  -0.00258
  56        4PY        -0.00121  -0.00856  -0.01932   0.04304  -0.04327
  57        4PZ         0.00015  -0.00069   0.00045   0.00076  -0.00101
  58        5S          0.00067   0.03482  -0.07276   0.08525   0.02732
  59        5PX         0.00268   0.01254  -0.02005   0.02276   0.01001
  60        5PY         0.00362   0.00146   0.00487   0.00681   0.01043
  61        5PZ         0.00011   0.00021  -0.00052   0.00131   0.00045
  62        6D 0       -0.00120   0.00696  -0.00676   0.00097   0.00115
  63        6D+1        0.00009  -0.00066   0.00010   0.00017  -0.00059
  64        6D-1        0.00005  -0.00048   0.00011   0.00034  -0.00047
  65        6D+2        0.00036  -0.00300  -0.00384  -0.00104  -0.00514
  66        6D-2        0.00080  -0.00994  -0.00669   0.01145  -0.01797
  67 4   N  1S          0.00564  -0.07391  -0.04130  -0.04972  -0.00275
  68        2S          0.00889  -0.11666  -0.06516  -0.07932  -0.00439
  69        2PX        -0.01079   0.01263  -0.04035   0.01336  -0.14180
  70        2PY        -0.01075   0.03588  -0.01712  -0.08502  -0.06777
  71        2PZ         0.00022   0.00116  -0.00158  -0.00121  -0.00583
  72        3S         -0.02535   0.33024   0.18216   0.23100   0.00984
  73        3PX        -0.01512   0.02081  -0.05926   0.02197  -0.20898
  74        3PY        -0.01565   0.05586  -0.02779  -0.12634  -0.09932
  75        3PZ         0.00036   0.00188  -0.00236  -0.00176  -0.00868
  76        4S         -0.01590   0.22434   0.16098   0.22154   0.01303
  77        4PX        -0.02445   0.00871  -0.03007   0.03183  -0.13903
  78        4PY        -0.01958   0.02178   0.01255  -0.07504  -0.04833
  79        4PZ         0.00036   0.00060  -0.00085  -0.00043  -0.00523
  80        5S         -0.02953  -0.14222  -0.14911  -0.05436   0.07724
  81        5PX        -0.02664  -0.01229   0.00425  -0.05844   0.03879
  82        5PY        -0.02741  -0.06165  -0.04842   0.02918   0.03954
  83        5PZ        -0.00065  -0.00075  -0.00028  -0.00167   0.00128
  84        6D 0        0.00077  -0.00788  -0.00354   0.00056   0.00135
  85        6D+1        0.00011   0.00042   0.00042   0.00022   0.00004
  86        6D-1       -0.00025   0.00054  -0.00019  -0.00017  -0.00050
  87        6D+2       -0.00162  -0.00589   0.01079   0.00803   0.01257
  88        6D-2       -0.00098   0.00567  -0.00442  -0.00214  -0.00916
  89 5   C  1S         -0.00384  -0.00240  -0.05830   0.00958  -0.06305
  90        2S         -0.00586  -0.00371  -0.08948   0.01449  -0.09806
  91        2PX         0.00015   0.03339   0.02139   0.04271   0.05730
  92        2PY         0.00352  -0.02170   0.05117  -0.04980   0.00612
  93        2PZ         0.00015   0.00056   0.00161   0.00029   0.00172
  94        3S          0.01493   0.00915   0.23474  -0.03620   0.27124
  95        3PX        -0.00148   0.04871   0.03373   0.06114   0.08318
  96        3PY         0.00504  -0.03194   0.07547  -0.07120   0.01325
  97        3PZ         0.00018   0.00081   0.00245   0.00046   0.00251
  98        4S         -0.01804   0.00476   0.08540  -0.02419   0.14183
  99        4PX        -0.00711   0.00570   0.00100   0.00621   0.00531
 100        4PY        -0.00072  -0.00148   0.00487  -0.00931   0.00354
 101        4PZ        -0.00055   0.00011   0.00004  -0.00015   0.00020
 102        5S         -0.02390  -0.02189   0.04809  -0.05853   0.02877
 103        5PX        -0.01007  -0.00390   0.01135  -0.01953   0.00812
 104        5PY         0.00741  -0.00031   0.00957  -0.00025  -0.01225
 105        5PZ        -0.00031  -0.00015   0.00055  -0.00081   0.00011
 106        6D 0       -0.00096  -0.00084  -0.01364   0.00274  -0.00803
 107        6D+1       -0.00002   0.00072   0.00052   0.00041   0.00081
 108        6D-1        0.00001  -0.00016   0.00055  -0.00041   0.00001
 109        6D+2       -0.00181   0.01892  -0.00499   0.01894   0.01526
 110        6D-2       -0.00061   0.00600  -0.00048   0.00043   0.00068
 111 6   H  1S          0.00474  -0.04603  -0.04399   0.11726   0.02874
 112        2S          0.00571  -0.04745  -0.04117   0.12596   0.03528
 113        3S         -0.00175   0.01721   0.02481  -0.01942  -0.00232
 114        4PX        -0.00028   0.00247  -0.00419  -0.00240   0.00475
 115        4PY        -0.00138   0.01106   0.00960  -0.01915  -0.00440
 116        4PZ        -0.00003   0.00034   0.00011  -0.00051   0.00002
 117 7   C  1S         -0.00139   0.00776   0.00005  -0.01948   0.00655
 118        2S         -0.00209   0.01159  -0.00014  -0.03092   0.01034
 119        2PX        -0.10253  -0.03751  -0.00836  -0.04648   0.01265
 120        2PY        -0.09756   0.01606   0.01829   0.05250  -0.01620
 121        2PZ         0.00870   0.00096  -0.00075  -0.00106  -0.00182
 122        3S          0.00581  -0.03330  -0.00024   0.08810  -0.02975
 123        3PX        -0.12757  -0.05389  -0.01532  -0.07138   0.01631
 124        3PY        -0.12215   0.02781   0.02708   0.07876  -0.02403
 125        3PZ         0.01073   0.00106  -0.00104  -0.00157  -0.00268
 126        4S          0.00592   0.00471   0.01869   0.04619  -0.00964
 127        4PX         0.01710  -0.00963  -0.00783  -0.00566   0.01491
 128        4PY         0.01518  -0.00451   0.00199   0.01052   0.01314
 129        4PZ        -0.00067   0.00096   0.00012  -0.00054  -0.00238
 130        5S          0.01505   0.02676  -0.00842   0.06237  -0.03346
 131        5PX        -0.01485  -0.01078   0.00266  -0.01760   0.00599
 132        5PY        -0.00760   0.01211   0.00000   0.01183  -0.00928
 133        5PZ         0.00082   0.00025  -0.00018  -0.00041  -0.00041
 134        6D 0       -0.00019   0.00091  -0.00062  -0.00383   0.00101
 135        6D+1        0.00064   0.00096   0.00030   0.00050  -0.00011
 136        6D-1       -0.00119   0.00050   0.00024   0.00027   0.00009
 137        6D+2       -0.02148  -0.00569   0.00257   0.00213   0.01189
 138        6D-2        0.00347  -0.01471  -0.00694  -0.01446   0.00113
 139 8   O  1S          0.07845   0.02998   0.00314   0.01418  -0.01177
 140        2S          0.12554   0.04797   0.00502   0.02285  -0.01901
 141        2PX         0.04842   0.01512   0.00034  -0.00854   0.00829
 142        2PY         0.01047   0.01097   0.00271   0.01288  -0.01090
 143        2PZ        -0.00246  -0.00104  -0.00020  -0.00043  -0.00068
 144        3S         -0.35953  -0.13852  -0.01447  -0.06714   0.05678
 145        3PX         0.07239   0.02094   0.00017  -0.01263   0.01162
 146        3PY         0.01470   0.01573   0.00431   0.01922  -0.01540
 147        3PZ        -0.00359  -0.00149  -0.00028  -0.00064  -0.00103
 148        4S         -0.27506  -0.09612  -0.01107  -0.06226   0.04592
 149        4PX         0.03109   0.00607  -0.00063  -0.00780   0.01062
 150        4PY         0.00165   0.00770   0.00180   0.01186  -0.00953
 151        4PZ        -0.00153  -0.00050  -0.00022  -0.00051  -0.00079
 152        5S          0.00575   0.00781   0.00778   0.00039  -0.02435
 153        5PX         0.00122  -0.00372  -0.00127  -0.00042   0.01093
 154        5PY         0.00472  -0.00215   0.00275   0.00365  -0.00668
 155        5PZ        -0.00021  -0.00012   0.00033   0.00038  -0.00064
 156        6D 0        0.00540   0.00143   0.00006  -0.00010   0.00044
 157        6D+1        0.00100   0.00031   0.00004   0.00008   0.00017
 158        6D-1        0.00011   0.00018   0.00007   0.00024  -0.00003
 159        6D+2       -0.01036  -0.00161   0.00065   0.00252  -0.00073
 160        6D-2       -0.00412  -0.00335  -0.00093  -0.00302   0.00133
 161 9   O  1S         -0.08270   0.00891   0.01176   0.01860   0.00268
 162        2S         -0.13235   0.01423   0.01884   0.02998   0.00431
 163        2PX         0.01762  -0.00730  -0.00574  -0.01520  -0.00140
 164        2PY         0.04931  -0.00261  -0.00373   0.01094  -0.00020
 165        2PZ        -0.00307   0.00044   0.00035  -0.00007  -0.00070
 166        3S          0.37937  -0.04095  -0.05445  -0.08836  -0.01327
 167        3PX         0.02537  -0.01049  -0.00804  -0.02208  -0.00113
 168        3PY         0.07360  -0.00226  -0.00495   0.01631  -0.00011
 169        3PZ        -0.00453   0.00059   0.00048  -0.00012  -0.00110
 170        4S          0.28703  -0.02973  -0.04285  -0.07827  -0.00413
 171        4PX         0.00626  -0.00682  -0.00435  -0.01347   0.00015
 172        4PY         0.03026  -0.00154  -0.00293   0.01037   0.00240
 173        4PZ        -0.00183   0.00028   0.00023  -0.00008  -0.00096
 174        5S         -0.01298  -0.02818  -0.01176   0.00085   0.02577
 175        5PX         0.00479   0.00253   0.00191  -0.00243   0.00008
 176        5PY        -0.00164  -0.01066  -0.00456   0.00561   0.01009
 177        5PZ        -0.00006   0.00073   0.00050  -0.00011  -0.00035
 178        6D 0       -0.00555   0.00019   0.00041  -0.00024  -0.00031
 179        6D+1       -0.00034   0.00017   0.00009   0.00022  -0.00013
 180        6D-1       -0.00120   0.00004   0.00009  -0.00007  -0.00017
 181        6D+2       -0.00939  -0.00137   0.00014  -0.00290   0.00089
 182        6D-2        0.00682  -0.00194  -0.00143  -0.00275   0.00041
                          16        17        18        19        20
                           O         O         O         O         O
     Eigenvalues --    -0.57137  -0.55001  -0.51506  -0.46612  -0.42929
   1 1   N  1S         -0.01517   0.00617  -0.00013   0.00043  -0.00462
   2        2S         -0.02433   0.01011  -0.00021   0.00060  -0.00746
   3        2PX        -0.07716  -0.03369  -0.00435   0.00531   0.00991
   4        2PY        -0.08559   0.16144  -0.00464  -0.03284  -0.00856
   5        2PZ        -0.00450   0.00348   0.15715   0.00015   0.03290
   6        3S          0.07351  -0.03930   0.00070   0.00143   0.02289
   7        3PX        -0.11606  -0.04891  -0.00674   0.00660   0.01543
   8        3PY        -0.12827   0.23813  -0.00706  -0.04686  -0.01373
   9        3PZ        -0.00678   0.00521   0.24244   0.00022   0.05058
  10        4S          0.11262  -0.03442   0.00072  -0.00997   0.03884
  11        4PX        -0.08012  -0.03340  -0.00522   0.01213   0.01263
  12        4PY        -0.11496   0.16106  -0.00554  -0.01930  -0.02098
  13        4PZ        -0.00520   0.00356   0.18578   0.00107   0.04298
  14        5S         -0.14642   0.00615  -0.00861   0.06001  -0.02264
  15        5PX        -0.00910  -0.00509   0.00026   0.01601   0.00037
  16        5PY         0.00986   0.01638   0.00088  -0.00840   0.00506
  17        5PZ         0.00048   0.00025   0.00661   0.00104   0.00472
  18        6D 0       -0.00201   0.00056  -0.00029   0.00068  -0.00023
  19        6D+1       -0.00005  -0.00041   0.00649   0.00025  -0.00017
  20        6D-1        0.00018   0.00028  -0.01682  -0.00026  -0.00194
  21        6D+2       -0.00406  -0.01496  -0.00053   0.00921  -0.00244
  22        6D-2       -0.00016   0.00099   0.00035   0.00171  -0.00030
  23 2   N  1S          0.02957  -0.00799   0.00042  -0.00692   0.01089
  24        2S          0.04736  -0.01285   0.00067  -0.01105   0.01752
  25        2PX        -0.06220   0.05521  -0.00486   0.02092  -0.02258
  26        2PY        -0.03959  -0.10035  -0.00220   0.04299   0.00486
  27        2PZ        -0.00315   0.00023   0.13979   0.00167   0.00850
  28        3S         -0.13861   0.03713  -0.00213   0.02980  -0.05129
  29        3PX        -0.09144   0.08002  -0.00745   0.03068  -0.03167
  30        3PY        -0.05916  -0.14997  -0.00342   0.06418   0.00841
  31        3PZ        -0.00468   0.00033   0.21687   0.00255   0.01328
  32        4S         -0.16682   0.05460  -0.00073   0.06532  -0.09179
  33        4PX        -0.03488   0.03077  -0.00470   0.01927  -0.01287
  34        4PY        -0.03098  -0.06344  -0.00346   0.02372   0.00601
  35        4PZ        -0.00224   0.00027   0.13870   0.00082   0.00936
  36        5S          0.25351  -0.02194   0.03140  -0.06709   0.05845
  37        5PX        -0.05501  -0.00687  -0.00479   0.02760  -0.00911
  38        5PY        -0.02380   0.02085  -0.00529  -0.01153  -0.01746
  39        5PZ        -0.00295   0.00037   0.00148  -0.00035  -0.00345
  40        6D 0       -0.00394   0.00111  -0.00159   0.00181  -0.00185
  41        6D+1        0.00101  -0.00040  -0.02765  -0.00042  -0.00290
  42        6D-1        0.00034   0.00084  -0.00617  -0.00032   0.00294
  43        6D+2        0.01527  -0.01980   0.00091   0.00136   0.00253
  44        6D-2        0.01586   0.01790   0.00069  -0.00997  -0.00144
  45 3   N  1S          0.03912   0.00278   0.00030  -0.00871   0.00553
  46        2S          0.06247   0.00453   0.00048  -0.01401   0.00889
  47        2PX         0.07575  -0.03810  -0.00170  -0.00365   0.01055
  48        2PY         0.11069  -0.03424  -0.00148   0.01868  -0.01219
  49        2PZ         0.00424  -0.00137   0.08289   0.00095   0.01729
  50        3S         -0.17892  -0.01576  -0.00137   0.04176  -0.02589
  51        3PX         0.10912  -0.05991  -0.00265  -0.00266   0.01476
  52        3PY         0.16202  -0.04880  -0.00224   0.02741  -0.01778
  53        3PZ         0.00613  -0.00208   0.12621   0.00154   0.02652
  54        4S         -0.21389  -0.00116  -0.00196   0.05499  -0.03826
  55        4PX         0.03837  -0.02527  -0.00188   0.00081   0.00669
  56        4PY         0.06849  -0.02591  -0.00179   0.01806  -0.01260
  57        4PZ         0.00230  -0.00086   0.08554   0.00105   0.01887
  58        5S          0.05623   0.01315   0.00739   0.01315   0.01770
  59        5PX         0.01821   0.00564   0.00278  -0.00454   0.01068
  60        5PY        -0.00381  -0.00530   0.00047   0.00128  -0.00324
  61        5PZ        -0.00011  -0.00006  -0.00559  -0.00074   0.00021
  62        6D 0       -0.00383   0.00178   0.00091   0.00064  -0.00056
  63        6D+1        0.00096  -0.00050   0.01840   0.00020   0.00345
  64        6D-1        0.00007   0.00010   0.00007   0.00000   0.00091
  65        6D+2        0.01978  -0.01443  -0.00036   0.00173   0.00141
  66        6D-2        0.01102  -0.00455  -0.00040   0.00326  -0.00170
  67 4   N  1S         -0.01331  -0.00456   0.00001  -0.00343  -0.00108
  68        2S         -0.02107  -0.00735   0.00003  -0.00549  -0.00172
  69        2PX        -0.10495  -0.03413  -0.00411   0.02426   0.00657
  70        2PY         0.04606   0.12377  -0.00263  -0.06476  -0.00196
  71        2PZ        -0.00284   0.00185   0.11840   0.00019  -0.02138
  72        3S          0.05962   0.02711  -0.00016   0.01517   0.00424
  73        3PX        -0.15182  -0.05428  -0.00603   0.03547   0.00990
  74        3PY         0.06968   0.18816  -0.00388  -0.09657  -0.00321
  75        3PZ        -0.00408   0.00277   0.17994   0.00024  -0.03320
  76        4S          0.07752   0.00311  -0.00007   0.00950   0.01255
  77        4PX        -0.13504  -0.02278  -0.00706   0.03429   0.01491
  78        4PY         0.06721   0.12006  -0.00449  -0.08889   0.01433
  79        4PZ        -0.00370   0.00216   0.14982   0.00046  -0.02829
  80        5S         -0.18656   0.06099  -0.02103   0.01371  -0.07669
  81        5PX         0.03598   0.02555  -0.00235  -0.01605   0.00832
  82        5PY        -0.11260   0.00112  -0.01650   0.02145  -0.02061
  83        5PZ         0.00026   0.00048  -0.00998  -0.00008   0.00457
  84        6D 0       -0.00147  -0.00032   0.00046   0.00150  -0.00041
  85        6D+1       -0.00008   0.00027  -0.00092  -0.00017  -0.00218
  86        6D-1        0.00006   0.00045   0.01507  -0.00015   0.00255
  87        6D+2       -0.00207  -0.00029   0.00052   0.00261   0.00493
  88        6D-2       -0.00030   0.01521  -0.00059   0.00080  -0.00363
  89 5   C  1S          0.02085  -0.02063   0.00001   0.00345  -0.00282
  90        2S          0.03278  -0.03247   0.00002   0.00542  -0.00443
  91        2PX         0.10100   0.00035  -0.00096  -0.00555   0.00010
  92        2PY        -0.05179   0.02056  -0.00111  -0.01817   0.00467
  93        2PZ         0.00180   0.00066   0.05416   0.00014   0.00010
  94        3S         -0.09596   0.09264  -0.00003  -0.01625   0.01241
  95        3PX         0.13808   0.00393  -0.00186  -0.00744   0.00079
  96        3PY        -0.07051   0.03204  -0.00173  -0.02825   0.00773
  97        3PZ         0.00242   0.00111   0.08310   0.00020   0.00045
  98        4S         -0.08781   0.07534  -0.00272  -0.00570   0.02530
  99        4PX         0.03140   0.01015  -0.00152  -0.00104   0.00719
 100        4PY        -0.02106   0.00599   0.00003  -0.01215   0.00146
 101        4PZ         0.00050   0.00068   0.03815   0.00064   0.00097
 102        5S          0.05855  -0.00475  -0.00532  -0.03148  -0.00458
 103        5PX         0.02824  -0.00651  -0.00242  -0.00659  -0.00422
 104        5PY         0.00633  -0.00196   0.00044  -0.00868   0.00423
 105        5PZ         0.00117  -0.00008   0.01235   0.00022  -0.00049
 106        6D 0       -0.00148  -0.00214   0.00112   0.00135  -0.00057
 107        6D+1        0.00110   0.00033   0.01173  -0.00004  -0.00181
 108        6D-1        0.00035   0.00020   0.01583  -0.00021   0.00219
 109        6D+2        0.01983   0.00259  -0.00002   0.00066  -0.00151
 110        6D-2        0.02457   0.00415  -0.00051  -0.00705   0.00071
 111 6   H  1S         -0.04603   0.11905  -0.00065  -0.03113  -0.00031
 112        2S         -0.04412   0.14519  -0.00075  -0.04980   0.00372
 113        3S          0.01309   0.00491  -0.00014  -0.01364   0.00254
 114        4PX        -0.00364  -0.00161  -0.00026   0.00032   0.00041
 115        4PY         0.00535  -0.01377  -0.00016   0.00369  -0.00046
 116        4PZ        -0.00001  -0.00032   0.00944   0.00012   0.00232
 117 7   C  1S          0.02570   0.04544  -0.00037   0.05014   0.00121
 118        2S          0.04081   0.07233  -0.00058   0.07936   0.00185
 119        2PX         0.03559   0.05387   0.00067  -0.08464   0.10659
 120        2PY        -0.04352  -0.05258   0.00071   0.07920   0.11553
 121        2PZ        -0.00078   0.00197   0.03902  -0.00101  -0.06425
 122        3S         -0.12109  -0.21630   0.00176  -0.25237  -0.00703
 123        3PX         0.05213   0.08254   0.00125  -0.12546   0.15017
 124        3PY        -0.06420  -0.08126   0.00138   0.11746   0.16502
 125        3PZ        -0.00126   0.00311   0.06214  -0.00153  -0.09772
 126        4S         -0.06274  -0.17008   0.00369  -0.19028   0.00634
 127        4PX         0.00422   0.02184   0.00686  -0.04146   0.05874
 128        4PY        -0.01496  -0.04381   0.00564   0.05640   0.07322
 129        4PZ        -0.00022   0.00186   0.01969  -0.00145  -0.05814
 130        5S         -0.06479  -0.01625   0.00305   0.01965   0.01204
 131        5PX         0.02029   0.00723  -0.00079  -0.01729  -0.01324
 132        5PY        -0.01297  -0.00841   0.00146   0.01669   0.00015
 133        5PZ        -0.00001   0.00035   0.01449  -0.00043  -0.01020
 134        6D 0        0.00319   0.00628  -0.00010   0.00372  -0.00029
 135        6D+1       -0.00001   0.00036  -0.00250   0.00039  -0.00182
 136        6D-1        0.00013   0.00032   0.00386   0.00052   0.00193
 137        6D+2        0.00523  -0.00501   0.00104   0.00149   0.00457
[...]
     17  0.558282D-03  0.456967D+00
     18  0.136613D-02  0.100782D-01  0.183731D-01
     19  0.276304D-02  0.157848D-02  0.255243D-04  0.713038D+00
     20 -0.141566D-02 -0.199225D-02 -0.156458D-03  0.380710D+00  0.646103D+00
     21  0.239845D-04 -0.372690D-05  0.202057D-02 -0.360938D-01 -0.334498D-01
     22 -0.536597D-03 -0.769614D-03 -0.377855D-04 -0.493290D+00 -0.155041D+00
     23 -0.985357D-05  0.414586D-03  0.362269D-04 -0.150815D+00 -0.141940D+00
     24  0.439790D-05  0.315403D-05 -0.231592D-03  0.231863D-01  0.892750D-02
     25 -0.478840D-04  0.142375D-03  0.101381D-03 -0.176653D+00 -0.186027D+00
     26  0.156034D-02  0.692151D-03 -0.107795D-03 -0.190776D+00 -0.464744D+00
     27 -0.347872D-04  0.320853D-04 -0.889584D-03  0.125322D-01  0.249662D-01
               21            22            23            24            25 
     21  0.225901D+00
     22  0.238157D-01  0.633091D+00
     23  0.880323D-02  0.193463D+00  0.177243D+00
     24 -0.834807D-01 -0.332152D-01 -0.143933D-01  0.336799D-01
     25  0.127355D-01 -0.519470D-01 -0.811804D-01  0.715794D-02  0.220882D+00
     26  0.259573D-01 -0.680001D-01 -0.373515D-01  0.599446D-02  0.240116D+00
     27 -0.834787D-01  0.679617D-02  0.668318D-02  0.304251D-01 -0.184757D-01
               26            27 
     26  0.594169D+00
     27 -0.366359D-01  0.350734D-01
 Leave Link  716 at Fri Jun  2 11:41:12 2023, MaxMem=  7381975040 cpu:               0.3 elap:               1.5
 (Enter /software/commercial/gaussian/g16/AVX/g16/l103.exe)

 GradGradGradGradGradGradGradGradGradGradGradGradGradGradGradGradGradGrad
 Berny optimization.
 Search for a local minimum.
 Step number   1 out of a maximum of    2
 All quantities printed in internal units (Hartrees-Bohrs-Radians)
 Second derivative matrix not updated -- analytic derivatives used.
 ITU=  0
     Eigenvalues ---    0.00158   0.01213   0.02397   0.04726   0.05709
     Eigenvalues ---    0.09854   0.15650   0.22398   0.25174   0.27161
     Eigenvalues ---    0.29643   0.30618   0.48655   0.55614   0.68323
     Eigenvalues ---    0.72922   0.82027   0.94625   0.96823   1.36372
     Eigenvalues ---    1.60054
 Angle between quadratic step and forces=  80.77 degrees.
 Linear search not attempted -- first point.
 B after Tr=    -0.000015   -0.000007    0.000023
         Rot=    1.000000   -0.000009    0.000006   -0.000003 Ang=  -0.00 deg.
 Variable       Old X    -DE/DX   Delta X   Delta X   Delta X     New X
                                 (Linear)    (Quad)   (Total)
    X1        0.08643   0.00002   0.00000   0.00008   0.00006   0.08649
    Y1        1.96803   0.00001   0.00000  -0.00002  -0.00003   1.96801
    Z1        0.02184  -0.00005   0.00000  -0.00011  -0.00005   0.02179
    X2        2.16261   0.00003   0.00000   0.00004   0.00002   2.16263
    Y2        0.69638   0.00000   0.00000  -0.00008  -0.00008   0.69630
    Z2        0.05446  -0.00000   0.00000  -0.00030  -0.00024   0.05421
    X3       -2.04950  -0.00001   0.00000  -0.00004  -0.00005  -2.04955
    Y3        0.57366   0.00002   0.00000   0.00004   0.00003   0.57368
    Z3       -0.07010  -0.00009   0.00000   0.00026   0.00027  -0.06983
    X4        1.34274   0.00000   0.00000  -0.00006  -0.00007   1.34267
    Y4       -1.67350  -0.00001   0.00000  -0.00009  -0.00009  -1.67359
    Z4       -0.01423   0.00000   0.00000  -0.00004  -0.00003  -0.01426
    X5       -1.27759  -0.00002   0.00000  -0.00015  -0.00016  -1.27774
    Y5       -1.85654   0.00001   0.00000   0.00001  -0.00000  -1.85654
    Z5       -0.09502  -0.00005   0.00000   0.00029   0.00026  -0.09475
    X6        0.10723   0.00001   0.00000   0.00018   0.00015   0.10738
    Y6        3.88421   0.00001   0.00000  -0.00001  -0.00002   3.88420
    Z6        0.06697  -0.00003   0.00000  -0.00030  -0.00021   0.06677
    X7        3.33371  -0.00006   0.00000  -0.00009  -0.00008   3.33363
    Y7       -3.86004   0.00006   0.00000   0.00012   0.00013  -3.85990
    Z7        0.00810   0.00005   0.00000  -0.00003  -0.00003   0.00807
    X8        5.51878   0.00009   0.00000   0.00008   0.00008   5.51886
    Y8       -3.08616   0.00001   0.00000   0.00016   0.00019  -3.08597
    Z8       -0.11582   0.00010   0.00000   0.00046   0.00049  -0.11534
    X9        2.34726  -0.00007   0.00000   0.00004   0.00006   2.34731
    Y9       -5.95270  -0.00010   0.00000  -0.00014  -0.00013  -5.95284
    Z9        0.14756   0.00007   0.00000  -0.00039  -0.00045   0.14711
         Item               Value     Threshold  Converged?
 Maximum Force            0.000101     0.000450     YES
 RMS     Force            0.000048     0.000300     YES
 Maximum Displacement     0.000487     0.001800     YES
 RMS     Displacement     0.000177     0.001200     YES
 Predicted change in Energy=-9.624306D-09
 Optimization completed.
    -- Stationary point found.
 GradGradGradGradGradGradGradGradGradGradGradGradGradGradGradGradGradGrad

 Leave Link  103 at Fri Jun  2 11:41:16 2023, MaxMem=  7381975040 cpu:               1.8 elap:               2.9
 (Enter /software/commercial/gaussian/g16/AVX/g16/l9999.exe)

 ----------------------------------------------------------------------

 Electric dipole moment (input orientation):
 (Debye = 10**-18 statcoulomb cm , SI units = C m)
                  (au)            (Debye)         (10**-30 SI)
   Tot        0.574156D+01      0.145936D+02      0.486790D+02
   x         -0.184660D+01     -0.469358D+01     -0.156561D+02
   y          0.543604D+01      0.138170D+02      0.460887D+02
   z          0.712220D-01      0.181028D+00      0.603846D+00

 Dipole polarizability, Alpha (input orientation).
 (esu units = cm**3 , SI units = C**2 m**2 J**-1)
 Alpha(0;0):
               (au)            (10**-24 esu)      (10**-40 SI)
   iso        0.840036D+02      0.124480D+02      0.138503D+02
   aniso      0.502052D+02      0.743964D+01      0.827771D+01
   xx         0.100094D+03      0.148324D+02      0.165033D+02
   yx         0.101052D+01      0.149744D+00      0.166613D+00
   yy         0.101354D+03      0.150190D+02      0.167109D+02
   zx         0.133243D+00      0.197445D-01      0.219688D-01
   zy        -0.218182D+00     -0.323312D-01     -0.359733D-01
   zz         0.505630D+02      0.749267D+01      0.833672D+01

 First dipole hyperpolarizability, Beta (input orientation).
 ||, _|_  parallel and perpendicular components, (z) with respect to z axis,
 vector components x,y,z.  Values do not include the 1/n! factor of 1/2.
 (esu units = statvolt**-1 cm**4 , SI units = C**3 m**3 J**-2)
 Beta(0;0,0):
               (au)            (10**-30 esu)      (10**-50 SI)
   || (z)    -0.885542D+01     -0.765039D-01     -0.283937D-01
   _|_(z)    -0.295181D+01     -0.255013D-01     -0.946456D-02
   x         -0.989465D+03     -0.854820D+01     -0.317258D+01
   y         -0.176071D+03     -0.152112D+01     -0.564548D+00
   z         -0.442771D+02     -0.382520D+00     -0.141968D+00
   ||         0.201197D+03      0.173818D+01      0.645109D+00
   xxx       -0.186335D+03     -0.160979D+01     -0.597457D+00
   xxy       -0.747562D+02     -0.645836D+00     -0.239696D+00
   yxy       -0.415425D+02     -0.358895D+00     -0.133200D+00
   yyy        0.112905D+03      0.975409D+00      0.362013D+00
   xxz        0.468696D+01      0.404917D-01      0.150281D-01
   yxz        0.267758D+01      0.231322D-01      0.858528D-02
   yyz       -0.306241D+01     -0.264569D-01     -0.981920D-02
   zxz       -0.101944D+03     -0.880719D+00     -0.326870D+00
   zyz       -0.968389D+02     -0.836613D+00     -0.310501D+00
   zzz       -0.163836D+02     -0.141541D+00     -0.525317D-01

 ----------------------------------------------------------------------

 Dipole orientation:
     7          0.67655657          0.23080668          1.83578370
     7          2.16861907          0.67868493         -0.03554072
     7         -1.69010169         -0.48434320          1.20141856
     7          0.69762841          0.22558733         -2.01647142
     6         -1.73601077         -0.50701701         -1.34802945
     1          1.28608587          0.41388000          3.64386739
     6          1.83470615          0.55275505         -4.72672191
     8          3.98943404          1.41596688         -4.69832076
     8          0.36447372         -0.11575589         -6.38903916

 Electric dipole moment (dipole orientation):
 (Debye = 10**-18 statcoulomb cm , SI units = C m)
                  (au)            (Debye)         (10**-30 SI)
   Tot        0.574156D+01      0.145936D+02      0.486790D+02
   x          0.000000D+00      0.000000D+00      0.000000D+00
   y          0.000000D+00      0.000000D+00      0.000000D+00
   z          0.574156D+01      0.145936D+02      0.486790D+02

 Dipole polarizability, Alpha (dipole orientation).
 (esu units = cm**3 , SI units = C**2 m**2 J**-1)
 Alpha(0;0):
               (au)            (10**-24 esu)      (10**-40 SI)
   iso        0.840036D+02      0.124480D+02      0.138503D+02
   aniso      0.502052D+02      0.743964D+01      0.827771D+01
   xx         0.956652D+02      0.141761D+02      0.157731D+02
   yx         0.152750D+02      0.226352D+01      0.251850D+01
   yy         0.557518D+02      0.826156D+01      0.919222D+01
   zx         0.842700D+00      0.124875D+00      0.138942D+00
   zy         0.120520D+01      0.178592D+00      0.198710D+00
   zz         0.100594D+03      0.149065D+02      0.165857D+02

 First dipole hyperpolarizability, Beta (dipole orientation).
 ||, _|_  parallel and perpendicular components, (z) with respect to z axis,
 vector components x,y,z.  Values do not include the 1/n! factor of 1/2.
 (esu units = statvolt**-1 cm**4 , SI units = C**3 m**3 J**-2)
 Beta(0;0,0):
               (au)            (10**-30 esu)      (10**-50 SI)
   || (z)     0.301959D+02      0.260869D+00      0.968190D-01
   _|_(z)     0.100653D+02      0.869563D-01      0.322730D-01
   x         -0.955568D+03     -0.825536D+01     -0.306389D+01
   y         -0.275858D+03     -0.238320D+01     -0.884500D+00
   z          0.150979D+03      0.130435D+01      0.484095D+00
   ||         0.201197D+03      0.173818D+01      0.645109D+00
   xxx       -0.229495D+03     -0.198266D+01     -0.735844D+00
   xxy        0.404315D+00      0.349297D-02      0.129638D-02
   yxy       -0.113143D+03     -0.977464D+00     -0.362776D+00
   yyy       -0.107722D+03     -0.930634D+00     -0.345395D+00
   xxz       -0.132728D+02     -0.114667D+00     -0.425573D-01
   yxz        0.176848D+02      0.152783D+00      0.567039D-01
   yyz       -0.522174D+02     -0.451118D+00     -0.167428D+00
   zxz        0.241152D+02      0.208337D+00      0.773222D-01
   zyz        0.153650D+02      0.132741D+00      0.492657D-01
   zzz        0.115817D+03      0.100057D+01      0.371350D+00

 ----------------------------------------------------------------------
 Unable to Open any file for archive entry.
 1\1\GINC-NODE1947\Freq\RB3LYP\6-311+G(d,p)\C2H1N4O2(1-)\SVICCHI\02-Jun
 -2023\0\\#p freq=raman scale=0.967 pop=(nbo,full,hirshfeld) guess=read
  geom=allcheck b3lyp/6-311+G(d,p) int=grid=ultrafine EmpiricalDispersi
 on=GD3BJ SCRF=(Solvent=ethanol) scf=(xqc,intrep,maxconventionalcycle=3
 50) nosymm\\tetrazolide-CO2_binding-site_index-3.gjf\\-1,1\N,0.0457363
 53,1.0414383987,0.0115576827\N,1.144403644,0.3685063764,0.028817931\N,
 -1.0845479738,0.3035653732,-0.0370930547\N,0.7105460383,-0.8855754757,
 -0.0075282125\C,-0.6760690807,-0.9824371266,-0.0502817088\H,0.05674434
 36,2.055436207,0.0354412275\C,1.7641235541,-2.0426442109,0.0042872098\
 O,2.9204146772,-1.6331246652,-0.0612907216\O,1.2421144443,-3.150034876
 9,0.0780876465\\Version=ES64L-G16RevC.01\HF=-446.4769777\RMSD=2.997e-0
 9\RMSF=4.800e-05\ZeroPoint=0.0464728\Thermal=0.0526441\ETot=-446.42433
 36\HTot=-446.4233894\GTot=-446.4617052\Dipole=-0.3348736,3.8259702,0.0
 667175\DipoleDeriv=0.4253945,0.1142466,0.014966,0.3796577,-0.7773765,-
 0.0008488,0.0190384,-0.0129231,-0.0183637,-0.7379654,-0.2891031,-0.034
 3804,-0.6311762,0.3244818,-0.011125,-0.0312035,-0.0050001,0.0341779,-0
 .4361706,0.3796867,0.0039556,-0.0822871,-0.2639875,-0.0053092,-0.00607
 47,0.008545,-0.2990208,-0.4765793,0.4369479,0.0159093,0.677692,-0.9028
 82,0.0167651,0.0052955,0.0199692,0.0153213,-0.029982,-0.0004601,0.0109
 957,0.3538327,0.0973949,0.0136715,0.0134718,0.0004977,-0.3825763,0.229
 1965,-0.0579848,-0.0060276,-0.0369898,0.390807,-0.0007013,-0.004756,-0
 .0036266,0.3712638,3.2126853,-0.1355672,-0.1118756,-0.1890648,3.126703
 6,-0.1305258,-0.1093359,-0.1222422,0.3905897,-2.1021385,-0.1812759,0.0
 695695,-0.2031517,-1.001482,0.0344452,0.071786,0.0301409,-0.5615279,-1
 .0844405,-0.2664902,0.0368875,-0.2685128,-1.9936591,0.0836284,0.041778
 4,0.0846391,-0.5498641\Polar=100.0942187,1.0105216,101.3535309,0.13324
 27,-0.2181815,50.5630495\PolarDeriv=-10.9003554,-3.6365726,-0.7637206,
 -0.3590882,-0.2772015,-0.6435019,0.0211626,-3.4745452,2.4849286,-0.062
 6814,-0.2813345,0.3046971,-0.3752863,-0.3286108,-0.1664842,-0.0657052,
 4.7706384,0.0481519,17.7187036,2.1144162,7.0306628,0.5277165,0.0973668
 ,0.0628869,5.1534628,3.9591497,-0.7102413,0.2188257,0.0301009,-1.20252
 94,0.5645176,-0.0215118,0.1734788,3.8090116,2.3401661,0.6894506,-10.06
 79108,2.1111865,-10.6683199,-0.0562517,-0.1724463,-2.5009433,14.467649
 5,-2.766521,-10.3755945,0.4158764,-0.3636413,1.5680022,0.1853022,0.117
 6712,-0.5759056,-5.0173717,1.9717845,-0.2302024,-3.9383117,-3.9997157,
 7.9318442,-0.4583042,0.0489999,1.9356708,-10.1668101,-4.1611941,-5.467
 9275,-0.3363023,-0.0086634,-1.3426044,-0.5580041,-0.08434,-0.3395201,1
 .7086791,-2.2944954,-0.2896941,-1.1805878,5.8053605,-7.8205652,0.26306
 91,0.1835325,0.4698055,-8.3364918,2.3125495,3.5001807,-0.1896212,0.177
 1887,0.7289171,0.2108146,0.3567768,0.0512132,-4.0475859,-4.5763391,-0.
 3961065,-0.9402593,2.6232866,0.8373514,0.0203794,0.0845778,-0.3957013,
 2.413821,0.336266,19.7223388,0.0455989,0.4007572,1.056131,0.0004852,-0
 .0003127,0.5443687,0.5024413,0.8285788,0.073413,-4.6804859,-1.1536285,
 7.0019859,0.3434331,0.1698306,0.638295,-3.8274839,0.6109435,6.699539,-
 0.2873352,-0.4933739,-0.9928054,0.4466955,-0.0685061,-0.4695978,-1.052
 7542,1.6147275,0.0367591,18.6798165,0.1016831,1.6562802,-0.534045,-0.1
 165176,2.2683886,3.1368597,4.0384069,2.281173,0.0663158,-0.2060741,1.6
 107797,-0.5940667,0.1267209,-0.0511597,5.4431789,0.667498,-0.8371165,-
 4.6906091,-3.966016,-5.2055189,0.253091,-0.0181423,-1.8349003,-2.86216
 98,-0.8550553,-18.1343968,0.1293235,0.7450405,-1.7305878,0.119542,-0.0
 978875,0.8336067,-1.2798937,-5.3225588,0.9053449\HyperPolar=-186.33473
 3,-74.7562435,-41.5425012,112.9047575,4.6869643,2.6775768,-3.0624127,-
 101.9442963,-96.8389144,-16.383583\Quadrupole=-9.4728825,-5.2088699,14
 .6817524,9.9333406,-0.0264667,0.2727936\PG=C01 [X(C2H1N4O2)]\NImag=0\\
 0.56605513,-0.09081542,1.02772632,0.01098103,0.01728561,0.11934682,-0.
 30516053,0.08832754,-0.00467711,0.60592352,0.13467857,-0.17985125,0.00
 122255,-0.03453260,0.47929583,-0.00346809,-0.00011272,-0.07708284,0.01
 296351,0.00719660,0.11093112,-0.17669018,-0.00132606,-0.00330167,-0.12
 019499,0.02894917,-0.00427625,0.46676352,-0.02756085,-0.11865790,-0.00
 183716,-0.04412326,-0.02185363,-0.00239342,-0.10485087,0.42649955,-0.0
 0356701,-0.00113363,-0.07114736,-0.00532768,0.00010163,0.03540626,0.00
 902537,0.00323272,0.09883244,-0.02301895,0.02999931,-0.00049110,-0.146
 40004,-0.06427750,-0.00293937,-0.06278989,0.11392918,0.00016827,0.5323
 4721,0.08008501,-0.17254625,-0.00085538,-0.02537353,-0.21081246,-0.004
 06524,0.01929661,-0.01826822,-0.00041941,-0.07168721,0.62178996,0.0002
 1177,-0.00294046,0.01918053,-0.00138212,-0.00513974,-0.07995790,-0.002
 28931,0.00250738,0.01664621,0.00515300,0.00374120,0.12400305,0.0083924
 7,0.00166251,-0.00022183,-0.05702915,-0.10439747,-0.00469560,-0.116415
 32,0.08602637,0.00038288,-0.16436737,-0.01930646,-0.00307428,0.3490603
 9,-0.08723986,-0.11499276,-0.00528901,-0.00674483,-0.01905504,-0.00111
 447,0.06171797,-0.27024405,-0.00199916,-0.00514827,-0.11305924,0.00002
 156,0.02680638,0.50800827,-0.00248738,-0.00275230,0.02079800,-0.002629
 32,-0.00424244,0.02669345,-0.00001807,-0.00105547,-0.07583674,-0.00284
 230,-0.00100456,-0.06698303,0.00869050,0.00777997,0.09321063,-0.071998
 64,-0.01138010,-0.00189833,0.00722003,0.03584920,0.00135819,0.01289599
 ,-0.02440329,0.00003921,-0.00935042,0.00599613,-0.00029533,-0.00615909
 ,-0.00675505,-0.00056347,0.06521357,0.00006835,-0.44576934,-0.00984088
 ,-0.00175898,-0.01040608,-0.00001022,0.00221082,-0.00470802,0.00017148
 ,0.00095570,0.00487145,-0.00013169,-0.00298541,-0.00006908,-0.00029838
 ,0.00055828,0.45696657,-0.00162684,-0.01038321,-0.01478266,0.00036017,
 0.00104592,-0.01089385,0.00073866,-0.00050255,-0.00892546,-0.00054014,
 0.00031800,0.00801790,-0.00038711,-0.00032832,0.00731157,0.00136613,0.
 01007818,0.01837310,0.00724835,-0.02917170,-0.00054018,0.02162895,0.01
 552025,0.00121974,0.00030151,-0.00561409,-0.00039788,-0.05977404,-0.02
 504296,0.00005180,-0.01526294,0.00361092,0.00001640,0.00276304,0.00157
 848,0.00002552,0.71303807,-0.01564387,0.01365832,-0.00036761,0.0069210
 4,-0.04180893,-0.00040550,-0.01362934,0.01135500,-0.00019204,-0.038999
 31,-0.03622943,-0.00091117,0.02312538,0.01559882,0.00158885,-0.0014156
 6,-0.00199225,-0.00015646,0.38070981,0.64610275,-0.00019137,-0.0004135
 3,0.00462427,0.00156036,-0.00053328,-0.01026622,-0.00019619,-0.0000165
 2,0.00704903,-0.00134323,-0.00128385,-0.05419020,-0.00031092,0.0009401
 0,-0.00817865,0.00002398,-0.00000373,0.00202057,-0.03609384,-0.0334497
 7,0.22590060,-0.00554874,0.00729370,-0.00006703,-0.00319667,-0.0116963
 3,0.00019020,-0.00603809,0.00663468,-0.00037517,-0.07982132,0.01690553
 ,0.00217609,0.00728724,0.01120982,0.00071696,-0.00053660,-0.00076961,-
 0.00003779,-0.49328999,-0.15504108,0.02381573,0.63309111,0.00199280,0.
 00265419,0.00008207,0.00374390,-0.00001094,-0.00036332,0.00495075,-0.0
 0166301,0.00030044,0.03147413,0.00399918,-0.00059826,-0.00361987,-0.00
 334522,-0.00055026,-0.00000985,0.00041459,0.00003623,-0.15081487,-0.14
 193994,0.00880323,0.19346343,0.17724265,0.00000427,-0.00003468,-0.0000
 6984,0.00012951,0.00013087,0.00160071,0.00042242,-0.00010710,-0.001779
 22,0.00256550,0.00008171,0.01722291,-0.00025514,-0.00060260,0.00263265
 ,0.00000440,0.00000315,-0.00023159,0.02318627,0.00892750,-0.08348066,-
 0.03321517,-0.01439332,0.03367994,0.00072111,0.00541022,0.00021621,-0.
 00279111,-0.00009330,-0.00035233,0.00216745,-0.00003786,0.00005200,0.0
 1317483,0.01912688,-0.00055161,-0.00550622,0.00254291,-0.00088332,-0.0
 0004788,0.00014237,0.00010138,-0.17665295,-0.18602698,0.01273546,-0.05
 194696,-0.08118042,0.00715794,0.22088173,0.00443527,-0.01222132,-0.000
 40019,0.01354070,0.00450251,0.00126830,0.00268094,-0.00245972,-0.00006
 203,0.00375398,-0.07974500,0.00345119,-0.00731143,-0.00284171,0.000534
 58,0.00156034,0.00069215,-0.00010780,-0.19077583,-0.46474435,0.0259573
 4,-0.06800015,-0.03735151,0.00599446,0.24011617,0.59416895,0.00014362,
 0.00048492,-0.00086693,-0.00099731,0.00021790,0.00356928,-0.00010496,0
 .00017212,-0.00024517,0.00026937,0.00348753,0.01606054,-0.00012851,0.0
 0059193,0.00035213,-0.00003479,0.00003209,-0.00088958,0.01253215,0.024
 96619,-0.08347874,0.00679617,0.00668318,0.03042511,-0.01847574,-0.0366
 3586,0.03507336\\-0.00002345,-0.00001357,0.00005217,-0.00002515,-0.000
 00177,0.00000373,0.00000618,-0.00001848,0.00008549,-0.00000180,0.00001
 274,-0.00000272,0.00001890,-0.00001030,0.00004925,-0.00001146,-0.00000
 638,0.00002705,0.00005744,-0.00005747,-0.00004638,-0.00008931,-0.00000
 576,-0.00010109,0.00006866,0.00010100,-0.00006750\\\@
 The archive entry for this job was punched.


 It takes a long time to grow an old friend.
                            -- John Leonard
 Job cpu time:       0 days  0 hours 13 minutes  9.5 seconds.
 Elapsed time:       0 days  0 hours  7 minutes 23.6 seconds.
 File lengths (MBytes):  RWF=     86 Int=      0 D2E=      0 Chk=     12 Scr=      1
 Normal termination of Gaussian 16 at Fri Jun  2 11:41:21 2023.
