 Entering Gaussian System, Link 0=g16
 Input=benzim-isolated-freq.gjf
 Output=benzim-isolated-freq.log
 Initial command:
 /software/commercial/gaussian/g16/AVX/g16/l1.exe "/scratch1/svicchi/G09-659790.pbs02/Gau-1846684.inp" -scrdir="/scratch1/svicchi/G09-659790.pbs02/"
 Entering Link 1 = /software/commercial/gaussian/g16/AVX/g16/l1.exe PID=   1846685.
  
 Copyright (c) 1988-2019, Gaussian, Inc.  All Rights Reserved.
  
 This is part of the Gaussian(R) 16 program.  It is based on
 the Gaussian(R) 09 system (copyright 2009, Gaussian, Inc.),
 the Gaussian(R) 03 system (copyright 2003, Gaussian, Inc.),
 the Gaussian(R) 98 system (copyright 1998, Gaussian, Inc.),
 the Gaussian(R) 94 system (copyright 1995, Gaussian, Inc.),
 the Gaussian 92(TM) system (copyright 1992, Gaussian, Inc.),
 the Gaussian 90(TM) system (copyright 1990, Gaussian, Inc.),
 the Gaussian 88(TM) system (copyright 1988, Gaussian, Inc.),
 the Gaussian 86(TM) system (copyright 1986, Carnegie Mellon
 University), and the Gaussian 82(TM) system (copyright 1983,
 Carnegie Mellon University). Gaussian is a federally registered
 trademark of Gaussian, Inc.
  
 This software contains proprietary and confidential information,
 including trade secrets, belonging to Gaussian, Inc.
  
 This software is provided under written license and may be
 used, copied, transmitted, or stored only in accord with that
 written license.
  
 The following legend is applicable only to US Government
 contracts under FAR:
  
                    RESTRICTED RIGHTS LEGEND
  
 Use, reproduction and disclosure by the US Government is
 subject to restrictions as set forth in subparagraphs (a)
 and (c) of the Commercial Computer Software - Restricted
 Rights clause in FAR 52.227-19.
  
 Gaussian, Inc.
 340 Quinnipiac St., Bldg. 40, Wallingford CT 06492
  
  
 ---------------------------------------------------------------
 Warning -- This program may not be used in any manner that
 competes with the business of Gaussian, Inc. or will provide
 assistance to any competitor of Gaussian, Inc.  The licensee
 of this program is prohibited from giving any competitor of
 Gaussian, Inc. access to this program.  By using this program,
 the user acknowledges that Gaussian, Inc. is engaged in the
 business of creating and licensing software in the field of
 computational chemistry and represents and warrants to the
 licensee that it is not a competitor of Gaussian, Inc. and that
 it will not use this program in any manner prohibited above.
 ---------------------------------------------------------------
  

 Cite this work as:
 Gaussian 16, Revision C.01,
 M. J. Frisch, G. W. Trucks, H. B. Schlegel, G. E. Scuseria, 
 M. A. Robb, J. R. Cheeseman, G. Scalmani, V. Barone, 
 G. A. Petersson, H. Nakatsuji, X. Li, M. Caricato, A. V. Marenich, 
 J. Bloino, B. G. Janesko, R. Gomperts, B. Mennucci, H. P. Hratchian, 
 J. V. Ortiz, A. F. Izmaylov, J. L. Sonnenberg, D. Williams-Young, 
 F. Ding, F. Lipparini, F. Egidi, J. Goings, B. Peng, A. Petrone, 
 T. Henderson, D. Ranasinghe, V. G. Zakrzewski, J. Gao, N. Rega, 
 G. Zheng, W. Liang, M. Hada, M. Ehara, K. Toyota, R. Fukuda, 
 J. Hasegawa, M. Ishida, T. Nakajima, Y. Honda, O. Kitao, H. Nakai, 
 T. Vreven, K. Throssell, J. A. Montgomery, Jr., J. E. Peralta, 
 F. Ogliaro, M. J. Bearpark, J. J. Heyd, E. N. Brothers, K. N. Kudin, 
 V. N. Staroverov, T. A. Keith, R. Kobayashi, J. Normand, 
 K. Raghavachari, A. P. Rendell, J. C. Burant, S. S. Iyengar, 
 J. Tomasi, M. Cossi, J. M. Millam, M. Klene, C. Adamo, R. Cammi, 
 J. W. Ochterski, R. L. Martin, K. Morokuma, O. Farkas, 
 J. B. Foresman, and D. J. Fox, Gaussian, Inc., Wallingford CT, 2019.
 
 ******************************************
 Gaussian 16:  ES64L-G16RevC.01  3-Jul-2019
                 2-Jun-2023 
 ******************************************
 %NProcShared=2
 Will use up to    2 processors via shared memory.
 %mem=55gb
 %chk=/scratch1/svicchi/G09-659790.pbs02/02-freq/benzim-isolated-freq.chk
 ----------------------------------------------------------------------
 #p freq=raman scale=0.967 pop=(nbo,full,hirshfeld) guess=read geom=all
 check b3lyp/6-311+G(d,p) int=grid=ultrafine EmpiricalDispersion=GD3BJ 
 SCRF=(Solvent=ethanol) scf=(xqc,intrep,maxconventionalcycle=350) nosym
 m
 ----------------------------------------------------------------------
 1/10=4,29=7,30=1,38=1,114=967000/1,3;
 2/12=2,15=1,40=1/2;
 3/5=4,6=6,7=111,11=2,14=-4,25=1,30=1,70=2201,71=2,72=4,74=-5,75=-5,116=-2,124=41,140=1/1,2,3;
 4/5=1/1;
 5/5=2,8=3,13=1,17=20,38=6,53=4,85=350,98=1/2,8;
 8/6=4,10=90,11=11/1;
 10/13=10,15=4,31=1/2;
 11/6=3,8=1,9=11,15=111,16=1,31=1/1,2,10;
 10/6=1,31=1/2;
 6/7=3,28=1,40=1,79=1/1,7;
 7/8=1,10=1,25=1,30=1/1,2,3,16;
 1/10=4,30=1/3;
 99//99;
 Leave Link    1 at Fri Jun  2 11:26:05 2023, MaxMem=  7381975040 cpu:               2.9 elap:               3.3
 (Enter /software/commercial/gaussian/g16/AVX/g16/l101.exe)
 Structure from the checkpoint file:  "/scratch1/svicchi/G09-659790.pbs02/02-freq/benzim-isolated-freq.chk"
 -------------------
 benzim-isolated.gjf
 -------------------
 Charge = -1 Multiplicity = 1
 No Z-Matrix found in chk file; cartesian coordinates used.
  C                                                -6.520654632189     -0.009240240005     -0.000000000000
  C                                                -6.325011140619     -1.407632107998      0.000000000004
  C                                                -5.441174835639      0.870061208588      0.000000000000
  C                                                -4.145005916432      0.333391360145      0.000000000006
  C                                                -3.946540932551     -1.085126462908      0.000000000001
  C                                                -5.045643309381     -1.956947339651     -0.000000000001
  N                                                -2.910235651310      0.947635386438      0.000000000007
  C                                                -2.057445259756     -0.097646023888      0.000000000001
  N                                                -2.590555017380     -1.336971656875     -0.000000000004
  H                                                -5.598279718297      1.944350476170     -0.000000000003
  H                                                -7.532001378063      0.383455782444     -0.000000000012
  H                                                -7.189781165778     -2.062757334948      0.000000000014
  H                                                -4.902031280113     -3.033141293689     -0.000000000010
  H                                                -0.982909762490      0.052669246176     -0.000000000003
 Recover connectivity data from disk.
 ITRead=  0  0  0  0  0  0  0  0  0  0  0  0  0  0
 MicOpt= -1 -1 -1 -1 -1 -1 -1 -1 -1 -1 -1 -1 -1 -1
 NAtoms=     14 NQM=       14 NQMF=       0 NMMI=      0 NMMIF=      0
                NMic=       0 NMicF=      0.
                    Isotopes and Nuclear Properties:
 (Nuclear quadrupole moments (NQMom) in fm**2, nuclear magnetic moments (NMagM)
  in nuclear magnetons)

  Atom         1           2           3           4           5           6           7           8           9          10
 IAtWgt=          12          12          12          12          12          12          14          12          14           1
 AtmWgt=  12.0000000  12.0000000  12.0000000  12.0000000  12.0000000  12.0000000  14.0030740  12.0000000  14.0030740   1.0078250
 NucSpn=           0           0           0           0           0           0           2           0           2           1
 AtZEff=   3.6000000   3.6000000   3.6000000   3.6000000   3.6000000   3.6000000   4.5500000   3.6000000   4.5500000   1.0000000
 NQMom=    0.0000000   0.0000000   0.0000000   0.0000000   0.0000000   0.0000000   2.0440000   0.0000000   2.0440000   0.0000000
 NMagM=    0.0000000   0.0000000   0.0000000   0.0000000   0.0000000   0.0000000   0.4037610   0.0000000   0.4037610   2.7928460
 AtZNuc=   6.0000000   6.0000000   6.0000000   6.0000000   6.0000000   6.0000000   7.0000000   6.0000000   7.0000000   1.0000000

  Atom        11          12          13          14
 IAtWgt=           1           1           1           1
 AtmWgt=   1.0078250   1.0078250   1.0078250   1.0078250
 NucSpn=           1           1           1           1
 AtZEff=   1.0000000   1.0000000   1.0000000   1.0000000
 NQMom=    0.0000000   0.0000000   0.0000000   0.0000000
 NMagM=    2.7928460   2.7928460   2.7928460   2.7928460
 AtZNuc=   1.0000000   1.0000000   1.0000000   1.0000000
 Leave Link  101 at Fri Jun  2 11:26:09 2023, MaxMem=  7381975040 cpu:               1.3 elap:               2.1
 (Enter /software/commercial/gaussian/g16/AVX/g16/l103.exe)

 GradGradGradGradGradGradGradGradGradGradGradGradGradGradGradGradGradGrad
 Berny optimization.
 Initialization pass.
 Trust Radius=3.00D-01 FncErr=1.00D-07 GrdErr=1.00D-07 EigMax=2.50D+02 EigMin=1.00D-04
 Number of steps in this run=      2 maximum allowed number of steps=      2.
 GradGradGradGradGradGradGradGradGradGradGradGradGradGradGradGradGradGrad

 Leave Link  103 at Fri Jun  2 11:26:11 2023, MaxMem=  7381975040 cpu:               0.1 elap:               0.9
 (Enter /software/commercial/gaussian/g16/AVX/g16/l202.exe)
                          Input orientation:                          
 ---------------------------------------------------------------------
 Center     Atomic      Atomic             Coordinates (Angstroms)
 Number     Number       Type             X           Y           Z
 ---------------------------------------------------------------------
      1          6           0       -6.520655   -0.009240   -0.000000
      2          6           0       -6.325011   -1.407632    0.000000
      3          6           0       -5.441175    0.870061    0.000000
      4          6           0       -4.145006    0.333391    0.000000
      5          6           0       -3.946541   -1.085126    0.000000
      6          6           0       -5.045643   -1.956947   -0.000000
      7          7           0       -2.910236    0.947635    0.000000
      8          6           0       -2.057445   -0.097646    0.000000
      9          7           0       -2.590555   -1.336972   -0.000000
     10          1           0       -5.598280    1.944350   -0.000000
     11          1           0       -7.532001    0.383456   -0.000000
     12          1           0       -7.189781   -2.062757    0.000000
     13          1           0       -4.902031   -3.033141   -0.000000
     14          1           0       -0.982910    0.052669   -0.000000
 ---------------------------------------------------------------------
                    Distance matrix (angstroms):
                    1          2          3          4          5
     1  C    0.000000
     2  C    1.412011   0.000000
     3  C    1.392281   2.443165   0.000000
     4  C    2.400230   2.789908   1.402879   0.000000
     5  C    2.789909   2.400235   2.461034   1.432334   0.000000
     6  C    2.443199   1.392311   2.854544   2.461056   1.402889
     7  N    3.735068   4.148250   2.532128   1.379113   2.281677
     8  C    4.464085   4.464099   3.519387   2.131596   2.131619
     9  N    4.148319   3.735125   3.605139   2.281760   1.379175
    10  H    2.160392   3.429858   1.085716   2.169607   3.450503
    11  H    1.084911   2.159820   2.146705   3.387365   3.874566
    12  H    2.159783   1.084904   3.414535   3.874556   3.387384
    13  H    3.429857   2.160359   3.940262   3.450598   2.169729
    14  H    5.538091   5.538098   4.532577   3.174533   3.174538
                    6          7          8          9         10
     6  C    0.000000
     7  N    3.605075   0.000000
     8  C    3.519422   1.349024   0.000000
     9  N    2.532159   2.306865   1.349123   0.000000
    10  H    3.940245   2.866884   4.087451   4.451234   0.000000
    11  H    3.414596   4.656073   5.495655   5.232376   2.485090
    12  H    2.146747   5.232301   5.495683   4.656141   4.311588
    13  H    1.085734   4.451273   4.087640   2.867039   5.025951
    14  H    4.532589   2.124982   1.084998   2.125000   4.987995
                   11         12         13         14
    11  H    0.000000
    12  H    2.470035   0.000000
    13  H    4.311598   2.485044   0.000000
    14  H    6.557440   6.557460   4.988160   0.000000
 Symmetry turned off by external request.
 Stoichiometry    C7H5N2(1-)
 Framework group  CS[SG(C7H5N2)]
 Deg. of freedom    25
 Full point group                 CS      NOp   2
 Rotational constants (GHZ):           4.0037770           1.7067173           1.1966242
 Leave Link  202 at Fri Jun  2 11:26:12 2023, MaxMem=  7381975040 cpu:               0.1 elap:               1.0
 (Enter /software/commercial/gaussian/g16/AVX/g16/l301.exe)
 Standard basis: 6-311+G(d,p) (5D, 7F)
 Ernie: Thresh=  0.10000D-02 Tol=  0.10000D-05 Strict=F.
   228 basis functions,   364 primitive gaussians,   237 cartesian basis functions
    31 alpha electrons       31 beta electrons
       nuclear repulsion energy       390.6665617512 Hartrees.
 IExCor=  402 DFT=T Ex+Corr=B3LYP ExCW=0 ScaHFX=  0.200000
 ScaDFX=  0.800000  0.720000  1.000000  0.810000 ScalE2=  1.000000  1.000000
 IRadAn=      5 IRanWt=     -1 IRanGd=            0 ICorTp=0 IEmpDi=141
 NAtoms=   14 NActive=   14 NUniq=   14 SFac= 1.00D+00 NAtFMM=   60 NAOKFM=F Big=F
 Integral buffers will be    131072 words long.
 Raffenetti 2 integral format.
 Two-electron integral symmetry is turned off.
 R6Disp:  Grimme-D3(BJ) Dispersion energy=       -0.0262161621 Hartrees.
 Nuclear repulsion after empirical dispersion term =      390.6403455891 Hartrees.
 Force inversion solution in PCM.
 ------------------------------------------------------------------------------
 Polarizable Continuum Model (PCM)
 =================================
 Model                : PCM.
 Atomic radii         : UFF (Universal Force Field).
 Polarization charges : Total charges.
 Charge compensation  : None.
 Solution method      : Matrix inversion.
 Cavity type          : Scaled VdW (van der Waals Surface) (Alpha=1.100).
 Cavity algorithm     : GePol (No added spheres)
                        Default sphere list used, NSphG=   14.
                        Lebedev-Laikov grids with approx.  5.0 points / Ang**2.
                        Smoothing algorithm: York/Karplus (Gamma=1.0000).
                        Polarization charges: spherical gaussians, with
                                              point-specific exponents (IZeta= 3).
                        Self-potential: point-specific (ISelfS= 7).
                        Self-field    : sphere-specific E.n sum rule (ISelfD= 2).
 1st derivatives      : Analytical E(r).r(x)/FMM algorithm (CHGder, D1EAlg=3).
                        Cavity 1st derivative terms included.
 2nd derivatives      : Analytical E(r).r(xy)/FMM algorithm (CHGder, D2EAlg=3).
                        Cavity 2nd derivative terms included.
 Solvent              : Ethanol, Eps=  24.852000 Eps(inf)=   1.852593
 ------------------------------------------------------------------------------
 Spheres list:
 ISph  on   Nord     Re0    Alpha      Xe            Ye            Ze
    1   C      1    1.9255  1.100     -6.520655     -0.009240     -0.000000
    2   C      2    1.9255  1.100     -6.325011     -1.407632      0.000000
    3   C      3    1.9255  1.100     -5.441175      0.870061      0.000000
    4   C      4    1.9255  1.100     -4.145006      0.333391      0.000000
    5   C      5    1.9255  1.100     -3.946541     -1.085126      0.000000
    6   C      6    1.9255  1.100     -5.045643     -1.956947     -0.000000
    7   N      7    1.8300  1.100     -2.910236      0.947635      0.000000
    8   C      8    1.9255  1.100     -2.057445     -0.097646      0.000000
    9   N      9    1.8300  1.100     -2.590555     -1.336972     -0.000000
   10   H     10    1.4430  1.100     -5.598280      1.944350     -0.000000
   11   H     11    1.4430  1.100     -7.532001      0.383456     -0.000000
   12   H     12    1.4430  1.100     -7.189781     -2.062757      0.000000
   13   H     13    1.4430  1.100     -4.902031     -3.033141     -0.000000
   14   H     14    1.4430  1.100     -0.982910      0.052669     -0.000000
 ------------------------------------------------------------------------------
 GePol: Number of generator spheres                  =      14
 GePol: Total number of spheres                      =      14
 GePol: Number of exposed spheres                    =      14 (100.00%)
 GePol: Number of points                             =    1285
 GePol: Average weight of points                     =       0.13
 GePol: Minimum weight of points                     =   0.55D-08
 GePol: Maximum weight of points                     =    0.20577
 GePol: Number of points with low weight             =      68
 GePol: Fraction of low-weight points (<1% of avg)   =       5.29%
 GePol: Cavity surface area                          =    169.842 Ang**2
 GePol: Cavity volume                                =    167.853 Ang**3
 Leave Link  301 at Fri Jun  2 11:26:16 2023, MaxMem=  7381975040 cpu:               1.3 elap:               2.2
 (Enter /software/commercial/gaussian/g16/AVX/g16/l302.exe)
 NPDir=0 NMtPBC=     1 NCelOv=     1 NCel=       1 NClECP=     1 NCelD=      1
         NCelK=      1 NCelE2=     1 NClLst=     1 CellRange=     0.0.
 One-electron integrals computed using PRISM.
 NBasis=   228 RedAO= T EigKep=  1.53D-06  NBF=   228
 NBsUse=   228 1.00D-06 EigRej= -1.00D+00 NBFU=   228
 Precomputing XC quadrature grid using
 IXCGrd= 4 IRadAn=           5 IRanWt=          -1 IRanGd=           0 AccXCQ= 0.00D+00.
 Generated NRdTot=       0 NPtTot=           0 NUsed=           0 NTot=          32
 NSgBfM=   237   237   237   237   237 MxSgAt=    14 MxSgA2=    14.
 Leave Link  302 at Fri Jun  2 11:26:19 2023, MaxMem=  7381975040 cpu:               1.4 elap:               2.2
 (Enter /software/commercial/gaussian/g16/AVX/g16/l303.exe)
 DipDrv:  MaxL=1.
 Leave Link  303 at Fri Jun  2 11:26:22 2023, MaxMem=  7381975040 cpu:               0.2 elap:               1.6
 (Enter /software/commercial/gaussian/g16/AVX/g16/l401.exe)
 Initial guess from the checkpoint file:  "/scratch1/svicchi/G09-659790.pbs02/02-freq/benzim-isolated-freq.chk"
 B after Tr=     0.000000    0.000000    0.000000
         Rot=    1.000000    0.000000    0.000000    0.000000 Ang=   0.00 deg.
 Guess basis will be translated and rotated to current coordinates.
 JPrj=2 DoOrth=T DoCkMO=T.
 Leave Link  401 at Fri Jun  2 11:26:26 2023, MaxMem=  7381975040 cpu:               1.7 elap:               2.5
 (Enter /software/commercial/gaussian/g16/AVX/g16/l502.exe)
 Keep R1 ints in memory in canonical form, NReq=347516227.
 FoFCou: FMM=F IPFlag=           0 FMFlag=           0 FMFlg1=           0
         NFxFlg=           0 DoJE=F BraDBF=F KetDBF=F FulRan=T
         wScrn=  0.000000 ICntrl=       600 IOpCl=  0 I1Cent=           0 NGrid=           0
         NMat0=    1 NMatS0=  26106 NMatT0=    0 NMatD0=    1 NMtDS0=    0 NMtDT0=    0
 Symmetry not used in FoFCou.
 Two-electron integral symmetry not used.
 Closed shell SCF:
 Using DIIS extrapolation, IDIIS=  1040.
 NGot=  7381975040 LenX=  7041084530 LenY=  7041027920
 Requested convergence on RMS density matrix=1.00D-08 within 350 cycles.
 Requested convergence on MAX density matrix=1.00D-06.
 Requested convergence on             energy=1.00D-06.
 No special actions if energy rises.

 Cycle   1  Pass 1  IDiag  1:
 Inv3:  Mode=1 IEnd=     4953675.
 Iteration    1 A*A^-1 deviation from unit magnitude is 3.77D-15 for   1285.
 Iteration    1 A*A^-1 deviation from orthogonality  is 5.51D-15 for   1284   1134.
 Iteration    1 A^-1*A deviation from unit magnitude is 3.89D-15 for   1285.
 Iteration    1 A^-1*A deviation from orthogonality  is 1.24D-15 for   1276   1229.
 E= -379.522029480219    
 DIIS: error= 5.12D-09 at cycle   1 NSaved=   1.
 NSaved= 1 IEnMin= 1 EnMin= -379.522029480219     IErMin= 1 ErrMin= 5.12D-09
 ErrMax= 5.12D-09  0.00D+00 EMaxC= 1.00D-01 BMatC= 4.27D-15 BMatP= 4.27D-15
 IDIUse=1 WtCom= 1.00D+00 WtEn= 0.00D+00
 Coeff-Com:  0.100D+01
 Coeff:      0.100D+01
 Gap=     0.192 Goal=   None    Shift=    0.000
 RMSDP=2.59D-09 MaxDP=1.81D-07              OVMax= 6.17D-08

 Error on total polarization charges =  0.02374
 SCF Done:  E(RB3LYP) =  -379.522029480     A.U. after    1 cycles
            NFock=  1  Conv=0.26D-08     -V/T= 2.0045
 KE= 3.778346674934D+02 PE=-1.675749225608D+03 EE= 5.277521830451D+02
 Leave Link  502 at Fri Jun  2 11:26:50 2023, MaxMem=  7381975040 cpu:              38.0 elap:              23.7
 (Enter /software/commercial/gaussian/g16/AVX/g16/l508.exe)
 QCSCF skips out because SCF is already converged.
 Leave Link  508 at Fri Jun  2 11:26:53 2023, MaxMem=  7381975040 cpu:               0.1 elap:               1.1
 (Enter /software/commercial/gaussian/g16/AVX/g16/l801.exe)
 DoSCS=F DFT=T ScalE2(SS,OS)=  1.000000  1.000000
 Range of M.O.s used for correlation:     1   228
 NBasis=   228 NAE=    31 NBE=    31 NFC=     0 NFV=     0
 NROrb=    228 NOA=    31 NOB=    31 NVA=   197 NVB=   197

 **** Warning!!: The largest alpha MO coefficient is  0.25465703D+03

 Leave Link  801 at Fri Jun  2 11:26:55 2023, MaxMem=  7381975040 cpu:               0.4 elap:               1.0
 (Enter /software/commercial/gaussian/g16/AVX/g16/l1002.exe)
 Minotr:  Closed shell wavefunction.
 NEqPCM:  Using equilibrium solvation (IEInf=0, Eps=  24.8520, EpsInf=   1.8526)
          Direct CPHF calculation.
          Differentiating once with respect to electric field.
                with respect to dipole field.
          Electric field/nuclear overlap derivatives assumed to be zero.
          Requested convergence is 1.0D-08 RMS, and 1.0D-07 maximum.
          Secondary convergence is 1.0D-12 RMS, and 1.0D-12 maximum.
          NewPWx=F KeepS1=T KeepF1=T KeepIn=T MapXYZ=F SortEE=F KeepMc=T.
         4292 words used for storage of precomputed grid.
 Keep R1 ints in memory in canonical form, NReq=347522261.
 FoFCou: FMM=F IPFlag=           0 FMFlag=           0 FMFlg1=           0
         NFxFlg=           0 DoJE=F BraDBF=F KetDBF=F FulRan=T
         wScrn=  0.000000 ICntrl=       600 IOpCl=  0 I1Cent=           0 NGrid=           0
         NMat0=    1 NMatS0=  26106 NMatT0=    0 NMatD0=    1 NMtDS0=    0 NMtDT0=    0
 Symmetry not used in FoFCou.
 Two-electron integral symmetry not used.
          MDV=    7381975040 using IRadAn=       1.
          Solving linear equations simultaneously, MaxMat=       0.
          There are     3 degrees of freedom in the 1st order CPHF.  IDoFFX=0 NUNeed=     3.
      3 vectors produced by pass  0 Test12= 2.04D-13 3.33D-08 XBig12= 2.02D+02 9.81D+00.
 AX will form     3 AO Fock derivatives at one time.
      3 vectors produced by pass  1 Test12= 2.04D-13 3.33D-08 XBig12= 7.83D+01 2.35D+00.
      3 vectors produced by pass  2 Test12= 2.04D-13 3.33D-08 XBig12= 9.88D+00 9.11D-01.
      3 vectors produced by pass  3 Test12= 2.04D-13 3.33D-08 XBig12= 6.37D+00 5.32D-01.
      3 vectors produced by pass  4 Test12= 2.04D-13 3.33D-08 XBig12= 4.77D-01 1.72D-01.
      3 vectors produced by pass  5 Test12= 2.04D-13 3.33D-08 XBig12= 8.47D-02 9.01D-02.
      3 vectors produced by pass  6 Test12= 2.04D-13 3.33D-08 XBig12= 2.02D-02 3.66D-02.
      3 vectors produced by pass  7 Test12= 2.04D-13 3.33D-08 XBig12= 3.00D-03 1.68D-02.
      3 vectors produced by pass  8 Test12= 2.04D-13 3.33D-08 XBig12= 7.23D-04 6.13D-03.
      3 vectors produced by pass  9 Test12= 2.04D-13 3.33D-08 XBig12= 4.56D-05 2.41D-03.
      2 vectors produced by pass 10 Test12= 2.04D-13 3.33D-08 XBig12= 1.69D-05 1.70D-03.
      2 vectors produced by pass 11 Test12= 2.04D-13 3.33D-08 XBig12= 2.87D-06 3.69D-04.
      2 vectors produced by pass 12 Test12= 2.04D-13 3.33D-08 XBig12= 8.82D-08 7.78D-05.
      2 vectors produced by pass 13 Test12= 2.04D-13 3.33D-08 XBig12= 2.30D-09 1.14D-05.
      2 vectors produced by pass 14 Test12= 2.04D-13 3.33D-08 XBig12= 7.19D-11 2.78D-06.
      1 vectors produced by pass 15 Test12= 2.04D-13 3.33D-08 XBig12= 2.68D-12 3.03D-07.
      1 vectors produced by pass 16 Test12= 2.04D-13 3.33D-08 XBig12= 8.55D-14 3.99D-08.
 InvSVY:  IOpt=1 It=  1 EMax= 4.27D-15
 Solved reduced A of dimension    42 with     3 vectors.
 End of Minotr F.D. properties file   721 does not exist.
 End of Minotr F.D. properties file   722 does not exist.
 End of Minotr F.D. properties file   788 does not exist.
 Leave Link 1002 at Fri Jun  2 11:29:02 2023, MaxMem=  7381975040 cpu:             221.8 elap:             125.7
 (Enter /software/commercial/gaussian/g16/AVX/g16/l1101.exe)
 Using compressed storage, NAtomX=    14.
 Will process     15 centers per pass.
 R6Disp: Adding Grimme-D3(BJ) dispersion energy 1st derivatives to the gradient.
 Leave Link 1101 at Fri Jun  2 11:29:06 2023, MaxMem=  7381975040 cpu:               1.6 elap:               2.5
 (Enter /software/commercial/gaussian/g16/AVX/g16/l1102.exe)
 Symmetrizing basis deriv contribution to polar:
 IMax=3 JMax=2 DiffMx= 0.00D+00
 Leave Link 1102 at Fri Jun  2 11:29:08 2023, MaxMem=  7381975040 cpu:               0.2 elap:               0.8
 (Enter /software/commercial/gaussian/g16/AVX/g16/l1110.exe)
 Forming Gx(P) for the SCF density, NAtomX=    14.
 Integral derivatives from FoFJK, PRISM(SPDF).
 Do as many integral derivatives as possible in FoFJK.
 G2DrvN: MDV=    7381973490.
 G2DrvN: will do    15 centers at a time, making    1 passes.
 PxScal for G2LodP:  IOpCl= 0 ISclPx=1 IMOff=     1 NMtTot=     4 NTT=   26106 ScalPx= 3.80D+01
 Calling FoFCou, ICntrl=  3107 FMM=F I1Cent=   0 AccDes= 0.00D+00.
 FoFJK:  IHMeth= 1 ICntrl=    3107 DoSepK=F KAlg= 0 I1Cent=           0 FoldK=F
 IRaf=         0 NMat=       1 IRICut=       1 DoRegI=T DoRafI=F ISym2E= 0 IDoP0=0 IntGTp=1.
 FoFCou: FMM=F IPFlag=           0 FMFlag=      100000 FMFlg1=           0
         NFxFlg=           0 DoJE=F BraDBF=F KetDBF=F FulRan=T
         wScrn=  0.000000 ICntrl=      3107 IOpCl=  0 I1Cent=           0 NGrid=           0
         NMat0=    1 NMatS0=      1 NMatT0=    0 NMatD0=    4 NMtDS0=    3 NMtDT0=    0
 Symmetry not used in FoFCou.
 PxScal for G2LodP:  IOpCl= 0 ISclPx=0 IMOff=     1 NMtTot=     4 NTT=   26106 ScalPx= 1.00D+00
 NEqPCM:  Using equilibrium solvation (IEInf=0, Eps=  24.8520, EpsInf=   1.8526)
 G2PCM: DoFxE=T DoFxN=T DoGrad=T DoDP/DQ/DG/TGxP=TFFF NFrqRd=   0 IEInf=0 SqF1=F DoCFld=F IF1Alg=4.
 GePol: Maximum number of non-zero 1st derivatives   =     201
 End of G2Drv F.D. properties file   721 does not exist.
 End of G2Drv F.D. properties file   722 does not exist.
 End of G2Drv F.D. properties file   788 does not exist.
 Leave Link 1110 at Fri Jun  2 11:33:18 2023, MaxMem=  7381975040 cpu:             487.0 elap:             248.7
 (Enter /software/commercial/gaussian/g16/AVX/g16/l1002.exe)
 Minotr:  Closed shell wavefunction.
          IDoAtm=11111111111111
 NEqPCM:  Using equilibrium solvation (IEInf=0, Eps=  24.8520, EpsInf=   1.8526)
          Direct CPHF calculation.
          Differentiating once with respect to electric field.
                with respect to dipole field.
          Differentiating once with respect to nuclear coordinates.
          Requested convergence is 1.0D-08 RMS, and 1.0D-07 maximum.
          Secondary convergence is 1.0D-12 RMS, and 1.0D-12 maximum.
          NewPWx=T KeepS1=F KeepF1=F KeepIn=T MapXYZ=F SortEE=F KeepMc=T.
         4292 words used for storage of precomputed grid.
 Keep R1 ints in memory in canonical form, NReq=347522583.
 FoFCou: FMM=F IPFlag=           0 FMFlag=           0 FMFlg1=           0
         NFxFlg=           0 DoJE=F BraDBF=F KetDBF=F FulRan=T
         wScrn=  0.000000 ICntrl=       600 IOpCl=  0 I1Cent=           0 NGrid=           0
         NMat0=    1 NMatS0=  26106 NMatT0=    0 NMatD0=    1 NMtDS0=    0 NMtDT0=    0
 Symmetry not used in FoFCou.
 Two-electron integral symmetry not used.
          MDV=    7381975040 using IRadAn=       1.
          Solving linear equations simultaneously, MaxMat=       0.
          There are    45 degrees of freedom in the 1st order CPHF.  IDoFFX=5 NUNeed=    45.
 Will reuse    3 saved solutions.
     39 vectors produced by pass  0 Test12= 1.36D-14 2.22D-09 XBig12= 2.14D-01 1.42D-01.
 AX will form    39 AO Fock derivatives at one time.
     39 vectors produced by pass  1 Test12= 1.36D-14 2.22D-09 XBig12= 6.16D-02 7.98D-02.
     39 vectors produced by pass  2 Test12= 1.36D-14 2.22D-09 XBig12= 7.63D-04 5.38D-03.
     39 vectors produced by pass  3 Test12= 1.36D-14 2.22D-09 XBig12= 2.78D-06 3.07D-04.
     39 vectors produced by pass  4 Test12= 1.36D-14 2.22D-09 XBig12= 8.78D-09 1.82D-05.
     39 vectors produced by pass  5 Test12= 1.36D-14 2.22D-09 XBig12= 1.84D-11 8.08D-07.
     19 vectors produced by pass  6 Test12= 1.36D-14 2.22D-09 XBig12= 3.62D-14 2.52D-08.
 InvSVY:  IOpt=1 It=  1 EMax= 2.44D-15
 Solved reduced A of dimension   253 with    39 vectors.
 FullF1:  Do perturbations      1 to       3.
 Isotropic polarizability for W=    0.000000      144.36 Bohr**3.
 FullF1:  Do perturbations      1 to       6.
 End of Minotr F.D. properties file   721 does not exist.
 End of Minotr F.D. properties file   722 does not exist.
 End of Minotr F.D. properties file   788 does not exist.
 Leave Link 1002 at Fri Jun  2 11:38:54 2023, MaxMem=  7381975040 cpu:             635.5 elap:             334.3
 (Enter /software/commercial/gaussian/g16/AVX/g16/l601.exe)
 Copying SCF densities to generalized density rwf, IOpCl= 0 IROHF=0.

 **********************************************************************

            Population analysis using the SCF Density.

 **********************************************************************

 Alpha  occ. eigenvalues --  -14.26489 -14.26486 -10.18708 -10.16562 -10.16520
 Alpha  occ. eigenvalues --  -10.15532 -10.15530 -10.15422 -10.15376  -0.95638
 Alpha  occ. eigenvalues --   -0.81960  -0.81341  -0.71850  -0.70251  -0.59707
 Alpha  occ. eigenvalues --   -0.56854  -0.54649  -0.46195  -0.45888  -0.45103
 Alpha  occ. eigenvalues --   -0.41720  -0.39952  -0.37574  -0.34997  -0.34908
 Alpha  occ. eigenvalues --   -0.31985  -0.27393  -0.26480  -0.24407  -0.20382
 Alpha  occ. eigenvalues --   -0.19758
 Alpha virt. eigenvalues --   -0.00536   0.01444   0.02655   0.03228   0.03270
 Alpha virt. eigenvalues --    0.04697   0.05313   0.05628   0.05863   0.06437
 Alpha virt. eigenvalues --    0.07832   0.08574   0.09042   0.09262   0.10910
 Alpha virt. eigenvalues --    0.11583   0.13379   0.13413   0.14145   0.14324
 Alpha virt. eigenvalues --    0.15607   0.16722   0.16738   0.18488   0.18514
 Alpha virt. eigenvalues --    0.19571   0.19856   0.20248   0.20505   0.20952
 Alpha virt. eigenvalues --    0.21949   0.22285   0.22900   0.23116   0.24209
 Alpha virt. eigenvalues --    0.25104   0.25335   0.26341   0.26427   0.26428
 Alpha virt. eigenvalues --    0.27122   0.27410   0.29924   0.30794   0.31550
 Alpha virt. eigenvalues --    0.31955   0.33309   0.36248   0.37561   0.38172
 Alpha virt. eigenvalues --    0.44672   0.46021   0.47129   0.51006   0.53375
 Alpha virt. eigenvalues --    0.53969   0.54448   0.55301   0.57934   0.58112
 Alpha virt. eigenvalues --    0.58578   0.59243   0.60784   0.61155   0.63653
 Alpha virt. eigenvalues --    0.64768   0.67654   0.70362   0.70612   0.72876
 Alpha virt. eigenvalues --    0.73790   0.76704   0.78256   0.79396   0.79736
 Alpha virt. eigenvalues --    0.82832   0.84496   0.85150   0.85394   0.86558
 Alpha virt. eigenvalues --    0.86922   0.90804   0.91967   0.93635   0.94593
 Alpha virt. eigenvalues --    0.94875   0.95513   0.98435   0.98766   1.00598
 Alpha virt. eigenvalues --    1.02083   1.02768   1.03886   1.10371   1.11308
 Alpha virt. eigenvalues --    1.11975   1.14928   1.20398   1.20599   1.24730
 Alpha virt. eigenvalues --    1.29579   1.29878   1.38065   1.42821   1.49953
 Alpha virt. eigenvalues --    1.51321   1.51860   1.54692   1.57919   1.57974
 Alpha virt. eigenvalues --    1.61393   1.65389   1.66898   1.67885   1.74110
 Alpha virt. eigenvalues --    1.74309   1.75872   1.77655   1.80597   1.81613
 Alpha virt. eigenvalues --    1.85867   1.87359   1.89067   1.90253   1.92705
 Alpha virt. eigenvalues --    1.95668   1.96454   1.98269   2.00540   2.03723
 Alpha virt. eigenvalues --    2.05386   2.07304   2.19338   2.19932   2.29285
 Alpha virt. eigenvalues --    2.30596   2.31158   2.32568   2.40945   2.43202
 Alpha virt. eigenvalues --    2.44698   2.46600   2.52677   2.59852   2.63461
 Alpha virt. eigenvalues --    2.64495   2.66088   2.69119   2.69252   2.70067
 Alpha virt. eigenvalues --    2.73798   2.74173   2.76312   2.78270   2.80309
 Alpha virt. eigenvalues --    2.82090   2.83722   2.84200   2.84841   2.89937
 Alpha virt. eigenvalues --    2.93046   2.94283   2.96240   2.98432   3.06627
 Alpha virt. eigenvalues --    3.09427   3.11309   3.18496   3.32607   3.38663
 Alpha virt. eigenvalues --    3.46140   3.50184   3.53241   3.59632   3.67572
 Alpha virt. eigenvalues --    3.70068   3.82292   3.94924   3.96403   3.98319
 Alpha virt. eigenvalues --    4.05081   4.12175   4.19062   4.48140   4.58700
 Alpha virt. eigenvalues --    4.84875   4.89947   5.29364  23.63686  23.92872
 Alpha virt. eigenvalues --   23.93894  23.99751  24.05299  24.11561  24.19703
 Alpha virt. eigenvalues --   35.58565  35.75498
     Molecular Orbital Coefficients:
                           1         2         3         4         5
                           O         O         O         O         O
     Eigenvalues --   -14.26489 -14.26486 -10.18708 -10.16562 -10.16520
   1 1   C  1S         -0.00000  -0.00001  -0.00002  -0.00017   0.00033
   2        2S          0.00002   0.00004  -0.00000  -0.00004   0.00027
   3        2PX        -0.00004   0.00007   0.00003   0.00008   0.00009
   4        2PY        -0.00003   0.00001   0.00001   0.00007   0.00012
   5        2PZ         0.00000  -0.00000  -0.00000   0.00000   0.00000
   6        3S         -0.00030  -0.00024  -0.00011  -0.00056   0.00035
   7        3PX         0.00016  -0.00042  -0.00018  -0.00087  -0.00064
   8        3PY         0.00018  -0.00005  -0.00008  -0.00034  -0.00076
   9        3PZ         0.00000   0.00000   0.00000  -0.00000  -0.00000
  10        4S          0.00866  -0.00473  -0.00045   0.00043  -0.01132
  11        4PX         0.00438  -0.00079  -0.00004   0.00070  -0.00554
  12        4PY        -0.00169  -0.00078   0.00019   0.00018   0.00230
  13        4PZ        -0.00000  -0.00000  -0.00000   0.00000   0.00000
  14        5S          0.03937  -0.01356  -0.00123  -0.01143  -0.00632
  15        5PX         0.00714  -0.00246   0.00103  -0.00036  -0.00719
  16        5PY        -0.00270   0.00023  -0.00137  -0.00433  -0.01905
  17        5PZ         0.00000   0.00000   0.00000   0.00000  -0.00000
  18        6D 0       -0.00004  -0.00004  -0.00002  -0.00005   0.00008
  19        6D+1       -0.00000  -0.00000  -0.00000   0.00000   0.00000
  20        6D-1        0.00000  -0.00000  -0.00000   0.00000  -0.00000
  21        6D+2        0.00008  -0.00006  -0.00002   0.00006  -0.00017
  22        6D-2        0.00002  -0.00008  -0.00001  -0.00045  -0.00047
  23 2   C  1S          0.00000  -0.00001  -0.00002  -0.00016  -0.00034
  24        2S         -0.00000   0.00004  -0.00000  -0.00003  -0.00027
  25        2PX         0.00007   0.00005   0.00003   0.00010  -0.00012
  26        2PY        -0.00001   0.00002  -0.00000  -0.00004   0.00009
  27        2PZ         0.00000   0.00000   0.00000  -0.00000  -0.00000
  28        3S          0.00018  -0.00034  -0.00011  -0.00055  -0.00036
  29        3PX        -0.00035  -0.00030  -0.00020  -0.00096   0.00080
  30        3PY         0.00009  -0.00011   0.00003   0.00011  -0.00055
  31        3PZ        -0.00000  -0.00000  -0.00000   0.00000   0.00000
  32        4S         -0.00983  -0.00084  -0.00044   0.00012   0.01133
  33        4PX        -0.00382   0.00062   0.00001   0.00059   0.00471
  34        4PY        -0.00237   0.00162  -0.00019  -0.00008   0.00373
  35        4PZ         0.00000   0.00000   0.00000  -0.00000  -0.00000
  36        5S         -0.04150   0.00343  -0.00122  -0.01158   0.00599
  37        5PX        -0.00654   0.00035   0.00062  -0.00186   0.01209
  38        5PY        -0.00453   0.00103   0.00158   0.00451  -0.01623
  39        5PZ        -0.00000  -0.00000  -0.00000  -0.00000   0.00000
  40        6D 0        0.00002  -0.00005  -0.00002  -0.00004  -0.00009
  41        6D+1        0.00000   0.00000   0.00000  -0.00000  -0.00000
  42        6D-1       -0.00000  -0.00000  -0.00000  -0.00000  -0.00000
  43        6D+2       -0.00011  -0.00005  -0.00002  -0.00019   0.00038
  44        6D-2       -0.00001   0.00004   0.00000   0.00042  -0.00030
  45 3   C  1S          0.00000  -0.00001  -0.00002   0.00943   0.01031
  46        2S         -0.00000   0.00005   0.00000   0.00791   0.00860
  47        2PX         0.00007   0.00008  -0.00003   0.00059   0.00045
  48        2PY        -0.00010   0.00003  -0.00000  -0.00023  -0.00013
  49        2PZ         0.00000   0.00000   0.00000  -0.00000  -0.00000
  50        3S          0.00033  -0.00040  -0.00029   0.00012  -0.00001
  51        3PX        -0.00046  -0.00043   0.00010  -0.00272  -0.00176
  52        3PY         0.00058  -0.00001   0.00002   0.00117   0.00030
  53        3PZ        -0.00000  -0.00000  -0.00000   0.00000   0.00000
  54        4S         -0.01853   0.00513   0.00464  -0.00128   0.01367
  55        4PX        -0.00366  -0.00108   0.00187   0.00040   0.00174
  56        4PY         0.00765  -0.00504  -0.00185  -0.00031  -0.00907
  57        4PZ        -0.00000   0.00000   0.00000  -0.00000  -0.00000
  58        5S         -0.08402   0.03465  -0.03506  -0.06691  -0.04734
  59        5PX        -0.00877   0.00324  -0.01086  -0.02148  -0.03318
  60        5PY         0.01135  -0.00547   0.00005   0.00474  -0.00416
  61        5PZ        -0.00000  -0.00000  -0.00000  -0.00000   0.00000
  62        6D 0        0.00011  -0.00004  -0.00009   0.00040   0.00037
  63        6D+1       -0.00000   0.00000   0.00000  -0.00000  -0.00000
  64        6D-1        0.00000  -0.00000  -0.00000   0.00000   0.00000
  65        6D+2        0.00003  -0.00031   0.00002  -0.00105  -0.00064
  66        6D-2        0.00012   0.00006   0.00003   0.00125   0.00087
  67 4   C  1S         -0.00002   0.00000   0.00002   0.39232   0.40340
  68        2S          0.00005   0.00002  -0.00001   0.32296   0.33191
  69        2PX        -0.00025   0.00033  -0.00000   0.00028   0.00011
  70        2PY        -0.00019   0.00023   0.00001  -0.00030   0.00071
  71        2PZ        -0.00000   0.00000  -0.00000  -0.00000   0.00000
  72        3S         -0.00090   0.00032   0.00019   0.01324   0.01390
  73        3PX         0.00055  -0.00085   0.00008  -0.00088  -0.00025
  74        3PY         0.00088  -0.00049  -0.00001   0.00133  -0.00219
  75        3PZ         0.00000   0.00000   0.00000   0.00000  -0.00000
  76        4S          0.00414   0.00603  -0.00272  -0.00640  -0.01843
  77        4PX        -0.02126   0.00900   0.00422   0.00020   0.01287
  78        4PY        -0.00202   0.00453  -0.00124   0.00041   0.00833
  79        4PZ        -0.00000  -0.00000  -0.00000   0.00000   0.00000
  80        5S          0.06794  -0.02642   0.03936   0.06578  -0.04013
  81        5PX        -0.03093   0.01012  -0.00953  -0.02980  -0.04496
  82        5PY         0.00401  -0.00145   0.01585   0.01524   0.04950
  83        5PZ         0.00000   0.00000   0.00000   0.00000  -0.00000
  84        6D 0       -0.00019   0.00003  -0.00006  -0.00074  -0.00148
  85        6D+1        0.00000  -0.00000  -0.00000  -0.00000  -0.00000
  86        6D-1        0.00000  -0.00000   0.00000  -0.00000   0.00000
  87        6D+2        0.00072  -0.00019   0.00012   0.00145  -0.00049
  88        6D-2        0.00037  -0.00053  -0.00005  -0.00013  -0.00072
  89 5   C  1S          0.00002  -0.00000   0.00002   0.40335  -0.39236
  90        2S         -0.00004   0.00004  -0.00001   0.33204  -0.32282
  91        2PX         0.00041   0.00023   0.00000   0.00019  -0.00030
  92        2PY        -0.00015  -0.00007  -0.00001   0.00035   0.00066
  93        2PZ         0.00000  -0.00000   0.00000   0.00000  -0.00000
  94        3S          0.00095  -0.00007   0.00019   0.01362  -0.01353
  95        3PX        -0.00109  -0.00056   0.00008  -0.00051   0.00083
  96        3PY         0.00073  -0.00006   0.00004  -0.00146  -0.00208
  97        3PZ        -0.00000  -0.00000  -0.00000   0.00000   0.00000
  98        4S         -0.00137   0.00719  -0.00272  -0.00691   0.01824
  99        4PX         0.02320   0.00061   0.00371   0.00071  -0.01465
 100        4PY         0.00281  -0.00329   0.00235  -0.00046   0.00446
 101        4PZ         0.00000   0.00000   0.00000  -0.00000  -0.00000
 102        5S         -0.07284   0.00309   0.03941   0.06469   0.04195
 103        5PX         0.02997  -0.00299  -0.00481  -0.02528   0.02895
 104        5PY         0.01297  -0.00118  -0.01782  -0.02446   0.05928
 105        5PZ        -0.00000  -0.00000  -0.00000  -0.00000   0.00000
 106        6D 0        0.00019  -0.00005  -0.00006  -0.00078   0.00146
 107        6D+1        0.00000   0.00000   0.00000   0.00000  -0.00000
 108        6D-1       -0.00000   0.00000   0.00000  -0.00000  -0.00000
 109        6D+2       -0.00092  -0.00008   0.00007   0.00114   0.00083
 110        6D-2        0.00008   0.00035   0.00011   0.00089  -0.00033
 111 6   C  1S         -0.00000  -0.00001  -0.00002   0.00971  -0.01005
 112        2S          0.00002   0.00005   0.00000   0.00815  -0.00838
 113        2PX        -0.00000   0.00009  -0.00003   0.00051  -0.00039
 114        2PY        -0.00011   0.00004  -0.00001   0.00039  -0.00024
 115        2PZ         0.00000  -0.00000  -0.00000   0.00000   0.00000
 116        3S         -0.00046  -0.00023  -0.00029   0.00012   0.00001
 117        3PX         0.00009  -0.00049   0.00010  -0.00234   0.00155
 118        3PY         0.00058  -0.00037   0.00001  -0.00189   0.00072
 119        3PZ         0.00000   0.00000   0.00000  -0.00000  -0.00000
 120        4S          0.01902  -0.00277   0.00463  -0.00091  -0.01370
 121        4PX         0.00032  -0.00279   0.00129   0.00028   0.00082
 122        4PY         0.00949   0.00080   0.00229   0.00067  -0.00919
 123        4PZ        -0.00000  -0.00000  -0.00000   0.00000   0.00000
 124        5S          0.09086  -0.00210  -0.03505  -0.06821   0.04547
 125        5PX         0.00551  -0.00068  -0.01040  -0.02025   0.03249
 126        5PY         0.01467   0.00027  -0.00303  -0.01059   0.00481
 127        5PZ         0.00000   0.00000   0.00000   0.00000  -0.00000
 128        6D 0       -0.00012   0.00001  -0.00009   0.00041  -0.00035
 129        6D+1       -0.00000  -0.00000  -0.00000  -0.00000   0.00000
 130        6D-1        0.00000   0.00000  -0.00000   0.00000   0.00000
 131        6D+2       -0.00017  -0.00018   0.00003  -0.00023   0.00008
 132        6D-2       -0.00001  -0.00023  -0.00001  -0.00165   0.00103
 133 7   N  1S         -0.30467   0.46675  -0.00006  -0.00003  -0.00004
 134        2S         -0.25451   0.39005  -0.00004  -0.00003  -0.00008
 135        2PX         0.00017  -0.00023   0.00027  -0.00029  -0.00017
 136        2PY         0.00062  -0.00109  -0.00035  -0.00019  -0.00023
 137        2PZ        -0.00000  -0.00000   0.00000   0.00000  -0.00000
 138        3S         -0.00953   0.01369   0.00083   0.00069   0.00106
 139        3PX         0.00004  -0.00027  -0.00069   0.00078   0.00011
 140        3PY         0.00092  -0.00062   0.00089   0.00055   0.00061
 141        3PZ         0.00000   0.00000  -0.00000  -0.00000   0.00000
 142        4S          0.01583  -0.01845  -0.00372  -0.00415  -0.00729
 143        4PX        -0.00286   0.00309  -0.00064   0.00089   0.00349
 144        4PY        -0.00299   0.00427   0.00192   0.00128   0.00092
 145        4PZ        -0.00000   0.00000   0.00000   0.00000  -0.00000
 146        5S          0.00142  -0.00091   0.00603   0.00720   0.00766
 147        5PX         0.00228  -0.00053   0.00385  -0.00157  -0.00001
 148        5PY        -0.00010   0.00061  -0.00594  -0.00304  -0.00408
 149        5PZ        -0.00000   0.00000  -0.00000  -0.00000   0.00000
 150        6D 0        0.00022  -0.00015   0.00073   0.00049   0.00047
 151        6D+1       -0.00000   0.00000   0.00000  -0.00000  -0.00000
 152        6D-1        0.00000  -0.00000  -0.00000   0.00000  -0.00000
 153        6D+2        0.00006   0.00018   0.00026  -0.00025  -0.00009
 154        6D-2        0.00016  -0.00011   0.00081  -0.00061  -0.00039
 155 8   C  1S          0.00000   0.00001   0.56293  -0.00003  -0.00000
 156        2S          0.00001   0.00007   0.46326  -0.00006  -0.00000
 157        2PX         0.00001  -0.00027  -0.00002   0.00014   0.00001
 158        2PY        -0.00050   0.00007  -0.00000   0.00002  -0.00009
 159        2PZ        -0.00000   0.00000  -0.00000  -0.00000  -0.00000
 160        3S          0.00009   0.00043   0.01928   0.00021   0.00000
 161        3PX         0.00001   0.00078   0.00004  -0.00082  -0.00009
 162        3PY         0.00109  -0.00012   0.00001  -0.00012   0.00056
 163        3PZ        -0.00000  -0.00000  -0.00000  -0.00000   0.00000
 164        4S          0.00151   0.00720  -0.01058   0.00094   0.00001
 165        4PX        -0.00050  -0.00451   0.00372  -0.00260   0.00026
 166        4PY        -0.00317   0.00002   0.00052  -0.00033  -0.00215
 167        4PZ         0.00000  -0.00000   0.00000   0.00000  -0.00000
 168        5S         -0.00010  -0.00047  -0.01265   0.01998   0.00028
 169        5PX        -0.00025  -0.00055   0.00256  -0.00330  -0.00050
 170        5PY         0.00092  -0.00028   0.00036  -0.00051   0.00326
 171        5PZ        -0.00000  -0.00000  -0.00000  -0.00000   0.00000
 172        6D 0        0.00004   0.00018  -0.00167  -0.00007  -0.00000
 173        6D+1       -0.00000   0.00000   0.00000   0.00000   0.00000
 174        6D-1       -0.00000  -0.00000  -0.00000  -0.00000   0.00000
 175        6D+2        0.00051   0.00080   0.00046   0.00021   0.00009
 176        6D-2       -0.00108   0.00049   0.00013   0.00007  -0.00031
 177 9   N  1S          0.46675   0.30467  -0.00006  -0.00003   0.00003
 178        2S          0.38996   0.25464  -0.00004  -0.00003   0.00008
 179        2PX        -0.00052  -0.00034   0.00016  -0.00034   0.00022
 180        2PY         0.00090   0.00068   0.00042   0.00011  -0.00017
 181        2PZ         0.00000   0.00000  -0.00000  -0.00000   0.00000
 182        3S          0.01423   0.00870   0.00083   0.00072  -0.00104
 183        3PX        -0.00044  -0.00028  -0.00042   0.00091  -0.00024
 184        3PY         0.00101   0.00013  -0.00104  -0.00033   0.00054
 185        3PZ         0.00000  -0.00000   0.00000   0.00000  -0.00000
 186        4S         -0.02192  -0.01051  -0.00371  -0.00435   0.00717
 187        4PX         0.00493   0.00235  -0.00009   0.00131  -0.00357
 188        4PY        -0.00323  -0.00214  -0.00202  -0.00099  -0.00010
 189        4PZ        -0.00000  -0.00000  -0.00000  -0.00000   0.00000
 190        5S         -0.00166  -0.00025   0.00602   0.00741  -0.00746
 191        5PX        -0.00212   0.00056   0.00207  -0.00237   0.00106
 192        5PY        -0.00095  -0.00038   0.00677   0.00260  -0.00385
 193        5PZ         0.00000  -0.00000   0.00000   0.00000  -0.00000
 194        6D 0       -0.00026  -0.00005   0.00073   0.00051  -0.00045
 195        6D+1        0.00000   0.00000  -0.00000   0.00000  -0.00000
 196        6D-1       -0.00000  -0.00000  -0.00000  -0.00000   0.00000
 197        6D+2       -0.00009   0.00015   0.00065  -0.00055   0.00027
 198        6D-2        0.00017   0.00013  -0.00055   0.00040  -0.00027
 199 10  H  1S          0.00010  -0.00017  -0.00002  -0.00015  -0.00017
 200        2S         -0.00091   0.00099   0.00007  -0.00065   0.00090
 201        3S         -0.00099   0.00105   0.00125   0.00125   0.00267
 202        4PX         0.00002   0.00005  -0.00003  -0.00018  -0.00011
 203        4PY         0.00007   0.00004  -0.00002   0.00042   0.00016
 204        4PZ         0.00000  -0.00000  -0.00000   0.00000   0.00000
 205 11  H  1S         -0.00006  -0.00007  -0.00003  -0.00011   0.00002
 206        2S          0.00041   0.00029   0.00006  -0.00027  -0.00069
 207        3S          0.00081   0.00037  -0.00008   0.00092  -0.00127
 208        4PX        -0.00003   0.00000   0.00000  -0.00021  -0.00008
 209        4PY         0.00000   0.00002   0.00001   0.00005   0.00000
 210        4PZ         0.00000   0.00000   0.00000  -0.00000  -0.00000
 211 12  H  1S          0.00002  -0.00009  -0.00003  -0.00011  -0.00002
 212        2S         -0.00026   0.00043   0.00006  -0.00029   0.00068
 213        3S         -0.00060   0.00067  -0.00008   0.00089   0.00130
 214        4PX         0.00003  -0.00000   0.00001  -0.00019   0.00007
 215        4PY         0.00000  -0.00002  -0.00001  -0.00011   0.00002
 216        4PZ        -0.00000  -0.00000  -0.00000   0.00000   0.00000
 217 13  H  1S         -0.00016  -0.00012  -0.00002  -0.00015   0.00017
 218        2S          0.00123   0.00054   0.00007  -0.00063  -0.00091
 219        3S          0.00133   0.00057   0.00125   0.00133  -0.00263
 220        4PX        -0.00002   0.00007  -0.00004  -0.00006   0.00006
 221        4PY         0.00005  -0.00004   0.00001  -0.00046   0.00017
 222        4PZ         0.00000   0.00000   0.00000  -0.00000  -0.00000
 223 14  H  1S         -0.00005  -0.00024   0.00016  -0.00018  -0.00000
 224        2S         -0.00011  -0.00052  -0.00423   0.00127   0.00002
 225        3S          0.00037   0.00177  -0.00009  -0.00041  -0.00001
 226        4PX         0.00006   0.00057   0.00234  -0.00017  -0.00002
 227        4PY         0.00042  -0.00001   0.00033  -0.00003   0.00010
 228        4PZ        -0.00000   0.00000  -0.00000   0.00000   0.00000
                           6         7         8         9        10
                           O         O         O         O         O
     Eigenvalues --   -10.15532 -10.15530 -10.15422 -10.15376  -0.95638
   1 1   C  1S          0.05711   0.11201   0.38301   0.39288  -0.00463
   2        2S          0.04711   0.09232   0.31522   0.32316  -0.00711
   3        2PX         0.00016   0.00049  -0.00019  -0.00021   0.00382
   4        2PY        -0.00015   0.00054  -0.00058   0.00044  -0.00028
   5        2PZ        -0.00000   0.00000   0.00000   0.00000   0.00000
   6        3S          0.00188   0.00348   0.01319   0.01396   0.01854
   7        3PX        -0.00081  -0.00190   0.00064   0.00051   0.00599
   8        3PY         0.00101  -0.00224   0.00233  -0.00137  -0.00084
   9        3PZ         0.00000  -0.00000  -0.00000  -0.00000  -0.00000
  10        4S         -0.00442   0.00822  -0.00629  -0.02312   0.01456
  11        4PX        -0.00138   0.00670  -0.00185  -0.01246  -0.00144
  12        4PY         0.00047  -0.00172   0.00005   0.00550   0.00325
  13        4PZ        -0.00000   0.00000  -0.00000  -0.00000   0.00000
  14        5S         -0.03010   0.03760   0.00432   0.00126   0.01263
  15        5PX        -0.00275   0.00437   0.00253   0.00119  -0.00292
  16        5PY         0.00434  -0.01527  -0.00082   0.00364   0.00893
  17        5PZ         0.00000   0.00000  -0.00000   0.00000  -0.00000
  18        6D 0        0.00014   0.00020  -0.00099  -0.00172  -0.00087
  19        6D+1       -0.00000   0.00000   0.00000   0.00000   0.00000
  20        6D-1        0.00000  -0.00000   0.00000  -0.00000   0.00000
  21        6D+2        0.00068  -0.00061   0.00107  -0.00074   0.00059
  22        6D-2       -0.00020  -0.00145   0.00068  -0.00008  -0.00006
  23 2   C  1S          0.12353  -0.01753   0.38644  -0.38983  -0.00463
  24        2S          0.10184  -0.01443   0.31804  -0.32065  -0.00711
  25        2PX         0.00057  -0.00027  -0.00034   0.00008   0.00360
  26        2PY        -0.00021   0.00038   0.00050   0.00048   0.00132
  27        2PZ        -0.00000   0.00000  -0.00000  -0.00000  -0.00000
  28        3S          0.00390  -0.00045   0.01331  -0.01385   0.01854
  29        3PX        -0.00228   0.00100   0.00125  -0.00010   0.00553
  30        3PY         0.00064  -0.00192  -0.00205  -0.00148   0.00245
  31        3PZ         0.00000   0.00000  -0.00000  -0.00000   0.00000
  32        4S          0.00418  -0.00836  -0.00646   0.02306   0.01456
  33        4PX         0.00418  -0.00444  -0.00184   0.01045  -0.00050
  34        4PY         0.00238  -0.00270  -0.00061   0.00870  -0.00351
  35        4PZ         0.00000  -0.00000   0.00000  -0.00000  -0.00000
  36        5S          0.01323  -0.04630   0.00446  -0.00121   0.01261
  37        5PX        -0.00084  -0.00118   0.00223  -0.00213  -0.00033
  38        5PY         0.01010  -0.01321   0.00150   0.00318  -0.00943
  39        5PZ         0.00000  -0.00000   0.00000  -0.00000   0.00000
  40        6D 0        0.00025  -0.00000  -0.00101   0.00172  -0.00087
  41        6D+1        0.00000  -0.00000   0.00000  -0.00000  -0.00000
  42        6D-1       -0.00000   0.00000   0.00000   0.00000   0.00000
  43        6D+2       -0.00078   0.00113   0.00126   0.00068   0.00046
  44        6D-2        0.00105  -0.00010  -0.00002   0.00032   0.00036
  45 3   C  1S          0.16227   0.52391  -0.10222  -0.07347  -0.01032
  46        2S          0.13360   0.43109  -0.08397  -0.06034  -0.01562
  47        2PX        -0.00009  -0.00011  -0.00052  -0.00040   0.00763
  48        2PY        -0.00004   0.00005  -0.00041  -0.00026  -0.00483
  49        2PZ         0.00000   0.00000   0.00000  -0.00000   0.00000
  50        3S          0.00532   0.01866  -0.00372  -0.00307   0.03957
  51        3PX         0.00043   0.00043   0.00228   0.00150   0.00995
  52        3PY         0.00049  -0.00002   0.00186   0.00072  -0.00637
  53        3PZ        -0.00000   0.00000  -0.00000   0.00000  -0.00000
  54        4S         -0.00220  -0.02339   0.00192   0.01889   0.01395
  55        4PX        -0.00112  -0.00344  -0.00040   0.00210   0.00768
  56        4PY         0.00040   0.01082  -0.00181  -0.01113   0.00482
  57        4PZ         0.00000  -0.00000   0.00000   0.00000  -0.00000
  58        5S          0.00987  -0.08530  -0.01442   0.01080   0.20287
  59        5PX        -0.00028  -0.02334  -0.00236   0.00665   0.05462
  60        5PY        -0.00256   0.00685   0.00168  -0.00105  -0.01362
  61        5PZ        -0.00000  -0.00000  -0.00000  -0.00000   0.00000
  62        6D 0       -0.00047  -0.00153   0.00081   0.00062  -0.00147
  63        6D+1       -0.00000  -0.00000   0.00000  -0.00000  -0.00000
  64        6D-1       -0.00000   0.00000  -0.00000  -0.00000   0.00000
  65        6D+2       -0.00016  -0.00024  -0.00022  -0.00007   0.00163
  66        6D-2       -0.00032  -0.00030  -0.00146  -0.00084  -0.00007
  67 4   C  1S         -0.00361  -0.01328   0.00262   0.00156  -0.04511
  68        2S         -0.00287  -0.01077   0.00220   0.00126  -0.06931
  69        2PX        -0.00026  -0.00070   0.00003   0.00003   0.03457
  70        2PY         0.00001   0.00032  -0.00002   0.00001  -0.00657
  71        2PZ        -0.00000  -0.00000  -0.00000  -0.00000   0.00000
  72        3S         -0.00029  -0.00077  -0.00031   0.00048   0.17712
  73        3PX         0.00115   0.00274   0.00033   0.00007   0.05134
  74        3PY         0.00026  -0.00139   0.00003  -0.00018  -0.00975
  75        3PZ         0.00000  -0.00000   0.00000   0.00000  -0.00000
  76        4S         -0.00235   0.00993  -0.00123  -0.01213   0.06146
  77        4PX        -0.00115  -0.01175  -0.00097   0.01026  -0.00237
  78        4PY         0.00125  -0.00295  -0.00036   0.00360  -0.01217
  79        4PZ        -0.00000   0.00000  -0.00000  -0.00000   0.00000
  80        5S          0.00640   0.04509   0.00501   0.00642  -0.17649
  81        5PX         0.00176  -0.04575  -0.00495   0.00792   0.08694
  82        5PY        -0.00109   0.02126   0.00238  -0.00849  -0.05178
  83        5PZ         0.00000   0.00000   0.00000   0.00000  -0.00000
  84        6D 0        0.00024   0.00066  -0.00012   0.00000  -0.01169
  85        6D+1       -0.00000  -0.00000   0.00000   0.00000  -0.00000
  86        6D-1        0.00000   0.00000  -0.00000  -0.00000  -0.00000
  87        6D+2        0.00004  -0.00124  -0.00006  -0.00010   0.00737
  88        6D-2        0.00037   0.00088   0.00007   0.00008  -0.00007
  89 5   C  1S         -0.01292   0.00475   0.00260  -0.00153  -0.04510
  90        2S         -0.01045   0.00390   0.00219  -0.00123  -0.06930
  91        2PX        -0.00062   0.00014   0.00002  -0.00004   0.03143
  92        2PY        -0.00045   0.00023   0.00003   0.00000   0.01581
  93        2PZ        -0.00000   0.00000   0.00000  -0.00000   0.00000
  94        3S         -0.00080   0.00021  -0.00031  -0.00048   0.17710
  95        3PX         0.00252  -0.00034   0.00033  -0.00002   0.04668
  96        3PY         0.00174  -0.00116   0.00007  -0.00019   0.02347
  97        3PZ         0.00000   0.00000  -0.00000   0.00000   0.00000
  98        4S          0.00675  -0.00766  -0.00130   0.01212   0.06142
  99        4PX        -0.01032   0.00638  -0.00097  -0.01086  -0.00564
 100        4PY        -0.00120  -0.00101   0.00008   0.00064   0.01096
 101        4PZ         0.00000  -0.00000   0.00000   0.00000  -0.00000
 102        5S          0.04046  -0.02086   0.00517  -0.00640  -0.17632
 103        5PX        -0.03030   0.02322  -0.00416  -0.00531   0.06939
 104        5PY        -0.02602   0.02034  -0.00365  -0.01035   0.07371
 105        5PZ        -0.00000  -0.00000  -0.00000  -0.00000   0.00000
 106        6D 0        0.00068  -0.00019  -0.00012  -0.00000  -0.01169
 107        6D+1       -0.00000   0.00000  -0.00000   0.00000  -0.00000
 108        6D-1       -0.00000  -0.00000   0.00000  -0.00000  -0.00000
 109        6D+2       -0.00035   0.00052  -0.00001   0.00004   0.00622
 110        6D-2       -0.00132   0.00058  -0.00010   0.00012   0.00395
 111 6   C  1S          0.52133  -0.17119  -0.10175   0.07221  -0.01032
 112        2S          0.42902  -0.14080  -0.08358   0.05931  -0.01562
 113        2PX        -0.00013  -0.00003  -0.00061   0.00045   0.00601
 114        2PY        -0.00006   0.00006   0.00025  -0.00014   0.00673
 115        2PZ         0.00000   0.00000  -0.00000  -0.00000   0.00000
 116        3S          0.01831  -0.00647  -0.00370   0.00303   0.03957
 117        3PX         0.00065   0.00022   0.00272  -0.00162   0.00782
 118        3PY        -0.00009  -0.00037  -0.00116   0.00028   0.00885
 119        3PZ        -0.00000  -0.00000   0.00000   0.00000  -0.00000
 120        4S         -0.02037   0.01174   0.00202  -0.01886   0.01391
 121        4PX        -0.00084  -0.00059  -0.00089   0.00103   0.00868
 122        4PY        -0.00967   0.00600   0.00170  -0.01126  -0.00253
 123        4PZ        -0.00000   0.00000  -0.00000  -0.00000   0.00000
 124        5S         -0.06384   0.05738  -0.01456  -0.01089   0.20283
 125        5PX        -0.01732   0.01110  -0.00181  -0.00611   0.04882
 126        5PY        -0.00921   0.00946  -0.00228  -0.00285   0.02809
 127        5PZ         0.00000   0.00000   0.00000   0.00000  -0.00000
 128        6D 0       -0.00152   0.00050   0.00081  -0.00061  -0.00147
 129        6D+1        0.00000   0.00000   0.00000  -0.00000   0.00000
 130        6D-1       -0.00000   0.00000  -0.00000   0.00000  -0.00000
 131        6D+2       -0.00047  -0.00004  -0.00096   0.00050   0.00135
 132        6D-2        0.00022   0.00008   0.00113  -0.00067   0.00092
 133 7   N  1S          0.00000   0.00000   0.00000  -0.00000  -0.06043
 134        2S          0.00004   0.00003   0.00002  -0.00001  -0.09450
 135        2PX        -0.00005  -0.00004  -0.00003  -0.00001  -0.00661
 136        2PY        -0.00002   0.00001  -0.00000   0.00000  -0.04760
 137        2PZ         0.00000  -0.00000   0.00000   0.00000  -0.00000
 138        3S         -0.00024  -0.00026  -0.00018   0.00019   0.25481
 139        3PX         0.00023   0.00021   0.00014   0.00003  -0.00991
 140        3PY         0.00014  -0.00001   0.00002  -0.00000  -0.07177
 141        3PZ        -0.00000  -0.00000  -0.00000  -0.00000   0.00000
 142        4S          0.00022   0.00360   0.00077  -0.00342   0.17157
 143        4PX        -0.00020  -0.00097  -0.00050   0.00070  -0.00944
 144        4PY        -0.00049  -0.00078  -0.00024   0.00055  -0.02793
 145        4PZ         0.00000   0.00000   0.00000   0.00000  -0.00000
 146        5S          0.00200   0.00721   0.00167  -0.00471  -0.05026
 147        5PX        -0.00090  -0.00085  -0.00085   0.00056  -0.00017
 148        5PY        -0.00073  -0.00145  -0.00026   0.00159   0.02008
 149        5PZ        -0.00000  -0.00000  -0.00000  -0.00000   0.00000
 150        6D 0        0.00002   0.00002   0.00000  -0.00000  -0.00845
 151        6D+1       -0.00000  -0.00000  -0.00000   0.00000   0.00000
 152        6D-1       -0.00000  -0.00000  -0.00000  -0.00000  -0.00000
 153        6D+2       -0.00010  -0.00014  -0.00003  -0.00001  -0.00274
 154        6D-2       -0.00006  -0.00004  -0.00001   0.00003  -0.00018
 155 8   C  1S          0.00002   0.00001   0.00002   0.00000  -0.05833
 156        2S          0.00005   0.00003   0.00003   0.00000  -0.08946
 157        2PX         0.00003   0.00001  -0.00003   0.00000  -0.04561
 158        2PY         0.00000   0.00001  -0.00000  -0.00001  -0.00637
 159        2PZ         0.00000  -0.00000   0.00000   0.00000   0.00000
 160        3S         -0.00032  -0.00016  -0.00010  -0.00000   0.23137
 161        3PX        -0.00005  -0.00001   0.00013  -0.00001  -0.06795
 162        3PY         0.00003  -0.00007   0.00002   0.00007  -0.00949
 163        3PZ        -0.00000   0.00000  -0.00000  -0.00000  -0.00000
 164        4S          0.00020   0.00011   0.00006   0.00000   0.08954
 165        4PX        -0.00173  -0.00086  -0.00036  -0.00007  -0.00404
 166        4PY        -0.00015  -0.00030  -0.00005   0.00050  -0.00057
 167        4PZ         0.00000   0.00000   0.00000   0.00000   0.00000
 168        5S          0.01912   0.00989   0.00780   0.00002  -0.02375
 169        5PX        -0.00438  -0.00276  -0.00207   0.00006   0.00304
 170        5PY        -0.00209   0.00247  -0.00029  -0.00050   0.00043
 171        5PZ        -0.00000  -0.00000  -0.00000  -0.00000  -0.00000
 172        6D 0       -0.00004  -0.00002  -0.00002  -0.00000  -0.01485
 173        6D+1        0.00000  -0.00000   0.00000  -0.00000   0.00000
 174        6D-1       -0.00000   0.00000  -0.00000  -0.00000  -0.00000
 175        6D+2        0.00010   0.00003   0.00001   0.00001   0.00124
 176        6D-2       -0.00001   0.00008   0.00000  -0.00004   0.00035
 177 9   N  1S          0.00000  -0.00000   0.00000   0.00000  -0.06042
 178        2S          0.00005   0.00001   0.00002   0.00001  -0.09448
 179        2PX        -0.00006  -0.00002  -0.00003   0.00001  -0.01942
 180        2PY        -0.00001   0.00002  -0.00001   0.00000   0.04394
 181        2PZ        -0.00000  -0.00000  -0.00000  -0.00000   0.00000
 182        3S         -0.00035  -0.00004  -0.00017  -0.00019   0.25474
 183        3PX         0.00031   0.00010   0.00015  -0.00003  -0.02922
 184        3PY         0.00002  -0.00010   0.00002  -0.00001   0.06628
 185        3PZ         0.00000   0.00000   0.00000   0.00000  -0.00000
 186        4S          0.00306  -0.00189   0.00075   0.00343   0.17153
 187        4PX        -0.00112   0.00040  -0.00054  -0.00082  -0.01674
 188        4PY         0.00063   0.00006   0.00010   0.00034   0.02427
 189        4PZ        -0.00000  -0.00000  -0.00000  -0.00000   0.00000
 190        5S          0.00704  -0.00254   0.00165   0.00472  -0.05030
 191        5PX        -0.00161  -0.00016  -0.00088  -0.00098   0.00536
 192        5PY         0.00121  -0.00030   0.00001   0.00138  -0.01936
 193        5PZ         0.00000   0.00000   0.00000   0.00000  -0.00000
 194        6D 0        0.00002   0.00001   0.00000   0.00000  -0.00845
 195        6D+1       -0.00000  -0.00000   0.00000  -0.00000   0.00000
 196        6D-1        0.00000  -0.00000  -0.00000   0.00000  -0.00000
 197        6D+2       -0.00018  -0.00001  -0.00003  -0.00001  -0.00242
 198        6D-2       -0.00003   0.00002  -0.00000   0.00003  -0.00129
 199 10  H  1S          0.00003   0.00037  -0.00021  -0.00023   0.00386
 200        2S         -0.00147  -0.00510   0.00041   0.00172   0.00301
 201        3S          0.00089   0.00033   0.00064   0.00258  -0.00415
 202        4PX        -0.00007  -0.00026   0.00009   0.00006   0.00015
 203        4PY         0.00081   0.00220  -0.00004  -0.00020  -0.00095
 204        4PZ        -0.00000  -0.00000  -0.00000   0.00000   0.00000
 205 11  H  1S         -0.00008  -0.00013   0.00016   0.00046   0.00132
 206        2S         -0.00108  -0.00019  -0.00310  -0.00420  -0.00042
 207        3S          0.00109   0.00257   0.00196  -0.00165  -0.00333
 208        4PX        -0.00052  -0.00066  -0.00154  -0.00132   0.00009
 209        4PY         0.00020   0.00016   0.00067   0.00047   0.00003
 210        4PZ         0.00000  -0.00000   0.00000  -0.00000  -0.00000
 211 12  H  1S         -0.00015   0.00001   0.00016  -0.00046   0.00132
 212        2S         -0.00077  -0.00077  -0.00314   0.00418  -0.00042
 213        3S          0.00272  -0.00059   0.00195   0.00166  -0.00333
 214        4PX        -0.00074  -0.00002  -0.00131   0.00113   0.00009
 215        4PY        -0.00046  -0.00008  -0.00107   0.00081   0.00000
 216        4PZ         0.00000   0.00000   0.00000  -0.00000   0.00000
 217 13  H  1S          0.00032  -0.00018  -0.00021   0.00023   0.00386
 218        2S         -0.00501   0.00175   0.00041  -0.00171   0.00301
 219        3S          0.00078   0.00054   0.00066  -0.00257  -0.00415
 220        4PX         0.00038  -0.00008   0.00007   0.00000  -0.00011
 221        4PY        -0.00225   0.00061   0.00006  -0.00021   0.00096
 222        4PZ        -0.00000   0.00000   0.00000  -0.00000  -0.00000
 223 14  H  1S         -0.00011  -0.00006  -0.00003  -0.00000   0.01590
 224        2S          0.00069   0.00035   0.00007  -0.00000   0.01364
 225        3S         -0.00013  -0.00007   0.00012   0.00000   0.00079
 226        4PX        -0.00004  -0.00002   0.00001   0.00000  -0.00269
 227        4PY         0.00000  -0.00002   0.00000  -0.00003  -0.00038
 228        4PZ         0.00000   0.00000   0.00000   0.00000  -0.00000
                          11        12        13        14        15
                           O         O         O         O         O
     Eigenvalues --    -0.81960  -0.81341  -0.71850  -0.70251  -0.59707
   1 1   C  1S         -0.05945   0.00589  -0.03972   0.05455   0.02891
   2        2S         -0.09156   0.00900  -0.06153   0.08450   0.04513
   3        2PX         0.02721  -0.00482   0.02246   0.01034   0.04088
   4        2PY        -0.01151  -0.00618   0.04330   0.02780   0.05513
   5        2PZ         0.00000   0.00000  -0.00000   0.00000   0.00000
   6        3S          0.23620  -0.02300   0.16178  -0.22257  -0.12096
   7        3PX         0.03997  -0.00705   0.03293   0.01392   0.05708
   8        3PY        -0.01766  -0.00879   0.06286   0.04146   0.07789
   9        3PZ        -0.00000  -0.00000  -0.00000  -0.00000   0.00000
  10        4S          0.11184  -0.01939   0.07740  -0.12926  -0.08582
  11        4PX         0.00939  -0.00421   0.00289   0.00479   0.02356
  12        4PY        -0.00557  -0.00704   0.01719   0.01177   0.02806
  13        4PZ         0.00000   0.00000  -0.00000   0.00000  -0.00000
  14        5S          0.02444  -0.01439  -0.15227   0.01370   0.01522
  15        5PX        -0.00588  -0.01702  -0.02985   0.00819   0.01275
  16        5PY         0.01760  -0.04963   0.03208  -0.00077  -0.01428
  17        5PZ        -0.00000  -0.00000   0.00000  -0.00000   0.00000
  18        6D 0       -0.01009   0.00086  -0.00489   0.00626   0.00258
  19        6D+1       -0.00000   0.00000  -0.00000   0.00000  -0.00000
  20        6D-1        0.00000   0.00000  -0.00000  -0.00000  -0.00000
  21        6D+2       -0.00182  -0.00215   0.00511   0.00769   0.00612
  22        6D-2        0.00107  -0.00113   0.01062   0.00164   0.00426
  23 2   C  1S         -0.05946  -0.00580   0.03971   0.05456   0.02893
  24        2S         -0.09157  -0.00886   0.06151   0.08451   0.04516
  25        2PX         0.02301   0.00630  -0.03348   0.01757   0.05443
  26        2PY         0.01853  -0.00464   0.03548  -0.02389  -0.04178
  27        2PZ        -0.00000  -0.00000  -0.00000  -0.00000  -0.00000
  28        3S          0.23622   0.02264  -0.16172  -0.22261  -0.12102
  29        3PX         0.03360   0.00914  -0.04892   0.02475   0.07626
  30        3PY         0.02795  -0.00656   0.05141  -0.03603  -0.05921
  31        3PZ         0.00000   0.00000  -0.00000  -0.00000  -0.00000
  32        4S          0.11190   0.01924  -0.07741  -0.12926  -0.08582
  33        4PX         0.00753   0.00598  -0.00751   0.00785   0.03037
  34        4PY         0.00793  -0.00562   0.01575  -0.01000  -0.02052
  35        4PZ        -0.00000  -0.00000  -0.00000  -0.00000   0.00000
  36        5S          0.02435   0.01432   0.15233   0.01364   0.01535
  37        5PX        -0.00087   0.02998   0.01991   0.00761   0.00836
  38        5PY        -0.01850  -0.04302   0.03901   0.00306   0.01726
  39        5PZ         0.00000   0.00000  -0.00000   0.00000  -0.00000
  40        6D 0       -0.01009  -0.00085   0.00489   0.00626   0.00258
  41        6D+1        0.00000   0.00000  -0.00000  -0.00000   0.00000
  42        6D-1        0.00000  -0.00000   0.00000  -0.00000  -0.00000
  43        6D+2       -0.00098   0.00242  -0.00994   0.00739   0.00744
  44        6D-2       -0.00187   0.00017   0.00632   0.00267  -0.00039
  45 3   C  1S         -0.05203   0.02035  -0.07001  -0.01130  -0.04667
  46        2S         -0.08018   0.03126  -0.10841  -0.01758  -0.07305
  47        2PX        -0.00415  -0.01246  -0.00920   0.05028   0.00764
  48        2PY        -0.02966   0.00245  -0.01418   0.00312   0.01448
  49        2PZ         0.00000  -0.00000   0.00000   0.00000  -0.00000
  50        3S          0.20660  -0.08107   0.28440   0.04606   0.19642
  51        3PX        -0.00561  -0.01690  -0.01115   0.07392   0.01212
  52        3PY        -0.04307   0.00267  -0.02126   0.00450   0.01994
  53        3PZ         0.00000   0.00000  -0.00000   0.00000  -0.00000
  54        4S          0.10744  -0.02267   0.17975   0.03560   0.11649
  55        4PX         0.00058  -0.00808  -0.00318   0.02541  -0.00439
  56        4PY        -0.01393  -0.00777  -0.01603  -0.00341   0.00877
  57        4PZ        -0.00000  -0.00000   0.00000  -0.00000   0.00000
  58        5S          0.36776  -0.04200   0.32866   0.17550  -0.12938
  59        5PX         0.09214  -0.06843   0.06615   0.03710  -0.03638
  60        5PY        -0.03203  -0.01732  -0.02573  -0.01726   0.02303
  61        5PZ         0.00000   0.00000  -0.00000   0.00000  -0.00000
  62        6D 0       -0.00901   0.00270  -0.00870  -0.00182  -0.00467
  63        6D+1       -0.00000   0.00000  -0.00000  -0.00000   0.00000
  64        6D-1        0.00000   0.00000   0.00000   0.00000   0.00000
  65        6D+2        0.00000  -0.00483   0.00260   0.00356   0.00087
  66        6D-2        0.00161  -0.00142   0.00104  -0.01186  -0.00271
  67 4   C  1S         -0.02996   0.04023  -0.01858  -0.05501   0.01645
  68        2S         -0.04619   0.06210  -0.02877  -0.08537   0.02581
  69        2PX        -0.03922  -0.02868  -0.04878  -0.01431  -0.06927
  70        2PY        -0.01024  -0.03653   0.01373  -0.01955   0.02684
  71        2PZ         0.00000   0.00000  -0.00000   0.00000  -0.00000
  72        3S          0.11992  -0.16273   0.07678   0.22908  -0.07214
  73        3PX        -0.05592  -0.04332  -0.06949  -0.01754  -0.09818
  74        3PY        -0.01526  -0.05735   0.02113  -0.02892   0.03677
  75        3PZ         0.00000  -0.00000   0.00000  -0.00000   0.00000
  76        4S          0.06113  -0.08843   0.03667   0.12362  -0.03504
  77        4PX        -0.00696   0.01423   0.00346   0.00079  -0.04530
  78        4PY        -0.00393   0.00609   0.01233  -0.01313   0.02440
  79        4PZ         0.00000   0.00000  -0.00000   0.00000  -0.00000
  80        5S         -0.27352  -0.24671  -0.18070  -0.13581   0.12003
  81        5PX         0.18396  -0.10210   0.15550   0.08941  -0.02425
  82        5PY        -0.06407   0.12271  -0.05778  -0.02066   0.02326
  83        5PZ        -0.00000  -0.00000   0.00000  -0.00000   0.00000
  84        6D 0       -0.00492   0.00766  -0.00177  -0.00638   0.00305
  85        6D+1       -0.00000   0.00000  -0.00000  -0.00000  -0.00000
  86        6D-1       -0.00000  -0.00000   0.00000  -0.00000   0.00000
  87        6D+2       -0.00071  -0.01567   0.00471  -0.00729   0.00262
  88        6D-2       -0.00056  -0.00968  -0.00883  -0.00198  -0.00238
  89 5   C  1S         -0.03002  -0.04020   0.01859  -0.05500   0.01644
  90        2S         -0.04628  -0.06205   0.02879  -0.08536   0.02580
  91        2PX        -0.04047   0.03766   0.04314  -0.01913  -0.05924
  92        2PY        -0.00096  -0.02726   0.02660   0.01488  -0.04483
  93        2PZ         0.00000   0.00000  -0.00000   0.00000  -0.00000
  94        3S          0.12016   0.16259  -0.07682   0.22905  -0.07210
  95        3PX        -0.05788   0.05748   0.06104  -0.02480  -0.08431
  96        3PY        -0.00074  -0.04326   0.03939   0.02301  -0.06231
  97        3PZ         0.00000   0.00000   0.00000   0.00000  -0.00000
  98        4S          0.06122   0.08842  -0.03665   0.12356  -0.03504
  99        4PX        -0.00779  -0.01535  -0.00671  -0.00287  -0.03682
 100        4PY         0.00186   0.00192   0.01090   0.01280  -0.03589
 101        4PZ        -0.00000  -0.00000   0.00000  -0.00000   0.00000
 102        5S         -0.27368   0.24701   0.18058  -0.13640   0.12038
 103        5PX         0.15939   0.06429  -0.13364   0.08032  -0.01706
 104        5PY         0.11206   0.14590  -0.09819   0.04417  -0.02911
 105        5PZ         0.00000   0.00000  -0.00000   0.00000  -0.00000
 106        6D 0       -0.00493  -0.00765   0.00177  -0.00638   0.00305
 107        6D+1       -0.00000  -0.00000   0.00000  -0.00000  -0.00000
 108        6D-1       -0.00000  -0.00000   0.00000  -0.00000   0.00000
 109        6D+2       -0.00088   0.01842   0.00067  -0.00724   0.00097
 110        6D-2        0.00010   0.00005  -0.00999  -0.00216   0.00341
 111 6   C  1S         -0.05205  -0.02028   0.07002  -0.01128  -0.04667
 112        2S         -0.08022  -0.03115   0.10842  -0.01755  -0.07305
 113        2PX        -0.01211   0.01133   0.01272   0.04921   0.01134
 114        2PY         0.02739   0.00573  -0.01112   0.01080  -0.01183
 115        2PZ         0.00000  -0.00000  -0.00000   0.00000  -0.00000
 116        3S          0.20671   0.08079  -0.28442   0.04599   0.19641
 117        3PX        -0.01719   0.01555   0.01654   0.07232   0.01716
 118        3PY         0.03989   0.00715  -0.01738   0.01596  -0.01585
 119        3PZ        -0.00000  -0.00000   0.00000  -0.00000  -0.00000
 120        4S          0.10746   0.02248  -0.17978   0.03553   0.11650
 121        4PX        -0.00322   0.00992   0.00741   0.02350  -0.00175
 122        4PY         0.01354  -0.00530  -0.01454   0.01023  -0.00963
 123        4PZ         0.00000   0.00000   0.00000   0.00000  -0.00000
 124        5S          0.36795   0.04160  -0.32858   0.17561  -0.12974
 125        5PX         0.07976   0.07045  -0.05649   0.03083  -0.02872
 126        5PY         0.05610   0.00206  -0.04288   0.02680  -0.03219
 127        5PZ        -0.00000  -0.00000   0.00000  -0.00000   0.00000
 128        6D 0       -0.00901  -0.00269   0.00870  -0.00182  -0.00467
 129        6D+1        0.00000   0.00000  -0.00000  -0.00000   0.00000
 130        6D-1       -0.00000  -0.00000   0.00000   0.00000  -0.00000
 131        6D+2        0.00086   0.00485  -0.00276  -0.00324  -0.00070
 132        6D-2       -0.00137   0.00134  -0.00049   0.01195   0.00276
 133 7   N  1S          0.01654   0.07430   0.02653   0.01277   0.00454
 134        2S          0.02608   0.11681   0.04193   0.02019   0.00725
 135        2PX        -0.01361   0.01636  -0.01130  -0.04926   0.05960
 136        2PY         0.01466   0.03427   0.01546   0.01380   0.00755
 137        2PZ        -0.00000  -0.00000   0.00000   0.00000  -0.00000
 138        3S         -0.07230  -0.32152  -0.11650  -0.05740  -0.01984
 139        3PX        -0.01931   0.02527  -0.01580  -0.07271   0.08751
 140        3PY         0.02198   0.05079   0.02386   0.01993   0.01168
 141        3PZ         0.00000   0.00000  -0.00000   0.00000  -0.00000
 142        4S         -0.04822  -0.24077  -0.10303  -0.03769  -0.02289
 143        4PX        -0.00738   0.01448  -0.00522  -0.03031   0.04261
 144        4PY         0.00887   0.02050   0.01309   0.00708   0.00864
 145        4PZ        -0.00000  -0.00000   0.00000  -0.00000   0.00000
 146        5S         -0.01581   0.05857  -0.01203  -0.01041   0.00350
 147        5PX         0.01226  -0.01026   0.00266   0.01081  -0.00229
 148        5PY         0.00221  -0.01631  -0.00087  -0.00040  -0.00688
 149        5PZ         0.00000   0.00000  -0.00000   0.00000  -0.00000
 150        6D 0        0.00182   0.00618   0.00197   0.00025   0.00164
 151        6D+1       -0.00000   0.00000  -0.00000  -0.00000   0.00000
 152        6D-1        0.00000   0.00000   0.00000   0.00000  -0.00000
 153        6D+2        0.00226  -0.00417   0.00112   0.00356   0.00151
 154        6D-2        0.00285  -0.00081   0.00116   0.01023  -0.01223
 155 8   C  1S          0.02664  -0.00002  -0.00001   0.05201  -0.05426
 156        2S          0.04106  -0.00003  -0.00001   0.08062  -0.08458
 157        2PX         0.01227   0.01141   0.00622  -0.00157   0.05223
 158        2PY         0.00165  -0.08160  -0.04443  -0.00023   0.00732
 159        2PZ         0.00000  -0.00000  -0.00000  -0.00000  -0.00000
 160        3S         -0.10921   0.00008   0.00002  -0.21974   0.23350
 161        3PX         0.01924   0.01603   0.00853   0.00027   0.07159
 162        3PY         0.00261  -0.11462  -0.06095   0.00003   0.01004
 163        3PZ         0.00000   0.00000   0.00000   0.00000  -0.00000
 164        4S         -0.04971   0.00006   0.00002  -0.12712   0.16706
 165        4PX         0.00989   0.00257   0.00123   0.00971   0.01572
 166        4PY         0.00138  -0.01834  -0.00872   0.00138   0.00219
 167        4PZ        -0.00000  -0.00000  -0.00000  -0.00000   0.00000
 168        5S         -0.22396   0.00018  -0.00001  -0.10371  -0.00773
 169        5PX         0.05257  -0.00139   0.00223   0.01839   0.01134
 170        5PY         0.00736   0.00965  -0.01590   0.00257   0.00159
 171        5PZ        -0.00000   0.00000  -0.00000   0.00000  -0.00000
 172        6D 0        0.00488  -0.00000  -0.00000   0.00622  -0.00307
 173        6D+1       -0.00000  -0.00000  -0.00000  -0.00000   0.00000
 174        6D-1        0.00000   0.00000  -0.00000   0.00000  -0.00000
 175        6D+2        0.00261  -0.00694  -0.00268   0.00777  -0.00818
 176        6D-2        0.00076   0.02429   0.00937   0.00222  -0.00234
 177 9   N  1S          0.01643  -0.07433  -0.02654   0.01276   0.00455
 178        2S          0.02590  -0.11687  -0.04194   0.02019   0.00726
 179        2PX        -0.00910  -0.02513   0.00663  -0.04357   0.05936
 180        2PY        -0.01778   0.02849   0.01797  -0.02679   0.00909
 181        2PZ         0.00000   0.00000   0.00000   0.00000  -0.00000
[...]
   Y11        0.72463   0.00000   0.00000  -0.00006  -0.00005   0.72457
   Z11       -0.00000   0.00000   0.00000   0.00000   0.00000   0.00000
   X12      -13.58672  -0.00001   0.00000  -0.00010  -0.00008 -13.58680
   Y12       -3.89805  -0.00000   0.00000   0.00003   0.00004  -3.89801
   Z12        0.00000  -0.00000   0.00000  -0.00000  -0.00000  -0.00000
   X13       -9.26350  -0.00001   0.00000  -0.00026  -0.00024  -9.26374
   Y13       -5.73181  -0.00000   0.00000  -0.00006  -0.00005  -5.73186
   Z13       -0.00000   0.00000   0.00000   0.00000   0.00000   0.00000
   X14       -1.85743   0.00002   0.00000   0.00019   0.00022  -1.85721
   Y14        0.09953   0.00000   0.00000   0.00004   0.00004   0.09957
   Z14       -0.00000   0.00000   0.00000   0.00000   0.00000   0.00000
         Item               Value     Threshold  Converged?
 Maximum Force            0.000114     0.000450     YES
 RMS     Force            0.000035     0.000300     YES
 Maximum Displacement     0.000278     0.001800     YES
 RMS     Displacement     0.000093     0.001200     YES
 Predicted change in Energy=-4.302339D-08
 Optimization completed.
    -- Stationary point found.
 GradGradGradGradGradGradGradGradGradGradGradGradGradGradGradGradGradGrad

 Leave Link  103 at Fri Jun  2 11:44:19 2023, MaxMem=  7381975040 cpu:               3.3 elap:               5.9
 (Enter /software/commercial/gaussian/g16/AVX/g16/l9999.exe)

 ----------------------------------------------------------------------

 Electric dipole moment (input orientation):
 (Debye = 10**-18 statcoulomb cm , SI units = C m)
                  (au)            (Debye)         (10**-30 SI)
   Tot        0.627603D+01      0.159521D+02      0.532104D+02
   x          0.625472D+01      0.158979D+02      0.530297D+02
   y          0.516778D+00      0.131352D+01      0.438143D+01
   z          0.000000D+00      0.000000D+00      0.000000D+00

 Dipole polarizability, Alpha (input orientation).
 (esu units = cm**3 , SI units = C**2 m**2 J**-1)
 Alpha(0;0):
               (au)            (10**-24 esu)      (10**-40 SI)
   iso        0.144360D+03      0.213919D+02      0.238017D+02
   aniso      0.100938D+03      0.149574D+02      0.166423D+02
   xx         0.197063D+03      0.292017D+02      0.324913D+02
   yx         0.614736D+01      0.910945D+00      0.101356D+01
   yy         0.153717D+03      0.227785D+02      0.253445D+02
   zx         0.000000D+00      0.000000D+00      0.000000D+00
   zy         0.000000D+00      0.000000D+00      0.000000D+00
   zz         0.822994D+02      0.121955D+02      0.135693D+02

 First dipole hyperpolarizability, Beta (input orientation).
 ||, _|_  parallel and perpendicular components, (z) with respect to z axis,
 vector components x,y,z.  Values do not include the 1/n! factor of 1/2.
 (esu units = statvolt**-1 cm**4 , SI units = C**3 m**3 J**-2)
 Beta(0;0,0):
               (au)            (10**-30 esu)      (10**-50 SI)
   || (z)     0.000000D+00      0.000000D+00      0.000000D+00
   _|_(z)     0.000000D+00      0.000000D+00      0.000000D+00
   x         -0.137257D+04     -0.118579D+02     -0.440094D+01
   y         -0.187752D+03     -0.162203D+01     -0.602000D+00
   z          0.000000D+00      0.000000D+00      0.000000D+00
   ||         0.277070D+03      0.239367D+01      0.888385D+00
   xxx       -0.413022D+03     -0.356819D+01     -0.132430D+01
   xxy       -0.835837D+02     -0.722098D+00     -0.268000D+00
   yxy        0.804132D+02      0.694708D+00      0.257834D+00
   yyy        0.380285D+02      0.328536D+00      0.121933D+00
   xxz        0.000000D+00      0.000000D+00      0.000000D+00
   yxz        0.000000D+00      0.000000D+00      0.000000D+00
   yyz        0.000000D+00      0.000000D+00      0.000000D+00
   zxz       -0.124913D+03     -0.107915D+01     -0.400517D+00
   zyz       -0.170287D+02     -0.147114D+00     -0.546000D-01
   zzz        0.000000D+00      0.000000D+00      0.000000D+00

 ----------------------------------------------------------------------

 Dipole orientation:
     6         -0.08211358          0.99384480        -12.28184492
     6          0.13724819         -1.66115516        -12.13098176
     6         -0.20463996          2.47681768        -10.11202903
     6         -0.10480881          1.26853190         -7.75444997
     6          0.11771013         -1.42468027         -7.60140472
     6          0.23882505         -2.89056981         -9.80701199
     7         -0.18424185          2.22993332         -5.33341788
     6         -0.01121879          0.13578436         -3.88999905
     7          0.17413862         -2.10765090         -5.08685221
     1         -0.37324787          4.51752872        -10.24074342
     1         -0.15596873          1.88773547        -14.12541859
     1          0.22776152         -2.75666469        -13.86155032
     1          0.40755544         -4.93276338         -9.70400519
     1         -0.02076129          0.25127996         -1.84292724

 Electric dipole moment (dipole orientation):
 (Debye = 10**-18 statcoulomb cm , SI units = C m)
                  (au)            (Debye)         (10**-30 SI)
   Tot        0.627603D+01      0.159521D+02      0.532104D+02
   x          0.000000D+00      0.000000D+00      0.000000D+00
   y          0.000000D+00      0.000000D+00      0.000000D+00
   z          0.627603D+01      0.159521D+02      0.532104D+02

 Dipole polarizability, Alpha (dipole orientation).
 (esu units = cm**3 , SI units = C**2 m**2 J**-1)
 Alpha(0;0):
               (au)            (10**-24 esu)      (10**-40 SI)
   iso        0.144360D+03      0.213919D+02      0.238017D+02
   aniso      0.100938D+03      0.149574D+02      0.166423D+02
   xx         0.827787D+02      0.122665D+02      0.136484D+02
   yx        -0.580199D+01     -0.859766D+00     -0.956618D+00
   yy         0.152523D+03      0.226015D+02      0.251476D+02
   zx        -0.206426D+00     -0.305892D-01     -0.340351D-01
   zy         0.249844D+01      0.370230D+00      0.411936D+00
   zz         0.197778D+03      0.293077D+02      0.326092D+02

 First dipole hyperpolarizability, Beta (dipole orientation).
 ||, _|_  parallel and perpendicular components, (z) with respect to z axis,
 vector components x,y,z.  Values do not include the 1/n! factor of 1/2.
 (esu units = statvolt**-1 cm**4 , SI units = C**3 m**3 J**-2)
 Beta(0;0,0):
               (au)            (10**-30 esu)      (10**-50 SI)
   || (z)    -0.276673D+03     -0.239024D+01     -0.887114D+00
   _|_(z)    -0.922243D+02     -0.796746D+00     -0.295705D+00
   x          0.610110D+01      0.527087D-01      0.195623D-01
   y         -0.738434D+02     -0.637949D+00     -0.236769D+00
   z         -0.138337D+04     -0.119512D+02     -0.443557D+01
   ||         0.277070D+03      0.239367D+01      0.888385D+00
   xxx        0.163105D+01      0.140910D-01      0.522973D-02
   xxy       -0.641591D+01     -0.554285D-01     -0.205717D-01
   yxy       -0.243503D+01     -0.210367D-01     -0.780758D-02
   yyy        0.161467D+02      0.139495D+00      0.517721D-01
   xxz       -0.124411D+03     -0.107481D+01     -0.398906D+00
   yxz       -0.179178D+02     -0.154796D+00     -0.574511D-01
   yyz        0.909738D+02      0.785942D+00      0.291695D+00
   zxz        0.283768D+01      0.245153D-01      0.909862D-02
   zyz       -0.343452D+02     -0.296716D+00     -0.110123D+00
   zzz       -0.427685D+03     -0.369486D+01     -0.137131D+01

 ----------------------------------------------------------------------
 Unable to Open any file for archive entry.
 1\1\GINC-NODE1935\Freq\RB3LYP\6-311+G(d,p)\C7H5N2(1-)\SVICCHI\02-Jun-2
 023\0\\#p freq=raman scale=0.967 pop=(nbo,full,hirshfeld) guess=read g
 eom=allcheck b3lyp/6-311+G(d,p) int=grid=ultrafine EmpiricalDispersion
 =GD3BJ SCRF=(Solvent=ethanol) scf=(xqc,intrep,maxconventionalcycle=350
 ) nosymm\\benzim-isolated.gjf\\-1,1\C,-6.5206546322,-0.00924024,0.\C,-
 6.3250111406,-1.407632108,0.\C,-5.4411748356,0.8700612086,0.\C,-4.1450
 059164,0.3333913601,0.\C,-3.9465409326,-1.0851264629,0.\C,-5.045643309
 4,-1.9569473397,0.\N,-2.9102356513,0.9476353864,0.\C,-2.0574452598,-0.
 0976460239,0.\N,-2.5905550174,-1.3369716569,0.\H,-5.5982797183,1.94435
 04762,0.\H,-7.5320013781,0.3834557824,0.\H,-7.1897811658,-2.0627573349
 ,0.\H,-4.9020312801,-3.0331412937,0.\H,-0.9829097625,0.0526692462,0.\\
 Version=ES64L-G16RevC.01\HF=-379.5220295\RMSD=2.588e-09\RMSF=3.522e-05
 \ZeroPoint=0.1011761\Thermal=0.1071274\ETot=-379.4149021\HTot=-379.413
 9579\GTot=-379.4509474\Dipole=-1.9733155,-0.275036,0.\DipoleDeriv=-0.2
 421965,0.005738,0.,-0.199139,0.0255123,0.,0.,0.,-0.2762006,-0.273087,-
 0.0908054,0.,0.1139427,0.0575536,0.,0.,0.,-0.276002,0.3180438,-0.06940
 85,0.,0.0623328,0.0941204,0.,0.,0.,-0.2289361,0.4420108,0.2400263,0.,0
 .8866217,0.0297399,0.,0.,0.,0.0264883,0.7082192,-0.0494023,0.,-0.69419
 66,-0.232773,0.,0.,0.,0.0248274,0.2986333,0.1276205,0.,-0.0046584,0.10
 95515,0.,0.,0.,-0.2284496,-1.0899259,0.239398,0.,-0.1618269,-1.0432119
 ,0.,0.,0.,-0.4300179,0.2610731,-0.1521194,0.,-0.1552688,1.3316486,0.,0
 .,0.,-0.1035403,-1.0637076,-0.2413888,0.,0.1579911,-1.0692041,0.,0.,0.
 ,-0.4312937,0.0725133,0.0356878,0.,0.073051,-0.1937326,0.,0.,0.,0.1860
 867,-0.1825376,0.0970708,0.,0.1007025,0.0449935,0.,0.,0.,0.1965946,-0.
 1129112,-0.1417955,0.,-0.1455684,-0.0240068,0.,0.,0.,0.1975426,0.08146
 56,0.0409145,0.,0.0061637,-0.2027911,0.,0.,0.,0.1861842,-0.2175933,-0.
 041536,0.,-0.0401474,0.0725998,0.,0.,0.,0.1567163\Polar=197.0629261,6.
 1473647,153.7169355,0.,0.,82.2993661\PolarDeriv=-8.5052933,5.1856669,-
 6.5615722,0.,0.,-6.203008,12.1755884,4.9648177,-14.900125,0.,0.,2.1548
 54,0.,0.,0.,-9.9676851,1.9169371,0.,-1.955017,-3.8974938,-13.2795546,0
 .,0.,-5.4288452,-14.0283414,-4.2622449,12.1775932,0.,0.,-3.8007493,0.,
 0.,0.,-9.0851271,-4.6018731,0.,6.1260371,-3.8773348,8.1631181,0.,0.,1.
 2127328,6.0555296,-0.9459686,3.7673037,0.,0.,5.9721035,0.,0.,0.,-2.941
 4138,7.8559735,0.,9.5147278,4.9284937,-2.8475568,0.,0.,2.5621116,36.45
 19856,7.0511779,4.0454139,0.,0.,2.0188915,0.,0.,0.,1.4015457,4.0372249
 ,0.,21.1259919,-0.1632807,-3.6357466,0.,0.,2.946966,-33.2326109,-2.771
 3833,-3.7011831,0.,0.,-1.2232639,0.,0.,0.,2.5028959,-3.5414129,0.,5.59
 78206,3.0665895,10.8409526,0.,0.,2.8788637,-4.0541925,-0.6231072,-1.75
 57948,0.,0.,-5.4209593,0.,0.,0.,-0.6697237,-8.3620981,0.,-23.2710346,-
 6.3039241,-1.8747852,0.,0.,-2.7348665,3.3334703,10.572145,9.7593654,0.
 ,0.,2.7308758,0.,0.,0.,1.4872689,4.2751552,0.,23.2352187,3.2795691,13.
 9966097,0.,0.,6.597938,7.2775087,-13.5569861,-2.0312901,0.,0.,0.895056
 5,0.,0.,0.,11.0452386,1.5745478,0.,-21.7550955,-3.2102528,1.0480688,0.
 ,0.,-1.8882897,-15.8753094,10.2167908,-3.5876328,0.,0.,-3.3477713,0.,0
 .,0.,2.6627832,-3.7037502,0.,-0.8848205,2.5021575,-1.7529349,0.,0.,-0.
 0364251,2.1133053,-4.1559852,17.9730922,0.,0.,0.4784418,0.,0.,0.,0.453
 7768,-0.801477,0.,-17.528858,4.8053463,-2.3003351,0.,0.,-0.1458774,5.5
 822962,-3.6257848,1.7788734,0.,0.,0.1109431,0.,0.,0.,1.9691564,-0.1396
 689,0.,-12.5303262,-6.7020595,-4.6944866,0.,0.,-0.1156415,-6.8208902,-
 6.0280091,-5.3457678,0.,0.,-0.138079,0.,0.,0.,1.957654,0.7393295,0.,0.
 6440304,-2.0226754,2.2521698,0.,0.,0.1113347,-0.9522612,0.1631752,-19.
 0221582,0.,0.,-0.4690416,0.,0.,0.,0.2141559,0.8971094,0.,20.1866187,2.
 409198,0.646053,0.,0.,0.2430066,1.9739217,3.0013627,0.8423098,0.,0.,0.
 0386982,0.,0.,0.,-1.0305257,-0.1459971,0.\HyperPolar=-413.0221452,-83.
 5837416,80.4132227,38.0284581,0.0000003,0.,0.,-124.9131676,-17.0286522
 ,0.\Quadrupole=-24.6146119,10.0661312,14.5484807,-2.6358992,0.,0.\PG=C
 S [SG(C7H5N2)]\NImag=0\\0.71674490,-0.01429462,0.63198798,0.,0.,0.1244
 7738,-0.12167625,-0.00384717,0.,0.70288964,0.05153912,-0.28849808,0.,0
 .03445978,0.64536870,0.,0.,-0.06035799,0.,0.,0.12474658,-0.25026851,-0
 .08159930,0.,0.03087054,-0.05696297,0.,0.64400997,-0.13344052,-0.21022
 177,0.,-0.01683817,-0.04289682,0.,-0.00127280,0.72611247,0.,0.,-0.0567
 1072,0.,0.,0.00674954,0.,0.,0.12514493,-0.06246479,-0.03556702,0.,-0.0
 1404062,0.03342026,0.,-0.26756312,0.09720510,0.,0.76889767,-0.00464110
 ,0.04756453,0.,0.02120521,-0.02962080,0.,0.06827511,-0.16434512,0.,-0.
 07693316,0.57814807,0.,0.,0.00393484,0.,0.,-0.00281535,0.,0.,-0.055030
 53,0.,0.,0.15519944,-0.00093864,-0.02527706,0.,-0.06480631,0.00353213,
 0.,0.00869707,0.03311023,0.,-0.09776895,0.03452184,0.,0.71393984,-0.01
 303956,-0.04278635,0.,-0.02738906,0.04989545,0.,0.05293021,-0.00303196
 ,0.,0.00104659,-0.22233302,0.,0.11544865,0.63376481,0.,0.,-0.00280252,
 0.,0.,0.00393712,0.,0.,0.00018104,0.,0.,-0.08234643,0.,0.,0.15487700,0
 .00581523,0.07086250,0.,-0.30421010,0.05478182,0.,-0.04209885,-0.01376
 080,0.,0.03051209,-0.04337420,0.,-0.21588343,-0.08283391,0.,0.64956782
 ,0.03076173,-0.01792870,0.,0.10660138,-0.15595244,0.,0.00215834,-0.001
 48330,0.,-0.02352658,-0.02475760,0.,-0.11168862,-0.21639238,0.,-0.0205
 9616,0.72117225,0.,0.,0.00677773,0.,0.,-0.05705029,0.,0.,0.00053419,0.
 ,0.,0.00013956,0.,0.,-0.05472265,0.,0.,0.12542182,0.01128372,0.0149189
 3,0.,-0.00408205,-0.01072470,0.,-0.05487941,-0.01474072,0.,-0.19789298
 ,-0.09615311,0.,-0.02656614,-0.05171169,0.,0.00616929,0.00079971,0.,0.
 45704418,0.00401818,0.00253706,0.,0.00414338,-0.00353464,0.,0.00778724
 ,0.01861912,0.,-0.05773540,-0.14943407,0.,-0.00586196,-0.04999125,0.,-
 0.00256993,-0.00634274,0.,-0.02209307,0.50059587,0.,0.,0.00578962,0.,0
 .,-0.00157472,0.,0.,-0.00321694,0.,0.,-0.06908836,0.,0.,0.01679672,0.,
 0.,0.00329333,0.,0.,0.09473338,-0.00689356,-0.00912185,0.,-0.00639136,
 0.00729562,0.,0.01033821,-0.00529597,0.,-0.11356217,0.01499925,0.,-0.0
 8519562,-0.04317502,0.,0.00280374,0.00687309,0.,-0.18397734,0.09433069
 ,0.,0.83911056,0.00907050,0.00001895,0.,-0.01090015,-0.00050216,0.,-0.
 01948145,-0.00273012,0.,0.05633329,0.01349269,0.,-0.08445257,-0.014944
 92,0.,0.02104807,0.00479418,0.,0.10946389,-0.22658721,0.,0.03836952,0.
 56535241,0.,0.,0.00089015,0.,0.,0.00088954,0.,0.,0.00497249,0.,0.,0.00
 965030,0.,0.,0.00960971,0.,0.,0.00498379,0.,0.,-0.07503347,0.,0.,0.155
 11499,-0.00577390,0.01010712,0.,0.01564300,-0.01118487,0.,0.00475611,0
 .00236204,0.,-0.04349388,0.05352132,0.,-0.23489070,0.07177882,0.,-0.05
 139759,-0.00527452,0.,0.00922470,-0.01641517,0.,-0.13452000,-0.0823791
 7,0.,0.44982064,-0.00477532,-0.00184492,0.,-0.00028203,-0.00179640,0.,
 0.00573719,-0.00492512,0.,0.00767502,-0.03310051,0.,0.03334960,-0.1125
 8691,0.,-0.02771581,0.01440476,0.,0.04553665,-0.09257487,0.,-0.0671232
 2,-0.27697738,0.,0.00679348,0.50946767,0.,0.,-0.00157440,0.,0.,0.00578
 600,0.,0.,0.00330294,0.,0.,0.01680072,0.,0.,-0.06906162,0.,0.,-0.00344
 156,0.,0.,0.03274684,0.,0.,-0.07422844,0.,0.,0.09404013,0.00798260,-0.
 02463714,0.,-0.00325289,-0.00255088,0.,-0.06479132,0.04117517,0.,0.002
 45144,0.02974613,0.,-0.00416966,-0.00003650,0.,-0.00124968,-0.00012675
 ,0.,0.00221464,-0.00177562,0.,0.00042754,0.00032646,0.,-0.00146208,0.0
 0190747,0.,0.06045885,0.00592493,-0.01497731,0.,-0.00402676,0.00054116
 ,0.,0.03988118,-0.32206152,0.,-0.00108231,-0.01014922,0.,0.00108691,0.
 00182688,0.,0.00050364,0.00038612,0.,0.00007264,0.00136187,0.,0.000396
 39,-0.00021813,0.,0.00070225,-0.00062802,0.,-0.04354908,0.34407080,0.,
 0.,0.00245399,0.,0.,0.00744173,0.,0.,-0.03353769,0.,0.,0.00436612,0.,0
 .,0.00675884,0.,0.,-0.00106330,0.,0.,-0.00337326,0.,0.,-0.00068945,0.,
 0.,-0.00043490,0.,0.,0.02308361,-0.29483204,0.09208247,0.,-0.00112464,
 -0.00120419,0.,-0.01873481,0.01155264,0.,-0.00083866,-0.00419258,0.,0.
 00038336,-0.00067698,0.,0.00175640,0.00075391,0.,-0.00128150,0.0010717
 0,0.,-0.00051650,-0.00073673,0.,-0.00006986,0.00036899,0.,0.00111530,-
 0.00025003,0.,0.31368981,0.09245033,-0.09348665,0.,0.03015612,-0.00681
 216,0.,-0.01983552,0.01024225,0.,-0.00293924,-0.00252932,0.,-0.0008883
 1,-0.00067542,0.,-0.00064254,-0.00540050,0.,-0.00051119,0.00084409,0.,
 -0.00028245,-0.00017004,0.,0.00025830,0.00025695,0.,0.00072636,0.00101
 503,0.,-0.09932255,0.09599244,0.,0.,-0.03116776,0.,0.,0.00127839,0.,0.
 ,0.00193096,0.,0.,0.00686241,0.,0.,-0.00080929,0.,0.,0.00536421,0.,0.,
 0.00145605,0.,0.,-0.00064224,0.,0.,0.00000642,0.,0.,-0.00459930,0.,0.,
 0.02367192,0.00607111,0.00488714,0.,-0.23098155,-0.13132888,0.,0.00124
 671,0.00114602,0.,-0.00011173,0.00083510,0.,-0.00284478,0.00409695,0.,
 -0.01874674,-0.01983230,0.,0.00012147,-0.00040554,0.,-0.00075850,0.000
 56638,0.,-0.00097511,-0.00158781,0.,0.00013359,0.00021201,0.,0.0008040
 4,-0.00055876,0.,0.24490626,-0.02646668,-0.01403072,0.,-0.13171095,-0.
 15735410,0.,0.00253840,-0.00488399,0.,0.00104334,-0.00018955,0.,0.0028
 4901,-0.00052483,0.,0.01156654,0.01026796,0.,-0.00029152,0.00006976,0.
 ,0.00011433,0.00007211,0.,-0.00000670,0.00053727,0.,-0.00123545,-0.000
 93967,0.,0.00044029,0.00120738,0.,0.14182710,0.16480314,0.,0.,0.001289
 77,0.,0.,-0.03104220,0.,0.,0.00536328,0.,0.,-0.00080884,0.,0.,0.006858
 15,0.,0.,0.00194257,0.,0.,0.00000623,0.,0.,-0.00064185,0.,0.,0.0014558
 0,0.,0.,0.00051639,0.,0.,-0.00350406,0.,0.,0.02352627,-0.00469950,0.00
 105385,0.,0.00130351,0.02930899,0.,-0.00102551,-0.00028046,0.,-0.00344
 349,-0.00146917,0.,0.00904037,-0.02416876,0.,-0.06258686,0.03271638,0.
 ,-0.00070579,-0.00194686,0.,0.00057759,-0.00008883,0.,0.00185708,0.001
 73555,0.,0.00017909,0.00001792,0.,-0.00021676,0.00144017,0.,0.00123357
 ,-0.00066063,0.,0.05851169,0.00253155,0.00198337,0.,-0.00126719,-0.008
 30661,0.,-0.00090514,0.00016768,0.,-0.00259681,0.00109865,0.,0.0065427
 6,-0.01669357,0.,0.03402475,-0.32409603,0.,-0.00072137,-0.00138465,0.,
 -0.00016727,-0.00035580,0.,-0.00001483,0.00187380,0.,0.00009201,-0.000
 20900,0.,-0.00000507,-0.00058914,0.,0.00031757,0.00089560,0.,-0.037718
 35,0.34564795,0.,0.,0.00743876,0.,0.,0.00245080,0.,0.,-0.00106385,0.,0
 .,0.00675974,0.,0.,0.00435399,0.,0.,-0.03356075,0.,0.,-0.00043541,0.,0
 .,-0.00068776,0.,0.,-0.00330384,0.,0.,-0.00126380,0.,0.,0.00051669,0.,
 0.,-0.00459716,0.,0.,0.02305154,-0.00035038,0.00043215,0.,-0.00014091,
 -0.00038122,0.,-0.00055708,-0.00092178,0.,-0.00068080,0.00365936,0.,0.
 00100359,-0.00226974,0.,-0.00045132,0.00038039,0.,-0.01667280,-0.00254
 764,0.,-0.32144260,-0.03713922,0.,-0.00871842,-0.00161974,0.,-0.000037
 43,0.00011031,0.,-0.00013415,-0.00005073,0.,-0.00009833,-0.00000709,0.
 ,-0.00002500,-0.00011261,0.,0.34830562,0.00036146,-0.00031738,0.,-0.00
 030440,-0.00053111,0.,0.00074950,0.00143818,0.,0.00365692,-0.00384473,
 0.,-0.00227259,-0.00552654,0.,-0.00129398,0.00132843,0.,0.02615556,0.0
 0582166,0.,-0.03721312,-0.06124458,0.,-0.03024807,-0.00210633,0.,-0.00
 006218,-0.00001899,0.,0.00011812,0.00010508,0.,-0.00017496,0.00006965,
 0.,0.00006020,-0.00003227,0.,0.04046756,0.06485893,0.,0.,-0.00043886,0
 .,0.,-0.00043916,0.,0.,0.00138037,0.,0.,0.00637638,0.,0.,0.00636994,0.
 ,0.,0.00138136,0.,0.,-0.00210001,0.,0.,-0.03418776,0.,0.,-0.00209409,0
 .,0.,0.00034104,0.,0.,-0.00036439,0.,0.,-0.00036434,0.,0.,0.00034105,0
 .,0.,0.02379849\\-0.00000744,0.00000163,0.,-0.00000603,-0.00000518,0.,
 -0.00000024,-0.00000378,0.,0.00010477,0.00001674,0.,0.00010718,0.00001
 296,0.,0.00000030,0.00000255,0.,-0.00009882,-0.00006308,0.,0.00000620,
 0.00000079,0.,-0.00011401,0.00003733,0.,0.00000865,0.00000058,0.,0.000
 00671,-0.00000060,0.,0.00000701,0.00000133,0.,0.00000989,0.00000142,0.
 ,-0.00002417,-0.00000271,0.\\\@
 The archive entry for this job was punched.


      THE ONE-EYED VIEW OF OUR UNIVERSE SAYS YOU MUST NOT LOOK
      FAR AFIELD FOR PROBLEMS.  SUCH PROBLEMS MAY NEVER ARRIVE. 
      INSTEAD, TEND TO THE WOLF WITHIN YOUR FENCES.
      THE PACKS RANGING OUTSIDE MAY NOT EVEN EXIST.

                              -- THE AZHAR BOOK SHAMRA I:4
                                 CHILDREN OF DUNE, BY FRANK HERBERT
 Job cpu time:       0 days  0 hours 33 minutes  4.5 seconds.
 Elapsed time:       0 days  0 hours 17 minutes 58.2 seconds.
 File lengths (MBytes):  RWF=    140 Int=      0 D2E=      0 Chk=     18 Scr=      1
 Normal termination of Gaussian 16 at Fri Jun  2 11:44:25 2023.
