 Entering Gaussian System, Link 0=g16
 Input=3ethyl5hydroxymethylthiazolium-H_dissociation-site_index-1-freq.gjf
 Output=3ethyl5hydroxymethylthiazolium-H_dissociation-site_index-1-freq.log
 Initial command:
 /software/commercial/gaussian/g16/AVX/g16/l1.exe "/scratch1/svicchi/G09-659740.pbs02/Gau-2661749.inp" -scrdir="/scratch1/svicchi/G09-659740.pbs02/"
 Entering Link 1 = /software/commercial/gaussian/g16/AVX/g16/l1.exe PID=   2661750.
  
 Copyright (c) 1988-2019, Gaussian, Inc.  All Rights Reserved.
  
 This is part of the Gaussian(R) 16 program.  It is based on
 the Gaussian(R) 09 system (copyright 2009, Gaussian, Inc.),
 the Gaussian(R) 03 system (copyright 2003, Gaussian, Inc.),
 the Gaussian(R) 98 system (copyright 1998, Gaussian, Inc.),
 the Gaussian(R) 94 system (copyright 1995, Gaussian, Inc.),
 the Gaussian 92(TM) system (copyright 1992, Gaussian, Inc.),
 the Gaussian 90(TM) system (copyright 1990, Gaussian, Inc.),
 the Gaussian 88(TM) system (copyright 1988, Gaussian, Inc.),
 the Gaussian 86(TM) system (copyright 1986, Carnegie Mellon
 University), and the Gaussian 82(TM) system (copyright 1983,
 Carnegie Mellon University). Gaussian is a federally registered
 trademark of Gaussian, Inc.
  
 This software contains proprietary and confidential information,
 including trade secrets, belonging to Gaussian, Inc.
  
 This software is provided under written license and may be
 used, copied, transmitted, or stored only in accord with that
 written license.
  
 The following legend is applicable only to US Government
 contracts under FAR:
  
                    RESTRICTED RIGHTS LEGEND
  
 Use, reproduction and disclosure by the US Government is
 subject to restrictions as set forth in subparagraphs (a)
 and (c) of the Commercial Computer Software - Restricted
 Rights clause in FAR 52.227-19.
  
 Gaussian, Inc.
 340 Quinnipiac St., Bldg. 40, Wallingford CT 06492
  
  
 ---------------------------------------------------------------
 Warning -- This program may not be used in any manner that
 competes with the business of Gaussian, Inc. or will provide
 assistance to any competitor of Gaussian, Inc.  The licensee
 of this program is prohibited from giving any competitor of
 Gaussian, Inc. access to this program.  By using this program,
 the user acknowledges that Gaussian, Inc. is engaged in the
 business of creating and licensing software in the field of
 computational chemistry and represents and warrants to the
 licensee that it is not a competitor of Gaussian, Inc. and that
 it will not use this program in any manner prohibited above.
 ---------------------------------------------------------------
  

 Cite this work as:
 Gaussian 16, Revision C.01,
 M. J. Frisch, G. W. Trucks, H. B. Schlegel, G. E. Scuseria, 
 M. A. Robb, J. R. Cheeseman, G. Scalmani, V. Barone, 
 G. A. Petersson, H. Nakatsuji, X. Li, M. Caricato, A. V. Marenich, 
 J. Bloino, B. G. Janesko, R. Gomperts, B. Mennucci, H. P. Hratchian, 
 J. V. Ortiz, A. F. Izmaylov, J. L. Sonnenberg, D. Williams-Young, 
 F. Ding, F. Lipparini, F. Egidi, J. Goings, B. Peng, A. Petrone, 
 T. Henderson, D. Ranasinghe, V. G. Zakrzewski, J. Gao, N. Rega, 
 G. Zheng, W. Liang, M. Hada, M. Ehara, K. Toyota, R. Fukuda, 
 J. Hasegawa, M. Ishida, T. Nakajima, Y. Honda, O. Kitao, H. Nakai, 
 T. Vreven, K. Throssell, J. A. Montgomery, Jr., J. E. Peralta, 
 F. Ogliaro, M. J. Bearpark, J. J. Heyd, E. N. Brothers, K. N. Kudin, 
 V. N. Staroverov, T. A. Keith, R. Kobayashi, J. Normand, 
 K. Raghavachari, A. P. Rendell, J. C. Burant, S. S. Iyengar, 
 J. Tomasi, M. Cossi, J. M. Millam, M. Klene, C. Adamo, R. Cammi, 
 J. W. Ochterski, R. L. Martin, K. Morokuma, O. Farkas, 
 J. B. Foresman, and D. J. Fox, Gaussian, Inc., Wallingford CT, 2019.
 
 ******************************************
 Gaussian 16:  ES64L-G16RevC.01  3-Jul-2019
                 2-Jun-2023 
 ******************************************
 %NProcShared=2
 Will use up to    2 processors via shared memory.
 %mem=55gb
 %chk=/scratch1/svicchi/G09-659740.pbs02/02-freq/3ethyl5hydroxymethylthiazolium-H
 _dissociation-site_index-1-freq.chk
 ----------------------------------------------------------------------
 #p freq=raman scale=0.967 pop=(nbo,full,hirshfeld) guess=read geom=all
 check b3lyp/6-311+G(d,p) int=grid=ultrafine EmpiricalDispersion=GD3BJ 
 SCRF=(Solvent=ethanol) scf=(xqc,intrep,maxconventionalcycle=350) nosym
 m
 ----------------------------------------------------------------------
 1/10=4,29=7,30=1,38=1,114=967000/1,3;
 2/12=2,15=1,40=1/2;
 3/5=4,6=6,7=111,11=2,14=-4,25=1,30=1,70=2201,71=2,72=4,74=-5,75=-5,116=-2,124=41,140=1/1,2,3;
 4/5=1/1;
 5/5=2,8=3,13=1,17=20,38=6,53=4,85=350,98=1/2,8;
 8/6=4,10=90,11=11/1;
 10/13=10,15=4,31=1/2;
 11/6=3,8=1,9=11,15=111,16=1,31=1/1,2,10;
 10/6=1,31=1/2;
 6/7=3,28=1,40=1,79=1/1,7;
 7/8=1,10=1,25=1,30=1/1,2,3,16;
 1/10=4,30=1/3;
 99//99;
 Leave Link    1 at Fri Jun  2 11:42:10 2023, MaxMem=  7381975040 cpu:               2.4 elap:               2.4
 (Enter /software/commercial/gaussian/g16/AVX/g16/l101.exe)
 Structure from the checkpoint file:  "/scratch1/svicchi/G09-659740.pbs02/02-freq/3ethyl5hydroxymethylthiazolium-H_dissociation-site_index-1-freq.chk"
 --------------------------------------------------------------
 3ethyl5hydroxymethylthiazolium-H_dissociation-site_index-1.gjf
 --------------------------------------------------------------
 Charge =  0 Multiplicity = 1
 No Z-Matrix found in chk file; cartesian coordinates used.
  N                                                -0.065050044189      0.102236853052     -0.041009821083
  C                                                 1.151528475614     -0.438085229057      0.120435377426
  C                                                -0.556932838805      0.285319052852     -1.341295000433
  C                                                 0.307709247735     -0.122605606834     -2.290446065565
  S                                                 1.744511711002     -0.742378580227     -1.483776478380
  C                                                -0.907869522336      0.453207066277      1.119292733337
  C                                                -1.998265203486     -0.583535249380      1.364747209144
  H                                                -2.591096863402     -0.295940578260      2.235976172135
  H                                                -2.671223837986     -0.665311458658      0.508105429169
  H                                                -1.557074933890     -1.564669572506      1.554170883566
  H                                                -1.336989764777      1.440315360041      0.934763421759
  H                                                -0.236904572698      0.526304960192      1.972825182307
  H                                                -1.531518454089      0.720408060470     -1.494244188012
  C                                                 0.147013944642     -0.075772504089     -3.775067052095
  O                                                -1.130273161162      0.485457460254     -4.074764353594
  H                                                 0.232611712361     -1.088429248569     -4.187424352299
  H                                                 0.949570369952      0.528969923890     -4.214443405886
  H                                                -1.230739264484      0.509501290552     -5.032460691497
 Recover connectivity data from disk.
 ITRead=  0  0  0  0  0  0  0  0  0  0  0  0  0  0  0  0  0  0
 MicOpt= -1 -1 -1 -1 -1 -1 -1 -1 -1 -1 -1 -1 -1 -1 -1 -1 -1 -1
 NAtoms=     18 NQM=       18 NQMF=       0 NMMI=      0 NMMIF=      0
                NMic=       0 NMicF=      0.
                    Isotopes and Nuclear Properties:
 (Nuclear quadrupole moments (NQMom) in fm**2, nuclear magnetic moments (NMagM)
  in nuclear magnetons)

  Atom         1           2           3           4           5           6           7           8           9          10
 IAtWgt=          14          12          12          12          32          12          12           1           1           1
 AtmWgt=  14.0030740  12.0000000  12.0000000  12.0000000  31.9720718  12.0000000  12.0000000   1.0078250   1.0078250   1.0078250
 NucSpn=           2           0           0           0           0           0           0           1           1           1
 AtZEff=   4.5500000   3.6000000   3.6000000   3.6000000  13.6000000   3.6000000   3.6000000   1.0000000   1.0000000   1.0000000
 NQMom=    2.0440000   0.0000000   0.0000000   0.0000000   0.0000000   0.0000000   0.0000000   0.0000000   0.0000000   0.0000000
 NMagM=    0.4037610   0.0000000   0.0000000   0.0000000   0.0000000   0.0000000   0.0000000   2.7928460   2.7928460   2.7928460
 AtZNuc=   7.0000000   6.0000000   6.0000000   6.0000000  16.0000000   6.0000000   6.0000000   1.0000000   1.0000000   1.0000000

  Atom        11          12          13          14          15          16          17          18
 IAtWgt=           1           1           1          12          16           1           1           1
 AtmWgt=   1.0078250   1.0078250   1.0078250  12.0000000  15.9949146   1.0078250   1.0078250   1.0078250
 NucSpn=           1           1           1           0           0           1           1           1
 AtZEff=   1.0000000   1.0000000   1.0000000   3.6000000   5.6000000   1.0000000   1.0000000   1.0000000
 NQMom=    0.0000000   0.0000000   0.0000000   0.0000000   0.0000000   0.0000000   0.0000000   0.0000000
 NMagM=    2.7928460   2.7928460   2.7928460   0.0000000   0.0000000   2.7928460   2.7928460   2.7928460
 AtZNuc=   1.0000000   1.0000000   1.0000000   6.0000000   8.0000000   1.0000000   1.0000000   1.0000000
 Leave Link  101 at Fri Jun  2 11:42:12 2023, MaxMem=  7381975040 cpu:               0.2 elap:               0.6
 (Enter /software/commercial/gaussian/g16/AVX/g16/l103.exe)

 GradGradGradGradGradGradGradGradGradGradGradGradGradGradGradGradGradGrad
 Berny optimization.
 Initialization pass.
 Trust Radius=3.00D-01 FncErr=1.00D-07 GrdErr=1.00D-07 EigMax=2.50D+02 EigMin=1.00D-04
 Number of steps in this run=      2 maximum allowed number of steps=      2.
 GradGradGradGradGradGradGradGradGradGradGradGradGradGradGradGradGradGrad

 Leave Link  103 at Fri Jun  2 11:42:15 2023, MaxMem=  7381975040 cpu:               0.1 elap:               1.0
 (Enter /software/commercial/gaussian/g16/AVX/g16/l202.exe)
                          Input orientation:                          
 ---------------------------------------------------------------------
 Center     Atomic      Atomic             Coordinates (Angstroms)
 Number     Number       Type             X           Y           Z
 ---------------------------------------------------------------------
      1          7           0       -0.065050    0.102237   -0.041010
      2          6           0        1.151528   -0.438085    0.120435
      3          6           0       -0.556933    0.285319   -1.341295
      4          6           0        0.307709   -0.122606   -2.290446
      5         16           0        1.744512   -0.742379   -1.483776
      6          6           0       -0.907870    0.453207    1.119293
      7          6           0       -1.998265   -0.583535    1.364747
      8          1           0       -2.591097   -0.295941    2.235976
      9          1           0       -2.671224   -0.665311    0.508105
     10          1           0       -1.557075   -1.564670    1.554171
     11          1           0       -1.336990    1.440315    0.934763
     12          1           0       -0.236905    0.526305    1.972825
     13          1           0       -1.531518    0.720408   -1.494244
     14          6           0        0.147014   -0.075773   -3.775067
     15          8           0       -1.130273    0.485457   -4.074764
     16          1           0        0.232612   -1.088429   -4.187424
     17          1           0        0.949570    0.528970   -4.214443
     18          1           0       -1.230739    0.509501   -5.032461
 ---------------------------------------------------------------------
                    Distance matrix (angstroms):
                    1          2          3          4          5
     1  N    0.000000
     2  C    1.340923   0.000000
     3  C    1.402216   2.361950   0.000000
     4  C    2.291172   2.573695   1.347181   0.000000
     5  S    2.463628   1.737158   2.524502   1.760465   0.000000
     6  C    1.476424   2.456265   2.491151   3.665448   3.903911
     7  C    2.486716   3.389789   3.186693   4.346310   4.706134
     8  H    3.424051   4.301507   4.156026   5.377882   5.730041
     9  H    2.771786   3.849072   2.965503   4.123162   4.844817
    10  H    2.747602   3.265168   3.578612   4.509773   4.561333
    11  H    2.088161   3.222459   2.668885   3.943315   4.484322
    12  H    2.065163   2.507816   3.338246   4.346628   4.181347
    13  H    2.155123   3.338868   1.078199   2.174251   3.587789
    14  C    3.744308   4.039215   2.559136   1.494027   2.871650
    15  O    4.189598   4.864078   2.800112   2.370934   4.060196
    16  H    4.324239   4.452529   3.257456   2.130019   3.116938
    17  H    4.316145   4.446027   3.253291   2.130329   3.115253
    18  H    5.141914   5.755472   3.758853   3.207028   4.797133
                    6          7          8          9         10
     6  C    0.000000
     7  C    1.524482   0.000000
     8  H    2.154404   1.092337   0.000000
     9  H    2.175788   1.092427   1.768726   0.000000
    10  H    2.163888   1.092316   1.773058   1.773253   0.000000
    11  H    1.092052   2.172129   2.506097   2.529008   3.076043
    12  H    1.088143   2.168847   2.507500   3.080789   2.508046
    13  H    2.700168   3.176783   4.008767   2.688596   3.809864
    14  C    5.034616   5.592650   6.608961   5.160968   5.789776
    15  O    5.198916   5.611100   6.524572   4.970060   6.005838
    16  H    5.642569   6.004860   7.061264   5.537083   6.032885
    17  H    5.648413   6.407400   7.404371   6.069508   6.628990
    18  H    6.160478   6.535143   7.438379   5.844061   6.913204
                   11         12         13         14         15
    11  H    0.000000
    12  H    1.767251   0.000000
    13  H    2.540903   3.705978   0.000000
    14  C    5.165587   5.792077   2.941688   0.000000
    15  O    5.103906   6.113355   2.622076   1.426976   0.000000
    16  H    5.924104   6.385647   3.692867   1.096740   2.085010
    17  H    5.707297   6.300002   3.686724   1.096751   2.084983
    18  H    6.040320   7.075452   3.557236   1.954939   0.963252
                   16         17         18
    16  H    0.000000
    17  H    1.769390   0.000000
    18  H    2.325697   2.328794   0.000000
 Symmetry turned off by external request.
 Stoichiometry    C6H9NOS
 Framework group  C1[X(C6H9NOS)]
 Deg. of freedom    48
 Full point group                 C1      NOp   1
 Rotational constants (GHZ):           2.0873787           0.9773584           0.7050758
 Leave Link  202 at Fri Jun  2 11:42:16 2023, MaxMem=  7381975040 cpu:               0.0 elap:               0.5
 (Enter /software/commercial/gaussian/g16/AVX/g16/l301.exe)
 Standard basis: 6-311+G(d,p) (5D, 7F)
 Ernie: Thresh=  0.10000D-02 Tol=  0.10000D-05 Strict=F.
   260 basis functions,   410 primitive gaussians,   269 cartesian basis functions
    38 alpha electrons       38 beta electrons
       nuclear repulsion energy       517.9177539374 Hartrees.
 IExCor=  402 DFT=T Ex+Corr=B3LYP ExCW=0 ScaHFX=  0.200000
 ScaDFX=  0.800000  0.720000  1.000000  0.810000 ScalE2=  1.000000  1.000000
 IRadAn=      5 IRanWt=     -1 IRanGd=            0 ICorTp=0 IEmpDi=141
 NAtoms=   18 NActive=   18 NUniq=   18 SFac= 1.00D+00 NAtFMM=   60 NAOKFM=F Big=F
 Integral buffers will be    131072 words long.
 Raffenetti 2 integral format.
 Two-electron integral symmetry is turned off.
 R6Disp:  Grimme-D3(BJ) Dispersion energy=       -0.0311687236 Hartrees.
 Nuclear repulsion after empirical dispersion term =      517.8865852138 Hartrees.
 Force inversion solution in PCM.
 ------------------------------------------------------------------------------
 Polarizable Continuum Model (PCM)
 =================================
 Model                : PCM.
 Atomic radii         : UFF (Universal Force Field).
 Polarization charges : Total charges.
 Charge compensation  : None.
 Solution method      : Matrix inversion.
 Cavity type          : Scaled VdW (van der Waals Surface) (Alpha=1.100).
 Cavity algorithm     : GePol (No added spheres)
                        Default sphere list used, NSphG=   18.
                        Lebedev-Laikov grids with approx.  5.0 points / Ang**2.
                        Smoothing algorithm: York/Karplus (Gamma=1.0000).
                        Polarization charges: spherical gaussians, with
                                              point-specific exponents (IZeta= 3).
                        Self-potential: point-specific (ISelfS= 7).
                        Self-field    : sphere-specific E.n sum rule (ISelfD= 2).
 1st derivatives      : Analytical E(r).r(x)/FMM algorithm (CHGder, D1EAlg=3).
                        Cavity 1st derivative terms included.
 2nd derivatives      : Analytical E(r).r(xy)/FMM algorithm (CHGder, D2EAlg=3).
                        Cavity 2nd derivative terms included.
 Solvent              : Ethanol, Eps=  24.852000 Eps(inf)=   1.852593
 ------------------------------------------------------------------------------
 Spheres list:
 ISph  on   Nord     Re0    Alpha      Xe            Ye            Ze
    1   N      1    1.8300  1.100     -0.065050      0.102237     -0.041010
    2   C      2    1.9255  1.100      1.151528     -0.438085      0.120435
    3   C      3    1.9255  1.100     -0.556933      0.285319     -1.341295
    4   C      4    1.9255  1.100      0.307709     -0.122606     -2.290446
    5   S      5    2.0175  1.100      1.744512     -0.742379     -1.483776
    6   C      6    1.9255  1.100     -0.907870      0.453207      1.119293
    7   C      7    1.9255  1.100     -1.998265     -0.583535      1.364747
    8   H      8    1.4430  1.100     -2.591097     -0.295941      2.235976
    9   H      9    1.4430  1.100     -2.671224     -0.665311      0.508105
   10   H     10    1.4430  1.100     -1.557075     -1.564670      1.554171
   11   H     11    1.4430  1.100     -1.336990      1.440315      0.934763
   12   H     12    1.4430  1.100     -0.236905      0.526305      1.972825
   13   H     13    1.4430  1.100     -1.531518      0.720408     -1.494244
   14   C     14    1.9255  1.100      0.147014     -0.075773     -3.775067
   15   O     15    1.7500  1.100     -1.130273      0.485457     -4.074764
   16   H     16    1.4430  1.100      0.232612     -1.088429     -4.187424
   17   H     17    1.4430  1.100      0.949570      0.528970     -4.214443
   18   H     18    1.4430  1.100     -1.230739      0.509501     -5.032461
 ------------------------------------------------------------------------------
 GePol: Number of generator spheres                  =      18
 GePol: Total number of spheres                      =      18
 GePol: Number of exposed spheres                    =      18 (100.00%)
 GePol: Number of points                             =    1564
 GePol: Average weight of points                     =       0.13
 GePol: Minimum weight of points                     =   0.31D-08
 GePol: Maximum weight of points                     =    0.20577
 GePol: Number of points with low weight             =      88
 GePol: Fraction of low-weight points (<1% of avg)   =       5.63%
 GePol: Cavity surface area                          =    209.678 Ang**2
 GePol: Cavity volume                                =    206.277 Ang**3
 Leave Link  301 at Fri Jun  2 11:42:20 2023, MaxMem=  7381975040 cpu:               1.2 elap:               2.2
 (Enter /software/commercial/gaussian/g16/AVX/g16/l302.exe)
 NPDir=0 NMtPBC=     1 NCelOv=     1 NCel=       1 NClECP=     1 NCelD=      1
         NCelK=      1 NCelE2=     1 NClLst=     1 CellRange=     0.0.
 One-electron integrals computed using PRISM.
 NBasis=   260 RedAO= T EigKep=  1.03D-05  NBF=   260
 NBsUse=   260 1.00D-06 EigRej= -1.00D+00 NBFU=   260
 Precomputing XC quadrature grid using
 IXCGrd= 4 IRadAn=           5 IRanWt=          -1 IRanGd=           0 AccXCQ= 0.00D+00.
 Generated NRdTot=       0 NPtTot=           0 NUsed=           0 NTot=          32
 NSgBfM=   269   269   269   269   269 MxSgAt=    18 MxSgA2=    18.
 Leave Link  302 at Fri Jun  2 11:42:23 2023, MaxMem=  7381975040 cpu:               1.1 elap:               1.9
 (Enter /software/commercial/gaussian/g16/AVX/g16/l303.exe)
 DipDrv:  MaxL=1.
 Leave Link  303 at Fri Jun  2 11:42:26 2023, MaxMem=  7381975040 cpu:               0.2 elap:               1.0
 (Enter /software/commercial/gaussian/g16/AVX/g16/l401.exe)
 Initial guess from the checkpoint file:  "/scratch1/svicchi/G09-659740.pbs02/02-freq/3ethyl5hydroxymethylthiazolium-H_dissociation-site_index-1-freq.chk"
 B after Tr=     0.000000    0.000000    0.000000
         Rot=    1.000000    0.000000    0.000000    0.000000 Ang=   0.00 deg.
 Guess basis will be translated and rotated to current coordinates.
 JPrj=2 DoOrth=T DoCkMO=T.
 Leave Link  401 at Fri Jun  2 11:42:28 2023, MaxMem=  7381975040 cpu:               0.4 elap:               0.7
 (Enter /software/commercial/gaussian/g16/AVX/g16/l502.exe)
 Keep R1 ints in memory in canonical form, NReq=585482087.
 FoFCou: FMM=F IPFlag=           0 FMFlag=           0 FMFlg1=           0
         NFxFlg=           0 DoJE=F BraDBF=F KetDBF=F FulRan=T
         wScrn=  0.000000 ICntrl=       600 IOpCl=  0 I1Cent=           0 NGrid=           0
         NMat0=    1 NMatS0=  33930 NMatT0=    0 NMatD0=    1 NMtDS0=    0 NMtDT0=    0
 Symmetry not used in FoFCou.
 Two-electron integral symmetry not used.
 Closed shell SCF:
 Using DIIS extrapolation, IDIIS=  1040.
 NGot=  7381975040 LenX=  6806186806 LenY=  6806114004
 Requested convergence on RMS density matrix=1.00D-08 within 350 cycles.
 Requested convergence on MAX density matrix=1.00D-06.
 Requested convergence on             energy=1.00D-06.
 No special actions if energy rises.

 Cycle   1  Pass 1  IDiag  1:
 Inv3:  Mode=1 IEnd=     7338288.
 Iteration    1 A*A^-1 deviation from unit magnitude is 5.77D-15 for   1562.
 Iteration    1 A*A^-1 deviation from orthogonality  is 1.84D-15 for   1489   1324.
 Iteration    1 A^-1*A deviation from unit magnitude is 5.77D-15 for   1562.
 Iteration    1 A^-1*A deviation from orthogonality  is 1.35D-15 for   1558   1557.
 E= -762.329563607766    
 DIIS: error= 2.73D-08 at cycle   1 NSaved=   1.
 NSaved= 1 IEnMin= 1 EnMin= -762.329563607766     IErMin= 1 ErrMin= 2.73D-08
 ErrMax= 2.73D-08  0.00D+00 EMaxC= 1.00D-01 BMatC= 2.03D-13 BMatP= 2.03D-13
 IDIUse=1 WtCom= 1.00D+00 WtEn= 0.00D+00
 Coeff-Com:  0.100D+01
 Coeff:      0.100D+01
 Gap=     0.215 Goal=   None    Shift=    0.000
 RMSDP=5.19D-09 MaxDP=1.56D-07              OVMax= 2.47D-07

 Error on total polarization charges =  0.01839
 SCF Done:  E(RB3LYP) =  -762.329563608     A.U. after    1 cycles
            NFock=  1  Conv=0.52D-08     -V/T= 2.0028
 KE= 7.602173660544D+02 PE=-2.831070970903D+03 EE= 7.906374560274D+02
 Leave Link  502 at Fri Jun  2 11:42:57 2023, MaxMem=  7381975040 cpu:              49.7 elap:              28.0
 (Enter /software/commercial/gaussian/g16/AVX/g16/l508.exe)
 QCSCF skips out because SCF is already converged.
 Leave Link  508 at Fri Jun  2 11:43:01 2023, MaxMem=  7381975040 cpu:               0.0 elap:               1.3
 (Enter /software/commercial/gaussian/g16/AVX/g16/l801.exe)
 DoSCS=F DFT=T ScalE2(SS,OS)=  1.000000  1.000000
 Range of M.O.s used for correlation:     1   260
 NBasis=   260 NAE=    38 NBE=    38 NFC=     0 NFV=     0
 NROrb=    260 NOA=    38 NOB=    38 NVA=   222 NVB=   222

 **** Warning!!: The largest alpha MO coefficient is  0.77165528D+02

 Leave Link  801 at Fri Jun  2 11:43:03 2023, MaxMem=  7381975040 cpu:               0.2 elap:               1.6
 (Enter /software/commercial/gaussian/g16/AVX/g16/l1002.exe)
 Minotr:  Closed shell wavefunction.
 NEqPCM:  Using equilibrium solvation (IEInf=0, Eps=  24.8520, EpsInf=   1.8526)
          Direct CPHF calculation.
          Differentiating once with respect to electric field.
                with respect to dipole field.
          Electric field/nuclear overlap derivatives assumed to be zero.
          Requested convergence is 1.0D-08 RMS, and 1.0D-07 maximum.
          Secondary convergence is 1.0D-12 RMS, and 1.0D-12 maximum.
          NewPWx=F KeepS1=T KeepF1=T KeepIn=T MapXYZ=F SortEE=F KeepMc=T.
         5547 words used for storage of precomputed grid.
 Keep R1 ints in memory in canonical form, NReq=585489716.
 FoFCou: FMM=F IPFlag=           0 FMFlag=           0 FMFlg1=           0
         NFxFlg=           0 DoJE=F BraDBF=F KetDBF=F FulRan=T
         wScrn=  0.000000 ICntrl=       600 IOpCl=  0 I1Cent=           0 NGrid=           0
         NMat0=    1 NMatS0=  33930 NMatT0=    0 NMatD0=    1 NMtDS0=    0 NMtDT0=    0
 Symmetry not used in FoFCou.
 Two-electron integral symmetry not used.
          MDV=    7381975040 using IRadAn=       1.
          Solving linear equations simultaneously, MaxMat=       0.
          There are     3 degrees of freedom in the 1st order CPHF.  IDoFFX=0 NUNeed=     3.
      3 vectors produced by pass  0 Test12= 2.81D-13 3.33D-08 XBig12= 1.16D+02 5.89D+00.
 AX will form     3 AO Fock derivatives at one time.
      3 vectors produced by pass  1 Test12= 2.81D-13 3.33D-08 XBig12= 5.73D+01 2.37D+00.
      3 vectors produced by pass  2 Test12= 2.81D-13 3.33D-08 XBig12= 7.45D+00 6.62D-01.
      3 vectors produced by pass  3 Test12= 2.81D-13 3.33D-08 XBig12= 2.07D+00 2.06D-01.
      3 vectors produced by pass  4 Test12= 2.81D-13 3.33D-08 XBig12= 2.96D-01 9.47D-02.
      3 vectors produced by pass  5 Test12= 2.81D-13 3.33D-08 XBig12= 6.09D-02 4.13D-02.
      3 vectors produced by pass  6 Test12= 2.81D-13 3.33D-08 XBig12= 7.59D-03 1.41D-02.
      3 vectors produced by pass  7 Test12= 2.81D-13 3.33D-08 XBig12= 6.54D-04 4.16D-03.
      3 vectors produced by pass  8 Test12= 2.81D-13 3.33D-08 XBig12= 6.30D-05 1.70D-03.
      3 vectors produced by pass  9 Test12= 2.81D-13 3.33D-08 XBig12= 2.81D-06 2.02D-04.
      3 vectors produced by pass 10 Test12= 2.81D-13 3.33D-08 XBig12= 1.08D-07 4.79D-05.
      3 vectors produced by pass 11 Test12= 2.81D-13 3.33D-08 XBig12= 3.81D-09 6.02D-06.
      3 vectors produced by pass 12 Test12= 2.81D-13 3.33D-08 XBig12= 1.34D-10 2.16D-06.
      3 vectors produced by pass 13 Test12= 2.81D-13 3.33D-08 XBig12= 4.01D-12 2.72D-07.
 InvSVY:  IOpt=1 It=  1 EMax= 3.55D-15
 Solved reduced A of dimension    42 with     3 vectors.
 End of Minotr F.D. properties file   721 does not exist.
 End of Minotr F.D. properties file   722 does not exist.
 End of Minotr F.D. properties file   788 does not exist.
 Leave Link 1002 at Fri Jun  2 11:45:31 2023, MaxMem=  7381975040 cpu:             275.3 elap:             145.2
 (Enter /software/commercial/gaussian/g16/AVX/g16/l1101.exe)
 Using compressed storage, NAtomX=    18.
 Will process     19 centers per pass.
 R6Disp: Adding Grimme-D3(BJ) dispersion energy 1st derivatives to the gradient.
 Leave Link 1101 at Fri Jun  2 11:45:35 2023, MaxMem=  7381975040 cpu:               1.1 elap:               2.1
 (Enter /software/commercial/gaussian/g16/AVX/g16/l1102.exe)
 Symmetrizing basis deriv contribution to polar:
 IMax=3 JMax=2 DiffMx= 0.00D+00
 Leave Link 1102 at Fri Jun  2 11:45:38 2023, MaxMem=  7381975040 cpu:               0.2 elap:               1.0
 (Enter /software/commercial/gaussian/g16/AVX/g16/l1110.exe)
 Forming Gx(P) for the SCF density, NAtomX=    18.
 Integral derivatives from FoFJK, PRISM(SPDF).
 Do as many integral derivatives as possible in FoFJK.
 G2DrvN: MDV=    7381973050.
 G2DrvN: will do    19 centers at a time, making    1 passes.
 PxScal for G2LodP:  IOpCl= 0 ISclPx=1 IMOff=     1 NMtTot=     4 NTT=   33930 ScalPx= 2.56D+01
 Calling FoFCou, ICntrl=  3107 FMM=F I1Cent=   0 AccDes= 0.00D+00.
 FoFJK:  IHMeth= 1 ICntrl=    3107 DoSepK=F KAlg= 0 I1Cent=           0 FoldK=F
 IRaf=         0 NMat=       1 IRICut=       1 DoRegI=T DoRafI=F ISym2E= 0 IDoP0=0 IntGTp=1.
 FoFCou: FMM=F IPFlag=           0 FMFlag=      100000 FMFlg1=           0
         NFxFlg=           0 DoJE=F BraDBF=F KetDBF=F FulRan=T
         wScrn=  0.000000 ICntrl=      3107 IOpCl=  0 I1Cent=           0 NGrid=           0
         NMat0=    1 NMatS0=      1 NMatT0=    0 NMatD0=    4 NMtDS0=    3 NMtDT0=    0
 Symmetry not used in FoFCou.
 PxScal for G2LodP:  IOpCl= 0 ISclPx=0 IMOff=     1 NMtTot=     4 NTT=   33930 ScalPx= 1.00D+00
 NEqPCM:  Using equilibrium solvation (IEInf=0, Eps=  24.8520, EpsInf=   1.8526)
 G2PCM: DoFxE=T DoFxN=T DoGrad=T DoDP/DQ/DG/TGxP=TFFF NFrqRd=   0 IEInf=0 SqF1=F DoCFld=F IF1Alg=4.
 GePol: Maximum number of non-zero 1st derivatives   =     277
 End of G2Drv F.D. properties file   721 does not exist.
 End of G2Drv F.D. properties file   722 does not exist.
 End of G2Drv F.D. properties file   788 does not exist.
 Leave Link 1110 at Fri Jun  2 11:51:48 2023, MaxMem=  7381975040 cpu:             731.1 elap:             368.7
 (Enter /software/commercial/gaussian/g16/AVX/g16/l1002.exe)
 Minotr:  Closed shell wavefunction.
          IDoAtm=111111111111111111
 NEqPCM:  Using equilibrium solvation (IEInf=0, Eps=  24.8520, EpsInf=   1.8526)
          Direct CPHF calculation.
          Differentiating once with respect to electric field.
                with respect to dipole field.
          Differentiating once with respect to nuclear coordinates.
          Requested convergence is 1.0D-08 RMS, and 1.0D-07 maximum.
          Secondary convergence is 1.0D-12 RMS, and 1.0D-12 maximum.
          NewPWx=T KeepS1=F KeepF1=F KeepIn=T MapXYZ=F SortEE=F KeepMc=T.
         5547 words used for storage of precomputed grid.
 Keep R1 ints in memory in canonical form, NReq=585490130.
 FoFCou: FMM=F IPFlag=           0 FMFlag=           0 FMFlg1=           0
         NFxFlg=           0 DoJE=F BraDBF=F KetDBF=F FulRan=T
         wScrn=  0.000000 ICntrl=       600 IOpCl=  0 I1Cent=           0 NGrid=           0
         NMat0=    1 NMatS0=  33930 NMatT0=    0 NMatD0=    1 NMtDS0=    0 NMtDT0=    0
 Symmetry not used in FoFCou.
 Two-electron integral symmetry not used.
          MDV=    7381975040 using IRadAn=       1.
          Solving linear equations simultaneously, MaxMat=       0.
          There are    57 degrees of freedom in the 1st order CPHF.  IDoFFX=5 NUNeed=    57.
 Will reuse    3 saved solutions.
     51 vectors produced by pass  0 Test12= 1.48D-14 1.75D-09 XBig12= 1.52D-01 9.69D-02.
 AX will form    51 AO Fock derivatives at one time.
     51 vectors produced by pass  1 Test12= 1.48D-14 1.75D-09 XBig12= 3.14D-02 6.01D-02.
     51 vectors produced by pass  2 Test12= 1.48D-14 1.75D-09 XBig12= 3.61D-04 4.18D-03.
     51 vectors produced by pass  3 Test12= 1.48D-14 1.75D-09 XBig12= 1.90D-06 2.21D-04.
     51 vectors produced by pass  4 Test12= 1.48D-14 1.75D-09 XBig12= 5.52D-09 8.04D-06.
     45 vectors produced by pass  5 Test12= 1.48D-14 1.75D-09 XBig12= 8.73D-12 2.59D-07.
     14 vectors produced by pass  6 Test12= 1.48D-14 1.75D-09 XBig12= 1.02D-14 1.13D-08.
 InvSVY:  IOpt=1 It=  1 EMax= 3.33D-16
 Solved reduced A of dimension   314 with    57 vectors.
 FullF1:  Do perturbations      1 to       3.
 Isotropic polarizability for W=    0.000000      133.13 Bohr**3.
 FullF1:  Do perturbations      1 to       6.
 End of Minotr F.D. properties file   721 does not exist.
 End of Minotr F.D. properties file   722 does not exist.
 End of Minotr F.D. properties file   788 does not exist.
 Leave Link 1002 at Fri Jun  2 11:59:58 2023, MaxMem=  7381975040 cpu:             954.6 elap:             488.2
 (Enter /software/commercial/gaussian/g16/AVX/g16/l601.exe)
 Copying SCF densities to generalized density rwf, IOpCl= 0 IROHF=0.

 **********************************************************************

            Population analysis using the SCF Density.

 **********************************************************************

 Alpha  occ. eigenvalues --  -88.87953 -19.14177 -14.38750 -10.24298 -10.21727
 Alpha  occ. eigenvalues --  -10.21625 -10.21614 -10.20853 -10.16944  -7.96610
 Alpha  occ. eigenvalues --   -5.92921  -5.92450  -5.92248  -1.04316  -1.00316
 Alpha  occ. eigenvalues --   -0.84432  -0.77412  -0.75440  -0.70752  -0.64759
 Alpha  occ. eigenvalues --   -0.59658  -0.55743  -0.52653  -0.50897  -0.47902
 Alpha  occ. eigenvalues --   -0.46754  -0.45055  -0.43988  -0.42005  -0.39162
 Alpha  occ. eigenvalues --   -0.37885  -0.36915  -0.36287  -0.34961  -0.30722
 Alpha  occ. eigenvalues --   -0.28358  -0.25515  -0.24408
 Alpha virt. eigenvalues --   -0.02912  -0.00300   0.00111   0.00628   0.01644
 Alpha virt. eigenvalues --    0.02293   0.03174   0.03850   0.04129   0.04951
 Alpha virt. eigenvalues --    0.05649   0.06698   0.07110   0.07767   0.08094
 Alpha virt. eigenvalues --    0.08354   0.08881   0.09377   0.10560   0.11613
 Alpha virt. eigenvalues --    0.12154   0.12562   0.13014   0.13735   0.14332
 Alpha virt. eigenvalues --    0.14828   0.15973   0.16428   0.16903   0.17247
 Alpha virt. eigenvalues --    0.17674   0.19254   0.20075   0.20194   0.20514
 Alpha virt. eigenvalues --    0.20925   0.21781   0.22535   0.22739   0.23346
 Alpha virt. eigenvalues --    0.23632   0.23795   0.24625   0.25644   0.26374
 Alpha virt. eigenvalues --    0.27139   0.28456   0.30272   0.30781   0.31700
 Alpha virt. eigenvalues --    0.32792   0.33247   0.33586   0.35144   0.37908
 Alpha virt. eigenvalues --    0.39460   0.40137   0.40868   0.43510   0.43622
 Alpha virt. eigenvalues --    0.45813   0.46316   0.49870   0.51680   0.52814
 Alpha virt. eigenvalues --    0.54636   0.55194   0.56252   0.56944   0.57919
 Alpha virt. eigenvalues --    0.59227   0.60652   0.61681   0.63080   0.63529
 Alpha virt. eigenvalues --    0.64476   0.65577   0.67117   0.68331   0.69104
 Alpha virt. eigenvalues --    0.69987   0.70420   0.72339   0.73119   0.75976
 Alpha virt. eigenvalues --    0.76759   0.78517   0.80857   0.83937   0.84746
 Alpha virt. eigenvalues --    0.87894   0.90347   0.91061   0.94240   0.95576
 Alpha virt. eigenvalues --    0.96655   0.97725   0.99768   1.00132   1.05997
 Alpha virt. eigenvalues --    1.07644   1.09970   1.11196   1.13851   1.15619
 Alpha virt. eigenvalues --    1.16953   1.22130   1.23453   1.26093   1.30508
 Alpha virt. eigenvalues --    1.33055   1.35627   1.39175   1.42425   1.42768
 Alpha virt. eigenvalues --    1.44929   1.47572   1.47670   1.50877   1.51239
 Alpha virt. eigenvalues --    1.53336   1.55794   1.55959   1.57821   1.59933
 Alpha virt. eigenvalues --    1.60187   1.61388   1.64664   1.66389   1.67434
 Alpha virt. eigenvalues --    1.68405   1.70466   1.70830   1.74569   1.76547
 Alpha virt. eigenvalues --    1.78967   1.80642   1.81146   1.83576   1.87544
 Alpha virt. eigenvalues --    1.88966   1.92008   1.94159   1.97805   1.98987
 Alpha virt. eigenvalues --    2.02372   2.05993   2.06668   2.09066   2.11749
 Alpha virt. eigenvalues --    2.13067   2.16605   2.18251   2.24474   2.25414
 Alpha virt. eigenvalues --    2.28129   2.31025   2.37018   2.42127   2.43835
 Alpha virt. eigenvalues --    2.45740   2.47828   2.48605   2.51223   2.52194
 Alpha virt. eigenvalues --    2.54147   2.55484   2.57198   2.59401   2.62591
 Alpha virt. eigenvalues --    2.63346   2.66709   2.69429   2.74225   2.77901
 Alpha virt. eigenvalues --    2.79771   2.83411   2.84507   2.85896   2.86907
 Alpha virt. eigenvalues --    2.88340   2.94976   2.96417   3.02753   3.08633
 Alpha virt. eigenvalues --    3.15246   3.18123   3.20425   3.22415   3.26884
 Alpha virt. eigenvalues --    3.33727   3.46990   3.55021   3.66805   3.72789
 Alpha virt. eigenvalues --    3.78471   3.79865   3.81460   3.83138   3.88065
 Alpha virt. eigenvalues --    3.90168   3.99021   4.22233   4.27335   4.82919
 Alpha virt. eigenvalues --    4.93944   4.99453   5.39149   5.65433   7.95015
 Alpha virt. eigenvalues --   17.28812  17.44312  17.48668  23.63174  23.72175
 Alpha virt. eigenvalues --   23.82869  23.86342  23.96910  24.17100  35.49723
 Alpha virt. eigenvalues --   49.89465 189.11284
     Molecular Orbital Coefficients:
                           1         2         3         4         5
                           O         O         O         O         O
     Eigenvalues --   -88.87953 -19.14177 -14.38750 -10.24298 -10.21727
   1 1   N  1S         -0.00000  -0.00000   0.55737   0.00000  -0.00004
   2        2S          0.00001   0.00001   0.46573   0.00002  -0.00005
   3        2PX         0.00001  -0.00001  -0.00017   0.00001  -0.00009
   4        2PY        -0.00000   0.00000   0.00006  -0.00000   0.00003
   5        2PZ         0.00000  -0.00001  -0.00001  -0.00006  -0.00033
   6        3S         -0.00001  -0.00007   0.01610  -0.00009   0.00054
   7        3PX        -0.00005   0.00007   0.00046  -0.00005   0.00002
   8        3PY         0.00002  -0.00003  -0.00027   0.00003   0.00000
   9        3PZ         0.00001   0.00002  -0.00036   0.00030   0.00067
  10        4S         -0.00019   0.00098  -0.01545  -0.00038   0.00068
  11        4PX         0.00015  -0.00061   0.00105   0.00052   0.00235
  12        4PY        -0.00006   0.00027  -0.00025  -0.00022  -0.00092
  13        4PZ        -0.00014  -0.00014   0.00109  -0.00153  -0.00191
  14        5S         -0.00012  -0.00061   0.01108   0.00212   0.02633
  15        5PX         0.00054  -0.00123   0.00256  -0.00093  -0.00017
  16        5PY        -0.00022   0.00039  -0.00136   0.00026  -0.00079
  17        5PZ        -0.00034   0.00174  -0.00153  -0.00278  -0.01770
  18        6D 0        0.00001  -0.00001   0.00006  -0.00005  -0.00059
  19        6D+1       -0.00001   0.00000   0.00018   0.00000  -0.00030
  20        6D-1        0.00001  -0.00000  -0.00008  -0.00000   0.00011
  21        6D+2       -0.00001  -0.00000   0.00033   0.00002  -0.00009
  22        6D-2        0.00001   0.00001  -0.00035  -0.00002   0.00008
  23 2   C  1S         -0.00000   0.00000  -0.00001  -0.00002  -0.00034
  24        2S          0.00000  -0.00000   0.00015   0.00001  -0.00027
  25        2PX         0.00002   0.00000  -0.00037  -0.00001   0.00002
  26        2PY        -0.00001   0.00000   0.00017   0.00000  -0.00001
  27        2PZ        -0.00004   0.00001  -0.00003  -0.00002   0.00007
  28        3S          0.00003   0.00003   0.00007  -0.00016   0.00003
  29        3PX        -0.00006  -0.00002   0.00104   0.00009   0.00010
  30        3PY         0.00003  -0.00000  -0.00048  -0.00004  -0.00007
  31        3PZ         0.00009  -0.00004   0.00012   0.00014  -0.00018
  32        4S         -0.00003   0.00060  -0.00004  -0.00017  -0.00390
  33        4PX         0.00005  -0.00005  -0.00095  -0.00055   0.00134
  34        4PY        -0.00003   0.00007   0.00038   0.00027  -0.00051
  35        4PZ        -0.00005  -0.00013  -0.00056   0.00020   0.00183
  36        5S         -0.00038  -0.00126  -0.00812   0.01306   0.00368
  37        5PX         0.00030  -0.00119   0.00205  -0.00078  -0.00360
  38        5PY        -0.00015   0.00060  -0.00085   0.00033   0.00156
  39        5PZ        -0.00006   0.00124   0.00153  -0.00320   0.00119
  40        6D 0       -0.00009   0.00001   0.00051   0.00000   0.00012
  41        6D+1        0.00004  -0.00002  -0.00021   0.00001   0.00007
  42        6D-1       -0.00002   0.00001   0.00010  -0.00000  -0.00002
  43        6D+2        0.00001  -0.00001  -0.00056   0.00002  -0.00002
  44        6D-2       -0.00001   0.00000   0.00063  -0.00003   0.00003
  45 3   C  1S         -0.00000  -0.00000   0.00001  -0.00008   0.52405
  46        2S          0.00001   0.00001   0.00001  -0.00001   0.43131
  47        2PX        -0.00000  -0.00000   0.00015   0.00007   0.00035
  48        2PY         0.00000  -0.00000  -0.00006  -0.00003  -0.00016
  49        2PZ        -0.00000  -0.00004   0.00043  -0.00012   0.00050
  50        3S         -0.00005  -0.00009   0.00029  -0.00018   0.01859
  51        3PX        -0.00003  -0.00010  -0.00033  -0.00060  -0.00103
  52        3PY         0.00002   0.00005   0.00013   0.00029   0.00050
  53        3PZ         0.00002   0.00019  -0.00117   0.00077  -0.00070
  54        4S          0.00030   0.00092   0.00618  -0.00132  -0.01756
  55        4PX         0.00002  -0.00085   0.00335   0.00002  -0.00559
  56        4PY        -0.00002   0.00036  -0.00150  -0.00004   0.00230
  57        4PZ         0.00005  -0.00234   0.00309  -0.00017  -0.00276
  58        5S         -0.00199   0.01901  -0.00683  -0.00336  -0.03657
  59        5PX        -0.00057   0.00120  -0.00055  -0.00092  -0.00259
  60        5PY         0.00027  -0.00066   0.00120   0.00064   0.00213
  61        5PZ        -0.00077   0.00108   0.00311   0.00038  -0.01006
  62        6D 0       -0.00001  -0.00007  -0.00051  -0.00027  -0.00021
  63        6D+1        0.00003   0.00003  -0.00071   0.00042  -0.00004
  64        6D-1       -0.00001  -0.00002   0.00029  -0.00020   0.00005
  65        6D+2        0.00001   0.00003   0.00018   0.00005   0.00112
  66        6D-2       -0.00001  -0.00003  -0.00025  -0.00005  -0.00127
  67 4   C  1S          0.00000   0.00000  -0.00001   0.00286   0.20529
  68        2S         -0.00000  -0.00000   0.00007   0.00236   0.16928
  69        2PX         0.00004   0.00002  -0.00002   0.00004  -0.00012
  70        2PY        -0.00002  -0.00001   0.00000  -0.00003   0.00007
  71        2PZ         0.00001  -0.00002   0.00005  -0.00062   0.00055
  72        3S          0.00006   0.00018  -0.00037   0.00041   0.00636
  73        3PX        -0.00010  -0.00010   0.00035  -0.00041   0.00089
  74        3PY         0.00005   0.00004  -0.00015   0.00022  -0.00045
  75        3PZ         0.00000   0.00013  -0.00060   0.00201  -0.00228
  76        4S          0.00008  -0.00439  -0.00174   0.00418  -0.00538
  77        4PX         0.00017   0.00234  -0.00007  -0.00131   0.00011
  78        4PY        -0.00008  -0.00097  -0.00006   0.00049   0.00009
  79        4PZ        -0.00027   0.00361  -0.00336  -0.00492   0.00495
  80        5S         -0.00070   0.00027   0.01219   0.04770   0.04965
  81        5PX         0.00149   0.00855  -0.00603  -0.00376  -0.01182
  82        5PY        -0.00065  -0.00363   0.00196   0.00117   0.00394
  83        5PZ         0.00383  -0.00406  -0.01045  -0.02470  -0.02825
  84        6D 0        0.00002  -0.00015   0.00006  -0.00085   0.00008
  85        6D+1       -0.00007  -0.00006   0.00036  -0.00037   0.00099
  86        6D-1        0.00003   0.00002  -0.00016   0.00014  -0.00045
  87        6D+2       -0.00003   0.00006  -0.00003   0.00016  -0.00039
  88        6D-2        0.00003  -0.00006   0.00005  -0.00020   0.00046
  89 5   S  1S          0.41089  -0.00000  -0.00000  -0.00000  -0.00000
  90        2S          0.65437   0.00000   0.00000   0.00000   0.00000
  91        3S          0.01536  -0.00001  -0.00004  -0.00001  -0.00002
  92        4S         -0.00457   0.00003   0.00010   0.00003   0.00004
  93        5S          0.00188  -0.00000  -0.00015  -0.00002  -0.00010
  94        6S         -0.00170  -0.00151   0.00045   0.00119   0.00022
  95        7S         -0.00279  -0.00603   0.01308  -0.00290   0.01552
  96        7PX         0.00032   0.00142  -0.00344   0.00053  -0.00218
  97        7PY        -0.00012  -0.00063   0.00162  -0.00028   0.00122
  98        7PZ         0.00001   0.00254  -0.00047  -0.00206   0.00242
  99        8PX        -0.00008  -0.00000   0.00001   0.00000  -0.00000
 100        8PY         0.00004   0.00000  -0.00000  -0.00000   0.00000
 101        8PZ         0.00002   0.00000  -0.00000  -0.00000  -0.00000
 102        9PX         0.00003   0.00001  -0.00004  -0.00001   0.00001
 103        9PY        -0.00001  -0.00001   0.00002   0.00001  -0.00000
 104        9PZ        -0.00001  -0.00001   0.00001   0.00001   0.00003
 105       10PX        -0.00001  -0.00008   0.00014   0.00004  -0.00008
 106       10PY         0.00000   0.00004  -0.00007  -0.00002   0.00003
 107       10PZ        -0.00001   0.00003   0.00002  -0.00009  -0.00016
 108       11PX        -0.00008   0.00047  -0.00024  -0.00025   0.00010
 109       11PY         0.00004  -0.00021   0.00012   0.00012  -0.00003
 110       11PZ         0.00006  -0.00004  -0.00040   0.00032   0.00043
 111       12PX         0.00055   0.00028   0.00016  -0.00056   0.00006
 112       12PY        -0.00024  -0.00011  -0.00011   0.00021  -0.00007
 113       12PZ        -0.00009   0.00085   0.00043   0.00050  -0.00086
 114       13D 0        0.00001   0.00002  -0.00013  -0.00004   0.00007
 115       13D+1       -0.00000  -0.00001   0.00006  -0.00011  -0.00013
 116       13D-1        0.00000   0.00000  -0.00003   0.00004   0.00006
 117       13D+2        0.00001  -0.00003   0.00003   0.00001   0.00000
 118       13D-2       -0.00001   0.00003  -0.00003  -0.00001  -0.00001
 119 6   C  1S         -0.00000  -0.00000   0.00001  -0.00000  -0.00191
 120        2S          0.00000   0.00001  -0.00002  -0.00000  -0.00155
 121        2PX        -0.00000  -0.00000   0.00017  -0.00002   0.00000
 122        2PY        -0.00000  -0.00000  -0.00011   0.00000  -0.00003
 123        2PZ        -0.00000  -0.00002  -0.00023   0.00001   0.00004
 124        3S         -0.00004  -0.00005   0.00002  -0.00007  -0.00043
 125        3PX         0.00001  -0.00000  -0.00019   0.00011   0.00004
 126        3PY         0.00001   0.00002   0.00040  -0.00001   0.00015
 127        3PZ        -0.00000   0.00008   0.00035  -0.00007  -0.00014
 128        4S          0.00042  -0.00029   0.00449   0.00184   0.00430
 129        4PX         0.00011  -0.00038   0.00066   0.00035   0.00025
 130        4PY        -0.00006  -0.00002  -0.00032  -0.00029  -0.00106
 131        4PZ        -0.00016   0.00006  -0.00145  -0.00031  -0.00111
 132        5S          0.00104  -0.00672  -0.01012  -0.00125   0.00193
 133        5PX         0.00021  -0.00086   0.00121   0.00056   0.00222
 134        5PY        -0.00009   0.00061   0.00218   0.00027   0.00215
 135        5PZ        -0.00026   0.00173   0.00099  -0.00003  -0.00414
 136        6D 0        0.00000  -0.00003  -0.00020  -0.00001   0.00011
 137        6D+1       -0.00000   0.00002   0.00041  -0.00002   0.00000
 138        6D-1        0.00000  -0.00001  -0.00017   0.00000  -0.00003
 139        6D+2        0.00000  -0.00001  -0.00018   0.00001  -0.00002
 140        6D-2       -0.00000  -0.00001   0.00011  -0.00002  -0.00000
 141 7   C  1S         -0.00000   0.00000  -0.00000  -0.00000  -0.00000
 142        2S          0.00000  -0.00000   0.00001   0.00000  -0.00001
 143        2PX         0.00000  -0.00000   0.00007   0.00001   0.00003
 144        2PY         0.00000   0.00000   0.00006  -0.00000  -0.00000
 145        2PZ        -0.00000   0.00000  -0.00001  -0.00001   0.00000
 146        3S         -0.00000   0.00003  -0.00008   0.00001   0.00015
 147        3PX        -0.00002   0.00001  -0.00038  -0.00003  -0.00014
 148        3PY        -0.00001  -0.00001  -0.00031   0.00002   0.00001
 149        3PZ         0.00001   0.00000   0.00010   0.00002  -0.00002
 150        4S         -0.00004  -0.00029  -0.00025  -0.00042  -0.00177
 151        4PX         0.00004  -0.00017   0.00011  -0.00018  -0.00035
 152        4PY         0.00003  -0.00009  -0.00033  -0.00016  -0.00039
 153        4PZ        -0.00003   0.00021  -0.00006   0.00000   0.00066
 154        5S         -0.00008   0.00060   0.00911   0.00234   0.01055
 155        5PX         0.00000   0.00014   0.00204   0.00055   0.00224
 156        5PY        -0.00001  -0.00000   0.00110   0.00025   0.00132
 157        5PZ         0.00003  -0.00015  -0.00122  -0.00040  -0.00104
 158        6D 0        0.00000   0.00000   0.00009   0.00001   0.00000
 159        6D+1        0.00000  -0.00001  -0.00000  -0.00001   0.00001
 160        6D-1        0.00000   0.00001   0.00009   0.00001   0.00004
 161        6D+2        0.00000   0.00001  -0.00002   0.00000  -0.00001
 162        6D-2        0.00000  -0.00000  -0.00014   0.00000   0.00001
 163 8   H  1S         -0.00000   0.00001  -0.00004  -0.00001  -0.00003
 164        2S          0.00002  -0.00006  -0.00001   0.00003   0.00017
 165        3S          0.00005   0.00003   0.00024   0.00009  -0.00034
 166        4PX         0.00000  -0.00001  -0.00002   0.00001   0.00002
 167        4PY         0.00000   0.00001   0.00005   0.00001   0.00003
 168        4PZ        -0.00000   0.00000   0.00004  -0.00000  -0.00003
 169 9   H  1S          0.00000  -0.00001   0.00005  -0.00000   0.00001
 170        2S         -0.00000   0.00008  -0.00023   0.00005   0.00020
 171        3S          0.00013  -0.00022  -0.00032  -0.00034  -0.00012
 172        4PX         0.00000   0.00001  -0.00016  -0.00000  -0.00005
 173        4PY        -0.00000   0.00000  -0.00000  -0.00001  -0.00006
 174        4PZ        -0.00000   0.00001  -0.00003   0.00001   0.00007
 175 10  H  1S         -0.00000  -0.00000   0.00005  -0.00002  -0.00004
 176        2S          0.00002   0.00004  -0.00033   0.00015   0.00046
 177        3S          0.00004  -0.00007  -0.00054  -0.00036  -0.00082
 178        4PX        -0.00000   0.00000  -0.00001  -0.00001  -0.00001
 179        4PY         0.00000   0.00001  -0.00013   0.00001   0.00002
 180        4PZ        -0.00000   0.00000   0.00009   0.00000  -0.00001
 181 11  H  1S          0.00000   0.00001   0.00000   0.00002   0.00002
 182        2S         -0.00005  -0.00012  -0.00122  -0.00019  -0.00053
 183        3S          0.00020  -0.00013   0.00062  -0.00003   0.00021
 184        4PX        -0.00000   0.00000  -0.00015  -0.00002  -0.00001
 185        4PY         0.00000   0.00003   0.00030   0.00002   0.00010
 186        4PZ        -0.00000   0.00001  -0.00003   0.00001   0.00012
 187 12  H  1S          0.00000  -0.00000   0.00002   0.00001   0.00005
 188        2S         -0.00004   0.00001  -0.00103  -0.00022  -0.00051
 189        3S          0.00008   0.00017   0.00050   0.00021   0.00263
 190        4PX         0.00000   0.00001   0.00014   0.00002   0.00007
 191        4PY        -0.00000   0.00001   0.00000   0.00000   0.00002
 192        4PZ         0.00001  -0.00000   0.00024   0.00001   0.00000
 193 13  H  1S         -0.00001   0.00006  -0.00020  -0.00010   0.00010
 194        2S         -0.00006  -0.00063   0.00006  -0.00011  -0.00510
 195        3S          0.00014  -0.00105   0.00116  -0.00074   0.00124
 196        4PX        -0.00002  -0.00012  -0.00025  -0.00022  -0.00233
 197        4PY         0.00001   0.00006   0.00010   0.00010   0.00105
 198        4PZ         0.00000   0.00013  -0.00035   0.00003  -0.00040
 199 14  C  1S         -0.00000   0.00002  -0.00000   0.56306  -0.00099
 200        2S          0.00000  -0.00006   0.00002   0.46325  -0.00076
 201        2PX         0.00001  -0.00015  -0.00002  -0.00093   0.00001
 202        2PY        -0.00000   0.00006   0.00001   0.00041  -0.00000
 203        2PZ         0.00001  -0.00002   0.00007   0.00020   0.00034
 204        3S          0.00001  -0.00013  -0.00003   0.01897  -0.00024
 205        3PX        -0.00002  -0.00002   0.00008   0.00198   0.00008
 206        3PY         0.00001   0.00001  -0.00003  -0.00089  -0.00005
 207        3PZ        -0.00004  -0.00018  -0.00037  -0.00083  -0.00130
 208        4S         -0.00028   0.00847  -0.00226  -0.01831   0.00502
 209        4PX         0.00005  -0.00180  -0.00010   0.00165   0.00021
 210        4PY        -0.00001   0.00076   0.00004  -0.00078  -0.00011
 211        4PZ        -0.00006   0.00169  -0.00075  -0.00264   0.00198
 212        5S          0.00515  -0.00655  -0.01853  -0.06086  -0.06096
 213        5PX        -0.00003  -0.00030  -0.00013  -0.00136   0.00169
 214        5PY         0.00004   0.00002   0.00003   0.00039  -0.00089
 215        5PZ         0.00101  -0.00162  -0.00396  -0.01291  -0.01334
 216        6D 0       -0.00001   0.00008  -0.00012  -0.00016  -0.00078
 217        6D+1       -0.00002  -0.00009   0.00001  -0.00058  -0.00011
 218        6D-1        0.00001   0.00004  -0.00001   0.00024   0.00002
 219        6D+2        0.00000  -0.00014  -0.00000  -0.00066  -0.00002
 220        6D-2       -0.00000   0.00015   0.00001   0.00071   0.00003
 221 15  O  1S         -0.00000   0.55133   0.00000  -0.00002   0.00000
 222        2S          0.00000   0.46973   0.00001  -0.00007   0.00001
 223        2PX         0.00000   0.00087   0.00001   0.00013   0.00002
 224        2PY        -0.00000  -0.00041  -0.00000  -0.00006  -0.00000
 225        2PZ         0.00000  -0.00086   0.00001   0.00001   0.00003
 226        3S         -0.00001   0.01363  -0.00001   0.00047   0.00002
 227        3PX        -0.00001  -0.00002  -0.00004   0.00002  -0.00007
 228        3PY         0.00000   0.00001   0.00000  -0.00001   0.00002
 229        3PZ        -0.00001  -0.00007  -0.00004   0.00010  -0.00012
 230        4S          0.00002  -0.01002  -0.00037   0.00020  -0.00094
 231        4PX         0.00003  -0.00161   0.00019   0.00050  -0.00025
 232        4PY        -0.00001   0.00071  -0.00004  -0.00020   0.00017
 233        4PZ         0.00002  -0.00058   0.00045   0.00052   0.00094
 234        5S          0.00029   0.00687  -0.00016   0.00970   0.00138
 235        5PX         0.00009   0.00043   0.00003   0.00196   0.00008
 236        5PY        -0.00005  -0.00016  -0.00009  -0.00093  -0.00021
 237        5PZ         0.00003   0.00044   0.00103  -0.00173  -0.00333
 238        6D 0        0.00000   0.00026  -0.00004   0.00002  -0.00003
 239        6D+1       -0.00000   0.00006   0.00000  -0.00004   0.00001
 240        6D-1        0.00000  -0.00002  -0.00000   0.00002  -0.00001
 241        6D+2       -0.00000  -0.00002   0.00000  -0.00012  -0.00003
 242        6D-2        0.00000   0.00002  -0.00000   0.00014   0.00004
 243 16  H  1S         -0.00000   0.00005  -0.00000   0.00006  -0.00003
 244        2S          0.00001  -0.00125  -0.00004  -0.00273  -0.00085
 245        3S         -0.00010  -0.00043   0.00023   0.00418   0.00054
 246        4PX        -0.00001   0.00022   0.00001  -0.00002   0.00001
 247        4PY        -0.00000  -0.00030  -0.00003  -0.00199  -0.00026
 248        4PZ        -0.00001  -0.00011  -0.00003  -0.00071  -0.00004
 249 17  H  1S          0.00000   0.00005   0.00001   0.00006  -0.00002
 250        2S          0.00000  -0.00120  -0.00010  -0.00275  -0.00090
 251        3S         -0.00009  -0.00043   0.00044   0.00422   0.00082
 252        4PX        -0.00000   0.00036   0.00003   0.00145   0.00020
 253        4PY         0.00001   0.00004   0.00002   0.00133   0.00017
 254        4PZ        -0.00001  -0.00011  -0.00003  -0.00076  -0.00005
 255 18  H  1S         -0.00000  -0.00002  -0.00002  -0.00002  -0.00003
 256        2S          0.00001   0.00021   0.00043   0.00041   0.00089
 257        3S         -0.00011  -0.00159   0.00106  -0.00341  -0.00236
 258        4PX        -0.00001   0.00002  -0.00001   0.00009   0.00006
 259        4PY         0.00000  -0.00003   0.00001  -0.00004  -0.00002
 260        4PZ         0.00000  -0.00078   0.00013   0.00019   0.00021
                           6         7         8         9        10
                           O         O         O         O         O
     Eigenvalues --   -10.21625 -10.21614 -10.20853 -10.16944  -7.96610
   1 1   N  1S         -0.00003   0.00002  -0.00007   0.00000  -0.00000
   2        2S         -0.00006   0.00007   0.00001   0.00002   0.00003
   3        2PX        -0.00008  -0.00004   0.00056  -0.00004   0.00004
   4        2PY         0.00006   0.00002  -0.00025   0.00001  -0.00002
   5        2PZ         0.00019   0.00001   0.00010   0.00004   0.00003
   6        3S          0.00041  -0.00041   0.00039  -0.00010  -0.00004
   7        3PX        -0.00012   0.00026  -0.00178   0.00021  -0.00039
   8        3PY        -0.00002  -0.00011   0.00080  -0.00002   0.00017
   9        3PZ        -0.00018   0.00046  -0.00034  -0.00021   0.00005
  10        4S          0.00081  -0.00011  -0.00216   0.00049  -0.00250
  11        4PX        -0.00002  -0.00016   0.00043  -0.00088   0.00213
  12        4PY        -0.00013   0.00010  -0.00010   0.00028  -0.00092
  13        4PZ         0.00085  -0.00150  -0.00073   0.00035  -0.00149
  14        5S          0.01132  -0.00064   0.02569   0.00588  -0.00003
  15        5PX        -0.00946  -0.00308   0.01994  -0.00850   0.00932
  16        5PY         0.00356   0.00136  -0.00963   0.00298  -0.00378
  17        5PZ         0.01182  -0.00313  -0.00480   0.00584  -0.00655
  18        6D 0       -0.00015  -0.00002   0.00069  -0.00001   0.00007
  19        6D+1        0.00026  -0.00014  -0.00028   0.00005  -0.00020
  20        6D-1       -0.00016   0.00007   0.00013  -0.00001   0.00009
  21        6D+2       -0.00005   0.00007  -0.00080  -0.00001  -0.00005
  22        6D-2        0.00010  -0.00009   0.00089   0.00004   0.00005
  23 2   C  1S         -0.00042  -0.00020   0.56295   0.00001  -0.00005
  24        2S         -0.00029  -0.00015   0.46371   0.00002   0.00005
  25        2PX        -0.00001  -0.00000  -0.00086   0.00002   0.00021
  26        2PY        -0.00001   0.00000   0.00034   0.00001  -0.00012
  27        2PZ         0.00000   0.00003  -0.00199  -0.00000  -0.00048
  28        3S         -0.00053  -0.00014   0.01776  -0.00007   0.00043
  29        3PX         0.00016   0.00010  -0.00196  -0.00013  -0.00063
  30        3PY        -0.00003  -0.00005   0.00086  -0.00002   0.00035
  31        3PZ        -0.00004  -0.00007   0.00031   0.00004   0.00137
  32        4S          0.00158   0.00088  -0.02120   0.00175  -0.00100
  33        4PX        -0.00049  -0.00066   0.00289   0.00053   0.00086
  34        4PY         0.00015   0.00030  -0.00115   0.00019  -0.00059
  35        4PZ        -0.00070   0.00070   0.00189  -0.00100  -0.00064
  36        5S          0.01169   0.01850  -0.03032   0.00508  -0.00609
  37        5PX         0.00145  -0.00118   0.00567   0.00210   0.00537
  38        5PY        -0.00056   0.00039  -0.00231  -0.00037  -0.00268
  39        5PZ        -0.00189  -0.00413   0.00280  -0.00183  -0.00150
  40        6D 0        0.00004   0.00005  -0.00068   0.00006  -0.00117
  41        6D+1       -0.00006  -0.00005   0.00018   0.00004   0.00053
  42        6D-1       -0.00000   0.00003  -0.00008   0.00000  -0.00028
  43        6D+2        0.00007  -0.00001   0.00070  -0.00006   0.00001
  44        6D-2       -0.00008   0.00001  -0.00079  -0.00002   0.00003
  45 3   C  1S          0.00438  -0.20544   0.00024  -0.00000  -0.00001
  46        2S          0.00361  -0.16871   0.00022  -0.00001   0.00003
  47        2PX        -0.00001   0.00056  -0.00005  -0.00001  -0.00008
  48        2PY        -0.00000  -0.00028   0.00002  -0.00001   0.00003
  49        2PZ         0.00005  -0.00099   0.00008   0.00001  -0.00002
  50        3S          0.00008  -0.00809  -0.00009   0.00016  -0.00049
  51        3PX         0.00001  -0.00369   0.00007   0.00001  -0.00008
  52        3PY         0.00002   0.00176  -0.00002   0.00004   0.00007
  53        3PZ        -0.00035   0.00444  -0.00043   0.00004   0.00023
  54        4S         -0.00204   0.00466  -0.00138  -0.00130   0.00383
  55        4PX        -0.00258   0.00219  -0.00045   0.00022   0.00029
  56        4PY         0.00117  -0.00114   0.00015   0.00001  -0.00031
  57        4PZ         0.00313  -0.00456   0.00093  -0.00159   0.00128
  58        5S         -0.03994  -0.04028   0.01954  -0.03283  -0.03718
  59        5PX        -0.00775  -0.00684   0.00282  -0.00438  -0.01034
  60        5PY         0.00482   0.00339  -0.00041   0.00193   0.00501
  61        5PZ        -0.00068  -0.00159   0.01664  -0.00543  -0.01361
  62        6D 0       -0.00004  -0.00046  -0.00016  -0.00007  -0.00013
  63        6D+1       -0.00008   0.00258  -0.00005   0.00003   0.00034
  64        6D-1        0.00004  -0.00121   0.00002   0.00003  -0.00016
  65        6D+2        0.00014  -0.00106   0.00017   0.00001   0.00019
  66        6D-2       -0.00013   0.00126  -0.00019   0.00000  -0.00021
  67 4   C  1S         -0.00594   0.52409   0.00030   0.00000  -0.00004
  68        2S         -0.00485   0.43122   0.00028   0.00001  -0.00000
  69        2PX        -0.00002   0.00092   0.00002   0.00001   0.00049
  70        2PY         0.00001  -0.00042  -0.00001   0.00001  -0.00021
  71        2PZ         0.00002  -0.00034  -0.00000   0.00002   0.00016
  72        3S         -0.00060   0.01818  -0.00010  -0.00005   0.00079
  73        3PX         0.00013  -0.00395  -0.00002  -0.00006  -0.00143
  74        3PY        -0.00007   0.00184  -0.00001  -0.00003   0.00064
  75        3PZ        -0.00020   0.00311  -0.00022  -0.00012  -0.00006
  76        4S          0.00522  -0.01534  -0.00101  -0.00084   0.00127
  77        4PX        -0.00205   0.00307  -0.00091   0.00059   0.00178
  78        4PY         0.00105  -0.00142   0.00047  -0.00010  -0.00085
  79        4PZ         0.00249  -0.00137   0.00048   0.00177  -0.00434
  80        5S          0.01736   0.05365   0.03186  -0.00168  -0.00552
  81        5PX         0.00069  -0.00283  -0.01742  -0.00104   0.02516
  82        5PY        -0.00012   0.00111   0.00657   0.00125  -0.01098
  83        5PZ         0.03563   0.00708  -0.05427   0.02745   0.06354
  84        6D 0        0.00001   0.00146   0.00011  -0.00001   0.00023
  85        6D+1        0.00003  -0.00232   0.00008  -0.00002  -0.00089
  86        6D-1       -0.00001   0.00112  -0.00003   0.00000   0.00039
  87        6D+2        0.00001   0.00075  -0.00001   0.00002  -0.00055
  88        6D-2       -0.00000  -0.00092   0.00001  -0.00001   0.00057
  89 5   S  1S         -0.00000  -0.00000  -0.00000  -0.00000  -0.11961
  90        2S          0.00000  -0.00001  -0.00000   0.00000  -0.32015
  91        3S         -0.00002   0.00004  -0.00001  -0.00001   0.51746
  92        4S          0.00006  -0.00014  -0.00000   0.00002   0.59241
  93        5S         -0.00013   0.00051  -0.00005  -0.00004   0.05671
  94        6S          0.00004  -0.00005   0.00318  -0.00091  -0.03159
  95        7S         -0.01980  -0.02141   0.04164  -0.00797  -0.04786
  96        7PX         0.00352   0.00522  -0.00945   0.00072   0.00546
  97        7PY        -0.00163  -0.00229   0.00416  -0.00070  -0.00210
  98        7PZ        -0.00355  -0.00213  -0.00004  -0.00287   0.00012
  99        8PX         0.00000  -0.00001   0.00000   0.00000  -0.00198
 100        8PY        -0.00000   0.00000  -0.00000   0.00000   0.00089
 101        8PZ         0.00000  -0.00001   0.00001   0.00000   0.00036
 102        9PX        -0.00001   0.00010   0.00000  -0.00000  -0.00432
 103        9PY         0.00000  -0.00004  -0.00000  -0.00000   0.00195
 104        9PZ        -0.00001   0.00006  -0.00008  -0.00000   0.00077
 105       10PX         0.00003  -0.00040   0.00002  -0.00000  -0.00016
 106       10PY        -0.00001   0.00017   0.00000   0.00003   0.00006
 107       10PZ         0.00004  -0.00021   0.00040   0.00002  -0.00012
 108       11PX         0.00003   0.00016  -0.00058   0.00016  -0.00201
 109       11PY        -0.00002  -0.00006   0.00026  -0.00015   0.00093
 110       11PZ        -0.00021   0.00007   0.00013  -0.00014   0.00095
 111       12PX        -0.00027  -0.00051  -0.00065  -0.00025   0.00944
 112       12PY         0.00019   0.00022   0.00025   0.00010  -0.00419
 113       12PZ         0.00033   0.00018   0.00111  -0.00036  -0.00168
 114       13D 0        0.00001   0.00001  -0.00001  -0.00002   0.00039
 115       13D+1        0.00003   0.00013   0.00001  -0.00000   0.00008
 116       13D-1       -0.00001  -0.00006  -0.00001  -0.00002   0.00000
 117       13D+2       -0.00002  -0.00004   0.00003  -0.00000   0.00036
 118       13D-2        0.00001   0.00005  -0.00003   0.00001  -0.00040
 119 6   C  1S          0.56296   0.00713   0.00041  -0.00141  -0.00000
 120        2S          0.46319   0.00589   0.00039  -0.00120   0.00002
 121        2PX         0.00030   0.00001  -0.00005  -0.00035  -0.00000
 122        2PY        -0.00038  -0.00002  -0.00001  -0.00034  -0.00002
 123        2PZ        -0.00072  -0.00004  -0.00006   0.00005  -0.00000
 124        3S          0.01959  -0.00016  -0.00061   0.00050  -0.00049
 125        3PX         0.00018   0.00001   0.00015   0.00070   0.00005
 126        3PY         0.00159   0.00012   0.00019   0.00082   0.00014
 127        3PZ         0.00126   0.00018   0.00025   0.00003  -0.00004
 128        4S         -0.01819   0.00273   0.00447   0.00002   0.00558
 129        4PX        -0.00002   0.00006  -0.00015  -0.00216   0.00152
 130        4PY         0.00153  -0.00040  -0.00109  -0.00110  -0.00076
 131        4PZ         0.00282  -0.00118  -0.00119   0.00150  -0.00234
 132        5S         -0.03454   0.00363  -0.01400   0.02138   0.01872
 133        5PX         0.00092   0.00083   0.00284  -0.00322   0.00398
 134        5PY         0.00519  -0.00022   0.00220  -0.00343  -0.00150
 135        5PZ         0.00374  -0.00122   0.00185  -0.00114  -0.00484
 136        6D 0       -0.00019  -0.00003  -0.00013   0.00025   0.00002
 137        6D+1        0.00110   0.00002   0.00012   0.00028  -0.00007
 138        6D-1       -0.00024  -0.00002  -0.00000   0.00010   0.00003
 139        6D+2       -0.00027  -0.00002   0.00009  -0.00006   0.00002
 140        6D-2       -0.00028  -0.00003  -0.00010  -0.00061  -0.00005
 141 7   C  1S          0.00140   0.00001  -0.00001   0.56295  -0.00000
 142        2S          0.00111   0.00002  -0.00000   0.46316   0.00001
 143        2PX         0.00034   0.00003   0.00002   0.00018   0.00005
 144        2PY         0.00034   0.00002   0.00003   0.00021   0.00002
 145        2PZ        -0.00001  -0.00002  -0.00002  -0.00003  -0.00002
 146        3S          0.00036   0.00007   0.00002   0.01963  -0.00007
 147        3PX        -0.00087  -0.00009  -0.00004  -0.00111  -0.00023
 148        3PY        -0.00084  -0.00005  -0.00013  -0.00106  -0.00008
 149        3PZ        -0.00004   0.00010   0.00015   0.00020   0.00007
 150        4S          0.00449  -0.00150  -0.00085  -0.01260  -0.00048
 151        4PX         0.00076   0.00008  -0.00061  -0.00209   0.00079
 152        4PY         0.00119  -0.00036   0.00021  -0.00130   0.00047
 153        4PZ        -0.00021   0.00015   0.00037   0.00109  -0.00036
 154        5S          0.01942   0.00053   0.01090  -0.01882  -0.00087
 155        5PX         0.00374   0.00018   0.00258  -0.00255   0.00006
 156        5PY         0.00248   0.00003   0.00150  -0.00269  -0.00006
 157        5PZ        -0.00161  -0.00017  -0.00078   0.00084   0.00045
 158        6D 0        0.00050  -0.00000   0.00002   0.00037   0.00001
 159        6D+1        0.00006  -0.00000  -0.00004   0.00016   0.00001
 160        6D-1        0.00014   0.00002   0.00004   0.00018   0.00003
 161        6D+2        0.00004  -0.00000  -0.00002  -0.00001   0.00000
 162        6D-2       -0.00077  -0.00002  -0.00001  -0.00066   0.00004
 163 8   H  1S         -0.00002  -0.00003   0.00000   0.00022  -0.00004
 164        2S         -0.00108   0.00021  -0.00010  -0.00329   0.00023
 165        3S         -0.00060   0.00027   0.00003   0.00335   0.00079
 166        4PX        -0.00018   0.00001   0.00002  -0.00105   0.00004
 167        4PY         0.00011   0.00003   0.00001   0.00067   0.00001
 168        4PZ         0.00033  -0.00003   0.00005   0.00170  -0.00002
 169 9   H  1S         -0.00003  -0.00004  -0.00007   0.00021   0.00000
 170        2S         -0.00106   0.00028   0.00054  -0.00308  -0.00001
 171        3S         -0.00044   0.00027   0.00046   0.00365   0.00220
 172        4PX        -0.00021   0.00004   0.00013  -0.00116   0.00005
 173        4PY         0.00001   0.00000   0.00002  -0.00008  -0.00002
 174        4PZ        -0.00029   0.00003  -0.00002  -0.00170  -0.00003
 175 10  H  1S         -0.00008  -0.00002  -0.00002   0.00016  -0.00003
 176        2S         -0.00065   0.00010   0.00037  -0.00277   0.00028
 177        3S         -0.00075  -0.00003  -0.00050   0.00303   0.00057
 178        4PX         0.00017  -0.00000  -0.00009   0.00094  -0.00004
 179        4PY        -0.00020   0.00001  -0.00004  -0.00177   0.00002
 180        4PZ         0.00006  -0.00003   0.00002   0.00031  -0.00003
 181 11  H  1S          0.00003   0.00004   0.00007  -0.00010   0.00005
 182        2S         -0.00230  -0.00065  -0.00073  -0.00029  -0.00064
 183        3S          0.00305   0.00008   0.00415  -0.00331   0.00327
 184        4PX        -0.00090  -0.00004  -0.00003  -0.00012  -0.00004
 185        4PY         0.00180   0.00012   0.00012   0.00025   0.00005
 186        4PZ        -0.00052  -0.00001  -0.00006  -0.00001  -0.00006
 187 12  H  1S          0.00006  -0.00001  -0.00006  -0.00010   0.00001
 188        2S         -0.00297  -0.00019  -0.00053  -0.00040  -0.00037
 189        3S          0.00242   0.00057   0.00104  -0.00210   0.00122
 190        4PX         0.00142   0.00006   0.00003   0.00018   0.00001
 191        4PY         0.00000  -0.00001   0.00006   0.00003  -0.00003
 192        4PZ         0.00169   0.00006   0.00011   0.00018   0.00005
 193 13  H  1S          0.00007  -0.00022  -0.00004  -0.00000  -0.00005
 194        2S         -0.00106   0.00048  -0.00031   0.00018  -0.00061
 195        3S         -0.00061  -0.00025   0.00291  -0.00157   0.00234
 196        4PX        -0.00013   0.00016  -0.00006  -0.00001  -0.00016
 197        4PY         0.00004  -0.00006   0.00002   0.00003   0.00007
 198        4PZ        -0.00026   0.00044   0.00001  -0.00004   0.00000
 199 14  C  1S          0.00003  -0.00272   0.00001   0.00000   0.00000
 200        2S          0.00003  -0.00223   0.00002   0.00000   0.00002
 201        2PX        -0.00000   0.00008  -0.00000   0.00000   0.00006
 202        2PY        -0.00001  -0.00003   0.00000  -0.00001  -0.00002
 203        2PZ         0.00001   0.00052   0.00004  -0.00001   0.00007
 204        3S          0.00007   0.00014  -0.00021  -0.00005   0.00005
 205        3PX        -0.00000  -0.00013   0.00003  -0.00000  -0.00027
 206        3PY         0.00002   0.00004  -0.00001   0.00002   0.00011
 207        3PZ        -0.00005  -0.00146  -0.00025   0.00004  -0.00045
 208        4S         -0.00054   0.00280   0.00157   0.00160  -0.00455
 209        4PX         0.00108  -0.00076   0.00050   0.00003   0.00119
 210        4PY        -0.00069   0.00039  -0.00029  -0.00023  -0.00040
 211        4PZ         0.00018   0.00099   0.00066   0.00063  -0.00083
 212        5S          0.03944  -0.01200  -0.08097   0.03368   0.08254
 213        5PX         0.00108   0.00069  -0.00121   0.00115  -0.00064
 214        5PY        -0.00049  -0.00031   0.00027  -0.00054   0.00077
 215        5PZ         0.00763  -0.00354  -0.01657   0.00667   0.01594
 216        6D 0       -0.00001  -0.00096  -0.00007   0.00000  -0.00010
 217        6D+1        0.00003  -0.00045   0.00002  -0.00001  -0.00014
 218        6D-1       -0.00000   0.00016  -0.00001   0.00001   0.00005
 219        6D+2       -0.00000  -0.00018  -0.00003  -0.00001   0.00005
 220        6D-2       -0.00000   0.00021   0.00003  -0.00000  -0.00003
 221 15  O  1S          0.00000   0.00000  -0.00000  -0.00000   0.00000
 222        2S          0.00001  -0.00001  -0.00000  -0.00000   0.00001
 223        2PX         0.00001   0.00001   0.00000   0.00000   0.00002
 224        2PY         0.00000  -0.00000   0.00000   0.00000  -0.00000
 225        2PZ        -0.00000  -0.00000   0.00000  -0.00001   0.00002
 226        3S         -0.00006   0.00014   0.00004  -0.00000  -0.00010
 227        3PX        -0.00005  -0.00001   0.00001  -0.00000  -0.00007
 228        3PY        -0.00000   0.00000  -0.00001  -0.00001   0.00002
 229        3PZ         0.00002   0.00001  -0.00002   0.00004  -0.00006
 230        4S          0.00037  -0.00113  -0.00025   0.00001   0.00041
 231        4PX         0.00034  -0.00043  -0.00009  -0.00001   0.00041
 232        4PY        -0.00007   0.00021   0.00008   0.00006  -0.00016
 233        4PZ        -0.00013   0.00040   0.00031  -0.00021   0.00017
 234        5S         -0.00002   0.00070   0.00211  -0.00204   0.00522
 235        5PX         0.00048  -0.00008  -0.00018   0.00010   0.00156
 236        5PY        -0.00031  -0.00004  -0.00001  -0.00006  -0.00081
 237        5PZ         0.00172  -0.00129  -0.00237   0.00153   0.00030
 238        6D 0        0.00000   0.00001  -0.00002   0.00001   0.00001
 239        6D+1        0.00000  -0.00001   0.00000   0.00000  -0.00001
 240        6D-1       -0.00000   0.00000  -0.00000  -0.00000   0.00001
 241        6D+2        0.00001  -0.00003  -0.00000   0.00000  -0.00001
 242        6D-2       -0.00000   0.00003   0.00001   0.00000   0.00000
 243 16  H  1S         -0.00000  -0.00013   0.00006   0.00001  -0.00001
 244        2S          0.00000  -0.00071  -0.00058  -0.00016   0.00022
 245        3S         -0.00044   0.00056   0.00054   0.00013  -0.00169
 246        4PX        -0.00004   0.00011  -0.00001   0.00000  -0.00013
 247        4PY        -0.00001  -0.00032  -0.00008  -0.00002  -0.00001
 248        4PZ         0.00001  -0.00003  -0.00003  -0.00001  -0.00010
 249 17  H  1S         -0.00001  -0.00012   0.00006   0.00000   0.00001
 250        2S          0.00006  -0.00076  -0.00056  -0.00006   0.00004
 251        3S         -0.00002   0.00064   0.00069   0.00037  -0.00153
 252        4PX        -0.00005   0.00032   0.00004  -0.00001  -0.00006
 253        4PY         0.00004   0.00014   0.00006   0.00001   0.00010
 254        4PZ         0.00001  -0.00004  -0.00003  -0.00000  -0.00010
 255 18  H  1S          0.00001  -0.00002  -0.00002   0.00001  -0.00003
 256        2S         -0.00018   0.00052   0.00038  -0.00016   0.00012
 257        3S          0.00181  -0.00117  -0.00251   0.00208  -0.00202
 258        4PX        -0.00001   0.00004   0.00004   0.00000  -0.00007
 259        4PY         0.00001  -0.00001  -0.00002   0.00000   0.00003
 260        4PZ         0.00000   0.00013   0.00005   0.00000  -0.00001
                          11        12        13        14        15
                           O         O         O         O         O
     Eigenvalues --    -5.92921  -5.92450  -5.92248  -1.04316  -1.00316
   1 1   N  1S         -0.00000  -0.00000   0.00000  -0.00550  -0.09719
   2        2S         -0.00000  -0.00002   0.00000  -0.00863  -0.15274
   3        2PX         0.00003  -0.00002   0.00000   0.00070   0.01223
   4        2PY        -0.00001   0.00000   0.00001  -0.00043  -0.00729
   5        2PZ         0.00005   0.00000   0.00000  -0.00171  -0.01432
   6        3S          0.00007   0.00021  -0.00001   0.02368   0.42014
   7        3PX        -0.00014   0.00013  -0.00000   0.00056   0.01495
   8        3PY         0.00006  -0.00005  -0.00004  -0.00041  -0.00941
   9        3PZ        -0.00025  -0.00010  -0.00001  -0.00249  -0.01969
  10        4S         -0.00103  -0.00074   0.00002   0.01088   0.29158
  11        4PX        -0.00001   0.00096  -0.00003   0.00338   0.00065
  12        4PY         0.00005  -0.00044   0.00009  -0.00179  -0.00295
  13        4PZ         0.00140   0.00121   0.00009  -0.00181  -0.01733
  14        5S         -0.00002   0.00477   0.00032  -0.02500  -0.18468
  15        5PX        -0.00201   0.00206  -0.00140   0.01227  -0.02935
  16        5PY         0.00078  -0.00113  -0.00063  -0.00404   0.01780
  17        5PZ         0.00328  -0.00333   0.00075  -0.00502   0.03863
  18        6D 0        0.00006  -0.00008   0.00000   0.00056   0.00502
  19        6D+1       -0.00005   0.00002  -0.00000  -0.00002   0.00002
  20        6D-1        0.00002  -0.00001   0.00000   0.00003   0.00020
  21        6D+2       -0.00004   0.00002  -0.00001   0.00041   0.00734
  22        6D-2        0.00004  -0.00002  -0.00001  -0.00044  -0.00776
  23 2   C  1S         -0.00005   0.00007   0.00000  -0.00251  -0.04346
  24        2S         -0.00010   0.00010   0.00000  -0.00381  -0.06650
  25        2PX         0.00008  -0.00011  -0.00001  -0.00235  -0.04441
  26        2PY        -0.00004   0.00005  -0.00002   0.00100   0.01923
  27        2PZ        -0.00021   0.00017   0.00000  -0.00148  -0.01958
  28        3S          0.00054  -0.00012  -0.00000   0.00938   0.16896
  29        3PX         0.00006   0.00013   0.00007  -0.00302  -0.06178
  30        3PY        -0.00002  -0.00004   0.00017   0.00133   0.02651
  31        3PZ        -0.00005   0.00047   0.00001  -0.00226  -0.03533
  32        4S         -0.00044  -0.00443   0.00008   0.00136   0.08392
  33        4PX         0.00016   0.00032   0.00003  -0.00070  -0.01123
  34        4PY        -0.00010  -0.00007  -0.00001   0.00009   0.00513
  35        4PZ        -0.00088   0.00216  -0.00006   0.00005  -0.00429
  36        5S         -0.00237   0.00207   0.00105  -0.01138   0.08962
  37        5PX        -0.00374   0.00035  -0.00000   0.00651  -0.01823
  38        5PY         0.00171  -0.00031   0.00021  -0.00315   0.00704
  39        5PZ         0.00474  -0.00147  -0.00032  -0.00258  -0.01691
  40        6D 0       -0.00023  -0.00011   0.00001   0.00008  -0.00166
  41        6D+1       -0.00002  -0.00000  -0.00008   0.00038   0.00583
  42        6D-1       -0.00000  -0.00001  -0.00018  -0.00014  -0.00228
  43        6D+2        0.00009  -0.00009   0.00004   0.00063   0.01065
  44        6D-2       -0.00010   0.00009   0.00004  -0.00067  -0.01161
  45 3   C  1S          0.00000   0.00000  -0.00000  -0.00606  -0.04461
  46        2S         -0.00002  -0.00001  -0.00000  -0.00933  -0.06837
  47        2PX        -0.00002  -0.00002   0.00000   0.00247   0.02455
  48        2PY         0.00001   0.00000   0.00000  -0.00112  -0.01013
  49        2PZ         0.00003   0.00001  -0.00000  -0.00169   0.03242
  50        3S          0.00020   0.00015   0.00001   0.02358   0.17236
  51        3PX         0.00034   0.00045  -0.00001   0.00558   0.03495
  52        3PY        -0.00015  -0.00019  -0.00002  -0.00260  -0.01447
  53        3PZ        -0.00020  -0.00008   0.00002  -0.00480   0.05107
  54        4S         -0.00170   0.00347   0.00010   0.00973   0.06157
  55        4PX         0.00095   0.00408   0.00028   0.00736   0.00265
  56        4PY        -0.00036  -0.00181  -0.00018  -0.00311  -0.00059
  57        4PZ         0.00301   0.00183  -0.00022   0.01146  -0.00113
  58        5S          0.04228  -0.03733   0.00017   0.02253   0.15423
  59        5PX         0.00574  -0.00479   0.00041   0.01557   0.02735
  60        5PY        -0.00265   0.00261   0.00092  -0.00762  -0.01958
  61        5PZ        -0.00899   0.00965  -0.00030  -0.00258   0.01027
  62        6D 0        0.00004   0.00011  -0.00000   0.00236   0.01101
  63        6D+1       -0.00019  -0.00014   0.00000  -0.00099   0.00821
  64        6D-1        0.00009   0.00006   0.00001   0.00055  -0.00304
  65        6D+2       -0.00005  -0.00010  -0.00002   0.00046   0.00490
  66        6D-2        0.00005   0.00012  -0.00001  -0.00054  -0.00507
  67 4   C  1S          0.00006   0.00004   0.00000  -0.01159  -0.02192
  68        2S          0.00015   0.00008   0.00000  -0.01784  -0.03370
  69        2PX        -0.00028  -0.00016  -0.00000  -0.00504  -0.00250
  70        2PY         0.00012   0.00007  -0.00001   0.00215   0.00165
  71        2PZ        -0.00010  -0.00010   0.00000  -0.00700   0.02109
  72        3S         -0.00068  -0.00013  -0.00001   0.04401   0.08527
  73        3PX         0.00029   0.00014   0.00005  -0.00504  -0.00109
  74        3PY        -0.00013  -0.00007   0.00013   0.00201   0.00124
  75        3PZ        -0.00017   0.00003  -0.00001  -0.01584   0.03051
  76        4S          0.00072  -0.00228  -0.00026   0.05398   0.03899
[...]
 .0388463,-1.5498363,0.3513788,-2.1854125,5.3762362,-2.070708,1.1533437
 ,0.3778695,-1.1256116,0.9720467,-1.9678147,0.8489417,-0.6484128,-2.207
 9237,0.9595535,-0.1509356,-1.1182417,-4.4005125,-2.1477999,7.538819,0.
 6627131,-6.4858598,-4.3504472,-2.8364493,6.5676053,0.7123384,8.8333036
 ,3.2511243,0.9817589,0.6049059,1.8278393,-2.4726591,1.0795717,15.91084
 94,-6.1434582,2.2293825,-0.5257498,-3.8813835,1.3967899,-1.2111051,1.8
 016462,-1.9780259,1.3064775,1.4268749,-1.4020526,0.7782915,2.542997,-0
 .5237475,1.5220892,0.7101929,-0.1284075,9.5882155,0.8768342,-1.5725456
 ,0.9805936,-2.2888456,0.1464469,1.2564722,-0.9739713,2.0274983,-9.8110
 527,0.187575,-6.0944939,-7.6245156,-0.072695,-0.269569,-2.1241388,1.14
 77516,-4.0580408,-6.3904187,7.385941,2.9304484,1.6325113,-4.6659893,-1
 .7634727,6.6328984,3.3386523,2.7971168,2.2672374,-1.836379,-3.8220361,
 4.2962155,-1.1147974,-1.0522264,-1.3035338,3.9533178,1.9220938,-7.0110
 468,-1.4425611,0.3413433,0.1845022,-2.0743426,0.4362556,-2.433343,-0.1
 406248,-0.7560327,0.5742776,0.3710794,-1.1509105,0.8030379,-3.0695299,
 1.0095601,-1.0927677,-4.8076336,1.9063398,-15.303015\HyperPolar=293.99
 69756,-1.1131206,81.1119808,-108.1041682,97.8876737,-14.5302275,83.321
 8192,214.3044638,-77.2730463,453.6793417\Quadrupole=-7.281054,-5.73352
 82,13.0145822,0.650766,-4.2865499,1.878371\PG=C01 [X(C6H9N1O1S1)]\NIma
 g=0\\0.58808637,-0.18699343,0.23163722,-0.04379946,0.02391825,0.614365
 29,-0.28681482,0.10279979,-0.03383365,0.39452339,0.10560395,-0.0951275
 1,0.01350152,-0.14810180,0.12560569,-0.01629306,0.00704275,-0.09335382
 ,0.03358248,-0.01122428,0.26424262,-0.11901428,0.02495062,-0.04580186,
 -0.03876609,0.02339844,-0.02095551,0.72968877,0.02606462,-0.06948082,0
 .01802191,0.02260364,0.00561570,0.00896027,-0.27498560,0.24225179,-0.0
 1271623,0.00257119,-0.20554855,-0.06043183,0.02632354,-0.01435539,-0.0
 7459376,0.04344073,0.59179396,0.01737545,-0.00245452,0.03570546,-0.003
 06009,0.00518629,-0.02301733,-0.24035799,0.08521528,0.14327082,0.43147
 776,-0.00475524,0.00921981,-0.01811300,0.00613915,0.00726822,0.0088729
 9,0.08570111,-0.09640762,-0.06814063,-0.14132747,0.18515970,0.00069858
 ,-0.00222294,-0.07114351,0.00252669,-0.00263910,-0.04522808,0.16781383
 ,-0.07937983,-0.26801299,-0.11727492,0.06467476,0.71132256,-0.05216219
 ,0.02574561,0.01378985,-0.03961383,0.00120372,0.00312086,-0.05393058,0
 .02978492,0.02724887,-0.10988700,0.03340732,-0.02139350,0.25928208,0.0
 2688198,-0.00584086,-0.00711191,0.00266535,-0.03772105,-0.00276288,0.0
 2824846,-0.00271581,-0.01246580,0.03279011,-0.04792606,0.00917457,-0.0
 9724136,0.08548862,0.03846588,-0.01905205,-0.03946029,0.05050165,-0.02
 334528,-0.10594627,-0.01446698,0.00588983,0.00139484,-0.03922510,0.017
 21717,-0.05522840,-0.02057218,0.01294317,0.20383995,-0.11448190,0.0233
 5996,0.03270345,-0.02531396,0.00977950,0.02352061,0.01333389,-0.006519
 29,-0.00282073,-0.00117878,0.00117301,-0.00694609,-0.00255362,0.004117
 04,0.00185161,0.52021243,0.02301526,-0.07618644,-0.01880745,0.01024653
 ,-0.01153471,-0.01061030,-0.00544092,-0.00012888,-0.00068797,-0.000105
 31,0.00054517,0.00264796,0.00547098,0.00620034,-0.00099817,-0.04154929
 ,0.54939477,0.02853833,-0.01379820,-0.15669271,0.01344518,-0.00561802,
 0.00360791,0.01554005,-0.00875595,-0.03038199,-0.00369240,0.00159790,-
 0.00195726,-0.00356919,0.00114705,0.00690848,0.09985183,-0.01879022,0.
 53016524,-0.02358967,-0.00995556,0.01496286,0.00048512,-0.00207502,0.0
 0092317,-0.00030248,-0.00064605,-0.00135980,-0.00018370,0.00006146,0.0
 0000714,0.00045533,0.00111592,0.00020129,-0.13045453,-0.05521215,0.003
 84575,0.51803773,0.00708444,0.00973175,0.00147461,0.00057401,0.0007525
 8,-0.00125340,0.00091155,0.00014061,0.00086280,0.00062280,-0.00020083,
 -0.00059921,0.00005206,-0.00098754,-0.00141180,-0.05953801,-0.13988825
 ,0.01056732,-0.05091974,0.52412063,0.03156912,0.01698090,-0.01213834,-
 0.00279807,0.00318993,-0.00059478,0.00173454,0.00088169,0.00109099,0.0
 0047472,-0.00039562,-0.00013040,0.00054368,-0.00140651,-0.00167527,0.0
 0082883,0.00722327,-0.07846029,0.01239052,0.01574063,0.56727174,-0.004
 58070,-0.00364889,0.00136481,0.00103607,-0.00098479,0.00024348,-0.0005
 5992,0.00003810,-0.00102885,-0.00036645,0.00024751,0.00045207,-0.00002
 260,0.00034253,0.00073588,-0.01148445,0.00861542,0.01768355,-0.1225958
 8,0.03726168,0.11295191,0.13223281,-0.00483393,-0.00246925,0.00118566,
 0.00020185,-0.00049515,0.00029997,-0.00034819,-0.00001626,-0.00029568,
 -0.00013040,0.00007357,0.00009268,-0.00024857,0.00050818,0.00063713,-0
 .01064657,0.00655282,0.01875556,0.03889931,-0.06646844,-0.05809831,-0.
 03958391,0.06849386,0.00117217,0.00060526,0.00083436,-0.00062471,0.000
 52147,-0.00002721,0.00009576,-0.00001100,0.00053284,0.00002585,0.00005
 508,0.00006562,0.00019446,-0.00024949,-0.00032352,0.00092358,-0.001813
 47,-0.00427215,0.11433961,-0.05640416,-0.21508950,-0.12601323,0.062259
 49,0.23111326,0.00154384,0.00054341,-0.00119554,-0.00027778,0.00028975
 ,0.00017550,-0.00028266,0.00022031,0.00009539,-0.00013050,0.00019935,0
 .00041798,0.00022994,-0.00019671,0.00007871,-0.01639327,-0.00215338,-0
 .01908731,-0.14410021,-0.00976490,-0.12563259,0.01219504,0.00083330,0.
 01387769,0.15628312,0.00132161,0.00051019,-0.00002033,-0.00013275,0.00
 023955,0.00015011,-0.00029448,0.00020930,-0.00028838,-0.00012007,0.000
 08026,0.00032174,0.00020764,-0.00009802,0.00009543,-0.01509423,-0.0026
 4718,-0.02067751,-0.00946184,-0.04872854,-0.01181323,-0.00555667,-0.00
 147993,-0.00637460,0.01496118,0.05071137,-0.00056986,-0.00024285,0.001
 28709,0.00032591,-0.00028005,-0.00004038,0.00003703,0.00029449,-0.0002
 5310,-0.00012338,0.00008882,0.00012003,-0.00007609,-0.00002125,0.00019
 062,0.00543444,0.00055131,0.00480197,-0.12743769,-0.01360820,-0.211039
 33,-0.01576401,-0.00092925,-0.01908874,0.13879989,0.01358657,0.2270671
 3,0.00208681,0.00012626,-0.00101158,0.00027581,0.00029086,-0.00022130,
 0.00006453,0.00016302,0.00016171,0.00010985,-0.00003553,-0.00012590,-0
 .00011558,-0.00005029,-0.00015112,0.00913773,-0.02472276,0.00531875,-0
 .09288834,0.09997339,-0.01976657,-0.00724162,0.01432404,-0.00412068,-0
 .00807001,0.01686031,-0.00192252,0.09875065,0.00097972,0.00155743,-0.0
 0081329,-0.00003785,0.00037740,0.00006588,-0.00010961,0.00000017,0.000
 07893,-0.00006784,-0.00001931,-0.00003788,-0.00022914,0.00005758,0.000
 34909,0.00907703,-0.02265189,0.00366847,0.09697914,-0.25577694,0.04093
 577,0.00258552,-0.00631397,0.00107337,-0.00126214,0.00322558,-0.000140
 50,-0.10418225,0.28033842,-0.00126038,0.00030160,0.00052088,0.00020831
 ,-0.00016763,0.00003719,-0.00014348,0.00008915,-0.00032017,-0.00003261
 ,0.00002499,0.00009927,0.00000912,-0.00003122,0.00005075,-0.00090651,0
 .00502260,-0.00224545,-0.01977947,0.04025931,-0.05561214,0.00976808,-0
 .02356205,0.00570805,-0.00979608,0.02335114,-0.00391304,0.02077329,-0.
 04541971,0.05441997,-0.01358700,0.01910430,-0.00027989,0.00039868,0.00
 168292,0.00195866,0.00010772,-0.00026017,-0.00186651,-0.00057239,0.000
 00770,0.00034502,-0.00110118,-0.00048405,0.00195172,-0.08748490,0.0906
 1040,-0.01928139,0.00999443,-0.02406120,0.00493042,0.00084187,0.001046
 26,-0.00011903,0.00104722,0.00081443,-0.00040347,-0.00324701,-0.003926
 40,0.00080614,0.09965765,0.00587163,-0.00520312,-0.00061123,-0.0005671
 7,-0.00036319,-0.00095722,0.00038192,0.00059032,0.00138989,0.00051427,
 -0.00011034,-0.00052079,-0.00011411,0.00024078,-0.00067035,0.09283495,
 -0.25978278,0.04137133,0.00725650,-0.02035394,0.00529012,-0.00004383,0
 .00069386,0.00024219,0.00034467,0.00093171,-0.00064218,-0.00358254,-0.
 00169769,0.00075028,-0.10118153,0.28164235,0.01972304,-0.02883201,-0.0
 0030738,-0.00183961,-0.00057983,-0.00209382,0.00044717,-0.00065487,0.0
 0121838,0.00022309,-0.00043732,0.00041067,0.00175905,0.00023110,-0.001
 48865,-0.02519804,0.04843091,-0.06150323,-0.00254309,0.00412847,-0.000
 31705,-0.00000631,0.00001657,0.00009011,0.00059179,-0.00043574,0.00037
 521,0.00129097,0.00064709,0.00093609,0.01445945,-0.04574771,0.06527859
 ,0.01030228,0.00196921,0.02240363,0.00028596,-0.00053137,0.00135831,-0
 .00253334,0.00201996,0.00095121,0.00031310,-0.00003323,0.00149075,0.00
 043821,0.00000845,0.00005100,-0.15429903,-0.00897558,-0.14008033,-0.01
 495538,-0.00207864,-0.01716012,0.00045964,0.00045153,0.00024450,-0.002
 10098,-0.00341784,0.00142386,0.00120258,0.00022335,0.00036401,-0.00656
 951,-0.00123157,-0.00881100,0.16769649,-0.00407040,-0.00116651,-0.0094
 9455,-0.00060556,0.00070102,-0.00017356,0.00114711,-0.00007011,0.00048
 236,0.00005075,0.00020819,-0.00039450,-0.00010448,-0.00021844,-0.00001
 701,-0.00650267,-0.05107538,-0.00931500,-0.01620663,-0.00214778,-0.018
 35662,0.00075800,0.00088889,0.00024902,-0.00362876,-0.00249390,0.00091
 084,0.00087325,0.00090293,-0.00056427,0.01669561,0.00340122,0.02302194
 ,0.01168798,0.05116293,-0.01315299,-0.00161898,-0.03190955,-0.00334678
 ,0.00178471,0.00108304,0.00385869,-0.00284027,-0.00063026,-0.00047306,
 0.00031267,-0.00115290,0.00012545,0.00018829,0.00064811,-0.12718006,-0
 .01328876,-0.21128252,0.00420989,0.00026841,0.00703608,-0.00051275,-0.
 00040166,0.00040636,0.00149262,0.00159020,0.00082075,-0.00021661,-0.00
 032717,0.00019150,-0.00263176,0.00055906,-0.00237748,0.13734820,0.0138
 9973,0.23718588,-0.00423542,0.00117501,0.00110846,0.00080314,0.0010465
 3,0.00017406,-0.29608633,0.11947324,-0.03619395,-0.00769273,0.00559115
 ,-0.00403486,-0.00017941,0.00267046,-0.00011335,-0.00024451,-0.0000051
 7,0.00067419,0.00013954,-0.00002822,0.00010327,0.00003952,0.00002763,0
 .00000288,0.00003661,-0.00007772,0.00025180,-0.00003829,-0.00001594,-0
 .00002625,0.00040134,-0.00041065,-0.00009391,0.00005039,-0.00018484,0.
 00000566,0.30757899,0.00030252,-0.00208840,-0.00104504,0.00094843,0.00
 261055,-0.00023259,0.11980007,-0.08230177,0.01590719,0.00607407,0.0024
 2448,0.00189950,0.00277198,0.00457906,-0.00012440,-0.00031725,-0.00005
 449,-0.00008971,0.00023031,-0.00008251,0.00006417,-0.00010214,0.000013
 80,-0.00017649,-0.00037808,-0.00041438,0.00037061,-0.00003198,0.000021
 66,-0.00006061,-0.00003975,0.00006193,0.00002644,0.00000197,-0.0000401
 8,-0.00001766,-0.12794639,0.07835380,-0.02861976,0.01292873,-0.0023957
 2,-0.00149874,0.00040199,-0.00514871,-0.03028070,0.01277550,-0.0588282
 5,0.01776493,-0.00786768,0.00890954,0.00360226,-0.00174628,-0.00161263
 ,-0.00090399,0.00068826,0.00098552,0.00006547,0.00008570,-0.00031907,0
 .00005325,0.00000229,0.00009661,0.00021450,0.00051255,-0.00035823,0.00
 001114,-0.00008695,0.00012664,0.00005547,-0.00039822,-0.00030302,0.000
 16821,-0.00022376,0.00021091,0.04000643,-0.01757610,0.05855033,-0.0005
 1483,0.00334174,0.00673727,-0.00442692,0.00340077,-0.00227582,0.008026
 05,-0.00305594,0.01710600,-0.07440042,0.00452374,-0.01550908,-0.002619
 36,-0.00054704,-0.01878093,0.00190064,-0.00008270,0.00011245,-0.000145
 94,0.00007334,-0.00004823,-0.00005318,-0.00004837,0.00005554,0.0000153
 8,-0.00002923,0.00000782,-0.00000014,-0.00002241,0.00000539,-0.0000402
 8,0.00004553,0.00004326,-0.00032337,0.00005931,0.00057130,-0.00114305,
 -0.00092401,0.00003708,0.48396978,0.00339966,0.00499133,-0.00330457,0.
 00337708,0.00174663,0.00092715,-0.00307170,0.00219047,-0.00821980,0.00
 480022,-0.06593582,0.00427723,-0.00031475,-0.00264899,0.00844604,-0.00
 034398,0.00167606,0.00020249,0.00000842,-0.00019199,-0.00032738,0.0001
 2947,0.00004394,-0.00000092,-0.00001665,-0.00003583,0.00007763,-0.0000
 1262,-0.00002700,0.00001926,0.00004331,-0.00010232,0.00018448,-0.00008
 311,-0.00005132,-0.00012750,-0.00093055,-0.00284056,0.00005766,0.03199
 249,0.54346230,-0.00146539,0.00054431,-0.00134487,0.00341994,-0.001493
 92,0.00390120,-0.00006588,-0.00023037,-0.01729497,0.00606024,-0.005498
 65,-0.22574907,-0.00663313,0.00301863,-0.00471339,0.00015768,-0.000206
 17,-0.00071406,-0.00001830,0.00017907,0.00015320,-0.00010252,-0.000061
 61,0.00007230,0.00001917,0.00000336,-0.00002257,0.00003076,-0.00001478
 ,-0.00001555,-0.00015431,0.00005312,0.00008818,0.00012891,-0.00005369,
 0.00003529,-0.00075225,0.00039349,0.00058133,-0.03504474,0.01502165,0.
 52032038,-0.00000349,-0.00008718,-0.00118884,-0.00024595,0.00022359,-0
 .00135063,0.00045779,-0.00009054,0.00184235,-0.01238294,0.00684884,-0.
 01095232,0.00181543,-0.00088161,0.00040515,-0.00046727,0.00018614,0.00
 047225,0.00006854,-0.00012482,-0.00009164,0.00007367,0.00004374,-0.000
 04413,-0.00000497,0.00000680,0.00001704,-0.00002023,0.00000817,0.00000
 482,0.00011335,-0.00006971,-0.00003680,0.00003680,0.00001481,-0.000070
 68,0.00019875,-0.00015486,-0.00014417,-0.18582463,0.05610723,0.0072153
 8,0.29052141,-0.00001653,0.00001361,0.00052987,0.00022845,0.00027545,0
 .00051188,-0.00013635,0.00011083,-0.00081912,0.00631383,0.00093184,0.0
 0454512,-0.00088813,0.00018594,-0.00026790,0.00012569,-0.00022948,-0.0
 0018074,-0.00004415,0.00004928,0.00006577,-0.00003648,-0.00001880,0.00
 002328,0.00001290,-0.00000803,-0.00001107,-0.00000034,0.00000012,-0.00
 001424,-0.00004335,0.00003142,0.00000163,-0.00001627,-0.00000484,0.000
 02244,-0.00016957,-0.00024246,0.00020856,0.05513024,-0.08440730,-0.003
 97588,-0.10877155,0.08957694,-0.00076879,0.00032846,0.00099280,-0.0019
 7458,0.00077805,-0.00349968,0.00104821,-0.00046683,0.00005169,-0.04388
 416,0.01912239,-0.01389098,0.00113640,-0.00055425,-0.00420376,-0.00027
 256,0.00016590,0.00072712,0.00007007,-0.00015238,-0.00011270,0.0000865
 3,0.00005064,-0.00006552,-0.00003156,-0.00000653,0.00003884,-0.0000270
 6,0.00001629,0.00001050,0.00014630,-0.00005001,-0.00002668,-0.00000531
 ,0.00004251,-0.00000932,-0.00098610,0.00059432,-0.00077051,-0.03483622
 ,0.01477815,-0.09334126,0.08083223,-0.02364904,0.61870973,-0.00035999,
 0.00037347,-0.00084235,0.00034797,-0.00065705,-0.00041089,-0.00007305,
 -0.00031054,0.00009575,0.00215745,-0.00191064,0.00129828,0.00000601,0.
 00047236,-0.00016295,-0.00007796,0.00024379,0.00012015,0.00004347,-0.0
 0003258,-0.00002747,0.00002089,0.00000955,-0.00000773,-0.00000275,0.00
 000579,-0.00000314,-0.00000461,-0.00000089,0.,0.00000457,-0.00001008,0
 .00000430,0.00000441,0.00000542,-0.00001334,0.00000703,-0.00002220,-0.
 00013680,-0.04841764,0.00198465,0.00068731,-0.01701229,0.03875228,0.00
 786187,0.05939168,-0.00028981,-0.00015846,0.00037360,-0.00009326,0.000
 30414,-0.00030621,-0.00044078,0.00029565,0.00076461,-0.00089767,0.0043
 0100,-0.00130825,0.00042985,-0.00013237,-0.00041063,-0.00005930,-0.000
 15365,0.00000349,-0.00001648,0.00001231,0.00002467,-0.00000944,-0.0000
 0357,-0.00000370,-0.00000431,-0.00000199,-0.00000407,0.00000015,0.0000
 0295,0.00000104,0.00001194,0.00000354,-0.00000556,0.00001365,0.0000017
 9,-0.00000604,0.00000174,0.00007101,0.00005952,0.00607818,-0.25897290,
 -0.08587182,0.01389577,-0.01075913,0.00072260,-0.01721392,0.28263628,-
 0.00008254,0.00180981,-0.00223093,0.00139720,-0.00029407,-0.00111665,-
 0.00258837,0.00001519,-0.00035453,0.00248399,-0.02996648,-0.01883215,0
 .00001518,-0.00044715,0.00059340,-0.00041708,0.00056595,0.00022528,0.0
 0006242,-0.00010241,-0.00010598,0.00006730,0.00003032,-0.00002014,-0.0
 0001084,-0.00000657,0.00002017,-0.00001541,-0.00000046,0.00000077,0.00
 004493,-0.00004054,0.00004295,0.00002313,-0.00001231,-0.00010027,-0.00
 020199,-0.00051097,0.00005103,0.00496195,-0.08786294,-0.08532813,-0.00
 439098,0.01027493,0.00563392,-0.00202054,0.09401616,0.09378560,-0.0003
 1573,-0.00033645,-0.00084373,0.00071781,0.00018357,-0.00011503,0.00048
 213,0.00013649,-0.00049964,0.00505578,0.00167129,0.00150838,-0.0004622
 0,-0.00000836,0.00011215,-0.00020986,-0.00012652,0.00010552,-0.0000018
 4,-0.00000153,0.00000908,0.00000169,0.00000236,-0.00000644,0.00000181,
 0.00000111,0.00000381,-0.00000084,0.00000201,0.00000327,0.00002387,-0.
 00002916,-0.00001041,-0.00000062,0.00000365,-0.00004274,0.00004914,0.0
 0003386,-0.00013672,-0.16610458,-0.09983726,0.06791841,-0.03982483,-0.
 00658643,0.00546648,0.00285903,-0.00187065,0.00040942,0.19692080,0.000
 41455,-0.00022930,0.00032425,-0.00030775,-0.00003349,0.00049382,0.0001
 5036,-0.00025196,-0.00059867,0.00107844,0.00221182,-0.00070262,-0.0000
 5029,0.00040779,0.00033516,0.00012362,-0.00005158,-0.00008584,-0.00001
 349,0.00001600,0.00001006,-0.00001213,-0.00000338,0.00000767,0.0000038
 9,0.00000057,-0.00000482,0.00000323,0.00000197,-0.00000310,-0.00001479
 ,0.00001275,-0.00000995,-0.00000943,0.00000023,0.00001466,0.00002716,0
 .00004271,0.00006016,-0.10370085,-0.13608023,0.05982540,0.01772462,0.0
 1176494,-0.00670829,-0.02112520,-0.01780313,0.01194417,0.10661704,0.13
 930770,-0.00155601,-0.00122572,-0.00209242,0.00116865,-0.00095881,-0.0
 0110969,-0.00175697,0.00201535,-0.00027184,0.02354938,0.01762047,-0.01
 966004,0.00038960,0.00023553,0.00069733,-0.00066284,-0.00007833,0.0000
 9764,0.00006838,-0.00003893,0.00004085,0.00002451,0.00001863,-0.000034
 29,-0.00001164,0.00001353,-0.00000685,-0.00000810,0.00000613,0.0000047
 1,0.00004179,-0.00002040,-0.00001934,0.00011515,-0.00000652,-0.0001690
 9,0.00024039,0.00049539,0.00003442,0.07226153,0.05795827,-0.09017753,-
 0.01047892,-0.00373333,0.00604194,-0.00793742,-0.00761211,0.00686964,-
 0.07521980,-0.06409468,0.09884290,0.00026526,-0.00001336,0.00002115,-0
 .00035451,0.00006014,-0.00041756,-0.00025415,0.00014855,0.00073918,-0.
 00627639,0.00249046,-0.00032205,0.00042055,0.00009675,-0.00088242,0.00
 005937,-0.00001473,0.00000259,-0.00000620,-0.00000364,-0.00001142,0.00
 000359,0.00000036,0.00000388,0.00001016,0.00000595,-0.00000144,-0.0000
 0130,-0.00000048,0.00000235,0.00001158,-0.00000912,-0.00000296,-0.0000
 0764,0.00000743,0.00002895,0.00031528,-0.00024655,-0.00025785,-0.00989
 750,0.00276809,-0.04140129,-0.03749914,0.01614573,-0.01386175,0.001105
 80,0.00046435,0.00026222,0.00080845,-0.00090899,-0.00022769,0.05129679
 ,0.00001941,0.00028934,-0.00000832,0.00006184,-0.00022182,0.00019560,0
 .00013798,-0.00003161,-0.00030520,0.00245720,-0.00182408,0.00017156,0.
 00011674,0.00062085,0.00038458,-0.00002024,0.00001555,-0.00000242,0.00
 000004,0.00000360,-0.00000930,0.00000006,-0.00000017,-0.00000301,-0.00
 000384,-0.00000072,0.00000396,0.00000382,0.00000058,0.00000347,-0.0000
 0565,0.00000353,0.00001436,0.00000094,0.00000127,-0.00001213,-0.000243
 87,-0.00011425,0.00011806,0.00376520,-0.00281648,0.01836783,0.01512054
 ,-0.00727032,-0.00501199,-0.00056422,0.00035652,0.00058739,0.00014498,
 0.00068660,-0.00059445,-0.02099095,0.01030163,0.00011733,-0.00003852,0
 .00061767,-0.00022804,0.00009979,-0.00035750,0.00007822,-0.00004500,0.
 00016933,-0.00183555,0.00083213,0.00005810,0.00030930,-0.00014159,0.00
 032868,0.00003587,-0.00001532,-0.00000950,-0.00000821,0.00000416,0.000
 00200,-0.00000369,-0.00000038,0.00000154,0.00000230,-0.00000174,0.0000
 0044,0.00000022,-0.00000028,0.00000002,-0.00000353,0.00000265,-0.00000
 355,-0.00001414,0.00000540,0.00001346,-0.00016448,0.00008244,0.0001898
 1,0.00459543,-0.00210691,-0.00645049,-0.06204012,0.01646785,-0.5162861
 2,0.00149496,-0.00043730,0.00086603,0.00133800,-0.00080738,0.00091163,
 0.05632612,-0.01390000,0.51994843\\0.00000210,0.00000165,0.00000003,0.
 00000345,0.00000523,-0.00000181,-0.00000174,-0.00000070,-0.00000026,-0
 .00000322,0.00000204,-0.00000031,0.00000192,0.00001017,-0.00000422,0.0
 0000191,0.00000014,0.00000082,0.00000566,-0.00000559,0.00000123,0.0000
 0135,-0.00000277,0.00000129,0.00000272,-0.00000204,-0.00000017,0.00000
 307,-0.00000025,-0.00000052,-0.00000020,-0.00000134,0.00000065,0.00000
 028,0.00000062,0.00000036,-0.00000093,-0.00000172,0.00000163,-0.000005
 33,0.00000052,-0.00000232,-0.00000612,-0.00000318,0.00005109,0.0000000
 6,-0.00000311,-0.00000062,-0.00000144,0.00000228,-0.00000128,-0.000003
 54,-0.00000193,-0.00004559\\\@
 The archive entry for this job was punched.


 I DON'T EXACTLY UNDERSTAND WHAT YOU ARE SAYING,
 BUT YOU ARE ABSOLUTELY RIGHT.
     M.S.GORDON, IN A NDSU FACULTY MEETING
 Job cpu time:       0 days  0 hours 47 minutes  7.3 seconds.
 Elapsed time:       0 days  0 hours 24 minutes 26.5 seconds.
 File lengths (MBytes):  RWF=    199 Int=      0 D2E=      0 Chk=     22 Scr=      1
 Normal termination of Gaussian 16 at Fri Jun  2 12:07:10 2023.
