 Entering Gaussian System, Link 0=g16
 Input=benzim-CO2_binding-site_index-6-freq.gjf
 Output=benzim-CO2_binding-site_index-6-freq.log
 Initial command:
 /software/commercial/gaussian/g16/AVX/g16/l1.exe "/scratch1/svicchi/G09-672253.pbs02/Gau-3440798.inp" -scrdir="/scratch1/svicchi/G09-672253.pbs02/"
 Entering Link 1 = /software/commercial/gaussian/g16/AVX/g16/l1.exe PID=   3440799.
  
 Copyright (c) 1988-2019, Gaussian, Inc.  All Rights Reserved.
  
 This is part of the Gaussian(R) 16 program.  It is based on
 the Gaussian(R) 09 system (copyright 2009, Gaussian, Inc.),
 the Gaussian(R) 03 system (copyright 2003, Gaussian, Inc.),
 the Gaussian(R) 98 system (copyright 1998, Gaussian, Inc.),
 the Gaussian(R) 94 system (copyright 1995, Gaussian, Inc.),
 the Gaussian 92(TM) system (copyright 1992, Gaussian, Inc.),
 the Gaussian 90(TM) system (copyright 1990, Gaussian, Inc.),
 the Gaussian 88(TM) system (copyright 1988, Gaussian, Inc.),
 the Gaussian 86(TM) system (copyright 1986, Carnegie Mellon
 University), and the Gaussian 82(TM) system (copyright 1983,
 Carnegie Mellon University). Gaussian is a federally registered
 trademark of Gaussian, Inc.
  
 This software contains proprietary and confidential information,
 including trade secrets, belonging to Gaussian, Inc.
  
 This software is provided under written license and may be
 used, copied, transmitted, or stored only in accord with that
 written license.
  
 The following legend is applicable only to US Government
 contracts under FAR:
  
                    RESTRICTED RIGHTS LEGEND
  
 Use, reproduction and disclosure by the US Government is
 subject to restrictions as set forth in subparagraphs (a)
 and (c) of the Commercial Computer Software - Restricted
 Rights clause in FAR 52.227-19.
  
 Gaussian, Inc.
 340 Quinnipiac St., Bldg. 40, Wallingford CT 06492
  
  
 ---------------------------------------------------------------
 Warning -- This program may not be used in any manner that
 competes with the business of Gaussian, Inc. or will provide
 assistance to any competitor of Gaussian, Inc.  The licensee
 of this program is prohibited from giving any competitor of
 Gaussian, Inc. access to this program.  By using this program,
 the user acknowledges that Gaussian, Inc. is engaged in the
 business of creating and licensing software in the field of
 computational chemistry and represents and warrants to the
 licensee that it is not a competitor of Gaussian, Inc. and that
 it will not use this program in any manner prohibited above.
 ---------------------------------------------------------------
  

 Cite this work as:
 Gaussian 16, Revision C.01,
 M. J. Frisch, G. W. Trucks, H. B. Schlegel, G. E. Scuseria, 
 M. A. Robb, J. R. Cheeseman, G. Scalmani, V. Barone, 
 G. A. Petersson, H. Nakatsuji, X. Li, M. Caricato, A. V. Marenich, 
 J. Bloino, B. G. Janesko, R. Gomperts, B. Mennucci, H. P. Hratchian, 
 J. V. Ortiz, A. F. Izmaylov, J. L. Sonnenberg, D. Williams-Young, 
 F. Ding, F. Lipparini, F. Egidi, J. Goings, B. Peng, A. Petrone, 
 T. Henderson, D. Ranasinghe, V. G. Zakrzewski, J. Gao, N. Rega, 
 G. Zheng, W. Liang, M. Hada, M. Ehara, K. Toyota, R. Fukuda, 
 J. Hasegawa, M. Ishida, T. Nakajima, Y. Honda, O. Kitao, H. Nakai, 
 T. Vreven, K. Throssell, J. A. Montgomery, Jr., J. E. Peralta, 
 F. Ogliaro, M. J. Bearpark, J. J. Heyd, E. N. Brothers, K. N. Kudin, 
 V. N. Staroverov, T. A. Keith, R. Kobayashi, J. Normand, 
 K. Raghavachari, A. P. Rendell, J. C. Burant, S. S. Iyengar, 
 J. Tomasi, M. Cossi, J. M. Millam, M. Klene, C. Adamo, R. Cammi, 
 J. W. Ochterski, R. L. Martin, K. Morokuma, O. Farkas, 
 J. B. Foresman, and D. J. Fox, Gaussian, Inc., Wallingford CT, 2019.
 
 ******************************************
 Gaussian 16:  ES64L-G16RevC.01  3-Jul-2019
                 5-Jun-2023 
 ******************************************
 %NProcShared=2
 Will use up to    2 processors via shared memory.
 %mem=55gb
 %chk=/scratch1/svicchi/G09-672253.pbs02/02-freq/benzim-CO2_binding-site_index-6-
 freq.chk
 ----------------------------------------------------------------------
 #p freq=raman scale=0.967 pop=(nbo,full,hirshfeld) guess=read geom=all
 check b3lyp/6-311+G(d,p) int=grid=ultrafine EmpiricalDispersion=GD3BJ 
 SCRF=(Solvent=ethanol) scf=(xqc,intrep,maxconventionalcycle=350) nosym
 m
 ----------------------------------------------------------------------
 1/10=4,29=7,30=1,38=1,114=967000/1,3;
 2/12=2,15=1,40=1/2;
 3/5=4,6=6,7=111,11=2,14=-4,25=1,30=1,70=2201,71=2,72=4,74=-5,75=-5,116=-2,124=41,140=1/1,2,3;
 4/5=1/1;
 5/5=2,8=3,13=1,17=20,38=6,53=4,85=350,98=1/2,8;
 8/6=4,10=90,11=11/1;
 10/13=10,15=4,31=1/2;
 11/6=3,8=1,9=11,15=111,16=1,31=1/1,2,10;
 10/6=1,31=1/2;
 6/7=3,28=1,40=1,79=1/1,7;
 7/8=1,10=1,25=1,30=1/1,2,3,16;
 1/10=4,30=1/3;
 99//99;
 Leave Link    1 at Mon Jun  5 11:35:01 2023, MaxMem=  7381975040 cpu:               1.8 elap:               1.8
 (Enter /software/commercial/gaussian/g16/AVX/g16/l101.exe)
 Structure from the checkpoint file:  "/scratch1/svicchi/G09-672253.pbs02/02-freq/benzim-CO2_binding-site_index-6-freq.chk"
 -----------------------------------
 benzim-CO2_binding-site_index-6.gjf
 -----------------------------------
 Charge = -1 Multiplicity = 1
 No Z-Matrix found in chk file; cartesian coordinates used.
  C                                                -6.587799545506     -0.060370884729     -0.000000001117
  C                                                -6.322585306708     -1.442769047042     -0.000000000291
  C                                                -5.562695352043      0.881877012603     -0.000000000900
  C                                                -4.253863956294      0.396626579511      0.000000000226
  C                                                -3.975255718554     -0.992327746251      0.000000000728
  C                                                -5.017780096668     -1.923572709409      0.000000000598
  N                                                -3.006182542459      1.016478543354      0.000000000047
  C                                                -2.076563884495      0.003933371258      0.000000000482
  N                                                -2.596960612368     -1.200680591485      0.000000001054
  H                                                -5.756973401520      1.944030688830     -0.000000001390
  H                                                -7.616912262291      0.280231782289     -0.000000001928
  H                                                -7.151113214445     -2.141573382525     -0.000000000436
  H                                                -4.806613313906     -2.986660436560      0.000000001078
  H                                                -1.023516947015      0.235777845408      0.000000000420
  C                                                -2.681912316599      2.467863390399      0.000000000383
  O                                                -1.463973228140      2.712222419270     -0.000000008528
  O                                                -3.671448300991      3.215826165082      0.000000009574
 Recover connectivity data from disk.
 ITRead=  0  0  0  0  0  0  0  0  0  0  0  0  0  0  0  0  0
 MicOpt= -1 -1 -1 -1 -1 -1 -1 -1 -1 -1 -1 -1 -1 -1 -1 -1 -1
 NAtoms=     17 NQM=       17 NQMF=       0 NMMI=      0 NMMIF=      0
                NMic=       0 NMicF=      0.
                    Isotopes and Nuclear Properties:
 (Nuclear quadrupole moments (NQMom) in fm**2, nuclear magnetic moments (NMagM)
  in nuclear magnetons)

  Atom         1           2           3           4           5           6           7           8           9          10
 IAtWgt=          12          12          12          12          12          12          14          12          14           1
 AtmWgt=  12.0000000  12.0000000  12.0000000  12.0000000  12.0000000  12.0000000  14.0030740  12.0000000  14.0030740   1.0078250
 NucSpn=           0           0           0           0           0           0           2           0           2           1
 AtZEff=   3.6000000   3.6000000   3.6000000   3.6000000   3.6000000   3.6000000   4.5500000   3.6000000   4.5500000   1.0000000
 NQMom=    0.0000000   0.0000000   0.0000000   0.0000000   0.0000000   0.0000000   2.0440000   0.0000000   2.0440000   0.0000000
 NMagM=    0.0000000   0.0000000   0.0000000   0.0000000   0.0000000   0.0000000   0.4037610   0.0000000   0.4037610   2.7928460
 AtZNuc=   6.0000000   6.0000000   6.0000000   6.0000000   6.0000000   6.0000000   7.0000000   6.0000000   7.0000000   1.0000000

  Atom        11          12          13          14          15          16          17
 IAtWgt=           1           1           1           1          12          16          16
 AtmWgt=   1.0078250   1.0078250   1.0078250   1.0078250  12.0000000  15.9949146  15.9949146
 NucSpn=           1           1           1           1           0           0           0
 AtZEff=   1.0000000   1.0000000   1.0000000   1.0000000   3.6000000   5.6000000   5.6000000
 NQMom=    0.0000000   0.0000000   0.0000000   0.0000000   0.0000000   0.0000000   0.0000000
 NMagM=    2.7928460   2.7928460   2.7928460   2.7928460   0.0000000   0.0000000   0.0000000
 AtZNuc=   1.0000000   1.0000000   1.0000000   1.0000000   6.0000000   8.0000000   8.0000000
 Leave Link  101 at Mon Jun  5 11:35:02 2023, MaxMem=  7381975040 cpu:               0.3 elap:               0.5
 (Enter /software/commercial/gaussian/g16/AVX/g16/l103.exe)

 GradGradGradGradGradGradGradGradGradGradGradGradGradGradGradGradGradGrad
 Berny optimization.
 Initialization pass.
 Trust Radius=3.00D-01 FncErr=1.00D-07 GrdErr=1.00D-07 EigMax=2.50D+02 EigMin=1.00D-04
 Number of steps in this run=      2 maximum allowed number of steps=      2.
 GradGradGradGradGradGradGradGradGradGradGradGradGradGradGradGradGradGrad

 Leave Link  103 at Mon Jun  5 11:35:04 2023, MaxMem=  7381975040 cpu:               0.1 elap:               1.0
 (Enter /software/commercial/gaussian/g16/AVX/g16/l202.exe)
                          Input orientation:                          
 ---------------------------------------------------------------------
 Center     Atomic      Atomic             Coordinates (Angstroms)
 Number     Number       Type             X           Y           Z
 ---------------------------------------------------------------------
      1          6           0       -6.587800   -0.060371   -0.000000
      2          6           0       -6.322585   -1.442769   -0.000000
      3          6           0       -5.562695    0.881877   -0.000000
      4          6           0       -4.253864    0.396627    0.000000
      5          6           0       -3.975256   -0.992328    0.000000
      6          6           0       -5.017780   -1.923573    0.000000
      7          7           0       -3.006183    1.016479    0.000000
      8          6           0       -2.076564    0.003933    0.000000
      9          7           0       -2.596961   -1.200681    0.000000
     10          1           0       -5.756973    1.944031   -0.000000
     11          1           0       -7.616912    0.280232   -0.000000
     12          1           0       -7.151113   -2.141573   -0.000000
     13          1           0       -4.806613   -2.986660    0.000000
     14          1           0       -1.023517    0.235778    0.000000
     15          6           0       -2.681912    2.467863    0.000000
     16          8           0       -1.463973    2.712222   -0.000000
     17          8           0       -3.671448    3.215826    0.000000
 ---------------------------------------------------------------------
                    Distance matrix (angstroms):
                    1          2          3          4          5
     1  C    0.000000
     2  C    1.407609   0.000000
     3  C    1.392361   2.445693   0.000000
     4  C    2.378256   2.768210   1.395890   0.000000
     5  C    2.773793   2.390158   2.456137   1.416622   0.000000
     6  C    2.436490   1.390571   2.857880   2.442722   1.397882
     7  N    3.739998   4.128732   2.560054   1.393171   2.230338
     8  C    4.511694   4.485716   3.594982   2.212429   2.144194
     9  N    4.150554   3.733482   3.623897   2.301460   1.393954
    10  H    2.169769   3.433705   1.079775   2.157266   3.434635
    11  H    1.084013   2.154997   2.140510   3.365062   3.857599
    12  H    2.156090   1.083875   3.415307   3.851819   3.377401
    13  H    3.425755   2.163740   3.941731   3.428143   2.160675
    14  H    5.572158   5.558565   4.584930   3.234349   3.197031
    15  C    4.652733   5.342990   3.288505   2.600203   3.694003
    16  O    5.825879   6.392970   4.488840   3.625669   4.475515
    17  O    4.386180   5.360134   3.004020   2.878731   4.219106
                    6          7          8          9         10
     6  C    0.000000
     7  N    3.562362   0.000000
     8  C    3.516537   1.374569   0.000000
     9  N    2.526448   2.254608   1.312215   0.000000
    10  H    3.937609   2.902965   4.160456   4.458126   0.000000
    11  H    3.407674   4.669142   5.547234   5.233834   2.495516
    12  H    2.144443   5.210925   5.509469   4.650332   4.316919
    13  H    1.083857   4.389382   4.049299   2.841177   5.021444
    14  H    4.540587   2.130835   1.078267   2.130525   5.032270
    15  C    4.974031   1.487168   2.537203   3.669527   3.119359
    16  O    5.841245   2.292151   2.776706   4.073631   4.361189
    17  O    5.312818   2.297762   3.586072   4.545333   2.442720
                   11         12         13         14         15
    11  H    0.000000
    12  H    2.466193   0.000000
    13  H    4.309335   2.492158   0.000000
    14  H    6.593545   6.572612   4.969500   0.000000
    15  C    5.398144   6.420332   5.853733   2.780734   0.000000
    16  O    6.616135   7.476824   6.606853   2.515309   1.242211
    17  O    4.917764   6.388255   6.305509   3.986506   1.240415
                   16         17
    16  O    0.000000
    17  O    2.264191   0.000000
 Symmetry turned off by external request.
 Stoichiometry    C8H5N2O2(1-)
 Framework group  C1[X(C8H5N2O2)]
 Deg. of freedom    45
 Full point group                 C1      NOp   1
 Rotational constants (GHZ):           2.0571917           0.7819242           0.5665735
 Leave Link  202 at Mon Jun  5 11:35:06 2023, MaxMem=  7381975040 cpu:               0.0 elap:               0.6
 (Enter /software/commercial/gaussian/g16/AVX/g16/l301.exe)
 Standard basis: 6-311+G(d,p) (5D, 7F)
 Ernie: Thresh=  0.10000D-02 Tol=  0.10000D-05 Strict=F.
   294 basis functions,   472 primitive gaussians,   306 cartesian basis functions
    42 alpha electrons       42 beta electrons
       nuclear repulsion energy       643.8739828655 Hartrees.
 IExCor=  402 DFT=T Ex+Corr=B3LYP ExCW=0 ScaHFX=  0.200000
 ScaDFX=  0.800000  0.720000  1.000000  0.810000 ScalE2=  1.000000  1.000000
 IRadAn=      5 IRanWt=     -1 IRanGd=            0 ICorTp=0 IEmpDi=141
 NAtoms=   17 NActive=   17 NUniq=   17 SFac= 1.00D+00 NAtFMM=   60 NAOKFM=F Big=F
 Integral buffers will be    131072 words long.
 Raffenetti 2 integral format.
 Two-electron integral symmetry is turned off.
 R6Disp:  Grimme-D3(BJ) Dispersion energy=       -0.0345486944 Hartrees.
 Nuclear repulsion after empirical dispersion term =      643.8394341711 Hartrees.
 Force inversion solution in PCM.
 ------------------------------------------------------------------------------
 Polarizable Continuum Model (PCM)
 =================================
 Model                : PCM.
 Atomic radii         : UFF (Universal Force Field).
 Polarization charges : Total charges.
 Charge compensation  : None.
 Solution method      : Matrix inversion.
 Cavity type          : Scaled VdW (van der Waals Surface) (Alpha=1.100).
 Cavity algorithm     : GePol (No added spheres)
                        Default sphere list used, NSphG=   17.
                        Lebedev-Laikov grids with approx.  5.0 points / Ang**2.
                        Smoothing algorithm: York/Karplus (Gamma=1.0000).
                        Polarization charges: spherical gaussians, with
                                              point-specific exponents (IZeta= 3).
                        Self-potential: point-specific (ISelfS= 7).
                        Self-field    : sphere-specific E.n sum rule (ISelfD= 2).
 1st derivatives      : Analytical E(r).r(x)/FMM algorithm (CHGder, D1EAlg=3).
                        Cavity 1st derivative terms included.
 2nd derivatives      : Analytical E(r).r(xy)/FMM algorithm (CHGder, D2EAlg=3).
                        Cavity 2nd derivative terms included.
 Solvent              : Ethanol, Eps=  24.852000 Eps(inf)=   1.852593
 ------------------------------------------------------------------------------
 Spheres list:
 ISph  on   Nord     Re0    Alpha      Xe            Ye            Ze
    1   C      1    1.9255  1.100     -6.587800     -0.060371     -0.000000
    2   C      2    1.9255  1.100     -6.322585     -1.442769     -0.000000
    3   C      3    1.9255  1.100     -5.562695      0.881877     -0.000000
    4   C      4    1.9255  1.100     -4.253864      0.396627      0.000000
    5   C      5    1.9255  1.100     -3.975256     -0.992328      0.000000
    6   C      6    1.9255  1.100     -5.017780     -1.923573      0.000000
    7   N      7    1.8300  1.100     -3.006183      1.016479      0.000000
    8   C      8    1.9255  1.100     -2.076564      0.003933      0.000000
    9   N      9    1.8300  1.100     -2.596961     -1.200681      0.000000
   10   H     10    1.4430  1.100     -5.756973      1.944031     -0.000000
   11   H     11    1.4430  1.100     -7.616912      0.280232     -0.000000
   12   H     12    1.4430  1.100     -7.151113     -2.141573     -0.000000
   13   H     13    1.4430  1.100     -4.806613     -2.986660      0.000000
   14   H     14    1.4430  1.100     -1.023517      0.235778      0.000000
   15   C     15    1.9255  1.100     -2.681912      2.467863      0.000000
   16   O     16    1.7500  1.100     -1.463973      2.712222     -0.000000
   17   O     17    1.7500  1.100     -3.671448      3.215826      0.000000
 ------------------------------------------------------------------------------
 GePol: Number of generator spheres                  =      17
 GePol: Total number of spheres                      =      17
 GePol: Number of exposed spheres                    =      17 (100.00%)
 GePol: Number of points                             =    1581
 GePol: Average weight of points                     =       0.13
 GePol: Minimum weight of points                     =   0.32D-08
 GePol: Maximum weight of points                     =    0.20577
 GePol: Number of points with low weight             =     117
 GePol: Fraction of low-weight points (<1% of avg)   =       7.40%
 GePol: Cavity surface area                          =    202.428 Ang**2
 GePol: Cavity volume                                =    206.783 Ang**3
 Leave Link  301 at Mon Jun  5 11:35:07 2023, MaxMem=  7381975040 cpu:               0.3 elap:               0.5
 (Enter /software/commercial/gaussian/g16/AVX/g16/l302.exe)
 NPDir=0 NMtPBC=     1 NCelOv=     1 NCel=       1 NClECP=     1 NCelD=      1
         NCelK=      1 NCelE2=     1 NClLst=     1 CellRange=     0.0.
 One-electron integrals computed using PRISM.
 NBasis=   294 RedAO= T EigKep=  1.08D-06  NBF=   294
 NBsUse=   294 1.00D-06 EigRej= -1.00D+00 NBFU=   294
 Precomputing XC quadrature grid using
 IXCGrd= 4 IRadAn=           5 IRanWt=          -1 IRanGd=           0 AccXCQ= 0.00D+00.
 Generated NRdTot=       0 NPtTot=           0 NUsed=           0 NTot=          32
 NSgBfM=   306   306   306   306   306 MxSgAt=    17 MxSgA2=    17.
 Leave Link  302 at Mon Jun  5 11:35:10 2023, MaxMem=  7381975040 cpu:               0.9 elap:               1.8
 (Enter /software/commercial/gaussian/g16/AVX/g16/l303.exe)
 DipDrv:  MaxL=1.
 Leave Link  303 at Mon Jun  5 11:35:11 2023, MaxMem=  7381975040 cpu:               0.3 elap:               0.7
 (Enter /software/commercial/gaussian/g16/AVX/g16/l401.exe)
 Initial guess from the checkpoint file:  "/scratch1/svicchi/G09-672253.pbs02/02-freq/benzim-CO2_binding-site_index-6-freq.chk"
 B after Tr=     0.000000    0.000000    0.000000
         Rot=    1.000000    0.000000    0.000000    0.000000 Ang=   0.00 deg.
 Guess basis will be translated and rotated to current coordinates.
 JPrj=2 DoOrth=T DoCkMO=T.
 Leave Link  401 at Mon Jun  5 11:35:13 2023, MaxMem=  7381975040 cpu:               1.0 elap:               1.1
 (Enter /software/commercial/gaussian/g16/AVX/g16/l502.exe)
 Keep R1 ints in memory in canonical form, NReq=954751621.
 FoFCou: FMM=F IPFlag=           0 FMFlag=           0 FMFlg1=           0
         NFxFlg=           0 DoJE=F BraDBF=F KetDBF=F FulRan=T
         wScrn=  0.000000 ICntrl=       600 IOpCl=  0 I1Cent=           0 NGrid=           0
         NMat0=    1 NMatS0=  43365 NMatT0=    0 NMatD0=    1 NMtDS0=    0 NMtDT0=    0
 Symmetry not used in FoFCou.
 Two-electron integral symmetry not used.
 Closed shell SCF:
 Using DIIS extrapolation, IDIIS=  1040.
 NGot=  7381975040 LenX=  6441500057 LenY=  6441405980
 Requested convergence on RMS density matrix=1.00D-08 within 350 cycles.
 Requested convergence on MAX density matrix=1.00D-06.
 Requested convergence on             energy=1.00D-06.
 No special actions if energy rises.

 Cycle   1  Pass 1  IDiag  1:
 Inv3:  Mode=1 IEnd=     7498683.
 Iteration    1 A*A^-1 deviation from unit magnitude is 4.77D-15 for   1557.
 Iteration    1 A*A^-1 deviation from orthogonality  is 1.87D-15 for   1581   1404.
 Iteration    1 A^-1*A deviation from unit magnitude is 4.33D-15 for   1557.
 Iteration    1 A^-1*A deviation from orthogonality  is 1.39D-15 for   1573   1544.
 E= -568.197846028441    
 DIIS: error= 1.99D-08 at cycle   1 NSaved=   1.
 NSaved= 1 IEnMin= 1 EnMin= -568.197846028441     IErMin= 1 ErrMin= 1.99D-08
 ErrMax= 1.99D-08  0.00D+00 EMaxC= 1.00D-01 BMatC= 7.50D-14 BMatP= 7.50D-14
 IDIUse=1 WtCom= 1.00D+00 WtEn= 0.00D+00
 Coeff-Com:  0.100D+01
 Coeff:      0.100D+01
 Gap=     0.203 Goal=   None    Shift=    0.000
 RMSDP=1.29D-08 MaxDP=1.01D-06              OVMax= 1.98D-07

 Cycle   2  Pass 1  IDiag  1:
 E= -568.197846028443     Delta-E=       -0.000000000002 Rises=F Damp=F
 DIIS: error= 4.14D-08 at cycle   2 NSaved=   2.
 NSaved= 2 IEnMin= 2 EnMin= -568.197846028443     IErMin= 1 ErrMin= 1.99D-08
 ErrMax= 4.14D-08  0.00D+00 EMaxC= 1.00D-01 BMatC= 2.86D-13 BMatP= 7.50D-14
 IDIUse=1 WtCom= 1.00D+00 WtEn= 0.00D+00
 Coeff-Com:  0.662D+00 0.338D+00
 Coeff:      0.662D+00 0.338D+00
 Gap=     0.203 Goal=   None    Shift=    0.000
 RMSDP=7.95D-09 MaxDP=7.09D-07 DE=-1.71D-12 OVMax= 1.24D-07

 Error on total polarization charges =  0.02026
 SCF Done:  E(RB3LYP) =  -568.197846028     A.U. after    2 cycles
            NFock=  2  Conv=0.79D-08     -V/T= 2.0040
 KE= 5.659186461130D+02 PE=-2.628573800112D+03 EE= 8.506178737993D+02
 Leave Link  502 at Mon Jun  5 11:36:05 2023, MaxMem=  7381975040 cpu:              89.6 elap:              51.0
 (Enter /software/commercial/gaussian/g16/AVX/g16/l508.exe)
 QCSCF skips out because SCF is already converged.
 Leave Link  508 at Mon Jun  5 11:36:08 2023, MaxMem=  7381975040 cpu:               0.1 elap:               0.6
 (Enter /software/commercial/gaussian/g16/AVX/g16/l801.exe)
 DoSCS=F DFT=T ScalE2(SS,OS)=  1.000000  1.000000
 Range of M.O.s used for correlation:     1   294
 NBasis=   294 NAE=    42 NBE=    42 NFC=     0 NFV=     0
 NROrb=    294 NOA=    42 NOB=    42 NVA=   252 NVB=   252

 **** Warning!!: The largest alpha MO coefficient is  0.24765202D+03

 Leave Link  801 at Mon Jun  5 11:36:09 2023, MaxMem=  7381975040 cpu:               0.2 elap:               0.6
 (Enter /software/commercial/gaussian/g16/AVX/g16/l1002.exe)
 Minotr:  Closed shell wavefunction.
 NEqPCM:  Using equilibrium solvation (IEInf=0, Eps=  24.8520, EpsInf=   1.8526)
          Direct CPHF calculation.
          Differentiating once with respect to electric field.
                with respect to dipole field.
          Electric field/nuclear overlap derivatives assumed to be zero.
          Requested convergence is 1.0D-08 RMS, and 1.0D-07 maximum.
          Secondary convergence is 1.0D-12 RMS, and 1.0D-12 maximum.
          NewPWx=F KeepS1=T KeepF1=T KeepIn=T MapXYZ=F SortEE=F KeepMc=T.
         5228 words used for storage of precomputed grid.
 Keep R1 ints in memory in canonical form, NReq=954758972.
 FoFCou: FMM=F IPFlag=           0 FMFlag=           0 FMFlg1=           0
         NFxFlg=           0 DoJE=F BraDBF=F KetDBF=F FulRan=T
         wScrn=  0.000000 ICntrl=       600 IOpCl=  0 I1Cent=           0 NGrid=           0
         NMat0=    1 NMatS0=  43365 NMatT0=    0 NMatD0=    1 NMtDS0=    0 NMtDT0=    0
 Symmetry not used in FoFCou.
 Two-electron integral symmetry not used.
          MDV=    7381975040 using IRadAn=       1.
          Solving linear equations simultaneously, MaxMat=       0.
          There are     3 degrees of freedom in the 1st order CPHF.  IDoFFX=0 NUNeed=     3.
      3 vectors produced by pass  0 Test12= 3.53D-13 3.33D-08 XBig12= 2.01D+02 8.09D+00.
 AX will form     3 AO Fock derivatives at one time.
      3 vectors produced by pass  1 Test12= 3.53D-13 3.33D-08 XBig12= 7.27D+01 1.85D+00.
      3 vectors produced by pass  2 Test12= 3.53D-13 3.33D-08 XBig12= 1.49D+01 1.13D+00.
      3 vectors produced by pass  3 Test12= 3.53D-13 3.33D-08 XBig12= 9.77D+00 8.68D-01.
      3 vectors produced by pass  4 Test12= 3.53D-13 3.33D-08 XBig12= 1.49D+00 2.86D-01.
      3 vectors produced by pass  5 Test12= 3.53D-13 3.33D-08 XBig12= 6.34D-01 1.86D-01.
      3 vectors produced by pass  6 Test12= 3.53D-13 3.33D-08 XBig12= 1.56D-01 8.46D-02.
      3 vectors produced by pass  7 Test12= 3.53D-13 3.33D-08 XBig12= 2.90D-02 4.75D-02.
      3 vectors produced by pass  8 Test12= 3.53D-13 3.33D-08 XBig12= 8.29D-03 1.79D-02.
      3 vectors produced by pass  9 Test12= 3.53D-13 3.33D-08 XBig12= 2.45D-03 1.64D-02.
      3 vectors produced by pass 10 Test12= 3.53D-13 3.33D-08 XBig12= 4.10D-04 5.48D-03.
      2 vectors produced by pass 11 Test12= 3.53D-13 3.33D-08 XBig12= 1.68D-04 4.66D-03.
      2 vectors produced by pass 12 Test12= 3.53D-13 3.33D-08 XBig12= 7.02D-06 4.52D-04.
      2 vectors produced by pass 13 Test12= 3.53D-13 3.33D-08 XBig12= 9.30D-07 2.60D-04.
      2 vectors produced by pass 14 Test12= 3.53D-13 3.33D-08 XBig12= 9.82D-08 4.25D-05.
      2 vectors produced by pass 15 Test12= 3.53D-13 3.33D-08 XBig12= 2.55D-09 5.26D-06.
      2 vectors produced by pass 16 Test12= 3.53D-13 3.33D-08 XBig12= 8.50D-11 1.16D-06.
      1 vectors produced by pass 17 Test12= 3.53D-13 3.33D-08 XBig12= 1.71D-12 1.63D-07.
 InvSVY:  IOpt=1 It=  1 EMax= 5.33D-15
 Solved reduced A of dimension    46 with     3 vectors.
 End of Minotr F.D. properties file   721 does not exist.
 End of Minotr F.D. properties file   722 does not exist.
 End of Minotr F.D. properties file   788 does not exist.
 Leave Link 1002 at Mon Jun  5 11:39:53 2023, MaxMem=  7381975040 cpu:             415.5 elap:             222.1
 (Enter /software/commercial/gaussian/g16/AVX/g16/l1101.exe)
 Using compressed storage, NAtomX=    17.
 Will process     18 centers per pass.
 R6Disp: Adding Grimme-D3(BJ) dispersion energy 1st derivatives to the gradient.
 Leave Link 1101 at Mon Jun  5 11:39:55 2023, MaxMem=  7381975040 cpu:               1.3 elap:               2.2
 (Enter /software/commercial/gaussian/g16/AVX/g16/l1102.exe)
 Symmetrizing basis deriv contribution to polar:
 IMax=3 JMax=2 DiffMx= 0.00D+00
 Leave Link 1102 at Mon Jun  5 11:39:58 2023, MaxMem=  7381975040 cpu:               0.2 elap:               1.9
 (Enter /software/commercial/gaussian/g16/AVX/g16/l1110.exe)
 Forming Gx(P) for the SCF density, NAtomX=    17.
 Integral derivatives from FoFJK, PRISM(SPDF).
 Do as many integral derivatives as possible in FoFJK.
 G2DrvN: MDV=    7381973187.
 G2DrvN: will do    18 centers at a time, making    1 passes.
 PxScal for G2LodP:  IOpCl= 0 ISclPx=1 IMOff=     1 NMtTot=     4 NTT=   43365 ScalPx= 6.28D+01
 Calling FoFCou, ICntrl=  3107 FMM=F I1Cent=   0 AccDes= 0.00D+00.
 FoFJK:  IHMeth= 1 ICntrl=    3107 DoSepK=F KAlg= 0 I1Cent=           0 FoldK=F
 IRaf=         0 NMat=       1 IRICut=       1 DoRegI=T DoRafI=F ISym2E= 0 IDoP0=0 IntGTp=1.
 FoFCou: FMM=F IPFlag=           0 FMFlag=      100000 FMFlg1=           0
         NFxFlg=           0 DoJE=F BraDBF=F KetDBF=F FulRan=T
         wScrn=  0.000000 ICntrl=      3107 IOpCl=  0 I1Cent=           0 NGrid=           0
         NMat0=    1 NMatS0=      1 NMatT0=    0 NMatD0=    4 NMtDS0=    3 NMtDT0=    0
 Symmetry not used in FoFCou.
 PxScal for G2LodP:  IOpCl= 0 ISclPx=0 IMOff=     1 NMtTot=     4 NTT=   43365 ScalPx= 1.00D+00
 NEqPCM:  Using equilibrium solvation (IEInf=0, Eps=  24.8520, EpsInf=   1.8526)
 G2PCM: DoFxE=T DoFxN=T DoGrad=T DoDP/DQ/DG/TGxP=TFFF NFrqRd=   0 IEInf=0 SqF1=F DoCFld=F IF1Alg=4.
 GePol: Maximum number of non-zero 1st derivatives   =     212
 End of G2Drv F.D. properties file   721 does not exist.
 End of G2Drv F.D. properties file   722 does not exist.
 End of G2Drv F.D. properties file   788 does not exist.
 Leave Link 1110 at Mon Jun  5 11:47:44 2023, MaxMem=  7381975040 cpu:             921.4 elap:             465.0
 (Enter /software/commercial/gaussian/g16/AVX/g16/l1002.exe)
 Minotr:  Closed shell wavefunction.
          IDoAtm=11111111111111111
 NEqPCM:  Using equilibrium solvation (IEInf=0, Eps=  24.8520, EpsInf=   1.8526)
          Direct CPHF calculation.
          Differentiating once with respect to electric field.
                with respect to dipole field.
          Differentiating once with respect to nuclear coordinates.
          Requested convergence is 1.0D-08 RMS, and 1.0D-07 maximum.
          Secondary convergence is 1.0D-12 RMS, and 1.0D-12 maximum.
          NewPWx=T KeepS1=F KeepF1=F KeepIn=T MapXYZ=F SortEE=F KeepMc=T.
         5228 words used for storage of precomputed grid.
 Keep R1 ints in memory in canonical form, NReq=954759363.
 FoFCou: FMM=F IPFlag=           0 FMFlag=           0 FMFlg1=           0
         NFxFlg=           0 DoJE=F BraDBF=F KetDBF=F FulRan=T
         wScrn=  0.000000 ICntrl=       600 IOpCl=  0 I1Cent=           0 NGrid=           0
         NMat0=    1 NMatS0=  43365 NMatT0=    0 NMatD0=    1 NMtDS0=    0 NMtDT0=    0
 Symmetry not used in FoFCou.
 Two-electron integral symmetry not used.
          MDV=    7381975040 using IRadAn=       1.
          Solving linear equations simultaneously, MaxMat=       0.
          There are    54 degrees of freedom in the 1st order CPHF.  IDoFFX=5 NUNeed=    54.
 Will reuse    3 saved solutions.
     48 vectors produced by pass  0 Test12= 1.96D-14 1.85D-09 XBig12= 2.44D-01 1.34D-01.
 AX will form    48 AO Fock derivatives at one time.
     48 vectors produced by pass  1 Test12= 1.96D-14 1.85D-09 XBig12= 6.39D-02 7.95D-02.
     48 vectors produced by pass  2 Test12= 1.96D-14 1.85D-09 XBig12= 7.72D-04 5.24D-03.
     48 vectors produced by pass  3 Test12= 1.96D-14 1.85D-09 XBig12= 3.34D-06 2.41D-04.
     48 vectors produced by pass  4 Test12= 1.96D-14 1.85D-09 XBig12= 1.13D-08 1.41D-05.
     48 vectors produced by pass  5 Test12= 1.96D-14 1.85D-09 XBig12= 3.35D-11 6.46D-07.
     25 vectors produced by pass  6 Test12= 1.96D-14 1.85D-09 XBig12= 7.24D-14 3.34D-08.
 InvSVY:  IOpt=1 It=  1 EMax= 3.89D-16
 Solved reduced A of dimension   313 with    54 vectors.
 FullF1:  Do perturbations      1 to       3.
 Isotropic polarizability for W=    0.000000      159.42 Bohr**3.
 FullF1:  Do perturbations      1 to       6.
 End of Minotr F.D. properties file   721 does not exist.
 End of Minotr F.D. properties file   722 does not exist.
 End of Minotr F.D. properties file   788 does not exist.
 Leave Link 1002 at Mon Jun  5 11:56:41 2023, MaxMem=  7381975040 cpu:            1029.1 elap:             535.9
 (Enter /software/commercial/gaussian/g16/AVX/g16/l601.exe)
 Copying SCF densities to generalized density rwf, IOpCl= 0 IROHF=0.

 **********************************************************************

            Population analysis using the SCF Density.

 **********************************************************************

 Alpha  occ. eigenvalues --  -19.07064 -19.07039 -14.35891 -14.30251 -10.29276
 Alpha  occ. eigenvalues --  -10.23203 -10.20692 -10.19613 -10.17418 -10.17372
 Alpha  occ. eigenvalues --  -10.17225 -10.17133  -1.05700  -1.00319  -0.96082
 Alpha  occ. eigenvalues --   -0.87344  -0.84605  -0.74532  -0.73767  -0.63454
 Alpha  occ. eigenvalues --   -0.62452  -0.59812  -0.55418  -0.50105  -0.48622
 Alpha  occ. eigenvalues --   -0.46428  -0.45879  -0.44330  -0.43274  -0.42233
 Alpha  occ. eigenvalues --   -0.40686  -0.40174  -0.36906  -0.36390  -0.34405
 Alpha  occ. eigenvalues --   -0.30485  -0.28967  -0.27026  -0.26520  -0.24860
 Alpha  occ. eigenvalues --   -0.23470  -0.23228
 Alpha virt. eigenvalues --   -0.02916  -0.00113   0.01075   0.02214   0.02727
 Alpha virt. eigenvalues --    0.02982   0.04385   0.04519   0.04898   0.05376
 Alpha virt. eigenvalues --    0.07332   0.07365   0.07711   0.07930   0.08831
 Alpha virt. eigenvalues --    0.09116   0.10703   0.11363   0.11479   0.11878
 Alpha virt. eigenvalues --    0.12946   0.14433   0.14824   0.15414   0.16050
 Alpha virt. eigenvalues --    0.16225   0.17065   0.17717   0.18038   0.18538
 Alpha virt. eigenvalues --    0.19216   0.20013   0.20311   0.20957   0.21857
 Alpha virt. eigenvalues --    0.22466   0.22588   0.22999   0.23243   0.23656
 Alpha virt. eigenvalues --    0.23839   0.24500   0.25083   0.25220   0.25627
 Alpha virt. eigenvalues --    0.25893   0.26730   0.27044   0.27525   0.28722
 Alpha virt. eigenvalues --    0.29901   0.29986   0.30222   0.30451   0.32164
 Alpha virt. eigenvalues --    0.32878   0.33092   0.34383   0.35044   0.36654
 Alpha virt. eigenvalues --    0.37516   0.40325   0.41651   0.41952   0.44236
 Alpha virt. eigenvalues --    0.44428   0.45699   0.49461   0.50921   0.52701
 Alpha virt. eigenvalues --    0.53638   0.54338   0.55379   0.56645   0.57014
 Alpha virt. eigenvalues --    0.58701   0.59303   0.60624   0.62441   0.62579
 Alpha virt. eigenvalues --    0.63606   0.64150   0.65522   0.67637   0.69485
 Alpha virt. eigenvalues --    0.70013   0.70986   0.73168   0.74206   0.75488
 Alpha virt. eigenvalues --    0.77345   0.79286   0.79852   0.82767   0.83731
 Alpha virt. eigenvalues --    0.84681   0.85033   0.87239   0.87253   0.88653
 Alpha virt. eigenvalues --    0.90594   0.91506   0.92342   0.93050   0.95467
 Alpha virt. eigenvalues --    0.98795   0.98958   0.99725   1.00786   1.01071
 Alpha virt. eigenvalues --    1.01431   1.05214   1.08208   1.08767   1.10520
 Alpha virt. eigenvalues --    1.11725   1.15654   1.16448   1.17742   1.18346
 Alpha virt. eigenvalues --    1.19682   1.20350   1.22081   1.25856   1.26724
 Alpha virt. eigenvalues --    1.29064   1.29304   1.30943   1.36668   1.40265
 Alpha virt. eigenvalues --    1.44536   1.49760   1.51475   1.53680   1.54127
 Alpha virt. eigenvalues --    1.54576   1.56806   1.57456   1.59122   1.60940
 Alpha virt. eigenvalues --    1.64129   1.66984   1.68610   1.69093   1.74456
 Alpha virt. eigenvalues --    1.74804   1.75425   1.79487   1.80360   1.81208
 Alpha virt. eigenvalues --    1.84709   1.85834   1.86435   1.87744   1.91086
 Alpha virt. eigenvalues --    1.91411   1.92854   1.96388   1.97595   2.00839
 Alpha virt. eigenvalues --    2.02076   2.03262   2.04147   2.08264   2.14564
 Alpha virt. eigenvalues --    2.18328   2.21916   2.25913   2.27952   2.30374
 Alpha virt. eigenvalues --    2.35023   2.40589   2.42020   2.43308   2.46222
 Alpha virt. eigenvalues --    2.48079   2.58502   2.59164   2.59396   2.65473
 Alpha virt. eigenvalues --    2.66502   2.66775   2.68917   2.69547   2.71317
 Alpha virt. eigenvalues --    2.73158   2.75089   2.77191   2.78578   2.80437
 Alpha virt. eigenvalues --    2.82079   2.82345   2.84454   2.85157   2.87556
 Alpha virt. eigenvalues --    2.90851   2.90866   2.90989   2.92067   2.96530
 Alpha virt. eigenvalues --    2.98082   2.99532   3.01288   3.08008   3.10087
 Alpha virt. eigenvalues --    3.19461   3.29859   3.30251   3.32506   3.36677
 Alpha virt. eigenvalues --    3.41837   3.43888   3.45776   3.48429   3.52086
 Alpha virt. eigenvalues --    3.56055   3.60996   3.66046   3.69796   3.73422
 Alpha virt. eigenvalues --    3.83646   3.89106   3.90276   3.94350   3.99954
 Alpha virt. eigenvalues --    4.04068   4.09313   4.13351   4.20460   4.50673
 Alpha virt. eigenvalues --    4.82696   4.84352   4.94294   5.04851   5.07778
 Alpha virt. eigenvalues --    5.18794   5.22841   5.30121   5.72776   5.90561
 Alpha virt. eigenvalues --   23.62539  23.87690  23.93333  23.93451  23.98054
 Alpha virt. eigenvalues --   24.05127  24.10741  24.19102  35.53692  35.71688
 Alpha virt. eigenvalues --   49.97311  50.07028
     Molecular Orbital Coefficients:
                           1         2         3         4         5
                           O         O         O         O         O
     Eigenvalues --   -19.07064 -19.07039 -14.35891 -14.30251 -10.29276
   1 1   C  1S         -0.00000  -0.00000  -0.00000  -0.00001  -0.00000
   2        2S          0.00001   0.00001   0.00002   0.00003   0.00000
   3        2PX         0.00001   0.00002   0.00007   0.00001   0.00001
   4        2PY         0.00001  -0.00000   0.00004  -0.00001  -0.00000
   5        2PZ        -0.00000   0.00000  -0.00000   0.00000   0.00000
   6        3S         -0.00015  -0.00003  -0.00010  -0.00032   0.00003
   7        3PX        -0.00004  -0.00009  -0.00040  -0.00010  -0.00004
   8        3PY        -0.00004  -0.00000  -0.00020   0.00009   0.00004
   9        3PZ         0.00000  -0.00000  -0.00000  -0.00000  -0.00000
  10        4S          0.00134  -0.00148  -0.00829   0.00416  -0.00217
  11        4PX         0.00116  -0.00024  -0.00279   0.00298  -0.00058
  12        4PY        -0.00015  -0.00134   0.00062  -0.00117  -0.00206
  13        4PZ         0.00000   0.00000  -0.00000   0.00000   0.00000
  14        5S         -0.02815  -0.03588  -0.00354   0.03524   0.05132
  15        5PX        -0.00571  -0.00471  -0.00046   0.00750   0.01512
  16        5PY        -0.01241  -0.00272   0.00427   0.00629   0.03927
  17        5PZ         0.00000   0.00000  -0.00000  -0.00000  -0.00000
  18        6D 0       -0.00003  -0.00000  -0.00004  -0.00004   0.00002
  19        6D+1       -0.00000   0.00000   0.00000   0.00000   0.00000
  20        6D-1        0.00000  -0.00000  -0.00000  -0.00000  -0.00000
  21        6D+2       -0.00002  -0.00001  -0.00007   0.00005   0.00000
  22        6D-2       -0.00001  -0.00000  -0.00007  -0.00003   0.00001
  23 2   C  1S         -0.00000  -0.00000  -0.00001  -0.00000  -0.00000
  24        2S          0.00001   0.00000   0.00004   0.00002   0.00000
  25        2PX         0.00000   0.00000   0.00000   0.00008  -0.00001
  26        2PY         0.00002   0.00001   0.00002  -0.00000   0.00000
  27        2PZ        -0.00000   0.00000   0.00000   0.00000   0.00000
  28        3S         -0.00002  -0.00002  -0.00040  -0.00004  -0.00006
  29        3PX        -0.00003  -0.00002  -0.00006  -0.00046   0.00002
  30        3PY        -0.00009  -0.00004  -0.00017   0.00003  -0.00000
  31        3PZ         0.00000   0.00000  -0.00000  -0.00000  -0.00000
  32        4S         -0.00096   0.00013   0.00496  -0.00856   0.00151
  33        4PX        -0.00050   0.00088   0.00229  -0.00300   0.00144
  34        4PY        -0.00022  -0.00033   0.00290  -0.00080  -0.00097
  35        4PZ        -0.00000  -0.00000   0.00000  -0.00000   0.00000
  36        5S         -0.00314   0.00656   0.01862  -0.03152  -0.00630
  37        5PX         0.00430   0.00041   0.00205  -0.00871  -0.02099
  38        5PY        -0.00270   0.00618   0.00132   0.00114   0.02065
  39        5PZ        -0.00000  -0.00000   0.00000  -0.00000  -0.00000
  40        6D 0       -0.00000   0.00000  -0.00006  -0.00001  -0.00001
  41        6D+1        0.00000   0.00000   0.00000  -0.00000   0.00000
  42        6D-1       -0.00000  -0.00000   0.00000  -0.00000  -0.00000
  43        6D+2        0.00002   0.00001   0.00002  -0.00012  -0.00001
  44        6D-2        0.00002  -0.00001   0.00004   0.00001   0.00001
  45 3   C  1S         -0.00000  -0.00000  -0.00001  -0.00001  -0.00001
  46        2S          0.00001   0.00001   0.00004   0.00003   0.00000
  47        2PX         0.00003  -0.00002   0.00003   0.00008   0.00001
  48        2PY         0.00005   0.00001   0.00008  -0.00008   0.00002
  49        2PZ         0.00000  -0.00000   0.00000   0.00000  -0.00000
  50        3S         -0.00003  -0.00001  -0.00050   0.00000   0.00007
  51        3PX        -0.00010   0.00009  -0.00003  -0.00056  -0.00000
  52        3PY        -0.00017  -0.00004  -0.00036   0.00046  -0.00005
  53        3PZ        -0.00000   0.00000  -0.00000  -0.00000   0.00000
  54        4S          0.00021  -0.00007   0.01553  -0.01012  -0.00229
  55        4PX         0.00052  -0.00238   0.00266  -0.00282  -0.00452
  56        4PY         0.00071  -0.00103  -0.00881   0.00340  -0.00099
  57        4PZ        -0.00000  -0.00000   0.00000  -0.00000  -0.00000
  58        5S          0.00589   0.07142   0.01503  -0.02838   0.08449
  59        5PX        -0.02218  -0.00101   0.00673   0.01134   0.07802
  60        5PY        -0.00892  -0.01066  -0.00249   0.01137   0.02003
  61        5PZ        -0.00000   0.00000   0.00000   0.00000   0.00000
  62        6D 0        0.00004   0.00003  -0.00009   0.00007   0.00009
  63        6D+1       -0.00000  -0.00000   0.00000  -0.00000  -0.00000
  64        6D-1       -0.00000  -0.00000  -0.00000   0.00000  -0.00000
  65        6D+2       -0.00002  -0.00001  -0.00026  -0.00014  -0.00005
  66        6D-2       -0.00006   0.00004  -0.00011   0.00016   0.00001
  67 4   C  1S         -0.00000  -0.00000   0.00001  -0.00001  -0.00002
  68        2S          0.00001   0.00001   0.00001   0.00006  -0.00000
  69        2PX        -0.00001   0.00005   0.00042  -0.00001   0.00004
  70        2PY         0.00002   0.00010   0.00026  -0.00004   0.00007
  71        2PZ         0.00000   0.00000   0.00000   0.00000  -0.00000
  72        3S         -0.00008   0.00007   0.00049  -0.00078  -0.00005
  73        3PX         0.00010  -0.00029  -0.00106  -0.00012  -0.00026
  74        3PY         0.00001  -0.00051  -0.00077   0.00050  -0.00038
  75        3PZ        -0.00000  -0.00000  -0.00000  -0.00000   0.00000
  76        4S          0.00502  -0.00383   0.00337   0.00985  -0.00331
  77        4PX         0.00282  -0.00145   0.02140  -0.00976  -0.00445
  78        4PY         0.00075   0.00308   0.00506  -0.00264   0.00575
  79        4PZ         0.00000  -0.00000   0.00000  -0.00000  -0.00000
  80        5S          0.03605   0.00456  -0.03831   0.07996   0.04393
  81        5PX         0.00122   0.03804   0.00737   0.00361   0.07843
  82        5PY         0.02105  -0.00695   0.00623  -0.03098  -0.11151
  83        5PZ         0.00000  -0.00000   0.00000   0.00000   0.00000
  84        6D 0       -0.00003   0.00004   0.00012  -0.00018   0.00003
  85        6D+1        0.00000  -0.00000   0.00000   0.00000  -0.00000
  86        6D-1       -0.00000  -0.00000  -0.00000  -0.00000  -0.00000
  87        6D+2        0.00001   0.00004  -0.00063   0.00044   0.00002
  88        6D-2        0.00003  -0.00012  -0.00051   0.00004  -0.00009
  89 5   C  1S         -0.00000  -0.00000  -0.00001   0.00001  -0.00001
  90        2S          0.00000   0.00001   0.00005  -0.00003   0.00001
  91        2PX         0.00001   0.00000  -0.00005   0.00042   0.00001
  92        2PY         0.00001   0.00001   0.00002  -0.00011   0.00003
  93        2PZ         0.00000   0.00000  -0.00000   0.00000   0.00000
  94        3S         -0.00002  -0.00010  -0.00064   0.00075  -0.00026
  95        3PX        -0.00002  -0.00000   0.00021  -0.00096  -0.00008
  96        3PY        -0.00004  -0.00004  -0.00051   0.00030  -0.00016
  97        3PZ        -0.00000  -0.00000   0.00000  -0.00000  -0.00000
  98        4S         -0.00126   0.00365   0.00579   0.00050   0.00496
  99        4PX        -0.00106  -0.00072  -0.01267   0.01886   0.00009
 100        4PY        -0.00097   0.00179  -0.00515  -0.00040   0.00578
 101        4PZ         0.00000   0.00000  -0.00000   0.00000   0.00000
 102        5S          0.03016   0.03527   0.03185  -0.11240  -0.18158
 103        5PX        -0.00988  -0.04129  -0.00586   0.01684  -0.00331
 104        5PY        -0.00694  -0.04713   0.00541  -0.01506  -0.06663
 105        5PZ        -0.00000   0.00000  -0.00000   0.00000   0.00000
 106        6D 0       -0.00000  -0.00004  -0.00016   0.00009  -0.00003
 107        6D+1        0.00000  -0.00000  -0.00000  -0.00000  -0.00000
 108        6D-1       -0.00000   0.00000   0.00000   0.00000   0.00000
 109        6D+2        0.00001   0.00003   0.00035  -0.00064  -0.00002
 110        6D-2        0.00002   0.00003   0.00036   0.00018   0.00002
 111 6   C  1S         -0.00000   0.00000  -0.00001  -0.00001   0.00000
 112        2S          0.00001  -0.00000   0.00003   0.00005  -0.00000
 113        2PX         0.00001   0.00001   0.00007   0.00005   0.00002
 114        2PY         0.00001   0.00002   0.00010  -0.00006   0.00001
 115        2PZ        -0.00000   0.00000   0.00000   0.00000   0.00000
 116        3S         -0.00008   0.00008  -0.00002  -0.00052   0.00005
 117        3PX        -0.00004  -0.00005  -0.00044  -0.00019  -0.00011
 118        3PY        -0.00005  -0.00008  -0.00067   0.00025  -0.00007
 119        3PZ         0.00000  -0.00000  -0.00000  -0.00000  -0.00000
 120        4S         -0.00007  -0.00144  -0.01259   0.01372   0.00031
 121        4PX        -0.00049   0.00059  -0.00226  -0.00256   0.00293
 122        4PY         0.00034  -0.00065  -0.00470   0.00817  -0.00103
 123        4PZ        -0.00000   0.00000   0.00000  -0.00000   0.00000
 124        5S         -0.02896  -0.09450  -0.01841   0.06137   0.02030
 125        5PX        -0.00227  -0.02048   0.00299  -0.00531  -0.02869
 126        5PY        -0.00295  -0.01308  -0.00349   0.01096   0.00154
 127        5PZ         0.00000  -0.00000   0.00000  -0.00000  -0.00000
 128        6D 0       -0.00001   0.00001   0.00005  -0.00008   0.00000
 129        6D+1        0.00000  -0.00000  -0.00000   0.00000  -0.00000
 130        6D-1       -0.00000   0.00000  -0.00000  -0.00000  -0.00000
 131        6D+2        0.00000   0.00001  -0.00007  -0.00021  -0.00001
 132        6D-2       -0.00001  -0.00004  -0.00020  -0.00016  -0.00004
 133 7   N  1S         -0.00000  -0.00000   0.55736   0.00012  -0.00002
 134        2S          0.00002   0.00002   0.46565   0.00018  -0.00006
 135        2PX         0.00005   0.00002  -0.00001   0.00002   0.00004
 136        2PY         0.00011   0.00012  -0.00013  -0.00007   0.00014
 137        2PZ        -0.00000   0.00000   0.00000   0.00000   0.00000
 138        3S         -0.00002   0.00002   0.01710  -0.00038   0.00031
 139        3PX        -0.00032   0.00001  -0.00033  -0.00012   0.00002
 140        3PY        -0.00043  -0.00050  -0.00080   0.00033   0.00016
 141        3PZ         0.00000  -0.00000   0.00000  -0.00000  -0.00000
 142        4S         -0.00102  -0.00128  -0.02604   0.00118   0.00193
 143        4PX         0.00392  -0.00293   0.00474  -0.00160  -0.00075
 144        4PY        -0.00036   0.00049   0.00371   0.00282  -0.00228
 145        4PZ        -0.00000   0.00000  -0.00000   0.00000   0.00000
 146        5S         -0.00732  -0.01199  -0.00494  -0.00672  -0.00262
 147        5PX         0.00663  -0.00974   0.00169   0.00118  -0.00248
 148        5PY        -0.00596  -0.00377   0.00259   0.01246   0.01640
 149        5PZ        -0.00000   0.00000  -0.00000   0.00000  -0.00000
 150        6D 0        0.00003   0.00005  -0.00030   0.00010   0.00016
 151        6D+1       -0.00000  -0.00000   0.00000  -0.00000   0.00000
 152        6D-1       -0.00000   0.00000  -0.00000   0.00000  -0.00000
 153        6D+2        0.00017   0.00016  -0.00004   0.00004   0.00025
 154        6D-2       -0.00007  -0.00010  -0.00006   0.00023  -0.00013
 155 8   C  1S         -0.00000  -0.00000   0.00001  -0.00000  -0.00003
 156        2S          0.00002   0.00001   0.00004   0.00010  -0.00001
 157        2PX        -0.00002   0.00003  -0.00026  -0.00011  -0.00003
 158        2PY         0.00007   0.00004   0.00032  -0.00047   0.00007
 159        2PZ         0.00000  -0.00000  -0.00000   0.00000   0.00000
 160        3S         -0.00006  -0.00007   0.00020   0.00012  -0.00027
 161        3PX         0.00013  -0.00008   0.00068   0.00033   0.00026
 162        3PY        -0.00040  -0.00006  -0.00069   0.00148  -0.00042
 163        3PZ        -0.00000   0.00000   0.00000  -0.00000  -0.00000
 164        4S         -0.00391   0.00414   0.00506   0.00996   0.00097
 165        4PX         0.00140  -0.00073  -0.00386  -0.00560   0.00135
 166        4PY         0.00023   0.00203   0.00085  -0.00297   0.00136
 167        4PZ         0.00000  -0.00000  -0.00000  -0.00000  -0.00000
 168        5S         -0.00467   0.02332  -0.00333   0.00131  -0.01119
 169        5PX         0.00162  -0.00529   0.00043  -0.00085   0.00365
 170        5PY        -0.00149   0.00020   0.00008   0.00099   0.00009
 171        5PZ         0.00000   0.00000  -0.00000  -0.00000   0.00000
 172        6D 0        0.00003  -0.00005   0.00008   0.00019  -0.00010
 173        6D+1       -0.00000   0.00000  -0.00000   0.00000   0.00000
 174        6D-1        0.00000  -0.00000   0.00000   0.00000  -0.00000
 175        6D+2        0.00009   0.00005   0.00017   0.00095  -0.00000
 176        6D-2        0.00008   0.00000   0.00096  -0.00086   0.00013
 177 9   N  1S         -0.00000  -0.00000  -0.00013   0.55737   0.00000
 178        2S          0.00002   0.00001  -0.00003   0.46570   0.00001
 179        2PX         0.00001  -0.00000   0.00000  -0.00071  -0.00000
 180        2PY         0.00000   0.00000   0.00007   0.00124   0.00002
 181        2PZ         0.00000   0.00000  -0.00000  -0.00000  -0.00000
 182        3S         -0.00017  -0.00003  -0.00048   0.01703  -0.00008
 183        3PX        -0.00002   0.00000  -0.00003  -0.00018   0.00002
 184        3PY        -0.00003  -0.00001  -0.00048   0.00105  -0.00010
 185        3PZ        -0.00000  -0.00000   0.00000  -0.00000   0.00000
 186        4S          0.00162   0.00005   0.00273  -0.02569   0.00040
 187        4PX        -0.00016   0.00012  -0.00112   0.00523  -0.00035
 188        4PY         0.00058  -0.00037  -0.00018  -0.00426  -0.00012
 189        4PZ        -0.00000   0.00000   0.00000   0.00000  -0.00000
 190        5S          0.00144   0.00212   0.00226   0.00570   0.01265
 191        5PX         0.00021   0.00116   0.00105  -0.00172  -0.00110
 192        5PY         0.00054   0.00100   0.00061   0.00179   0.00399
 193        5PZ        -0.00000  -0.00000   0.00000  -0.00000  -0.00000
 194        6D 0        0.00000   0.00001   0.00009  -0.00027   0.00002
 195        6D+1       -0.00000   0.00000  -0.00000  -0.00000   0.00000
 196        6D-1       -0.00000   0.00000   0.00000  -0.00000   0.00000
 197        6D+2        0.00002   0.00002   0.00016  -0.00012   0.00004
 198        6D-2       -0.00001   0.00001  -0.00003   0.00035  -0.00001
 199 10  H  1S          0.00003  -0.00004  -0.00017  -0.00001  -0.00002
 200        2S         -0.00020   0.00040   0.00121  -0.00028   0.00046
 201        3S         -0.00033  -0.00134   0.00293  -0.00062  -0.00168
 202        4PX        -0.00006   0.00002   0.00004   0.00003   0.00004
 203        4PY        -0.00005  -0.00002  -0.00003   0.00008  -0.00000
 204        4PZ        -0.00000  -0.00000   0.00000   0.00000   0.00000
 205 11  H  1S         -0.00002  -0.00003  -0.00004  -0.00007  -0.00001
 206        2S          0.00018   0.00020   0.00003   0.00040   0.00020
 207        3S          0.00052   0.00011  -0.00026   0.00083   0.00013
 208        4PX         0.00000   0.00002   0.00002  -0.00003   0.00003
 209        4PY        -0.00001   0.00002   0.00000   0.00001   0.00003
 210        4PZ        -0.00000  -0.00000   0.00000  -0.00000  -0.00000
 211 12  H  1S         -0.00000  -0.00002  -0.00008  -0.00003   0.00000
 212        2S         -0.00009   0.00013   0.00044   0.00004  -0.00003
 213        3S         -0.00011   0.00008   0.00092  -0.00016   0.00010
 214        4PX        -0.00002  -0.00001  -0.00002   0.00003  -0.00004
 215        4PY        -0.00001   0.00002  -0.00003  -0.00002   0.00003
 216        4PZ         0.00000   0.00000  -0.00000   0.00000  -0.00000
 217 13  H  1S         -0.00001   0.00000  -0.00001  -0.00018   0.00003
 218        2S          0.00009  -0.00008  -0.00028   0.00134  -0.00047
 219        3S          0.00018  -0.00002  -0.00034   0.00160  -0.00058
 220        4PX         0.00000  -0.00001   0.00008   0.00003  -0.00004
 221        4PY        -0.00000  -0.00000  -0.00008   0.00001  -0.00005
 222        4PZ         0.00000  -0.00000   0.00000  -0.00000   0.00000
 223 14  H  1S         -0.00002   0.00005  -0.00016  -0.00022   0.00005
 224        2S         -0.00001  -0.00052  -0.00031   0.00014  -0.00086
 225        3S         -0.00173   0.00027   0.00135   0.00213  -0.00052
 226        4PX         0.00004   0.00011   0.00043   0.00029   0.00019
 227        4PY        -0.00003  -0.00013  -0.00019   0.00042  -0.00009
 228        4PZ        -0.00000   0.00000   0.00000  -0.00000   0.00000
 229 15  C  1S         -0.00002  -0.00002   0.00001  -0.00000   0.56310
 230        2S          0.00010   0.00009  -0.00002   0.00002   0.46331
 231        2PX        -0.00030   0.00034  -0.00005  -0.00000  -0.00012
 232        2PY         0.00023   0.00012  -0.00032  -0.00008  -0.00067
 233        2PZ         0.00000  -0.00000  -0.00000  -0.00000  -0.00000
 234        3S          0.00012   0.00026   0.00006   0.00001   0.01848
 235        3PX         0.00066  -0.00066   0.00005   0.00002   0.00020
 236        3PY        -0.00047  -0.00031   0.00062   0.00039   0.00153
 237        3PZ        -0.00000   0.00000   0.00000   0.00000   0.00000
 238        4S          0.00307   0.00326   0.00260  -0.00431  -0.01350
 239        4PX        -0.00921   0.00924  -0.00133   0.00222   0.00296
 240        4PY         0.00293  -0.00140  -0.00213  -0.00017   0.00048
 241        4PZ         0.00000  -0.00000   0.00000  -0.00000  -0.00000
 242        5S         -0.00696  -0.00953  -0.00216  -0.00649  -0.00755
 243        5PX         0.00180  -0.00065   0.00049   0.00082   0.00100
 244        5PY         0.00154   0.00314  -0.00002   0.00204   0.00268
 245        5PZ        -0.00000   0.00000  -0.00000  -0.00000  -0.00000
 246        6D 0        0.00016   0.00018  -0.00006   0.00006  -0.00149
 247        6D+1        0.00000   0.00000  -0.00000   0.00000  -0.00000
 248        6D-1       -0.00000   0.00000   0.00000  -0.00000   0.00000
 249        6D+2       -0.00023  -0.00081   0.00050   0.00007   0.00151
 250        6D-2        0.00084  -0.00018  -0.00013  -0.00004  -0.00072
 251 16  O  1S         -0.02421   0.55078   0.00000   0.00000  -0.00007
 252        2S         -0.02058   0.46924   0.00002   0.00001  -0.00004
 253        2PX        -0.00001  -0.00108  -0.00005  -0.00000  -0.00046
 254        2PY         0.00004  -0.00022  -0.00000  -0.00002  -0.00011
 255        2PZ         0.00000   0.00000   0.00000   0.00000   0.00000
 256        3S         -0.00098   0.01407  -0.00010  -0.00003   0.00040
 257        3PX         0.00029  -0.00056   0.00026   0.00001   0.00138
 258        3PY        -0.00005  -0.00019   0.00003   0.00007   0.00034
 259        3PZ        -0.00000   0.00000  -0.00000  -0.00000  -0.00000
 260        4S          0.00309  -0.01315  -0.00020  -0.00030  -0.00390
 261        4PX        -0.00075   0.00231   0.00008  -0.00006   0.00188
 262        4PY        -0.00090   0.00101   0.00048  -0.00005   0.00061
 263        4PZ         0.00000  -0.00000   0.00000   0.00000  -0.00000
 264        5S          0.00491   0.00630  -0.00011  -0.00181   0.00058
 265        5PX        -0.00165  -0.00031  -0.00011   0.00053  -0.00088
 266        5PY        -0.00071  -0.00167   0.00033   0.00020  -0.00095
 267        5PZ         0.00000   0.00000  -0.00000  -0.00000   0.00000
 268        6D 0        0.00004  -0.00012   0.00004  -0.00003   0.00052
 269        6D+1        0.00000  -0.00000   0.00000  -0.00000   0.00000
 270        6D-1       -0.00000  -0.00000   0.00000  -0.00000   0.00000
 271        6D+2       -0.00014   0.00018  -0.00007  -0.00001  -0.00071
 272        6D-2        0.00017   0.00006  -0.00009  -0.00000  -0.00044
 273 17  O  1S          0.55078   0.02421   0.00000   0.00000  -0.00007
 274        2S          0.46925   0.02067   0.00002   0.00002  -0.00004
 275        2PX         0.00089   0.00011   0.00002   0.00002   0.00036
 276        2PY        -0.00066  -0.00003  -0.00004  -0.00000  -0.00032
 277        2PZ        -0.00000  -0.00000  -0.00000  -0.00000  -0.00000
 278        3S          0.01401   0.00023  -0.00011  -0.00016   0.00028
 279        3PX         0.00043  -0.00025  -0.00014  -0.00008  -0.00109
 280        3PY        -0.00042   0.00004   0.00021   0.00002   0.00098
 281        3PZ        -0.00000   0.00000   0.00000   0.00000   0.00000
 282        4S         -0.01280   0.00224  -0.00057   0.00123  -0.00268
 283        4PX        -0.00148   0.00045  -0.00011   0.00048  -0.00117
 284        4PY         0.00185  -0.00109   0.00039  -0.00034   0.00082
 285        4PZ         0.00000  -0.00000   0.00000  -0.00000   0.00000
 286        5S          0.00363   0.00551  -0.00098   0.00092   0.00731
 287        5PX        -0.00158   0.00001   0.00059   0.00027   0.00292
 288        5PY        -0.00075  -0.00167   0.00082  -0.00001  -0.00282
 289        5PZ        -0.00000  -0.00000   0.00000  -0.00000  -0.00000
 290        6D 0       -0.00013   0.00001   0.00002   0.00001   0.00053
 291        6D+1       -0.00000   0.00000  -0.00000   0.00000   0.00000
 292        6D-1        0.00000   0.00000  -0.00000  -0.00000  -0.00000
 293        6D+2        0.00009  -0.00021   0.00005  -0.00000  -0.00011
 294        6D-2       -0.00019  -0.00003   0.00011   0.00000   0.00084
                           6         7         8         9        10
                           O         O         O         O         O
     Eigenvalues --   -10.23203 -10.20692 -10.19613 -10.17418 -10.17372
   1 1   C  1S         -0.00001  -0.00004  -0.00016   0.00596   0.10479
   2        2S          0.00001   0.00003  -0.00007   0.00495   0.08640
   3        2PX         0.00002   0.00008  -0.00001   0.00002   0.00049
   4        2PY         0.00001   0.00011  -0.00004  -0.00023   0.00050
   5        2PZ         0.00000  -0.00000   0.00000   0.00000  -0.00000
   6        3S         -0.00013  -0.00026  -0.00062   0.00025   0.00324
   7        3PX        -0.00013  -0.00088  -0.00016  -0.00029  -0.00189
   8        3PY        -0.00003  -0.00076   0.00029   0.00133  -0.00194
   9        3PZ        -0.00000  -0.00000  -0.00000  -0.00000   0.00000
  10        4S          0.00101  -0.00481   0.00897  -0.00730   0.00900
  11        4PX         0.00049  -0.00220   0.00469  -0.00392   0.00677
  12        4PY        -0.00025   0.00161  -0.00115   0.00085  -0.00081
  13        4PZ         0.00000  -0.00000   0.00000  -0.00000   0.00000
  14        5S         -0.00358  -0.02542  -0.00458  -0.03679   0.01143
  15        5PX         0.00070  -0.00570   0.00554  -0.00232   0.00129
  16        5PY        -0.00337  -0.00842   0.02174   0.01599  -0.00821
  17        5PZ         0.00000   0.00000  -0.00000  -0.00000   0.00000
  18        6D 0       -0.00002  -0.00003  -0.00009   0.00007   0.00026
  19        6D+1        0.00000   0.00000   0.00000   0.00000   0.00000
  20        6D-1       -0.00000  -0.00000   0.00000   0.00000  -0.00000
  21        6D+2        0.00001   0.00001   0.00015   0.00066  -0.00029
  22        6D-2       -0.00002  -0.00061   0.00002   0.00026  -0.00149
  23 2   C  1S         -0.00001  -0.00011  -0.00001   0.05741   0.01078
  24        2S          0.00001  -0.00002   0.00005   0.04741   0.00893
  25        2PX         0.00004  -0.00000   0.00014   0.00068  -0.00008
  26        2PY        -0.00001   0.00003  -0.00008  -0.00030   0.00028
  27        2PZ         0.00000   0.00000   0.00000   0.00000  -0.00000
  28        3S         -0.00012  -0.00055  -0.00007   0.00162   0.00046
  29        3PX        -0.00026  -0.00016  -0.00120  -0.00268   0.00028
  30        3PY         0.00004  -0.00031   0.00039   0.00121  -0.00156
  31        3PZ        -0.00000  -0.00000  -0.00000  -0.00000   0.00000
  32        4S         -0.00144   0.00578  -0.00882   0.00842  -0.00754
  33        4PX        -0.00042   0.00244  -0.00320   0.00610  -0.00361
  34        4PY        -0.00090   0.00210  -0.00278   0.00371  -0.00245
  35        4PZ        -0.00000   0.00000  -0.00000   0.00000  -0.00000
  36        5S         -0.02304   0.00616  -0.00266   0.03426  -0.03607
  37        5PX        -0.00375   0.00453  -0.01453  -0.00365  -0.00329
  38        5PY         0.00231  -0.00229   0.02096   0.01878  -0.00593
  39        5PZ        -0.00000   0.00000  -0.00000  -0.00000   0.00000
  40        6D 0       -0.00003  -0.00008   0.00003   0.00046   0.00011
  41        6D+1        0.00000   0.00000  -0.00000  -0.00000   0.00000
  42        6D-1       -0.00000   0.00000   0.00000   0.00000   0.00000
  43        6D+2       -0.00005   0.00010  -0.00044  -0.00129   0.00075
  44        6D-2        0.00003   0.00012   0.00044   0.00090   0.00032
  45 3   C  1S         -0.00001   0.00448  -0.00020  -0.00344   0.55291
  46        2S          0.00001   0.00387  -0.00014  -0.00277   0.45494
  47        2PX        -0.00001   0.00073   0.00008  -0.00003   0.00007
  48        2PY        -0.00001  -0.00024  -0.00007  -0.00004  -0.00014
  49        2PZ        -0.00000   0.00000   0.00000  -0.00000   0.00000
  50        3S         -0.00025  -0.00010   0.00014  -0.00055   0.01994
  51        3PX        -0.00002  -0.00329  -0.00065   0.00011   0.00037
  52        3PY         0.00007   0.00102   0.00062   0.00041   0.00028
  53        3PZ         0.00000  -0.00000  -0.00000   0.00000   0.00000
  54        4S          0.00190   0.00644  -0.01081   0.00444  -0.02602
  55        4PX         0.00125   0.00275  -0.00094  -0.00049  -0.00331
  56        4PY        -0.00018  -0.00481   0.00706  -0.00316   0.01176
  57        4PZ        -0.00000   0.00000  -0.00000   0.00000  -0.00000
  58        5S         -0.04197  -0.01347   0.06009   0.06557  -0.02466
  59        5PX        -0.01385  -0.01821   0.03525   0.02167  -0.00883
  60        5PY         0.00179  -0.00606   0.00581  -0.00383   0.00116
  61        5PZ        -0.00000  -0.00000   0.00000   0.00000  -0.00000
  62        6D 0       -0.00007   0.00061   0.00001   0.00000  -0.00166
  63        6D+1       -0.00000  -0.00000  -0.00000   0.00000   0.00000
  64        6D-1       -0.00000   0.00000   0.00000  -0.00000  -0.00000
  65        6D+2       -0.00001  -0.00135  -0.00028  -0.00003  -0.00034
  66        6D-2        0.00005   0.00141   0.00029  -0.00009  -0.00037
  67 4   C  1S         -0.00003   0.56274  -0.01239   0.00013  -0.00451
  68        2S         -0.00004   0.46304  -0.01007   0.00015  -0.00356
  69        2PX        -0.00001   0.00069   0.00015   0.00000  -0.00075
  70        2PY         0.00006   0.00048  -0.00076  -0.00009   0.00029
  71        2PZ         0.00000  -0.00000   0.00000  -0.00000  -0.00000
  72        3S         -0.00002   0.01988  -0.00042   0.00005  -0.00013
  73        3PX         0.00003  -0.00111  -0.00065   0.00001   0.00296
  74        3PY        -0.00018  -0.00085   0.00279   0.00067  -0.00117
  75        3PZ        -0.00000  -0.00000  -0.00000   0.00000   0.00000
  76        4S         -0.00220  -0.02013   0.00727  -0.00895   0.00487
  77        4PX         0.00060   0.00699  -0.00969  -0.00000  -0.01451
  78        4PY        -0.00113   0.00323  -0.00808   0.00284  -0.00466
  79        4PZ         0.00000   0.00000  -0.00000  -0.00000  -0.00000
  80        5S          0.09297  -0.05342   0.04211  -0.02657   0.01479
  81        5PX        -0.01654  -0.03144   0.05403   0.04102  -0.03036
  82        5PY        -0.00057   0.02590  -0.05469  -0.01617  -0.00692
  83        5PZ        -0.00000  -0.00000   0.00000   0.00000  -0.00000
  84        6D 0       -0.00011  -0.00159   0.00064   0.00010   0.00078
  85        6D+1       -0.00000   0.00000   0.00000   0.00000  -0.00000
  86        6D-1       -0.00000  -0.00000   0.00000   0.00000   0.00000
  87        6D+2        0.00016   0.00069   0.00141   0.00042  -0.00128
  88        6D-2       -0.00008  -0.00087   0.00056   0.00009   0.00078
  89 5   C  1S          0.00002   0.01229   0.56271  -0.00677   0.00010
  90        2S         -0.00001   0.01024   0.46307  -0.00540   0.00013
  91        2PX         0.00000  -0.00011   0.00050  -0.00061  -0.00006
  92        2PY        -0.00002   0.00071  -0.00016  -0.00056   0.00006
  93        2PZ         0.00000  -0.00000   0.00000  -0.00000  -0.00000
  94        3S          0.00016   0.00034   0.01955  -0.00046   0.00003
  95        3PX         0.00005   0.00031  -0.00137   0.00235   0.00044
  96        3PY         0.00001  -0.00265   0.00065   0.00227  -0.00052
  97        3PZ        -0.00000   0.00000  -0.00000   0.00000   0.00000
  98        4S         -0.00320   0.00413  -0.01992   0.01051  -0.00639
  99        4PX         0.00721  -0.00687   0.01168  -0.01147   0.00581
 100        4PY         0.00393   0.00190  -0.00433  -0.00065  -0.00042
 101        4PZ         0.00000  -0.00000   0.00000  -0.00000   0.00000
 102        5S         -0.01817   0.07201  -0.00849   0.06774  -0.04505
 103        5PX         0.01208  -0.01016  -0.06119  -0.06195   0.01713
 104        5PY        -0.02492   0.01574  -0.09371  -0.05897   0.00609
 105        5PZ         0.00000  -0.00000   0.00000   0.00000   0.00000
 106        6D 0       -0.00009   0.00052  -0.00159   0.00072   0.00004
 107        6D+1       -0.00000  -0.00000   0.00000  -0.00000   0.00000
 108        6D-1       -0.00000   0.00000  -0.00000  -0.00000   0.00000
 109        6D+2        0.00011   0.00143  -0.00015  -0.00037   0.00038
 110        6D-2        0.00018   0.00063   0.00086  -0.00147   0.00021
 111 6   C  1S         -0.00002   0.00004   0.00669   0.55986   0.00116
 112        2S          0.00001   0.00008   0.00569   0.46067   0.00102
 113        2PX        -0.00001   0.00009   0.00060   0.00001  -0.00004
 114        2PY        -0.00002   0.00010   0.00047  -0.00004   0.00001
 115        2PZ         0.00000   0.00000   0.00000   0.00000  -0.00000
 116        3S         -0.00044  -0.00003  -0.00013   0.02004  -0.00045
 117        3PX         0.00002  -0.00055  -0.00264   0.00021   0.00031
 118        3PY         0.00004  -0.00080  -0.00196   0.00022  -0.00026
 119        3PZ        -0.00000  -0.00000  -0.00000  -0.00000   0.00000
 120        4S          0.00811  -0.00678   0.00928  -0.02426   0.00776
 121        4PX         0.00207   0.00104  -0.00150   0.00040  -0.00046
 122        4PY         0.00404  -0.00397   0.00724  -0.01191   0.00382
 123        4PZ        -0.00000   0.00000  -0.00000   0.00000  -0.00000
 124        5S          0.00444  -0.02580  -0.12209  -0.13381   0.04977
 125        5PX        -0.01457   0.00372  -0.04825  -0.03110   0.00257
 126        5PY         0.00318  -0.00553  -0.01898  -0.02148   0.00874
 127        5PZ        -0.00000   0.00000  -0.00000  -0.00000  -0.00000
 128        6D 0       -0.00011   0.00002   0.00059  -0.00173  -0.00003
 129        6D+1        0.00000   0.00000   0.00000   0.00000   0.00000
 130        6D-1       -0.00000  -0.00000  -0.00000  -0.00000  -0.00000
 131        6D+2        0.00003  -0.00002  -0.00002  -0.00030  -0.00016
 132        6D-2       -0.00003  -0.00048  -0.00190  -0.00004   0.00009
 133 7   N  1S         -0.00005  -0.00004   0.00000   0.00000   0.00000
 134        2S         -0.00005  -0.00006   0.00004   0.00003   0.00004
 135        2PX         0.00022  -0.00028  -0.00009  -0.00005  -0.00008
 136        2PY        -0.00026  -0.00024   0.00004  -0.00004   0.00001
 137        2PZ         0.00000  -0.00000  -0.00000   0.00000   0.00000
 138        3S          0.00067   0.00100  -0.00033  -0.00024  -0.00042
 139        3PX        -0.00030   0.00036   0.00051   0.00025   0.00036
 140        3PY         0.00033   0.00050  -0.00009   0.00026   0.00000
 141        3PZ        -0.00000   0.00000   0.00000  -0.00000  -0.00000
 142        4S         -0.00092  -0.00555   0.00251   0.00028   0.00508
 143        4PX        -0.00181   0.00275  -0.00297  -0.00134  -0.00291
 144        4PY         0.00297   0.00252   0.00018  -0.00216  -0.00103
 145        4PZ         0.00000  -0.00000   0.00000   0.00000   0.00000
 146        5S          0.00770   0.01537  -0.00362  -0.00251   0.01215
 147        5PX         0.00837  -0.01299  -0.00982  -0.00534  -0.00973
 148        5PY        -0.00645  -0.01064  -0.00435  -0.00389  -0.00167
 149        5PZ        -0.00000   0.00000   0.00000   0.00000   0.00000
 150        6D 0        0.00056   0.00057  -0.00001  -0.00001  -0.00001
 151        6D+1       -0.00000   0.00000   0.00000   0.00000  -0.00000
 152        6D-1        0.00000   0.00000  -0.00000   0.00000  -0.00000
 153        6D+2        0.00007  -0.00022  -0.00018  -0.00003  -0.00017
 154        6D-2        0.00067  -0.00062  -0.00008  -0.00004   0.00001
 155 8   C  1S          0.56292   0.00003  -0.00002   0.00001   0.00001
 156        2S          0.46320   0.00002  -0.00004   0.00005   0.00003
 157        2PX        -0.00039   0.00014   0.00009  -0.00001   0.00001
 158        2PY         0.00034  -0.00001   0.00007   0.00001   0.00001
 159        2PZ         0.00000  -0.00000   0.00000  -0.00000  -0.00000
 160        3S          0.01989  -0.00006   0.00007  -0.00035  -0.00031
 161        3PX         0.00014  -0.00058  -0.00045   0.00017   0.00005
 162        3PY        -0.00081   0.00017  -0.00039  -0.00000  -0.00006
 163        3PZ        -0.00000   0.00000  -0.00000   0.00000   0.00000
 164        4S         -0.01080   0.00209   0.00161   0.00001   0.00159
 165        4PX         0.00259  -0.00079  -0.00171  -0.00071  -0.00065
 166        4PY        -0.00003  -0.00094   0.00219   0.00076   0.00114
 167        4PZ         0.00000   0.00000  -0.00000  -0.00000  -0.00000
 168        5S         -0.02168   0.02436   0.02666   0.02776   0.01523
 169        5PX         0.00448  -0.00644  -0.00630  -0.00677  -0.00453
 170        5PY         0.00093  -0.00091  -0.00709  -0.00512   0.00229
 171        5PZ        -0.00000   0.00000   0.00000   0.00000  -0.00000
 172        6D 0       -0.00172  -0.00015  -0.00012  -0.00005  -0.00010
 173        6D+1        0.00000  -0.00000  -0.00000   0.00000  -0.00000
 174        6D-1       -0.00000   0.00000   0.00000   0.00000  -0.00000
 175        6D+2        0.00036   0.00042   0.00011   0.00006   0.00007
 176        6D-2        0.00090  -0.00009   0.00026   0.00001   0.00008
 177 9   N  1S         -0.00008   0.00000  -0.00004   0.00000   0.00000
 178        2S         -0.00002   0.00004  -0.00008   0.00004   0.00003
 179        2PX         0.00019  -0.00009  -0.00033  -0.00004  -0.00003
 180        2PY         0.00050  -0.00004   0.00016  -0.00002   0.00001
 181        2PZ        -0.00000  -0.00000  -0.00000   0.00000   0.00000
 182        3S          0.00074  -0.00030   0.00122  -0.00032  -0.00014
 183        3PX        -0.00063   0.00046   0.00052   0.00022   0.00015
 184        3PY        -0.00160   0.00014  -0.00051   0.00007  -0.00008
 185        3PZ         0.00000   0.00000   0.00000  -0.00000  -0.00000
 186        4S         -0.00636   0.00170  -0.00745   0.00368  -0.00125
 187        4PX         0.00062  -0.00111   0.00378  -0.00090   0.00065
 188        4PY        -0.00270  -0.00077  -0.00039   0.00059   0.00019
 189        4PZ         0.00000   0.00000   0.00000   0.00000   0.00000
 190        5S          0.00445  -0.00605   0.00907   0.00735  -0.00233
 191        5PX         0.00190  -0.00116  -0.00326  -0.00152  -0.00037
 192        5PY         0.00686  -0.00317   0.00367   0.00115  -0.00025
 193        5PZ        -0.00000  -0.00000  -0.00000  -0.00000   0.00000
 194        6D 0        0.00086   0.00004   0.00061   0.00003   0.00001
 195        6D+1        0.00000  -0.00000  -0.00000  -0.00000   0.00000
 196        6D-1        0.00000  -0.00000   0.00000   0.00000   0.00000
 197        6D+2        0.00083  -0.00019  -0.00052  -0.00017  -0.00007
 198        6D-2       -0.00064   0.00010   0.00037  -0.00003   0.00001
 199 10  H  1S         -0.00000  -0.00025   0.00000  -0.00008   0.00034
 200        2S         -0.00015   0.00007  -0.00114   0.00030  -0.00564
 201        3S          0.00045   0.00194  -0.00218   0.00050   0.00034
 202        4PX        -0.00005  -0.00024  -0.00008   0.00002  -0.00042
 203        4PY         0.00001   0.00036   0.00019   0.00008   0.00241
 204        4PZ        -0.00000  -0.00000  -0.00000   0.00000  -0.00000
 205 11  H  1S         -0.00002  -0.00008  -0.00009  -0.00003  -0.00015
 206        2S          0.00003  -0.00056   0.00031  -0.00086  -0.00041
 207        3S          0.00038  -0.00003   0.00144  -0.00024   0.00279
 208        4PX        -0.00000  -0.00020  -0.00009  -0.00022  -0.00072
 209        4PY         0.00002   0.00001   0.00002   0.00009   0.00012
 210        4PZ        -0.00000  -0.00000  -0.00000  -0.00000  -0.00000
 211 12  H  1S         -0.00002  -0.00009  -0.00006  -0.00019  -0.00003
 212        2S         -0.00009   0.00015  -0.00065   0.00011  -0.00103
 213        3S         -0.00015   0.00123  -0.00036   0.00266  -0.00008
 214        4PX        -0.00001  -0.00007  -0.00016  -0.00047  -0.00020
 215        4PY        -0.00002  -0.00007  -0.00010  -0.00026  -0.00021
 216        4PZ         0.00000  -0.00000  -0.00000  -0.00000  -0.00000
 217 13  H  1S         -0.00004  -0.00003  -0.00025   0.00038  -0.00008
 218        2S          0.00018  -0.00079   0.00042  -0.00544   0.00016
 219        3S          0.00150  -0.00075   0.00260   0.00032   0.00089
 220        4PX        -0.00007  -0.00001  -0.00005   0.00051   0.00003
 221        4PY        -0.00000  -0.00019  -0.00040  -0.00231  -0.00011
 222        4PZ        -0.00000   0.00000   0.00000   0.00000   0.00000
 223 14  H  1S          0.00007  -0.00007  -0.00007  -0.00006  -0.00002
 224        2S         -0.00401   0.00009   0.00031   0.00018  -0.00017
 225        3S          0.00045   0.00129   0.00111   0.00014   0.00101
 226        4PX         0.00234   0.00000  -0.00003   0.00003   0.00006
 227        4PY         0.00046   0.00008  -0.00011  -0.00001  -0.00002
 228        4PZ        -0.00000   0.00000   0.00000   0.00000   0.00000
 229 15  C  1S          0.00003   0.00002   0.00001  -0.00000   0.00000
 230        2S          0.00004   0.00004   0.00003  -0.00000   0.00002
 231        2PX        -0.00003  -0.00002  -0.00003   0.00000  -0.00003
 232        2PY        -0.00005  -0.00005  -0.00006   0.00002  -0.00002
 233        2PZ        -0.00000   0.00000  -0.00000  -0.00000   0.00000
 234        3S         -0.00018  -0.00020  -0.00025  -0.00001  -0.00006
 235        3PX         0.00015   0.00006   0.00014  -0.00004   0.00012
 236        3PY         0.00029   0.00029   0.00027  -0.00015   0.00007
 237        3PZ         0.00000  -0.00000   0.00000   0.00000  -0.00000
 238        4S         -0.00157  -0.00051   0.00008   0.00171   0.00060
 239        4PX         0.00306  -0.00179  -0.00005   0.00106   0.00068
 240        4PY        -0.00002   0.00082  -0.00156  -0.00140  -0.00014
 241        4PZ        -0.00000   0.00000  -0.00000  -0.00000   0.00000
 242        5S          0.00428   0.01006   0.00475  -0.00137   0.00976
 243        5PX        -0.00045  -0.00096   0.00087   0.00104  -0.00211
 244        5PY        -0.00124  -0.00289  -0.00151   0.00008  -0.00250
 245        5PZ        -0.00000   0.00000  -0.00000  -0.00000   0.00000
 246        6D 0        0.00000  -0.00002  -0.00005  -0.00004   0.00000
 247        6D+1        0.00000  -0.00000  -0.00000  -0.00000  -0.00000
 248        6D-1       -0.00000  -0.00000   0.00000  -0.00000  -0.00000
 249        6D+2        0.00007   0.00008   0.00004  -0.00003   0.00005
 250        6D-2       -0.00010  -0.00003  -0.00008  -0.00001  -0.00004
 251 16  O  1S          0.00000   0.00000   0.00000  -0.00000   0.00000
 252        2S          0.00001   0.00000   0.00000  -0.00000   0.00000
 253        2PX         0.00000  -0.00002  -0.00002  -0.00001  -0.00001
 254        2PY        -0.00003  -0.00001   0.00000  -0.00000  -0.00002
 255        2PZ         0.00000   0.00000   0.00000  -0.00000  -0.00000
 256        3S          0.00000  -0.00003  -0.00002   0.00004  -0.00002
 257        3PX         0.00000   0.00009   0.00010   0.00003   0.00004
 258        3PY         0.00012   0.00005  -0.00001   0.00001   0.00007
 259        3PZ        -0.00000  -0.00000  -0.00000   0.00000   0.00000
 260        4S         -0.00074   0.00028  -0.00015  -0.00061  -0.00030
 261        4PX         0.00036  -0.00033  -0.00024   0.00000   0.00006
 262        4PY         0.00006  -0.00025   0.00016   0.00014  -0.00018
 263        4PZ        -0.00000  -0.00000   0.00000  -0.00000  -0.00000
 264        5S         -0.00419   0.00586   0.00338   0.00111   0.00087
 265        5PX         0.00111  -0.00175  -0.00070   0.00015  -0.00022
 266        5PY         0.00110  -0.00157  -0.00145  -0.00073  -0.00004
 267        5PZ        -0.00000   0.00000   0.00000   0.00000   0.00000
 268        6D 0        0.00000   0.00002  -0.00000  -0.00002  -0.00000
 269        6D+1        0.00000   0.00000   0.00000  -0.00000   0.00000
 270        6D-1        0.00000  -0.00000   0.00000   0.00000   0.00000
 271        6D+2       -0.00000  -0.00001  -0.00001   0.00000  -0.00002
 272        6D-2       -0.00001   0.00000  -0.00001  -0.00001  -0.00000
 273 17  O  1S          0.00000   0.00000   0.00000   0.00000   0.00000
 274        2S          0.00001   0.00001   0.00000   0.00001   0.00001
 275        2PX         0.00002  -0.00001   0.00001  -0.00000  -0.00001
 276        2PY        -0.00001  -0.00002  -0.00001  -0.00001  -0.00001
 277        2PZ        -0.00000  -0.00000  -0.00000  -0.00000  -0.00000
 278        3S         -0.00014  -0.00001  -0.00001  -0.00006  -0.00009
 279        3PX        -0.00009   0.00001  -0.00004   0.00000   0.00003
 280        3PY         0.00007   0.00007   0.00005   0.00003   0.00004
 281        3PZ         0.00000   0.00000   0.00000   0.00000   0.00000
 282        4S          0.00106  -0.00037  -0.00004   0.00037   0.00048
 283        4PX         0.00042  -0.00019   0.00014   0.00009   0.00007
 284        4PY        -0.00054   0.00025   0.00000  -0.00012   0.00001
 285        4PZ        -0.00000   0.00000  -0.00000  -0.00000  -0.00000
 286        5S          0.00454  -0.00360   0.00217   0.00171  -0.00248
 287        5PX         0.00044  -0.00058   0.00068   0.00088  -0.00038
 288        5PY        -0.00150   0.00116  -0.00042  -0.00013   0.00082
 289        5PZ        -0.00000   0.00000  -0.00000  -0.00000   0.00000
 290        6D 0        0.00002   0.00002   0.00000  -0.00000   0.00001
 291        6D+1        0.00000   0.00000   0.00000  -0.00000  -0.00000
 292        6D-1        0.00000  -0.00000  -0.00000   0.00000  -0.00000
 293        6D+2       -0.00002   0.00001  -0.00000   0.00000  -0.00001
 294        6D-2       -0.00000   0.00000   0.00001   0.00000  -0.00002
                          11        12        13        14        15
                           O         O         O         O         O
     Eigenvalues --   -10.17225 -10.17133  -1.05700  -1.00319  -0.96082
[...]
     1         -6.99630684         -9.07273660         -8.23005832
     1         -6.11643783         -7.93173178         -3.74638869
     1         -0.50579626         -0.65591123         -1.80373813
     6          0.36529912          0.47371603         -6.86124011
     8          1.44686387          1.87627771         -5.32062271
     8          0.35149731          0.45581801         -9.20517608

 Electric dipole moment (dipole orientation):
 (Debye = 10**-18 statcoulomb cm , SI units = C m)
                  (au)            (Debye)         (10**-30 SI)
   Tot        0.620380D+01      0.157685D+02      0.525980D+02
   x          0.000000D+00      0.000000D+00      0.000000D+00
   y          0.000000D+00      0.000000D+00      0.000000D+00
   z          0.620380D+01      0.157685D+02      0.525980D+02

 Dipole polarizability, Alpha (dipole orientation).
 (esu units = cm**3 , SI units = C**2 m**2 J**-1)
 Alpha(0;0):
               (au)            (10**-24 esu)      (10**-40 SI)
   iso        0.159423D+03      0.236241D+02      0.262853D+02
   aniso      0.115875D+03      0.171709D+02      0.191052D+02
   xx         0.130986D+03      0.194102D+02      0.215967D+02
   yx         0.585698D+02      0.867915D+01      0.965685D+01
   yy         0.161774D+03      0.239724D+02      0.266729D+02
   zx         0.105401D+02      0.156188D+01      0.173782D+01
   zy         0.136683D+02      0.202543D+01      0.225359D+01
   zz         0.185509D+03      0.274896D+02      0.305863D+02

 First dipole hyperpolarizability, Beta (dipole orientation).
 ||, _|_  parallel and perpendicular components, (z) with respect to z axis,
 vector components x,y,z.  Values do not include the 1/n! factor of 1/2.
 (esu units = statvolt**-1 cm**4 , SI units = C**3 m**3 J**-2)
 Beta(0;0,0):
               (au)            (10**-30 esu)      (10**-50 SI)
   || (z)    -0.633106D+02     -0.546955D+00     -0.202997D+00
   _|_(z)    -0.211035D+02     -0.182318D+00     -0.676656D-01
   x         -0.356550D+03     -0.308032D+01     -0.114323D+01
   y         -0.462371D+03     -0.399452D+01     -0.148253D+01
   z         -0.316553D+03     -0.273477D+01     -0.101498D+01
   ||         0.132834D+03      0.114758D+01      0.425913D+00
   xxx       -0.143154D+03     -0.123674D+01     -0.459004D+00
   xxy        0.337526D+02      0.291596D+00      0.108223D+00
   yxy        0.101433D+03      0.876299D+00      0.325230D+00
   yyy       -0.878568D+02     -0.759014D+00     -0.281701D+00
   xxz       -0.125378D+03     -0.108317D+01     -0.402008D+00
   yxz       -0.724285D+02     -0.625725D+00     -0.232232D+00
   yyz       -0.163450D+03     -0.141208D+01     -0.524081D+00
   zxz       -0.771285D+02     -0.666330D+00     -0.247302D+00
   zyz       -0.100019D+03     -0.864090D+00     -0.320698D+00
   zzz        0.183311D+03      0.158366D+01      0.587761D+00

 ----------------------------------------------------------------------
 Unable to Open any file for archive entry.
 1\1\GINC-NODE1696\Freq\RB3LYP\6-311+G(d,p)\C8H5N2O2(1-)\SVICCHI\05-Jun
 -2023\0\\#p freq=raman scale=0.967 pop=(nbo,full,hirshfeld) guess=read
  geom=allcheck b3lyp/6-311+G(d,p) int=grid=ultrafine EmpiricalDispersi
 on=GD3BJ SCRF=(Solvent=ethanol) scf=(xqc,intrep,maxconventionalcycle=3
 50) nosymm\\benzim-CO2_binding-site_index-6.gjf\\-1,1\C,-6.5877995455,
 -0.0603708847,-0.0000000011\C,-6.3225853067,-1.442769047,-0.0000000003
 \C,-5.562695352,0.8818770126,-0.0000000009\C,-4.2538639563,0.396626579
 5,0.0000000002\C,-3.9752557186,-0.9923277463,0.0000000007\C,-5.0177800
 967,-1.9235727094,0.0000000006\N,-3.0061825425,1.0164785434,0.\C,-2.07
 65638845,0.0039333713,0.0000000005\N,-2.5969606124,-1.2006805915,0.000
 0000011\H,-5.7569734015,1.9440306888,-0.0000000014\H,-7.6169122623,0.2
 802317823,-0.0000000019\H,-7.1511132144,-2.1415733825,-0.0000000004\H,
 -4.8066133139,-2.9866604366,0.0000000011\H,-1.023516947,0.2357778454,0
 .0000000004\C,-2.6819123166,2.4678633904,0.0000000004\O,-1.4639732281,
 2.7122224193,-0.0000000085\O,-3.671448301,3.2158261651,0.0000000096\\V
 ersion=ES64L-G16RevC.01\HF=-568.197846\RMSD=7.947e-09\RMSF=1.108e-05\Z
 eroPoint=0.1154741\Thermal=0.1243174\ETot=-568.0735286\HTot=-568.07258
 44\GTot=-568.1171823\Dipole=-2.4988661,-2.8901137,0.\DipoleDeriv=-0.08
 70822,-0.0284337,0.,-0.1442173,0.1152089,0.,0.,0.,-0.2215506,-0.155155
 9,0.018351,0.,0.1253202,-0.0197997,0.,0.,0.,-0.2261423,0.0898947,-0.12
 95226,0.,-0.0101063,-0.0194349,0.,0.,0.,-0.1801055,0.4868684,0.5099944
 ,0.,0.6381094,0.1190554,0.,0.,0.,0.0951,0.658007,0.178714,0.,-0.283303
 5,-0.1757753,0.,0.,0.,0.0188654,0.149769,-0.0030606,0.,-0.0083075,0.10
 68292,0.,0.,0.,-0.1900103,-0.8327513,-0.0358226,0.,-0.658538,-2.192624
 7,0.,0.,0.,-0.0748117,0.0152329,-0.4093497,0.,-0.1236629,1.4513906,0.,
 0.,0.,0.0678875,-0.7781655,-0.3728966,0.,-0.0426697,-1.0861861,0.,0.,0
 .,-0.4184881,0.128086,0.0517027,0.,0.0764842,0.0074321,0.,0.,0.,0.1934
 421,-0.1399867,0.0680304,0.,0.0730603,0.0666207,0.,0.,0.,0.1830448,-0.
 0622315,-0.1291816,0.,-0.1293507,-0.0137122,0.,0.,0.,0.1858225,0.08844
 05,0.0528854,0.,0.0239713,-0.1264598,0.,0.,0.,0.1842879,0.0476476,-0.0
 123838,0.,-0.0068259,0.1356036,0.,0.,0.,0.1646601,3.0940935,0.2064681,
 0.,0.621354,3.4737803,0.,0.,0.,0.4117667,-2.1883442,-0.5103516,0.,-0.5
 197593,-1.1969303,0.,0.,0.,-0.600107,-1.5143225,0.544857,0.,0.3684418,
 -1.6449978,0.,0.,0.,-0.5936616\Polar=210.1935236,14.7505258,182.254393
 9,-0.0000001,0.,85.8211005\PolarDeriv=-8.4690771,0.5581863,-6.1496773,
 0.,0.,-5.3561397,7.7311853,0.5273506,-13.7065197,0.,0.,1.4255342,0.,0.
 ,0.,-8.6765813,1.2021509,0.,0.9840975,-4.2360528,-14.8717513,0.,0.,-4.
 5494894,-13.6415683,-1.6260032,10.9955509,0.,0.,-3.29172,0.,0.,0.,-7.4
 261501,-4.7922192,0.,10.4120089,2.2207842,7.3876928,0.,0.,0.7369865,4.
 8512036,-0.3062447,6.6411911,0.,0.,5.1350461,0.,0.,0.,-2.398015,6.7203
 976,0.,-0.0197314,1.5047683,-1.3232644,0.,0.,3.538559,35.8650416,7.510
 3398,-0.5883495,0.,0.,1.8635904,0.,0.,0.0000001,1.3906295,2.7696016,0.
 ,33.7960975,-0.426266,-4.1063424,0.,0.,2.4799302,-32.3112318,-7.555615
 ,-5.7284153,0.,0.,-0.8434655,0.,0.,-0.0000001,1.6968749,-3.0104479,0.,
 -1.2013998,5.0522684,12.6469786,0.,0.,2.706947,-3.9934881,-0.8716322,-
 2.0168737,0.,0.,-4.3126933,0.,0.,0.,0.2807067,-7.6799384,0.,-17.588375
 5,-5.1950075,-0.020925,0.,0.,-1.5372259,-1.5985119,10.486659,14.734736
 8,0.,0.,-0.7492395,0.,0.,0.,1.2555305,1.9497378,0.,23.9378092,4.761475
 1,11.1714895,0.,0.,2.9569252,16.1953837,-4.4145715,-1.0581001,0.,0.,2.
 874269,0.,0.,0.,8.1651329,1.4176304,0.,-33.1672821,-8.5810084,-0.38424
 21,0.,0.,-1.1969412,-19.7450764,5.782799,-10.3556805,0.,0.,-3.9888196,
 0.,0.,0.,1.9231334,-3.8702267,0.,-0.9365495,3.2191183,-2.3252095,0.,0.
 ,-0.1977625,3.1958028,-2.8886739,14.0427335,0.,0.,0.9680541,0.,0.,0.,0
 .2165814,-0.6779036,0.,-18.0226813,3.6727152,-1.9322668,0.,0.,-0.52455
 57,4.684914,-3.1413828,1.2537417,0.,0.,0.1965057,0.,0.,0.,1.0754736,0.
 1638877,0.,-11.1253914,-6.7248706,-5.274382,0.,0.,-0.4195441,-6.542781
 2,-6.3210164,-6.750102,0.,0.,-0.3636665,0.,0.,0.,0.9489145,0.394757,0.
 ,0.7927776,-2.1235412,3.0280715,0.,0.,0.1651108,-1.3173889,1.1973416,-
 18.3022458,0.,0.,-0.7884214,0.,0.,0.,0.1953517,0.4557257,0.,15.6926274
 ,2.0592276,1.3056887,0.,0.,1.0647499,1.3746525,2.1891953,1.9371855,0.,
 0.,0.0877642,0.,0.,0.,-0.3400924,-0.094567,0.,-4.3613048,-7.3418429,2.
 398172,0.,0.,0.7846648,0.4591869,-4.4865664,-11.2784595,0.0000001,0.,1
 .2761446,0.,0.,0.,-0.5112373,-1.4489891,0.,18.0709947,9.9223843,11.461
 7553,0.,0.,2.1631068,2.5798664,5.9546092,5.4255394,0.,0.,-0.3453892,-0
 .0000002,0.,0.,5.3087964,2.1876866,0.,-8.7946199,1.6576616,-13.0117875
 ,0.,0.,-2.8153218,2.2128098,-2.0365884,14.7540672,0.,0.,0.8565069,0.,0
 .,0.,-3.1050494,4.3127166,0.0000001\HyperPolar=-232.3638512,-155.61500
 84,169.6031096,133.1668447,0.0000002,0.0000009,-0.0000001,-139.6483089
 ,-67.2401906,-0.0000001\Quadrupole=-6.6664213,-11.661151,18.3275723,19
 .2138105,0.,0.\PG=C01 [X(C8H5N2O2)]\NImag=0\\0.72465571,-0.01292123,0.
 64099453,0.,0.,0.13093758,-0.13005782,0.00181881,0.,0.70826811,0.06242
 010,-0.29353132,0.,0.03980588,0.65978362,0.,0.,-0.06258572,0.,0.,0.130
 65507,-0.23791723,-0.07776830,0.,0.04277714,-0.05698184,0.,0.64433991,
 -0.13491329,-0.22637309,0.,-0.01386301,-0.04470185,0.,-0.01555829,0.75
 519143,0.,0.,-0.05835049,0.,0.,0.00649761,0.,0.,0.12629410,-0.06212149
 ,-0.04577791,0.,-0.02356779,0.03685507,0.,-0.28424484,0.10203292,0.,0.
 78590775,-0.00790279,0.05052265,0.,0.02524640,-0.03126078,0.,0.0610212
 1,-0.16063870,0.,-0.07815328,0.60451261,0.,0.,0.00372010,0.,0.,-0.0034
 9746,0.,0.,-0.05432439,0.,0.,0.14523697,-0.00439429,-0.02696421,0.,-0.
 06427223,0.00288379,0.,0.01276475,0.03296365,0.,-0.11412175,0.04791549
 ,0.,0.69408370,-0.01345257,-0.05053522,0.,-0.03622679,0.05226521,0.,0.
 06549449,0.00050352,0.,0.00032336,-0.24957992,0.,0.11769413,0.68047241
 ,0.,0.,-0.00397999,0.,0.,0.00471076,0.,0.,0.00310646,0.,0.,-0.08031881
 ,0.,0.,0.15756841,0.00569416,0.07878409,0.,-0.31537877,0.04220107,0.,-
 0.05369063,-0.01437031,0.,0.04489270,-0.04554422,0.,-0.20846296,-0.082
 51328,0.,0.65877420,0.03444570,-0.00864086,0.,0.09921934,-0.15183324,0
 .,-0.00636294,-0.00187643,0.,-0.01622500,-0.03472053,0.,-0.11943464,-0
 .23290889,0.,-0.02365701,0.73709541,0.,0.,0.00643082,0.,0.,-0.05948079
 ,0.,0.,-0.00066435,0.,0.,0.00291406,0.,0.,-0.05737793,0.,0.,0.12893618
 ,0.00585908,0.01096406,0.,-0.00261898,-0.00789114,0.,-0.04041660,-0.01
 855586,0.,-0.21480371,-0.05839249,0.,-0.01028891,-0.04774435,0.,0.0008
 9249,0.00280697,0.,0.61834224,0.00681505,0.00833977,0.,0.00579090,-0.0
 0782447,0.,-0.00531694,0.01798036,0.,-0.02866379,-0.15287462,0.,-0.002
 54351,-0.06029179,0.,-0.00610717,-0.00718079,0.,0.00361971,0.65781687,
 0.,0.,0.00614666,0.,0.,-0.00131576,0.,0.,-0.00198656,0.,0.,-0.05451796
 ,0.,0.,0.00761792,0.,0.,0.00301992,0.,0.,0.09701251,-0.00584276,-0.006
 00383,0.,-0.00473868,0.00525638,0.,0.00790813,-0.00416810,0.,-0.094523
 53,0.00733444,0.,-0.08151209,-0.04699219,0.,0.00063559,0.00666948,0.,-
 0.20741586,0.06732744,0.,0.86681584,0.00265076,-0.00695127,0.,-0.01110
 700,0.00438535,0.,-0.00431012,-0.00524839,0.,0.03506506,0.01723752,0.,
 -0.07952681,-0.01704685,0.,0.01976065,0.00554002,0.,0.07530436,-0.1703
 5248,0.,0.12758719,0.64769863,0.,0.,0.00052508,0.,0.,0.00059452,0.,0.,
 0.00239899,0.,0.,0.00985558,0.,0.,0.00998268,0.,0.,0.00448067,0.,0.,-0
 .06365149,0.,0.,0.14944198,-0.00132256,0.01260150,0.,0.01478708,-0.013
 55659,0.,-0.00259936,0.00332101,0.,-0.03532812,0.04763673,0.,-0.219319
 78,0.06509718,0.,-0.04842777,-0.00659864,0.,0.00438910,-0.01965637,0.,
 -0.15889680,-0.12569932,0.,0.45165102,-0.00258087,0.00185397,0.,0.0010
 2353,-0.00503000,0.,0.00047819,-0.00508254,0.,0.01686554,-0.02153383,0
 .,0.02436712,-0.10796020,0.,-0.03076229,0.01367406,0.,0.03048535,-0.11
 086735,0.,-0.10607876,-0.36500432,0.,0.05697867,0.58842298,0.,0.,-0.00
 133935,0.,0.,0.00613342,0.,0.,0.00323135,0.,0.,0.01535497,0.,0.,-0.068
 20235,0.,0.,-0.00273562,0.,0.,0.02620921,0.,0.,-0.07364363,0.,0.,0.095
 77500,0.00880800,-0.02291392,0.,-0.00289922,-0.00276958,0.,-0.06647798
 ,0.05315149,0.,0.00008486,0.03099209,0.,-0.00394594,-0.00040258,0.,-0.
 00120730,-0.00019559,0.,0.00169685,-0.00271981,0.,-0.00018316,0.001147
 95,0.,-0.00163879,0.00125095,0.,0.06417389,0.00519182,-0.01250826,0.,-
 0.00322948,0.00026161,0.,0.05682661,-0.33659398,0.,0.00081235,-0.00615
 158,0.,0.00070777,0.00185168,0.,0.00015185,0.00053038,0.,-0.00065207,-
 0.00015171,0.,0.00015684,-0.00034149,0.,0.00051871,-0.00044206,0.,-0.0
 5833945,0.35553697,0.,0.,0.00293097,0.,0.,0.00774705,0.,0.,-0.03598688
 ,0.,0.,0.00416456,0.,0.,0.00661036,0.,0.,-0.00111922,0.,0.,-0.00317150
 ,0.,0.,-0.00030567,0.,0.,-0.00018352,0.,0.,0.02512759,-0.30740127,0.08
 269872,0.,-0.00201214,-0.00082259,0.,-0.01778320,0.00913209,0.,-0.0010
 4315,-0.00363904,0.,0.00041797,-0.00055414,0.,0.00168616,0.00092959,0.
 ,-0.00103376,0.00067677,0.,-0.00031181,-0.00074202,0.,-0.00002611,0.00
 029199,0.,0.00107625,-0.00005737,0.,0.32600497,0.08293520,-0.08530833,
 0.,0.03027842,-0.00549575,0.,-0.02142702,0.00959793,0.,-0.00339847,-0.
 00260468,0.,-0.00092622,-0.00096330,0.,0.00006797,-0.00538882,0.,-0.00
 079928,0.00104413,0.,-0.00018557,-0.00047968,0.,0.00030312,0.00035126,
 0.,0.00072921,0.00088754,0.,-0.08853125,0.08745046,0.,0.,-0.03428456,0
 .,0.,0.00234942,0.,0.,0.00294892,0.,0.,0.00679651,0.,0.,-0.00093469,0.
 ,0.,0.00594091,0.,0.,0.00126965,0.,0.,-0.00037351,0.,0.,-0.00017741,0.
 ,0.,-0.00467593,0.,0.,0.02480472,0.00767485,0.00611066,0.,-0.21983011,
 -0.13649668,0.,0.00101001,0.00164541,0.,-0.00025993,0.00073563,0.,-0.0
 0321658,0.00384570,0.,-0.01830420,-0.02084048,0.,0.00016109,-0.0005051
 6,0.,-0.00077716,0.00039817,0.,-0.00080464,-0.00151356,0.,0.00020663,0
 .00028184,0.,0.00075525,-0.00048123,0.,0.23211653,-0.02508448,-0.01515
 186,0.,-0.13679105,-0.17321613,0.,0.00267088,-0.00485025,0.,0.00117951
 ,-0.00019737,0.,0.00272580,-0.00006361,0.,0.01027296,0.01026204,0.,-0.
 00020954,-0.00005347,0.,0.00007984,0.00002903,0.,0.00016014,0.00045894
 ,0.,-0.00110545,-0.00061379,0.,0.00033764,0.00118348,0.,0.14655599,0.1
 8140930,0.,0.,0.00214408,0.,0.,-0.03410317,0.,0.,0.00582097,0.,0.,-0.0
 0067483,0.,0.,0.00728410,0.,0.,0.00270615,0.,0.,-0.00031980,0.,0.,-0.0
 0054807,0.,0.,0.00113701,0.,0.,0.00033185,0.,0.,-0.00367762,0.,0.,0.02
 479205,-0.00493353,0.00079370,0.,-0.00008902,0.02946692,0.,-0.00099491
 ,-0.00023401,0.,-0.00314175,-0.00209572,0.,0.00960799,-0.02338603,0.,-
 0.06829662,0.05079159,0.,-0.00001522,-0.00179926,0.,0.00039534,-0.0001
 2221,0.,0.00163194,0.00166499,0.,0.00015252,0.00002428,0.,-0.00022570,
 0.00141968,0.,0.00124690,-0.00060572,0.,0.06502497,0.00180046,0.001942
 55,0.,-0.00061289,-0.00555486,0.,-0.00068117,0.00017761,0.,-0.00280683
 ,0.00008438,0.,0.00752518,-0.01670444,0.,0.05087560,-0.32616110,0.,0.0
 0010965,-0.00144995,0.,-0.00015820,-0.00013374,0.,0.00021516,0.0015095
 1,0.,0.00007823,-0.00009249,0.,-0.00005413,-0.00041372,0.,0.00022714,0
 .00077712,0.,-0.05619701,0.34561131,0.,0.,0.00770474,0.,0.,0.00302389,
 0.,0.,-0.00114300,0.,0.,0.00637118,0.,0.,0.00394635,0.,0.,-0.03472753,
 0.,0.,-0.00016620,0.,0.,-0.00047114,0.,0.,-0.00331420,0.,0.,-0.0011913
 9,0.,0.,0.00028749,0.,0.,-0.00461715,0.,0.,0.02391632,0.00001583,0.000
 59405,0.,0.00022723,-0.00042750,0.,-0.00061267,-0.00069336,0.,0.000439
 51,0.00279653,0.,0.00154503,-0.00070997,0.,-0.00037929,-0.00003588,0.,
 -0.01581249,-0.00495455,0.,-0.34151496,-0.05366124,0.,-0.00307876,-0.0
 0309644,0.,-0.00001100,0.00004435,0.,-0.00005808,-0.00005029,0.,-0.000
 01254,-0.00000175,0.,-0.00002974,-0.00003854,0.,0.35954411,0.00035655,
 -0.00031582,0.,-0.00023058,-0.00044126,0.,0.00066883,0.00133592,0.,0.0
 0155097,-0.00498757,0.,-0.00157015,-0.00433773,0.,-0.00112364,0.001104
 23,0.,0.02480245,0.00808371,0.,-0.05932772,-0.06706064,0.,-0.02852845,
 -0.00214060,0.,-0.00005265,0.00002259,0.,0.00009372,0.00009902,0.,-0.0
 0013796,0.00006575,0.,0.00006008,-0.00002308,0.,0.06387502,0.06810675,
 0.,0.,-0.00017042,0.,0.,-0.00047049,0.,0.,0.00167595,0.,0.,0.00240968,
 0.,0.,0.00826622,0.,0.,0.00114643,0.,0.,0.00230578,0.,0.,-0.03506657,0
 .,0.,-0.00255377,0.,0.,0.00019845,0.,0.,-0.00036448,0.,0.,-0.00026032,
 0.,0.,0.00021016,0.,0.,0.02405816,-0.00089366,-0.00099909,0.,-0.000456
 12,0.00167931,0.,0.00320415,0.00139419,0.,-0.00400827,-0.02545172,0.,-
 0.00866890,-0.00119873,0.,0.00220106,-0.00004535,0.,-0.09970199,0.0089
 7627,0.,0.02467185,0.00370293,0.,-0.00195531,0.01471068,0.,-0.00421067
 ,-0.00058232,0.,0.00030261,0.00005966,0.,0.00010006,0.00030478,0.,-0.0
 0016527,0.00004640,0.,-0.00337339,0.00223681,0.,0.93394561,0.00116167,
 -0.00570020,0.,0.00006715,0.00350943,0.,0.00505022,0.00199075,0.,-0.04
 034044,-0.00974388,0.,-0.00806072,0.01229674,0.,0.00168146,0.00073715,
 0.,0.00070060,-0.05947997,0.,0.02770046,-0.05388912,0.,0.01319745,0.02
 898506,0.,0.00349542,-0.00024707,0.,0.00085783,0.00016261,0.,0.0005735
 2,0.00016139,0.,0.00057834,0.00116375,0.,-0.00188663,0.00138869,0.,-0.
 12877198,0.42813171,0.,0.,0.00019937,0.,0.,-0.00032962,0.,0.,-0.000149
 58,0.,0.,-0.00756455,0.,0.,0.00175704,0.,0.,0.00111210,0.,0.,-0.053913
 74,0.,0.,-0.00842181,0.,0.,0.00646320,0.,0.,-0.00038477,0.,0.,0.000093
 53,0.,0.,-0.00002250,0.,0.,0.00026986,0.,0.,-0.00114554,0.,0.,0.227437
 36,0.00070458,0.00124422,0.,0.00024281,-0.00163435,0.,-0.00299844,-0.0
 0093040,0.,0.01172907,-0.00186815,0.,0.00145930,-0.00236065,0.,-0.0008
 8001,-0.00112952,0.,-0.03992760,-0.05205104,0.,-0.00992050,0.01342197,
 0.,-0.00213449,-0.00772580,0.,0.00166065,0.00037897,0.,-0.00032834,-0.
 00003197,0.,-0.00015038,-0.00022263,0.,-0.00026426,-0.00040443,0.,0.00
 237264,-0.00172776,0.,-0.48477199,-0.07678025,0.,0.63466751,-0.0005130
 7,0.00081096,0.,-0.00058247,-0.00057650,0.,-0.00050425,-0.00059194,0.,
 0.01005267,-0.00374278,0.,-0.00146756,-0.00417437,0.,0.00044664,-0.000
 35009,0.,-0.06121091,-0.04004854,0.,-0.00355603,0.00509430,0.,-0.00423
 270,-0.00466450,0.,-0.00067105,0.00023622,0.,-0.00029378,-0.00006684,0
 .,-0.00019218,-0.00005537,0.,-0.00025235,-0.00041686,0.,-0.00226335,-0
 .00089979,0.,-0.07875887,-0.10629586,0.,0.10500157,0.13143776,0.,0.,-0
 .00031131,0.,0.,0.00015914,0.,0.,-0.00030777,0.,0.,0.00406296,0.,0.,-0
 .00041893,0.,0.,-0.00048410,0.,0.,0.01734354,0.,0.,0.00102268,0.,0.,-0
 .00020437,0.,0.,0.00026527,0.,0.,-0.00002269,0.,0.,0.00004873,0.,0.,-0
 .00007197,0.,0.,-0.00015612,0.,0.,-0.08303604,0.,0.,0.03215515,0.00147
 239,-0.00226132,0.,-0.00038149,0.00001177,0.,-0.00426825,-0.00035412,0
 .,-0.00588957,-0.00063113,0.,-0.00167532,0.00308642,0.,0.00025119,-0.0
 0033760,0.,0.00069427,0.03111145,0.,0.00521054,-0.00387032,0.,0.003073
 35,0.00364070,0.,0.00271439,-0.00223470,0.,-0.00001965,0.00003806,0.,0
 .00008421,-0.00026690,0.,0.00009637,0.00007538,0.,0.00073854,-0.000945
 52,0.,-0.35621976,0.20077590,0.,-0.11146056,0.03899770,0.,0.46557934,-
 0.00040902,0.00055179,0.,-0.00060715,-0.00073905,0.,-0.00329955,-0.000
 82035,0.,0.01062828,0.00567908,0.,0.00371090,-0.00282325,0.,-0.0001643
 8,0.00011745,0.,0.04666250,-0.08268970,0.,-0.01564168,0.00652313,0.,-0
 .00175761,-0.01253038,0.,-0.00167524,-0.00218455,0.,-0.00032402,-0.000
 05532,0.,-0.00020681,-0.00014521,0.,-0.00010729,-0.00031599,0.,0.00050
 954,-0.00000018,0.,0.20269703,-0.24317118,0.,0.02682024,0.02430419,0.,
 -0.26683574,0.30829951,0.,0.,0.00028244,0.,0.,-0.00008790,0.,0.,0.0009
 3868,0.,0.,0.00001143,0.,0.,0.00038239,0.,0.,-0.00009770,0.,0.,0.01811
 781,0.,0.,0.00417972,0.,0.,-0.00194993,0.,0.,-0.00035722,0.,0.,0.00001
 976,0.,0.,-0.00004147,0.,0.,-0.00002742,0.,0.,-0.00008313,0.,0.,-0.082
 36431,0.,0.,0.02995585,0.,0.,0.03112102\\0.00000166,-0.00000649,0.,0.0
 0000281,-0.00000720,0.,-0.00000060,-0.00000560,0.,0.00000521,0.0000005
 9,0.,0.00000431,-0.00000725,0.,0.00000131,-0.00000653,0.,0.00001432,0.
 00004559,0.,-0.00000592,-0.00000038,0.,0.00000157,-0.00001103,0.,-0.00
 000160,-0.00000626,0.,0.00000057,-0.00000297,0.,-0.00000027,-0.0000036
 3,0.,0.,-0.00000505,0.,-0.00000022,-0.00000555,0.,-0.00002860,-0.00002
 980,0.,0.00001271,0.00003505,0.,-0.00000728,0.00001649,0.\\\@
 The archive entry for this job was punched.


 THE VALUE OF PHILOSOPHY IS, IN FACT, TO BE SOUGHT LARGELY IN ITS
 VERY UNCERTAINTY.  THE MAN WHO HAS NO TINCTURE OF PHILOSOPHY GOES
 THROUGH LIFE IMPRISONED IN THE PREJUDICES DERIVED FROM COMMON SENSE,
 FROM THE HABITUAL BELIEFS OF HIS AGE OR HIS NATION, AND FROM
 CONVICTIONS WHICH HAVE GROWN UP IN HIS MIND WITHOUT THE CO-OPERATION
 OR CONSENT OF HIS DELIBERATE REASON.  TO SUCH A MAN THE WORLD TENDS
 TO BE DEFINITE, FINITE, OBVIOUS; COMMON OBJECTS ROUSE NO QUESTIONS,
 AND UNFAMILIAR POSSIBILITIES ARE CONTEMPTUOUSLY REJECTED.

                             -- BERTRAND RUSSELL
 Job cpu time:       0 days  0 hours 59 minutes 14.8 seconds.
 Elapsed time:       0 days  0 hours 30 minutes 54.7 seconds.
 File lengths (MBytes):  RWF=    225 Int=      0 D2E=      0 Chk=     25 Scr=      1
 Normal termination of Gaussian 16 at Mon Jun  5 12:06:19 2023.
