 Entering Gaussian System, Link 0=g16
 Input=EDA-CO2_binding-site_index-5-freq.gjf
 Output=EDA-CO2_binding-site_index-5-freq.log
 Initial command:
 /software/commercial/gaussian/g16/AVX/g16/l1.exe "/scratch1/svicchi/G09-659890.pbs02/Gau-130787.inp" -scrdir="/scratch1/svicchi/G09-659890.pbs02/"
 Entering Link 1 = /software/commercial/gaussian/g16/AVX/g16/l1.exe PID=    130788.
  
 Copyright (c) 1988-2019, Gaussian, Inc.  All Rights Reserved.
  
 This is part of the Gaussian(R) 16 program.  It is based on
 the Gaussian(R) 09 system (copyright 2009, Gaussian, Inc.),
 the Gaussian(R) 03 system (copyright 2003, Gaussian, Inc.),
 the Gaussian(R) 98 system (copyright 1998, Gaussian, Inc.),
 the Gaussian(R) 94 system (copyright 1995, Gaussian, Inc.),
 the Gaussian 92(TM) system (copyright 1992, Gaussian, Inc.),
 the Gaussian 90(TM) system (copyright 1990, Gaussian, Inc.),
 the Gaussian 88(TM) system (copyright 1988, Gaussian, Inc.),
 the Gaussian 86(TM) system (copyright 1986, Carnegie Mellon
 University), and the Gaussian 82(TM) system (copyright 1983,
 Carnegie Mellon University). Gaussian is a federally registered
 trademark of Gaussian, Inc.
  
 This software contains proprietary and confidential information,
 including trade secrets, belonging to Gaussian, Inc.
  
 This software is provided under written license and may be
 used, copied, transmitted, or stored only in accord with that
 written license.
  
 The following legend is applicable only to US Government
 contracts under FAR:
  
                    RESTRICTED RIGHTS LEGEND
  
 Use, reproduction and disclosure by the US Government is
 subject to restrictions as set forth in subparagraphs (a)
 and (c) of the Commercial Computer Software - Restricted
 Rights clause in FAR 52.227-19.
  
 Gaussian, Inc.
 340 Quinnipiac St., Bldg. 40, Wallingford CT 06492
  
  
 ---------------------------------------------------------------
 Warning -- This program may not be used in any manner that
 competes with the business of Gaussian, Inc. or will provide
 assistance to any competitor of Gaussian, Inc.  The licensee
 of this program is prohibited from giving any competitor of
 Gaussian, Inc. access to this program.  By using this program,
 the user acknowledges that Gaussian, Inc. is engaged in the
 business of creating and licensing software in the field of
 computational chemistry and represents and warrants to the
 licensee that it is not a competitor of Gaussian, Inc. and that
 it will not use this program in any manner prohibited above.
 ---------------------------------------------------------------
  

 Cite this work as:
 Gaussian 16, Revision C.01,
 M. J. Frisch, G. W. Trucks, H. B. Schlegel, G. E. Scuseria, 
 M. A. Robb, J. R. Cheeseman, G. Scalmani, V. Barone, 
 G. A. Petersson, H. Nakatsuji, X. Li, M. Caricato, A. V. Marenich, 
 J. Bloino, B. G. Janesko, R. Gomperts, B. Mennucci, H. P. Hratchian, 
 J. V. Ortiz, A. F. Izmaylov, J. L. Sonnenberg, D. Williams-Young, 
 F. Ding, F. Lipparini, F. Egidi, J. Goings, B. Peng, A. Petrone, 
 T. Henderson, D. Ranasinghe, V. G. Zakrzewski, J. Gao, N. Rega, 
 G. Zheng, W. Liang, M. Hada, M. Ehara, K. Toyota, R. Fukuda, 
 J. Hasegawa, M. Ishida, T. Nakajima, Y. Honda, O. Kitao, H. Nakai, 
 T. Vreven, K. Throssell, J. A. Montgomery, Jr., J. E. Peralta, 
 F. Ogliaro, M. J. Bearpark, J. J. Heyd, E. N. Brothers, K. N. Kudin, 
 V. N. Staroverov, T. A. Keith, R. Kobayashi, J. Normand, 
 K. Raghavachari, A. P. Rendell, J. C. Burant, S. S. Iyengar, 
 J. Tomasi, M. Cossi, J. M. Millam, M. Klene, C. Adamo, R. Cammi, 
 J. W. Ochterski, R. L. Martin, K. Morokuma, O. Farkas, 
 J. B. Foresman, and D. J. Fox, Gaussian, Inc., Wallingford CT, 2019.
 
 ******************************************
 Gaussian 16:  ES64L-G16RevC.01  3-Jul-2019
                 2-Jun-2023 
 ******************************************
 %NProcShared=2
 Will use up to    2 processors via shared memory.
 %mem=55gb
 %chk=/scratch1/svicchi/G09-659890.pbs02/02-freq/EDA-CO2_binding-site_index-5-fre
 q.chk
 ----------------------------------------------------------------------
 #p freq=raman scale=0.967 pop=(nbo,full,hirshfeld) guess=read geom=all
 check b3lyp/6-311+G(d,p) int=grid=ultrafine EmpiricalDispersion=GD3BJ 
 SCRF=(Solvent=ethanol) scf=(xqc,intrep,maxconventionalcycle=350) nosym
 m
 ----------------------------------------------------------------------
 1/10=4,29=7,30=1,38=1,114=967000/1,3;
 2/12=2,15=1,40=1/2;
 3/5=4,6=6,7=111,11=2,14=-4,25=1,30=1,70=2201,71=2,72=4,74=-5,75=-5,116=-2,124=41,140=1/1,2,3;
 4/5=1/1;
 5/5=2,8=3,13=1,17=20,38=6,53=4,85=350,98=1/2,8;
 8/6=4,10=90,11=11/1;
 10/13=10,15=4,31=1/2;
 11/6=3,8=1,9=11,15=111,16=1,31=1/1,2,10;
 10/6=1,31=1/2;
 6/7=3,28=1,40=1,79=1/1,7;
 7/8=1,10=1,25=1,30=1/1,2,3,16;
 1/10=4,30=1/3;
 99//99;
 Leave Link    1 at Fri Jun  2 13:38:08 2023, MaxMem=  7381975040 cpu:               1.1 elap:               2.3
 (Enter /software/commercial/gaussian/g16/AVX/g16/l101.exe)
 Structure from the checkpoint file:  "/scratch1/svicchi/G09-659890.pbs02/02-freq/EDA-CO2_binding-site_index-5-freq.chk"
 --------------------------------
 EDA-CO2_binding-site_index-5.gjf
 --------------------------------
 Charge = -1 Multiplicity = 1
 No Z-Matrix found in chk file; cartesian coordinates used.
  N                                                 2.041547152982     -0.940352982669      0.240037009199
  C                                                 3.051291360413      0.108639705735      0.438532914031
  C                                                 4.424303158433     -0.185258697747     -0.188655857685
  H                                                 3.173899770060      0.266338272497      1.515353140584
  H                                                 2.665910590072      1.042466764802      0.020494701493
  N                                                 5.401922890751      0.872496597932      0.003119772474
  H                                                 4.302284903095     -0.342631962350     -1.262193510626
  H                                                 4.823005630360     -1.113040083174      0.238015422330
  H                                                 5.720534758064      1.008138172437      0.952180386868
  H                                                 2.375656248263     -1.824041674841      0.615492017585
  H                                                 1.889052762973     -1.093002474546     -0.753297384551
  C                                                 5.358971295970      2.074879366165     -0.743076973839
  O                                                 4.714698230919      2.062267510057     -1.826999560953
  O                                                 6.012609247645      3.043456485702     -0.256489076910
 Recover connectivity data from disk.
 ITRead=  0  0  0  0  0  0  0  0  0  0  0  0  0  0
 MicOpt= -1 -1 -1 -1 -1 -1 -1 -1 -1 -1 -1 -1 -1 -1
 NAtoms=     14 NQM=       14 NQMF=       0 NMMI=      0 NMMIF=      0
                NMic=       0 NMicF=      0.
                    Isotopes and Nuclear Properties:
 (Nuclear quadrupole moments (NQMom) in fm**2, nuclear magnetic moments (NMagM)
  in nuclear magnetons)

  Atom         1           2           3           4           5           6           7           8           9          10
 IAtWgt=          14          12          12           1           1          14           1           1           1           1
 AtmWgt=  14.0030740  12.0000000  12.0000000   1.0078250   1.0078250  14.0030740   1.0078250   1.0078250   1.0078250   1.0078250
 NucSpn=           2           0           0           1           1           2           1           1           1           1
 AtZEff=   4.5500000   3.6000000   3.6000000   1.0000000   1.0000000   4.5500000   1.0000000   1.0000000   1.0000000   1.0000000
 NQMom=    2.0440000   0.0000000   0.0000000   0.0000000   0.0000000   2.0440000   0.0000000   0.0000000   0.0000000   0.0000000
 NMagM=    0.4037610   0.0000000   0.0000000   2.7928460   2.7928460   0.4037610   2.7928460   2.7928460   2.7928460   2.7928460
 AtZNuc=   7.0000000   6.0000000   6.0000000   1.0000000   1.0000000   7.0000000   1.0000000   1.0000000   1.0000000   1.0000000

  Atom        11          12          13          14
 IAtWgt=           1          12          16          16
 AtmWgt=   1.0078250  12.0000000  15.9949146  15.9949146
 NucSpn=           1           0           0           0
 AtZEff=   1.0000000   3.6000000   5.6000000   5.6000000
 NQMom=    0.0000000   0.0000000   0.0000000   0.0000000
 NMagM=    2.7928460   0.0000000   0.0000000   0.0000000
 AtZNuc=   1.0000000   6.0000000   8.0000000   8.0000000
 Leave Link  101 at Fri Jun  2 13:38:12 2023, MaxMem=  7381975040 cpu:               0.3 elap:               2.0
 (Enter /software/commercial/gaussian/g16/AVX/g16/l103.exe)

 GradGradGradGradGradGradGradGradGradGradGradGradGradGradGradGradGradGrad
 Berny optimization.
 Initialization pass.
 Trust Radius=3.00D-01 FncErr=1.00D-07 GrdErr=1.00D-07 EigMax=2.50D+02 EigMin=1.00D-04
 Number of steps in this run=      2 maximum allowed number of steps=      2.
 GradGradGradGradGradGradGradGradGradGradGradGradGradGradGradGradGradGrad

 Leave Link  103 at Fri Jun  2 13:38:17 2023, MaxMem=  7381975040 cpu:               0.1 elap:               2.3
 (Enter /software/commercial/gaussian/g16/AVX/g16/l202.exe)
                          Input orientation:                          
 ---------------------------------------------------------------------
 Center     Atomic      Atomic             Coordinates (Angstroms)
 Number     Number       Type             X           Y           Z
 ---------------------------------------------------------------------
      1          7           0        2.041547   -0.940353    0.240037
      2          6           0        3.051291    0.108640    0.438533
      3          6           0        4.424303   -0.185259   -0.188656
      4          1           0        3.173900    0.266338    1.515353
      5          1           0        2.665911    1.042467    0.020495
      6          7           0        5.401923    0.872497    0.003120
      7          1           0        4.302285   -0.342632   -1.262194
      8          1           0        4.823006   -1.113040    0.238015
      9          1           0        5.720535    1.008138    0.952180
     10          1           0        2.375656   -1.824042    0.615492
     11          1           0        1.889053   -1.093002   -0.753297
     12          6           0        5.358971    2.074879   -0.743077
     13          8           0        4.714698    2.062268   -1.827000
     14          8           0        6.012609    3.043456   -0.256489
 ---------------------------------------------------------------------
                    Distance matrix (angstroms):
                    1          2          3          4          5
     1  N    0.000000
     2  C    1.469479   0.000000
     3  C    2.536035   1.537824   0.000000
     4  H    2.089200   1.095191   2.161272   0.000000
     5  H    2.090359   1.093301   2.154762   1.759270   0.000000
     6  N    3.825530   2.509687   1.453054   2.760139   2.741342
     7  H    2.779371   2.158958   1.091851   3.059226   2.498301
     8  H    2.786815   2.161407   1.096262   2.500765   3.057218
     9  H    4.223590   2.863179   2.099028   2.711601   3.193735
    10  H    1.016613   2.055007   2.743942   2.411769   2.941962
    11  H    1.016499   2.053096   2.751420   2.940309   2.400519
    12  C    4.589493   3.253873   2.507830   3.625723   2.983537
    13  O    4.520410   3.422897   2.796404   4.095210   2.941217
    14  O    5.646823   4.226773   3.598878   4.348572   3.909101
                    6          7          8          9         10
     6  N    0.000000
     7  H    2.070449   0.000000
     8  H    2.081508   1.765023   0.000000
     9  H    1.010261   2.956259   2.411428   0.000000
    10  H    4.099342   3.071185   2.576341   4.395772   0.000000
    11  H    4.095804   2.577930   3.096963   4.690810   1.626280
    12  C    1.415761   2.688946   3.378259   2.035329   5.093865
    13  O    2.288486   2.504522   3.789274   3.137951   5.151726
    14  O    2.270110   3.924569   4.351569   2.385102   6.138429
                   11         12         13         14
    11  H    0.000000
    12  C    4.698501   0.000000
    13  O    4.369535   1.261006   0.000000
    14  O    5.861811   1.265761   2.261373   0.000000
 Symmetry turned off by external request.
 Stoichiometry    C3H7N2O2(1-)
 Framework group  C1[X(C3H7N2O2)]
 Deg. of freedom    36
 Full point group                 C1      NOp   1
 Rotational constants (GHZ):           6.5925944           1.2962199           1.2152232
 Leave Link  202 at Fri Jun  2 13:38:22 2023, MaxMem=  7381975040 cpu:               0.0 elap:               2.6
 (Enter /software/commercial/gaussian/g16/AVX/g16/l301.exe)
 Standard basis: 6-311+G(d,p) (5D, 7F)
 Ernie: Thresh=  0.10000D-02 Tol=  0.10000D-05 Strict=F.
   196 basis functions,   308 primitive gaussians,   203 cartesian basis functions
    28 alpha electrons       28 beta electrons
       nuclear repulsion energy       302.2617771093 Hartrees.
 IExCor=  402 DFT=T Ex+Corr=B3LYP ExCW=0 ScaHFX=  0.200000
 ScaDFX=  0.800000  0.720000  1.000000  0.810000 ScalE2=  1.000000  1.000000
 IRadAn=      5 IRanWt=     -1 IRanGd=            0 ICorTp=0 IEmpDi=141
 NAtoms=   14 NActive=   14 NUniq=   14 SFac= 1.00D+00 NAtFMM=   60 NAOKFM=F Big=F
 Integral buffers will be    131072 words long.
 Raffenetti 2 integral format.
 Two-electron integral symmetry is turned off.
 R6Disp:  Grimme-D3(BJ) Dispersion energy=       -0.0179877254 Hartrees.
 Nuclear repulsion after empirical dispersion term =      302.2437893839 Hartrees.
 Force inversion solution in PCM.
 ------------------------------------------------------------------------------
 Polarizable Continuum Model (PCM)
 =================================
 Model                : PCM.
 Atomic radii         : UFF (Universal Force Field).
 Polarization charges : Total charges.
 Charge compensation  : None.
 Solution method      : Matrix inversion.
 Cavity type          : Scaled VdW (van der Waals Surface) (Alpha=1.100).
 Cavity algorithm     : GePol (No added spheres)
                        Default sphere list used, NSphG=   14.
                        Lebedev-Laikov grids with approx.  5.0 points / Ang**2.
                        Smoothing algorithm: York/Karplus (Gamma=1.0000).
                        Polarization charges: spherical gaussians, with
                                              point-specific exponents (IZeta= 3).
                        Self-potential: point-specific (ISelfS= 7).
                        Self-field    : sphere-specific E.n sum rule (ISelfD= 2).
 1st derivatives      : Analytical E(r).r(x)/FMM algorithm (CHGder, D1EAlg=3).
                        Cavity 1st derivative terms included.
 2nd derivatives      : Analytical E(r).r(xy)/FMM algorithm (CHGder, D2EAlg=3).
                        Cavity 2nd derivative terms included.
 Solvent              : Ethanol, Eps=  24.852000 Eps(inf)=   1.852593
 ------------------------------------------------------------------------------
 Spheres list:
 ISph  on   Nord     Re0    Alpha      Xe            Ye            Ze
    1   N      1    1.8300  1.100      2.041547     -0.940353      0.240037
    2   C      2    1.9255  1.100      3.051291      0.108640      0.438533
    3   C      3    1.9255  1.100      4.424303     -0.185259     -0.188656
    4   H      4    1.4430  1.100      3.173900      0.266338      1.515353
    5   H      5    1.4430  1.100      2.665911      1.042467      0.020495
    6   N      6    1.8300  1.100      5.401923      0.872497      0.003120
    7   H      7    1.4430  1.100      4.302285     -0.342632     -1.262194
    8   H      8    1.4430  1.100      4.823006     -1.113040      0.238015
    9   H      9    1.4430  1.100      5.720535      1.008138      0.952180
   10   H     10    1.4430  1.100      2.375656     -1.824042      0.615492
   11   H     11    1.4430  1.100      1.889053     -1.093002     -0.753297
   12   C     12    1.9255  1.100      5.358971      2.074879     -0.743077
   13   O     13    1.7500  1.100      4.714698      2.062268     -1.827000
   14   O     14    1.7500  1.100      6.012609      3.043456     -0.256489
 ------------------------------------------------------------------------------
 GePol: Number of generator spheres                  =      14
 GePol: Total number of spheres                      =      14
 GePol: Number of exposed spheres                    =      14 (100.00%)
 GePol: Number of points                             =    1239
 GePol: Average weight of points                     =       0.13
 GePol: Minimum weight of points                     =   0.20D-09
 GePol: Maximum weight of points                     =    0.20577
 GePol: Number of points with low weight             =      76
 GePol: Fraction of low-weight points (<1% of avg)   =       6.13%
 GePol: Cavity surface area                          =    165.920 Ang**2
 GePol: Cavity volume                                =    154.039 Ang**3
 Leave Link  301 at Fri Jun  2 13:38:26 2023, MaxMem=  7381975040 cpu:               0.3 elap:               1.6
 (Enter /software/commercial/gaussian/g16/AVX/g16/l302.exe)
 NPDir=0 NMtPBC=     1 NCelOv=     1 NCel=       1 NClECP=     1 NCelD=      1
         NCelK=      1 NCelE2=     1 NClLst=     1 CellRange=     0.0.
 One-electron integrals computed using PRISM.
 NBasis=   196 RedAO= T EigKep=  5.42D-05  NBF=   196
 NBsUse=   196 1.00D-06 EigRej= -1.00D+00 NBFU=   196
 Precomputing XC quadrature grid using
 IXCGrd= 4 IRadAn=           5 IRanWt=          -1 IRanGd=           0 AccXCQ= 0.00D+00.
 Generated NRdTot=       0 NPtTot=           0 NUsed=           0 NTot=          32
 NSgBfM=   203   203   203   203   203 MxSgAt=    14 MxSgA2=    14.
 Leave Link  302 at Fri Jun  2 13:38:29 2023, MaxMem=  7381975040 cpu:               0.7 elap:               1.1
 (Enter /software/commercial/gaussian/g16/AVX/g16/l303.exe)
 DipDrv:  MaxL=1.
 Leave Link  303 at Fri Jun  2 13:38:32 2023, MaxMem=  7381975040 cpu:               0.1 elap:               2.0
 (Enter /software/commercial/gaussian/g16/AVX/g16/l401.exe)
 Initial guess from the checkpoint file:  "/scratch1/svicchi/G09-659890.pbs02/02-freq/EDA-CO2_binding-site_index-5-freq.chk"
 B after Tr=     0.000000    0.000000    0.000000
         Rot=    1.000000    0.000000    0.000000    0.000000 Ang=   0.00 deg.
 Guess basis will be translated and rotated to current coordinates.
 JPrj=2 DoOrth=T DoCkMO=T.
 Leave Link  401 at Fri Jun  2 13:38:38 2023, MaxMem=  7381975040 cpu:               0.8 elap:               3.5
 (Enter /software/commercial/gaussian/g16/AVX/g16/l502.exe)
 Keep R1 ints in memory in canonical form, NReq=190616234.
 FoFCou: FMM=F IPFlag=           0 FMFlag=           0 FMFlg1=           0
         NFxFlg=           0 DoJE=F BraDBF=F KetDBF=F FulRan=T
         wScrn=  0.000000 ICntrl=       600 IOpCl=  0 I1Cent=           0 NGrid=           0
         NMat0=    1 NMatS0=  19306 NMatT0=    0 NMatD0=    1 NMtDS0=    0 NMtDT0=    0
 Symmetry not used in FoFCou.
 Two-electron integral symmetry not used.
 Closed shell SCF:
 Using DIIS extrapolation, IDIIS=  1040.
 NGot=  7381975040 LenX=  7195518996 LenY=  7195477346
 Requested convergence on RMS density matrix=1.00D-08 within 350 cycles.
 Requested convergence on MAX density matrix=1.00D-06.
 Requested convergence on             energy=1.00D-06.
 No special actions if energy rises.

 Cycle   1  Pass 1  IDiag  1:
 Inv3:  Mode=1 IEnd=     4605363.
 Iteration    1 A*A^-1 deviation from unit magnitude is 3.55D-15 for   1211.
 Iteration    1 A*A^-1 deviation from orthogonality  is 2.17D-15 for   1202    150.
 Iteration    1 A^-1*A deviation from unit magnitude is 3.77D-15 for   1211.
 Iteration    1 A^-1*A deviation from orthogonality  is 6.87D-15 for   1088   1049.
 E= -378.796832663466    
 DIIS: error= 1.43D-08 at cycle   1 NSaved=   1.
 NSaved= 1 IEnMin= 1 EnMin= -378.796832663466     IErMin= 1 ErrMin= 1.43D-08
 ErrMax= 1.43D-08  0.00D+00 EMaxC= 1.00D-01 BMatC= 5.25D-14 BMatP= 5.25D-14
 IDIUse=1 WtCom= 1.00D+00 WtEn= 0.00D+00
 Coeff-Com:  0.100D+01
 Coeff:      0.100D+01
 Gap=     0.226 Goal=   None    Shift=    0.000
 RMSDP=2.08D-09 MaxDP=7.02D-08              OVMax= 1.05D-07

 Error on total polarization charges =  0.02040
 SCF Done:  E(RB3LYP) =  -378.796832663     A.U. after    1 cycles
            NFock=  1  Conv=0.21D-08     -V/T= 2.0040
 KE= 3.772780754316D+02 PE=-1.502919368318D+03 EE= 4.446006708386D+02
 Leave Link  502 at Fri Jun  2 13:38:53 2023, MaxMem=  7381975040 cpu:              22.9 elap:              14.7
 (Enter /software/commercial/gaussian/g16/AVX/g16/l508.exe)
 QCSCF skips out because SCF is already converged.
 Leave Link  508 at Fri Jun  2 13:38:58 2023, MaxMem=  7381975040 cpu:               0.0 elap:               3.3
 (Enter /software/commercial/gaussian/g16/AVX/g16/l801.exe)
 DoSCS=F DFT=T ScalE2(SS,OS)=  1.000000  1.000000
 Range of M.O.s used for correlation:     1   196
 NBasis=   196 NAE=    28 NBE=    28 NFC=     0 NFV=     0
 NROrb=    196 NOA=    28 NOB=    28 NVA=   168 NVB=   168

 **** Warning!!: The largest alpha MO coefficient is  0.32920441D+02

 Leave Link  801 at Fri Jun  2 13:39:02 2023, MaxMem=  7381975040 cpu:               0.3 elap:               3.0
 (Enter /software/commercial/gaussian/g16/AVX/g16/l1002.exe)
 Minotr:  Closed shell wavefunction.
 NEqPCM:  Using equilibrium solvation (IEInf=0, Eps=  24.8520, EpsInf=   1.8526)
          Direct CPHF calculation.
          Differentiating once with respect to electric field.
                with respect to dipole field.
          Electric field/nuclear overlap derivatives assumed to be zero.
          Requested convergence is 1.0D-08 RMS, and 1.0D-07 maximum.
          Secondary convergence is 1.0D-12 RMS, and 1.0D-12 maximum.
          NewPWx=F KeepS1=T KeepF1=T KeepIn=T MapXYZ=F SortEE=F KeepMc=T.
         4299 words used for storage of precomputed grid.
 Keep R1 ints in memory in canonical form, NReq=191321974.
 FoFCou: FMM=F IPFlag=           0 FMFlag=           0 FMFlg1=           0
         NFxFlg=           0 DoJE=F BraDBF=F KetDBF=F FulRan=T
         wScrn=  0.000000 ICntrl=       600 IOpCl=  0 I1Cent=           0 NGrid=           0
         NMat0=    1 NMatS0=  19306 NMatT0=    0 NMatD0=    1 NMtDS0=    0 NMtDT0=    0
 Symmetry not used in FoFCou.
 Two-electron integral symmetry not used.
          MDV=    7381975040 using IRadAn=       1.
          Solving linear equations simultaneously, MaxMat=       0.
          There are     3 degrees of freedom in the 1st order CPHF.  IDoFFX=0 NUNeed=     3.
      3 vectors produced by pass  0 Test12= 1.57D-13 3.33D-08 XBig12= 4.99D+01 2.15D+00.
 AX will form     3 AO Fock derivatives at one time.
      3 vectors produced by pass  1 Test12= 1.57D-13 3.33D-08 XBig12= 9.70D+00 1.12D+00.
      3 vectors produced by pass  2 Test12= 1.57D-13 3.33D-08 XBig12= 3.23D+00 3.01D-01.
      3 vectors produced by pass  3 Test12= 1.57D-13 3.33D-08 XBig12= 3.68D-01 8.10D-02.
      3 vectors produced by pass  4 Test12= 1.57D-13 3.33D-08 XBig12= 6.83D-02 3.73D-02.
      3 vectors produced by pass  5 Test12= 1.57D-13 3.33D-08 XBig12= 5.94D-03 1.20D-02.
      3 vectors produced by pass  6 Test12= 1.57D-13 3.33D-08 XBig12= 1.13D-03 3.44D-03.
      3 vectors produced by pass  7 Test12= 1.57D-13 3.33D-08 XBig12= 6.06D-05 9.75D-04.
      3 vectors produced by pass  8 Test12= 1.57D-13 3.33D-08 XBig12= 1.79D-06 2.13D-04.
      3 vectors produced by pass  9 Test12= 1.57D-13 3.33D-08 XBig12= 5.48D-08 3.37D-05.
      3 vectors produced by pass 10 Test12= 1.57D-13 3.33D-08 XBig12= 2.73D-09 9.41D-06.
      3 vectors produced by pass 11 Test12= 1.57D-13 3.33D-08 XBig12= 5.49D-11 9.34D-07.
      2 vectors produced by pass 12 Test12= 1.57D-13 3.33D-08 XBig12= 1.94D-12 1.57D-07.
 InvSVY:  IOpt=1 It=  1 EMax= 2.66D-15
 Solved reduced A of dimension    38 with     3 vectors.
 End of Minotr F.D. properties file   721 does not exist.
 End of Minotr F.D. properties file   722 does not exist.
 End of Minotr F.D. properties file   788 does not exist.
 Leave Link 1002 at Fri Jun  2 13:40:11 2023, MaxMem=  7381975040 cpu:             125.3 elap:              66.6
 (Enter /software/commercial/gaussian/g16/AVX/g16/l1101.exe)
 Using compressed storage, NAtomX=    14.
 Will process     15 centers per pass.
 R6Disp: Adding Grimme-D3(BJ) dispersion energy 1st derivatives to the gradient.
 Leave Link 1101 at Fri Jun  2 13:40:16 2023, MaxMem=  7381975040 cpu:               0.4 elap:               3.2
 (Enter /software/commercial/gaussian/g16/AVX/g16/l1102.exe)
 Symmetrizing basis deriv contribution to polar:
 IMax=3 JMax=2 DiffMx= 0.00D+00
 Leave Link 1102 at Fri Jun  2 13:40:20 2023, MaxMem=  7381975040 cpu:               0.1 elap:               3.1
 (Enter /software/commercial/gaussian/g16/AVX/g16/l1110.exe)
 Forming Gx(P) for the SCF density, NAtomX=    14.
 Integral derivatives from FoFJK, PRISM(SPDF).
 Do as many integral derivatives as possible in FoFJK.
 G2DrvN: MDV=    7381973462.
 G2DrvN: will do    15 centers at a time, making    1 passes.
 PxScal for G2LodP:  IOpCl= 0 ISclPx=1 IMOff=     1 NMtTot=     4 NTT=   19306 ScalPx= 8.11D+00
 Calling FoFCou, ICntrl=  3107 FMM=F I1Cent=   0 AccDes= 0.00D+00.
 FoFJK:  IHMeth= 1 ICntrl=    3107 DoSepK=F KAlg= 0 I1Cent=           0 FoldK=F
 IRaf=         0 NMat=       1 IRICut=       1 DoRegI=T DoRafI=F ISym2E= 0 IDoP0=0 IntGTp=1.
 FoFCou: FMM=F IPFlag=           0 FMFlag=      100000 FMFlg1=           0
         NFxFlg=           0 DoJE=F BraDBF=F KetDBF=F FulRan=T
         wScrn=  0.000000 ICntrl=      3107 IOpCl=  0 I1Cent=           0 NGrid=           0
         NMat0=    1 NMatS0=      1 NMatT0=    0 NMatD0=    4 NMtDS0=    3 NMtDT0=    0
 Symmetry not used in FoFCou.
 PxScal for G2LodP:  IOpCl= 0 ISclPx=0 IMOff=     1 NMtTot=     4 NTT=   19306 ScalPx= 1.00D+00
 NEqPCM:  Using equilibrium solvation (IEInf=0, Eps=  24.8520, EpsInf=   1.8526)
 G2PCM: DoFxE=T DoFxN=T DoGrad=T DoDP/DQ/DG/TGxP=TFFF NFrqRd=   0 IEInf=0 SqF1=F DoCFld=F IF1Alg=4.
 GePol: Maximum number of non-zero 1st derivatives   =     217
 End of G2Drv F.D. properties file   721 does not exist.
 End of G2Drv F.D. properties file   722 does not exist.
 End of G2Drv F.D. properties file   788 does not exist.
 Leave Link 1110 at Fri Jun  2 13:43:32 2023, MaxMem=  7381975040 cpu:             374.1 elap:             190.4
 (Enter /software/commercial/gaussian/g16/AVX/g16/l1002.exe)
 Minotr:  Closed shell wavefunction.
          IDoAtm=11111111111111
 NEqPCM:  Using equilibrium solvation (IEInf=0, Eps=  24.8520, EpsInf=   1.8526)
          Direct CPHF calculation.
          Differentiating once with respect to electric field.
                with respect to dipole field.
          Differentiating once with respect to nuclear coordinates.
          Requested convergence is 1.0D-08 RMS, and 1.0D-07 maximum.
          Secondary convergence is 1.0D-12 RMS, and 1.0D-12 maximum.
          NewPWx=T KeepS1=F KeepF1=F KeepIn=T MapXYZ=F SortEE=F KeepMc=T.
         4299 words used for storage of precomputed grid.
 Keep R1 ints in memory in canonical form, NReq=191322296.
 FoFCou: FMM=F IPFlag=           0 FMFlag=           0 FMFlg1=           0
         NFxFlg=           0 DoJE=F BraDBF=F KetDBF=F FulRan=T
         wScrn=  0.000000 ICntrl=       600 IOpCl=  0 I1Cent=           0 NGrid=           0
         NMat0=    1 NMatS0=  19306 NMatT0=    0 NMatD0=    1 NMtDS0=    0 NMtDT0=    0
 Symmetry not used in FoFCou.
 Two-electron integral symmetry not used.
          MDV=    7381975040 using IRadAn=       1.
          Solving linear equations simultaneously, MaxMat=       0.
          There are    45 degrees of freedom in the 1st order CPHF.  IDoFFX=5 NUNeed=    45.
 Will reuse    3 saved solutions.
     39 vectors produced by pass  0 Test12= 1.05D-14 2.22D-09 XBig12= 1.50D-01 8.51D-02.
 AX will form    39 AO Fock derivatives at one time.
     39 vectors produced by pass  1 Test12= 1.05D-14 2.22D-09 XBig12= 5.13D-03 1.71D-02.
     39 vectors produced by pass  2 Test12= 1.05D-14 2.22D-09 XBig12= 1.18D-04 2.01D-03.
     39 vectors produced by pass  3 Test12= 1.05D-14 2.22D-09 XBig12= 8.70D-07 1.02D-04.
     39 vectors produced by pass  4 Test12= 1.05D-14 2.22D-09 XBig12= 2.25D-09 7.27D-06.
     34 vectors produced by pass  5 Test12= 1.05D-14 2.22D-09 XBig12= 4.38D-12 2.83D-07.
     10 vectors produced by pass  6 Test12= 1.05D-14 2.22D-09 XBig12= 4.88D-15 7.14D-09.
 InvSVY:  IOpt=1 It=  1 EMax= 1.55D-15
 Solved reduced A of dimension   239 with    39 vectors.
 FullF1:  Do perturbations      1 to       3.
 Isotropic polarizability for W=    0.000000       86.56 Bohr**3.
 FullF1:  Do perturbations      1 to       6.
 End of Minotr F.D. properties file   721 does not exist.
 End of Minotr F.D. properties file   722 does not exist.
 End of Minotr F.D. properties file   788 does not exist.
 Leave Link 1002 at Fri Jun  2 13:47:03 2023, MaxMem=  7381975040 cpu:             406.5 elap:             209.8
 (Enter /software/commercial/gaussian/g16/AVX/g16/l601.exe)
 Copying SCF densities to generalized density rwf, IOpCl= 0 IROHF=0.

 **********************************************************************

            Population analysis using the SCF Density.

 **********************************************************************

 Alpha  occ. eigenvalues --  -19.04307 -19.04159 -14.29380 -14.29348 -10.25889
 Alpha  occ. eigenvalues --  -10.18248 -10.18208  -1.01787  -0.92037  -0.88874
 Alpha  occ. eigenvalues --   -0.86542  -0.70206  -0.61115  -0.53918  -0.49529
 Alpha  occ. eigenvalues --   -0.46246  -0.44108  -0.43318  -0.39895  -0.39090
 Alpha  occ. eigenvalues --   -0.37906  -0.36666  -0.33548  -0.26702  -0.24807
 Alpha  occ. eigenvalues --   -0.23880  -0.21908  -0.21620
 Alpha virt. eigenvalues --    0.00951   0.01976   0.03315   0.03662   0.06012
 Alpha virt. eigenvalues --    0.06965   0.07237   0.07650   0.08311   0.09825
 Alpha virt. eigenvalues --    0.10760   0.10849   0.12330   0.13063   0.15233
 Alpha virt. eigenvalues --    0.17014   0.17441   0.18138   0.18603   0.19509
 Alpha virt. eigenvalues --    0.19963   0.20986   0.21934   0.23062   0.23765
 Alpha virt. eigenvalues --    0.24943   0.25082   0.25959   0.26996   0.27441
 Alpha virt. eigenvalues --    0.28389   0.28733   0.29493   0.30956   0.31710
 Alpha virt. eigenvalues --    0.31962   0.33766   0.35057   0.37485   0.38113
 Alpha virt. eigenvalues --    0.42998   0.45787   0.48934   0.49698   0.52547
 Alpha virt. eigenvalues --    0.53987   0.58378   0.60671   0.63566   0.64014
 Alpha virt. eigenvalues --    0.65176   0.65595   0.68765   0.70936   0.71323
 Alpha virt. eigenvalues --    0.72629   0.75036   0.77759   0.79733   0.82047
 Alpha virt. eigenvalues --    0.85242   0.87293   0.89637   0.90655   0.91813
 Alpha virt. eigenvalues --    0.93668   1.02872   1.09394   1.11386   1.13512
 Alpha virt. eigenvalues --    1.16732   1.17801   1.18662   1.20393   1.21646
 Alpha virt. eigenvalues --    1.23130   1.25754   1.29222   1.33688   1.35083
 Alpha virt. eigenvalues --    1.41455   1.43540   1.52993   1.54225   1.55458
 Alpha virt. eigenvalues --    1.60657   1.61586   1.64116   1.64843   1.66611
 Alpha virt. eigenvalues --    1.67373   1.71469   1.71604   1.76023   1.78895
 Alpha virt. eigenvalues --    1.79099   1.81976   1.84864   1.86538   1.90641
 Alpha virt. eigenvalues --    1.94589   1.97009   2.02996   2.06327   2.08759
 Alpha virt. eigenvalues --    2.15394   2.20008   2.26481   2.27655   2.36704
 Alpha virt. eigenvalues --    2.43036   2.48191   2.49723   2.51167   2.56481
 Alpha virt. eigenvalues --    2.57587   2.58833   2.63811   2.65623   2.68848
 Alpha virt. eigenvalues --    2.71992   2.74148   2.75404   2.76333   2.80773
 Alpha virt. eigenvalues --    2.83399   2.86511   2.87947   2.89241   2.94162
 Alpha virt. eigenvalues --    2.98823   2.99642   3.00395   3.09441   3.12767
 Alpha virt. eigenvalues --    3.18530   3.25021   3.33183   3.35996   3.41141
 Alpha virt. eigenvalues --    3.44654   3.53751   3.60426   3.69038   3.82897
 Alpha virt. eigenvalues --    3.84509   3.88183   4.01526   4.11580   4.14288
 Alpha virt. eigenvalues --    4.17966   4.71913   4.78692   4.83292   4.97032
 Alpha virt. eigenvalues --    5.08018   5.10984   5.15649   5.21932   5.67946
 Alpha virt. eigenvalues --    5.90153  23.82885  23.86627  23.90229  35.58110
 Alpha virt. eigenvalues --   35.59968  49.96672  50.06638
     Molecular Orbital Coefficients:
                           1         2         3         4         5
                           O         O         O         O         O
     Eigenvalues --   -19.04307 -19.04159 -14.29380 -14.29348 -10.25889
   1 1   N  1S          0.00000  -0.00000  -0.00173   0.55739   0.00000
   2        2S         -0.00000   0.00001  -0.00143   0.46575   0.00001
   3        2PX         0.00001   0.00001   0.00003   0.00106  -0.00000
   4        2PY         0.00000   0.00001   0.00002  -0.00024   0.00001
   5        2PZ        -0.00001   0.00000  -0.00000  -0.00050  -0.00000
   6        3S         -0.00000  -0.00009  -0.00022   0.01558  -0.00008
   7        3PX        -0.00005  -0.00004  -0.00012   0.00025   0.00000
   8        3PY        -0.00002  -0.00004  -0.00011  -0.00077  -0.00004
   9        3PZ         0.00004  -0.00001  -0.00000  -0.00051   0.00002
  10        4S         -0.00008   0.00074   0.00121  -0.00898   0.00045
  11        4PX         0.00009   0.00034   0.00061  -0.00130   0.00009
  12        4PY        -0.00007   0.00040   0.00005  -0.00221   0.00018
  13        4PZ        -0.00038  -0.00014  -0.00059  -0.00066  -0.00048
  14        5S          0.00036   0.00162   0.00134   0.00721  -0.00031
  15        5PX         0.00004   0.00001   0.00019   0.00081   0.00013
  16        5PY        -0.00025   0.00007   0.00019   0.00158  -0.00023
  17        5PZ         0.00028  -0.00008   0.00024   0.00051   0.00011
  18        6D 0        0.00002   0.00001   0.00004   0.00040   0.00002
  19        6D+1       -0.00000  -0.00000   0.00001   0.00035  -0.00001
  20        6D-1        0.00000  -0.00001  -0.00001  -0.00016  -0.00001
  21        6D+2        0.00000  -0.00001  -0.00003  -0.00044  -0.00001
  22        6D-2        0.00001   0.00001  -0.00001  -0.00023   0.00002
  23 2   C  1S          0.00000  -0.00000   0.00000   0.00001   0.00001
  24        2S         -0.00001   0.00001   0.00000  -0.00002  -0.00001
  25        2PX        -0.00001   0.00003   0.00008  -0.00023   0.00001
  26        2PY        -0.00002   0.00003  -0.00002  -0.00028   0.00001
  27        2PZ         0.00002  -0.00002  -0.00004  -0.00006  -0.00001
  28        3S          0.00012   0.00002   0.00012  -0.00004   0.00026
  29        3PX         0.00005  -0.00012  -0.00036   0.00029  -0.00001
  30        3PY         0.00011  -0.00014   0.00014   0.00069  -0.00004
  31        3PZ        -0.00013   0.00008   0.00020   0.00024   0.00002
  32        4S         -0.00028  -0.00148  -0.00194   0.00578  -0.00231
  33        4PX        -0.00060   0.00070  -0.00023  -0.00114  -0.00088
  34        4PY        -0.00036   0.00033   0.00027  -0.00186  -0.00029
  35        4PZ         0.00054   0.00085   0.00114  -0.00071   0.00142
  36        5S          0.01357   0.00434   0.00456  -0.00780  -0.00148
  37        5PX         0.00346   0.00205   0.00169   0.00116  -0.00080
  38        5PY         0.00053   0.00075   0.00065   0.00247   0.00018
  39        5PZ        -0.00163  -0.00011  -0.00074   0.00092   0.00012
  40        6D 0       -0.00001   0.00002   0.00007   0.00026   0.00003
  41        6D+1        0.00003   0.00002   0.00013  -0.00008   0.00006
  42        6D-1       -0.00000   0.00004   0.00003  -0.00011   0.00003
  43        6D+2       -0.00004   0.00003  -0.00016   0.00002  -0.00002
  44        6D-2        0.00004  -0.00002   0.00003  -0.00045  -0.00000
  45 3   C  1S          0.00000  -0.00001   0.00001   0.00000  -0.00004
  46        2S         -0.00001   0.00004  -0.00002  -0.00000   0.00000
  47        2PX        -0.00001   0.00003   0.00024  -0.00008   0.00001
  48        2PY         0.00001   0.00005   0.00027  -0.00001   0.00000
  49        2PZ        -0.00001  -0.00001   0.00009   0.00003   0.00001
  50        3S          0.00006  -0.00039   0.00008   0.00022  -0.00046
  51        3PX         0.00007  -0.00014  -0.00035   0.00035  -0.00005
  52        3PY         0.00004  -0.00028  -0.00059  -0.00001  -0.00011
  53        3PZ        -0.00000  -0.00002  -0.00037  -0.00017  -0.00006
  54        4S          0.00273   0.00052   0.00590  -0.00209   0.00270
  55        4PX         0.00075  -0.00079   0.00105   0.00098  -0.00110
  56        4PY         0.00058   0.00106   0.00248  -0.00054   0.00128
  57        4PZ        -0.00014  -0.00075  -0.00034  -0.00032  -0.00082
  58        5S         -0.01180  -0.00711  -0.00546   0.00222   0.00820
  59        5PX         0.00320   0.00022  -0.00002  -0.00105   0.00041
  60        5PY        -0.00132  -0.00125  -0.00113  -0.00101   0.00198
  61        5PZ        -0.00156  -0.00064  -0.00038   0.00023  -0.00018
  62        6D 0        0.00003   0.00010   0.00031   0.00005   0.00007
  63        6D+1       -0.00003   0.00006  -0.00018   0.00010  -0.00004
  64        6D-1        0.00003   0.00003  -0.00012   0.00001  -0.00004
  65        6D+2        0.00006  -0.00000  -0.00001  -0.00018  -0.00002
  66        6D-2        0.00002  -0.00003  -0.00047   0.00001   0.00003
  67 4   H  1S         -0.00004   0.00001   0.00006  -0.00003   0.00000
  68        2S          0.00021  -0.00014  -0.00044  -0.00097  -0.00006
  69        3S         -0.00113  -0.00050  -0.00076  -0.00030  -0.00081
  70        4PX         0.00003  -0.00002  -0.00005   0.00009   0.00002
  71        4PY         0.00004   0.00000  -0.00001   0.00010   0.00002
  72        4PZ        -0.00004   0.00002   0.00015   0.00029   0.00003
  73 5   H  1S          0.00000  -0.00005   0.00002  -0.00002  -0.00000
  74        2S          0.00025   0.00044   0.00009  -0.00104   0.00040
  75        3S         -0.00094   0.00022  -0.00078  -0.00034  -0.00046
  76        4PX        -0.00007   0.00003  -0.00016  -0.00005  -0.00007
  77        4PY         0.00003  -0.00008   0.00003   0.00032  -0.00008
  78        4PZ         0.00002  -0.00001  -0.00007  -0.00009   0.00003
  79 6   N  1S         -0.00000  -0.00000   0.55737   0.00173  -0.00004
  80        2S          0.00002   0.00004   0.46571   0.00146  -0.00005
  81        2PX        -0.00001   0.00001  -0.00055  -0.00003  -0.00001
  82        2PY         0.00010   0.00009   0.00010  -0.00001   0.00028
  83        2PZ        -0.00006  -0.00006   0.00026   0.00001  -0.00016
  84        3S         -0.00005  -0.00014   0.01602  -0.00008   0.00067
  85        3PX         0.00001  -0.00000   0.00008   0.00012  -0.00000
  86        3PY        -0.00050  -0.00036   0.00043   0.00002  -0.00049
  87        3PZ         0.00026   0.00028   0.00056  -0.00001   0.00022
  88        4S         -0.00031  -0.00073  -0.01269   0.00074  -0.00227
  89        4PX         0.00153  -0.00081   0.00235  -0.00034   0.00032
  90        4PY         0.00204  -0.00089   0.00016   0.00022  -0.00073
  91        4PZ         0.00153  -0.00131   0.00267   0.00046   0.00054
  92        5S          0.00393  -0.00186   0.00305   0.00309   0.00707
  93        5PX         0.00009  -0.00003  -0.00039  -0.00007   0.00007
  94        5PY         0.00104  -0.00272  -0.00029   0.00055   0.00294
  95        5PZ         0.00051  -0.00008  -0.00126   0.00073   0.00006
  96        6D 0        0.00002   0.00005   0.00053   0.00004   0.00004
  97        6D+1        0.00002   0.00007   0.00038   0.00002  -0.00012
  98        6D-1        0.00020   0.00010  -0.00003  -0.00000   0.00049
  99        6D+2        0.00002   0.00015  -0.00019  -0.00000   0.00045
 100        6D-2        0.00008   0.00000   0.00019   0.00001  -0.00002
 101 7   H  1S          0.00007   0.00004   0.00000   0.00002   0.00003
 102        2S         -0.00070  -0.00059  -0.00148  -0.00004  -0.00083
 103        3S          0.00056   0.00019  -0.00003  -0.00020  -0.00158
 104        4PX        -0.00008   0.00004  -0.00007   0.00004   0.00002
 105        4PY        -0.00009  -0.00005  -0.00011   0.00004  -0.00020
 106        4PZ        -0.00003  -0.00010  -0.00031  -0.00010  -0.00009
 107 8   H  1S          0.00003  -0.00006  -0.00002   0.00004  -0.00003
 108        2S         -0.00030   0.00039  -0.00076  -0.00016   0.00024
 109        3S          0.00014   0.00021   0.00012  -0.00060   0.00016
 110        4PX        -0.00002  -0.00001   0.00002   0.00010   0.00001
 111        4PY        -0.00002  -0.00001  -0.00028  -0.00006  -0.00001
 112        4PZ         0.00003   0.00001   0.00013   0.00005  -0.00000
 113 9   H  1S         -0.00003  -0.00004   0.00002   0.00000  -0.00012
 114        2S         -0.00088   0.00055  -0.00246  -0.00035   0.00047
 115        3S         -0.00077   0.00152   0.00163  -0.00119  -0.00253
 116        4PX        -0.00001  -0.00004   0.00045   0.00008   0.00001
 117        4PY         0.00005  -0.00008   0.00025   0.00000   0.00015
 118        4PZ         0.00016  -0.00004   0.00170   0.00007  -0.00012
 119 10  H  1S         -0.00000  -0.00001   0.00002   0.00001  -0.00001
 120        2S          0.00001   0.00002  -0.00036  -0.00185   0.00004
 121        3S         -0.00043  -0.00012  -0.00025   0.00075  -0.00005
 122        4PX        -0.00001  -0.00002  -0.00001   0.00062  -0.00002
 123        4PY        -0.00000  -0.00001  -0.00006  -0.00137   0.00001
 124        4PZ         0.00003   0.00001   0.00009   0.00068   0.00004
 125 11  H  1S          0.00002  -0.00001   0.00003   0.00001   0.00000
 126        2S         -0.00025  -0.00010  -0.00062  -0.00185  -0.00029
 127        3S          0.00001  -0.00023  -0.00018   0.00084   0.00006
 128        4PX        -0.00000  -0.00001  -0.00006  -0.00021   0.00000
 129        4PY         0.00001   0.00000   0.00002  -0.00013   0.00002
 130        4PZ        -0.00003  -0.00003  -0.00012  -0.00163  -0.00005
 131 12  C  1S         -0.00001  -0.00001   0.00001  -0.00000   0.56309
 132        2S          0.00005   0.00006   0.00002   0.00001   0.46339
 133        2PX        -0.00019   0.00019   0.00005  -0.00001   0.00007
 134        2PY         0.00001   0.00031  -0.00035  -0.00001  -0.00024
 135        2PZ        -0.00031   0.00012   0.00027   0.00001   0.00013
 136        3S          0.00043   0.00027   0.00019  -0.00002   0.01759
 137        3PX         0.00035  -0.00037  -0.00021   0.00001  -0.00016
 138        3PY        -0.00004  -0.00066   0.00072   0.00003   0.00061
 139        3PZ         0.00059  -0.00019  -0.00070  -0.00006  -0.00052
 140        4S          0.00089   0.00320   0.00284  -0.00060  -0.01037
 141        4PX        -0.00385   0.00374  -0.00077  -0.00040   0.00074
 142        4PY        -0.00140   0.00387  -0.00348  -0.00033   0.00074
 143        4PZ        -0.00583   0.00405   0.00085  -0.00086   0.00025
 144        5S         -0.00628  -0.00073  -0.00214  -0.00023  -0.01033
 145        5PX         0.00141  -0.00013   0.00032  -0.00041   0.00079
 146        5PY         0.00147  -0.00094   0.00019  -0.00030   0.00275
 147        5PZ        -0.00035  -0.00027  -0.00014  -0.00079  -0.00141
 148        6D 0       -0.00052   0.00027   0.00012  -0.00001   0.00043
 149        6D+1       -0.00049  -0.00011   0.00023   0.00003   0.00146
 150        6D-1       -0.00012  -0.00060   0.00073   0.00000   0.00028
 151        6D+2       -0.00041   0.00002   0.00035   0.00003  -0.00035
 152        6D-2        0.00009  -0.00048   0.00029  -0.00003   0.00082
 153 13  O  1S          0.55131   0.00404   0.00000  -0.00000  -0.00006
 154        2S          0.46971   0.00349   0.00003  -0.00000  -0.00006
 155        2PX         0.00054   0.00004   0.00005  -0.00000   0.00024
 156        2PY         0.00001   0.00001  -0.00001  -0.00000   0.00000
 157        2PZ         0.00089   0.00006   0.00006   0.00000   0.00038
 158        3S          0.01377  -0.00024  -0.00009   0.00003   0.00056
 159        3PX         0.00026  -0.00016  -0.00024   0.00000  -0.00067
 160        3PY        -0.00007  -0.00003   0.00002   0.00001  -0.00002
 161        3PZ         0.00052  -0.00024  -0.00032  -0.00000  -0.00106
 162        4S         -0.01138   0.00163  -0.00085  -0.00040  -0.00316
 163        4PX        -0.00090   0.00012   0.00016  -0.00005  -0.00063
 164        4PY         0.00040  -0.00081   0.00057   0.00003   0.00018
 165        4PZ        -0.00190   0.00066  -0.00025  -0.00014  -0.00136
 166        5S          0.00277   0.00296  -0.00028  -0.00053   0.00558
 167        5PX        -0.00053   0.00028  -0.00008  -0.00023   0.00114
 168        5PY        -0.00057  -0.00010   0.00053  -0.00010  -0.00043
 169        5PZ        -0.00016   0.00062  -0.00047   0.00013   0.00237
 170        6D 0        0.00013   0.00000  -0.00011  -0.00001  -0.00057
 171        6D+1        0.00017  -0.00007  -0.00006  -0.00000  -0.00070
 172        6D-1        0.00002  -0.00016   0.00009  -0.00000   0.00007
 173        6D+2        0.00006  -0.00004  -0.00006  -0.00001  -0.00016
 174        6D-2        0.00000  -0.00009   0.00007   0.00001  -0.00001
 175 14  O  1S         -0.00404   0.55131   0.00000   0.00000  -0.00006
 176        2S         -0.00340   0.46972   0.00004   0.00001  -0.00005
 177        2PX        -0.00002  -0.00052  -0.00004  -0.00001  -0.00022
 178        2PY        -0.00003  -0.00079  -0.00006  -0.00001  -0.00034
 179        2PZ        -0.00003  -0.00038  -0.00003  -0.00000  -0.00015
 180        3S         -0.00043   0.01371  -0.00024  -0.00008   0.00052
 181        3PX         0.00012  -0.00031   0.00021   0.00003   0.00058
 182        3PY         0.00020  -0.00046   0.00029   0.00003   0.00089
 183        3PZ         0.00013  -0.00019   0.00013   0.00000   0.00039
 184        4S          0.00188  -0.01128   0.00027   0.00052  -0.00316
 185        4PX        -0.00004   0.00109  -0.00025  -0.00020   0.00078
 186        4PY        -0.00102   0.00180   0.00002  -0.00025   0.00130
 187        4PZ         0.00039   0.00053  -0.00046  -0.00002   0.00051
 188        5S          0.00276   0.00297   0.00169   0.00037   0.00303
 189        5PX        -0.00072  -0.00003  -0.00035   0.00023  -0.00084
 190        5PY        -0.00065  -0.00017  -0.00004   0.00018  -0.00156
 191        5PZ        -0.00005   0.00055  -0.00022  -0.00004  -0.00015
 192        6D 0       -0.00008  -0.00005   0.00008  -0.00001   0.00027
 193        6D+1       -0.00012   0.00008   0.00002   0.00000  -0.00028
 194        6D-1       -0.00011   0.00012  -0.00005   0.00000  -0.00038
 195        6D+2       -0.00009  -0.00005   0.00005  -0.00000   0.00030
 196        6D-2       -0.00003   0.00015  -0.00008   0.00001  -0.00061
                           6         7         8         9        10
                           O         O         O         O         O
     Eigenvalues --   -10.18248 -10.18208  -1.01787  -0.92037  -0.88874
   1 1   N  1S         -0.00002   0.00001  -0.00090   0.00212  -0.07406
   2        2S         -0.00005   0.00001  -0.00142   0.00331  -0.11628
   3        2PX         0.00018  -0.00002   0.00052  -0.00096   0.02916
   4        2PY         0.00019  -0.00003   0.00019  -0.00017  -0.00031
   5        2PZ         0.00004  -0.00000  -0.00010   0.00029  -0.01050
   6        3S          0.00042  -0.00003   0.00411  -0.00882   0.31815
   7        3PX        -0.00022  -0.00009   0.00120  -0.00159   0.04680
   8        3PY        -0.00018  -0.00007   0.00058  -0.00030   0.00219
   9        3PZ        -0.00001  -0.00002  -0.00022   0.00055  -0.01540
  10        4S         -0.00025  -0.00070   0.00001  -0.00859   0.22148
  11        4PX         0.00020  -0.00033  -0.00132  -0.00140   0.02179
  12        4PY        -0.00021  -0.00061  -0.00076  -0.00172   0.00512
  13        4PZ        -0.00028  -0.00001   0.00172  -0.00010  -0.00475
  14        5S          0.00847   0.00231  -0.01024  -0.00130  -0.02339
  15        5PX         0.00227   0.00078  -0.00134   0.00172  -0.00816
  16        5PY         0.00055  -0.00010   0.00054  -0.00080  -0.00888
  17        5PZ        -0.00051  -0.00054  -0.00112   0.00097  -0.00150
  18        6D 0        0.00017   0.00001  -0.00014   0.00007  -0.00062
  19        6D+1       -0.00010  -0.00001   0.00002  -0.00005   0.00258
  20        6D-1       -0.00005   0.00002  -0.00001   0.00005  -0.00057
  21        6D+2        0.00005  -0.00001   0.00006   0.00004  -0.00153
  22        6D-2       -0.00035  -0.00005   0.00011  -0.00019   0.00367
  23 2   C  1S          0.54129  -0.15487  -0.00260   0.00230  -0.04972
  24        2S          0.44542  -0.12744  -0.00400   0.00353  -0.07665
  25        2PX        -0.00025   0.00049   0.00181  -0.00043  -0.00941
  26        2PY        -0.00062   0.00001   0.00031   0.00027  -0.02209
  27        2PZ        -0.00019  -0.00017  -0.00080   0.00086  -0.00806
  28        3S          0.01804  -0.00520   0.00976  -0.00919   0.19954
  29        3PX        -0.00025  -0.00084   0.00389  -0.00043  -0.01347
  30        3PY         0.00216   0.00002   0.00000   0.00153  -0.04151
  31        3PZ         0.00111   0.00027  -0.00186   0.00103  -0.01674
  32        4S         -0.01212   0.00954   0.00991   0.00356   0.08131
  33        4PX        -0.00123   0.00248   0.00045  -0.00277   0.00354
  34        4PY         0.00039  -0.00039  -0.00076  -0.00076  -0.00376
  35        4PZ         0.00094  -0.00157  -0.00531  -0.00236  -0.00379
  36        5S         -0.01296   0.01769  -0.06661   0.02912   0.05518
  37        5PX        -0.00216   0.00366  -0.02057   0.00300   0.00389
  38        5PY        -0.00064  -0.00032  -0.00586  -0.00104  -0.00460
  39        5PZ         0.00052  -0.00145   0.00742  -0.00557  -0.00381
  40        6D 0        0.00068   0.00001  -0.00054   0.00018  -0.00706
  41        6D+1        0.00050   0.00037  -0.00077   0.00027  -0.00008
  42        6D-1       -0.00036  -0.00009  -0.00012  -0.00016   0.00318
  43        6D+2       -0.00061  -0.00032   0.00080  -0.00041   0.00130
  44        6D-2       -0.00048   0.00041   0.00004  -0.00011   0.00983
  45 3   C  1S          0.15485   0.54130  -0.00981   0.00414  -0.04419
  46        2S          0.12741   0.44539  -0.01506   0.00627  -0.06809
  47        2PX        -0.00031   0.00048   0.00544  -0.00065   0.00372
  48        2PY         0.00030   0.00047   0.00798  -0.00264   0.01661
  49        2PZ         0.00028   0.00019   0.00019   0.00137   0.00777
  50        3S          0.00531   0.01840   0.03899  -0.01476   0.17705
  51        3PX         0.00100  -0.00009   0.00866  -0.00060   0.00321
  52        3PY        -0.00098  -0.00145   0.01453  -0.00327   0.03086
  53        3PZ        -0.00091  -0.00098   0.00075   0.00199   0.01596
  54        4S          0.00084  -0.01542  -0.00099   0.00038   0.06985
  55        4PX        -0.00133   0.00266  -0.00073   0.00856  -0.00495
  56        4PY         0.00046  -0.00197  -0.00417  -0.00505  -0.00012
  57        4PZ         0.00034  -0.00089   0.00256   0.00347   0.00487
  58        5S          0.00664  -0.02854   0.07440  -0.01198  -0.01485
  59        5PX        -0.00055   0.00260  -0.01160   0.01255   0.00761
  60        5PY         0.00214  -0.00369   0.01177   0.00033  -0.00116
  61        5PZ         0.00106  -0.00181   0.00662  -0.00265  -0.00391
  62        6D 0        0.00040   0.00057  -0.00232   0.00012  -0.00592
  63        6D+1        0.00058   0.00020   0.00020   0.00005  -0.00113
  64        6D-1       -0.00021  -0.00026   0.00013   0.00046   0.00246
  65        6D+2       -0.00056  -0.00028  -0.00124   0.00042   0.00262
  66        6D-2        0.00015  -0.00057   0.00374  -0.00074   0.00745
  67 4   H  1S          0.00004  -0.00009   0.00121  -0.00108   0.02507
  68        2S         -0.00304   0.00002   0.00223  -0.00049   0.03227
  69        3S          0.00351  -0.00151   0.00632  -0.00095  -0.00555
  70        4PX         0.00032   0.00000   0.00015   0.00015  -0.00092
  71        4PY         0.00017  -0.00003  -0.00000   0.00007  -0.00159
  72        4PZ         0.00214  -0.00030  -0.00066   0.00026  -0.00748
  73 5   H  1S          0.00005  -0.00008   0.00181  -0.00144   0.02494
  74        2S         -0.00311  -0.00014   0.00048  -0.00340   0.03117
  75        3S          0.00380  -0.00156   0.00373  -0.00443  -0.00485
  76        4PX        -0.00077   0.00016   0.00058  -0.00056   0.00236
  77        4PY         0.00182  -0.00020  -0.00009   0.00059  -0.00676
  78        4PZ        -0.00100   0.00010   0.00007   0.00008   0.00267
  79 6   N  1S         -0.00001  -0.00003  -0.03374  -0.00069  -0.05779
  80        2S         -0.00001  -0.00006  -0.05292  -0.00110  -0.09081
  81        2PX        -0.00008  -0.00015  -0.00436   0.00782  -0.01577
  82        2PY        -0.00008  -0.00017   0.01679   0.00722  -0.00469
  83        2PZ        -0.00002  -0.00003  -0.00779   0.00847   0.00558
  84        3S          0.00017   0.00045   0.14408   0.00296   0.24817
  85        3PX         0.00020   0.00009  -0.00753   0.01149  -0.02584
  86        3PY         0.00016   0.00011   0.02907   0.01018  -0.00848
  87        3PZ         0.00006  -0.00000  -0.01515   0.01246   0.00797
  88        4S         -0.00038   0.00055   0.09098   0.00365   0.18350
  89        4PX         0.00077   0.00017  -0.00841   0.01221  -0.01639
  90        4PY         0.00107   0.00064   0.00148   0.01490  -0.00520
  91        4PZ         0.00082   0.00118  -0.00626   0.01334  -0.00239
  92        5S          0.00330   0.00622  -0.03011   0.01895  -0.02233
  93        5PX        -0.00201  -0.00223   0.00370  -0.00042   0.00916
  94        5PY        -0.00039  -0.00393   0.00279   0.01492   0.00141
  95        5PZ        -0.00059   0.00172   0.00459   0.00078   0.00242
  96        6D 0        0.00016   0.00023  -0.00052  -0.00202  -0.00036
  97        6D+1       -0.00005  -0.00006   0.00130  -0.00144   0.00251
  98        6D-1       -0.00002  -0.00009  -0.00451   0.00158  -0.00109
  99        6D+2        0.00001   0.00005  -0.00395  -0.00236  -0.00142
 100        6D-2       -0.00021  -0.00034   0.00098   0.00175   0.00525
 101 7   H  1S         -0.00003   0.00008   0.00483  -0.00368   0.02241
 102        2S         -0.00181  -0.00247   0.01019  -0.00405   0.02821
 103        3S          0.00071   0.00487  -0.00202   0.00097  -0.00246
 104        4PX        -0.00019  -0.00029   0.00043  -0.00052   0.00046
 105        4PY        -0.00008  -0.00008   0.00093  -0.00061   0.00092
 106        4PZ        -0.00089  -0.00199   0.00158  -0.00028   0.00667
 107 8   H  1S         -0.00005   0.00012   0.00333  -0.00116   0.02300
 108        2S         -0.00146  -0.00269   0.00514  -0.00485   0.02828
 109        3S          0.00089   0.00280  -0.00109  -0.00158  -0.00410
 110        4PX         0.00025   0.00071  -0.00009   0.00009  -0.00253
 111        4PY        -0.00069  -0.00161   0.00151  -0.00048   0.00588
 112        4PZ         0.00042   0.00092  -0.00062   0.00036  -0.00233
 113 9   H  1S          0.00003  -0.00007   0.01958   0.00672   0.04238
 114        2S         -0.00074  -0.00058   0.01938   0.00161   0.03998
 115        3S         -0.00065  -0.00060  -0.00498  -0.00732   0.00034
 116        4PX         0.00009  -0.00006  -0.00155  -0.00004  -0.00396
 117        4PY        -0.00000  -0.00006   0.00061   0.00086  -0.00172
 118        4PZ         0.00013   0.00009  -0.00570  -0.00084  -0.00878
 119 10  H  1S         -0.00013   0.00006   0.00059  -0.00152   0.05693
 120        2S          0.00031  -0.00033   0.00049  -0.00139   0.05286
 121        3S         -0.00176  -0.00123   0.00339  -0.00184  -0.00312
 122        4PX         0.00010  -0.00006   0.00007   0.00009  -0.00246
 123        4PY         0.00013  -0.00013   0.00019  -0.00032   0.01143
 124        4PZ         0.00008   0.00003  -0.00020   0.00020  -0.00546
 125 11  H  1S         -0.00013   0.00005   0.00055  -0.00154   0.05687
 126        2S          0.00027  -0.00021   0.00185  -0.00173   0.05284
 127        3S         -0.00183  -0.00134   0.00083   0.00065  -0.00279
 128        4PX         0.00008  -0.00011   0.00011  -0.00010   0.00379
 129        4PY         0.00016  -0.00006   0.00000  -0.00004   0.00200
 130        4PZ         0.00001  -0.00006   0.00031  -0.00033   0.01220
 131 12  C  1S          0.00000   0.00003  -0.07925  -0.00131   0.00219
 132        2S          0.00000   0.00007  -0.12125  -0.00207   0.00320
 133        2PX        -0.00001   0.00000  -0.00086   0.07435   0.00173
 134        2PY        -0.00001  -0.00005   0.02286   0.05593  -0.03494
 135        2PZ         0.00002  -0.00000  -0.01664   0.09000   0.02671
 136        3S          0.00008  -0.00039   0.32603   0.00626  -0.00973
 137        3PX        -0.00003  -0.00000  -0.00067   0.09845   0.00225
 138        3PY         0.00002   0.00026   0.02832   0.07461  -0.05052
 139        3PZ        -0.00011  -0.00005  -0.01996   0.11875   0.03843
 140        4S         -0.00089  -0.00060   0.08565  -0.00765   0.00022
 141        4PX        -0.00145  -0.00238   0.00096  -0.00493   0.00369
 142        4PY        -0.00086  -0.00334  -0.00551  -0.00147   0.00279
 143        4PZ        -0.00230  -0.00248   0.00637  -0.00870   0.00556
 144        5S          0.00023   0.00345   0.03758  -0.02130  -0.00328
 145        5PX        -0.00001   0.00023  -0.00524   0.00958   0.00065
 146        5PY         0.00025  -0.00154  -0.00288   0.01276  -0.00094
 147        5PZ         0.00035  -0.00016   0.00316   0.00430   0.00269
 148        6D 0        0.00002   0.00000   0.00627  -0.01694  -0.00311
 149        6D+1        0.00005   0.00008   0.02078  -0.00765  -0.00589
 150        6D-1        0.00002  -0.00004   0.00599   0.00971  -0.00909
 151        6D+2        0.00003   0.00003  -0.00324  -0.00964  -0.00564
 152        6D-2       -0.00005   0.00004   0.01272   0.01311  -0.00227
 153 13  O  1S         -0.00000   0.00000  -0.06764   0.08076   0.02195
 154        2S         -0.00001  -0.00000  -0.10793   0.12921   0.03516
 155        2PX         0.00000  -0.00001   0.02555  -0.02129  -0.00755
 156        2PY         0.00000  -0.00004   0.00105   0.00582  -0.00533
 157        2PZ         0.00000   0.00003   0.04265  -0.03986  -0.00876
 158        3S          0.00015   0.00011   0.30866  -0.37074  -0.10190
 159        3PX        -0.00002   0.00003   0.03842  -0.03128  -0.01088
 160        3PY        -0.00003   0.00013   0.00238   0.00922  -0.00805
 161        3PZ        -0.00000  -0.00012   0.06336  -0.05887  -0.01261
 162        4S         -0.00104  -0.00171   0.21291  -0.28436  -0.07331
 163        4PX        -0.00012  -0.00015   0.01314  -0.01126  -0.00481
 164        4PY         0.00025   0.00015   0.00095   0.00869  -0.00529
 165        4PZ        -0.00045  -0.00024   0.02217  -0.02498  -0.00332
 166        5S         -0.00317  -0.00037  -0.01816   0.00267   0.00685
 167        5PX        -0.00052  -0.00067   0.00060  -0.00227   0.00161
 168        5PY         0.00032  -0.00007   0.00180  -0.00420  -0.00091
 169        5PZ        -0.00109  -0.00016  -0.00223  -0.00004   0.00115
 170        6D 0       -0.00002  -0.00001   0.00616  -0.00710  -0.00103
 171        6D+1       -0.00001   0.00001   0.00779  -0.00714  -0.00201
 172        6D-1        0.00002  -0.00000   0.00114   0.00218  -0.00162
 173        6D+2       -0.00001  -0.00001   0.00292  -0.00235  -0.00100
 174        6D-2       -0.00000   0.00004   0.00025   0.00171  -0.00070
 175 14  O  1S          0.00000   0.00000  -0.06519  -0.08306   0.01606
 176        2S          0.00002   0.00003  -0.10401  -0.13288   0.02571
 177        2PX        -0.00000  -0.00001  -0.02496  -0.02236   0.00548
 178        2PY        -0.00000  -0.00003  -0.03634  -0.03924   0.00327
 179        2PZ         0.00000  -0.00002  -0.01900  -0.01273   0.00739
 180        3S         -0.00019  -0.00029   0.29764   0.38140  -0.07417
 181        3PX         0.00003   0.00006  -0.03734  -0.03283   0.00792
 182        3PY         0.00002   0.00012  -0.05375  -0.05837   0.00450
 183        3PZ        -0.00001   0.00009  -0.02904  -0.01828   0.01104
 184        4S          0.00132   0.00194   0.20353   0.29253  -0.05854
 185        4PX        -0.00030  -0.00051  -0.01347  -0.01251   0.00424
 186        4PY        -0.00047  -0.00083  -0.01812  -0.02712   0.00130
 187        4PZ        -0.00003  -0.00038  -0.01030  -0.00371   0.00610
 188        5S          0.00140   0.00469  -0.02220  -0.00403  -0.00397
 189        5PX        -0.00014  -0.00073   0.00397  -0.00150  -0.00029
 190        5PY        -0.00062  -0.00116   0.00445   0.00155   0.00121
 191        5PZ        -0.00032  -0.00022  -0.00080  -0.00262   0.00067
 192        6D 0       -0.00001  -0.00001  -0.00239  -0.00469  -0.00048
 193        6D+1       -0.00000  -0.00000   0.00363   0.00174  -0.00144
 194        6D-1        0.00001   0.00000   0.00583   0.00454  -0.00180
 195        6D+2       -0.00000   0.00001  -0.00191  -0.00435  -0.00070
 196        6D-2        0.00001   0.00001   0.00664   0.00740  -0.00091
                          11        12        13        14        15
                           O         O         O         O         O
     Eigenvalues --    -0.86542  -0.70206  -0.61115  -0.53918  -0.49529
   1 1   N  1S          0.07006   0.04125   0.01863  -0.00223   0.00191
   2        2S          0.11009   0.06521   0.02947  -0.00358   0.00305
   3        2PX        -0.02343   0.01256   0.02001   0.00423   0.05742
   4        2PY         0.00459   0.03989   0.07077  -0.00744  -0.07654
   5        2PZ         0.01080   0.01702   0.02961   0.02694   0.14443
   6        3S         -0.30251  -0.18379  -0.08204   0.01079  -0.00881
   7        3PX        -0.03751   0.01819   0.03018   0.00639   0.08354
   8        3PY         0.00463   0.05861   0.10511  -0.01064  -0.11140
   9        3PZ         0.01583   0.02514   0.04385   0.03944   0.21007
  10        4S         -0.21144  -0.14111  -0.07337   0.00836  -0.01021
  11        4PX        -0.01697   0.01084   0.01308   0.00175   0.05147
  12        4PY        -0.00092   0.02708   0.05707  -0.00564  -0.06804
  13        4PZ         0.00609   0.01039   0.02459   0.02467   0.12678
  14        5S          0.01689  -0.04802  -0.06565   0.01204  -0.00114
  15        5PX         0.00362  -0.01414  -0.01325   0.00593   0.00082
  16        5PY         0.00815   0.00446   0.00216  -0.00193   0.00062
  17        5PZ         0.00248   0.00881   0.00596  -0.00455   0.00114
  18        6D 0       -0.00033  -0.00469  -0.00529  -0.00188  -0.01448
  19        6D+1       -0.00253  -0.00164   0.00087   0.00278   0.00802
  20        6D-1        0.00046   0.00039   0.00110   0.00030  -0.00334
  21        6D+2        0.00229   0.00440   0.00136  -0.00057   0.00111
  22        6D-2       -0.00213   0.00573   0.00917  -0.00110  -0.00854
  23 2   C  1S          0.02454  -0.06103  -0.06793  -0.00316   0.00033
  24        2S          0.03785  -0.09481  -0.10600  -0.00493   0.00053
  25        2PX         0.02916   0.04128  -0.03287  -0.00166   0.03617
  26        2PY         0.02329   0.01542   0.03380  -0.00281  -0.05686
  27        2PZ         0.00218  -0.00546   0.02769   0.04041   0.08012
  28        3S         -0.09949   0.25351   0.28814   0.01357  -0.00177
  29        3PX         0.04747   0.06411  -0.05282  -0.00350   0.05385
  30        3PY         0.03913   0.01784   0.04361  -0.00499  -0.08435
  31        3PZ         0.00396  -0.01164   0.03899   0.06005   0.11932
  32        4S         -0.03160   0.15918   0.20834   0.00727   0.00113
  33        4PX         0.00945   0.02146  -0.01421  -0.00111   0.04166
  34        4PY         0.00663   0.00545   0.01944  -0.00320  -0.06432
  35        4PZ        -0.00174  -0.00355   0.01568   0.03080   0.09628
  36        5S         -0.06662  -0.00042   0.10354  -0.04862   0.02484
  37        5PX        -0.00318   0.00668   0.01905  -0.01979   0.01273
  38        5PY         0.00968   0.01068  -0.00426  -0.00325  -0.00931
  39        5PZ         0.00741   0.00136  -0.00897   0.00651   0.01600
  40        6D 0        0.00433   0.00160   0.00317  -0.00060   0.00241
  41        6D+1       -0.00435  -0.00602   0.00568   0.00343  -0.00887
  42        6D-1       -0.00277  -0.00028  -0.00394  -0.00142  -0.00196
  43        6D+2        0.00459   0.00552  -0.00364   0.00019  -0.00452
  44        6D-2       -0.01024  -0.00869   0.00270   0.00182   0.00193
  45 3   C  1S         -0.02998  -0.07014   0.05637   0.01451  -0.00473
  46        2S         -0.04620  -0.10897   0.08794   0.02276  -0.00739
  47        2PX         0.03079  -0.03159  -0.04841   0.03443  -0.00388
  48        2PY         0.02579  -0.01127   0.02455   0.00215  -0.04269
  49        2PZ         0.00288   0.00763   0.02383   0.06989   0.02661
  50        3S          0.12154   0.29272  -0.23969  -0.06306   0.01946
  51        3PX         0.04897  -0.04865  -0.07598   0.05087  -0.00609
  52        3PY         0.04210  -0.01039   0.03092   0.00091  -0.06224
  53        3PZ         0.00536   0.01555   0.03365   0.10452   0.03817
  54        4S          0.03837   0.17315  -0.16462  -0.04500   0.01809
  55        4PX         0.01017  -0.01692  -0.01939   0.03006  -0.00567
  56        4PY         0.00442  -0.00752   0.02348   0.00083  -0.02769
  57        4PZ         0.00245   0.00554   0.01280   0.06261   0.00745
  58        5S          0.05882   0.05403  -0.11275   0.09446  -0.04834
  59        5PX        -0.00598  -0.00982   0.00369   0.01107   0.00260
  60        5PY         0.00545  -0.00234  -0.01501   0.02359  -0.01014
  61        5PZ         0.00463   0.00231  -0.00826   0.01340  -0.00892
  62        6D 0       -0.00494   0.00111  -0.00137  -0.00399   0.00363
  63        6D+1        0.00417  -0.00452  -0.00824   0.00731  -0.00605
  64        6D-1        0.00283   0.00064   0.00288   0.00670  -0.00497
  65        6D+2       -0.00412   0.00436   0.00392   0.00348  -0.00285
  66        6D-2        0.01106  -0.00667  -0.00657   0.00235  -0.00181
  67 4   H  1S         -0.01101   0.04767   0.07585   0.03123   0.05452
  68        2S         -0.01435   0.05508   0.09288   0.03940   0.05756
  69        3S          0.00403  -0.00012   0.00828   0.00794   0.00018
  70        4PX         0.00174   0.00082  -0.00289   0.00022   0.00111
  71        4PY         0.00136  -0.00060   0.00027  -0.00067  -0.00357
  72        4PZ         0.00306  -0.00934  -0.01187  -0.00320  -0.00345
  73 5   H  1S         -0.01095   0.04704   0.07681  -0.00977  -0.06765
  74        2S         -0.01569   0.05424   0.09326  -0.01105  -0.07361
  75        3S          0.00424  -0.00016   0.00957  -0.00233  -0.00203
  76        4PX         0.00019   0.00504   0.00337  -0.00116  -0.00182
  77        4PY         0.00371  -0.00718  -0.00955   0.00100   0.00527
  78        4PZ        -0.00116   0.00342   0.00695   0.00175  -0.00009
  79 6   N  1S         -0.07855   0.03735  -0.00774  -0.01608   0.00686
  80        2S         -0.12355   0.05915  -0.01225  -0.02550   0.01090
  81        2PX        -0.01492  -0.03108   0.02667   0.02959   0.00925
  82        2PY         0.00094  -0.05542   0.07885  -0.07593   0.03291
  83        2PZ         0.00686  -0.00552   0.00742   0.15149  -0.03062
  84        3S          0.33955  -0.16769   0.03409   0.07110  -0.03051
  85        3PX        -0.02465  -0.04575   0.03980   0.04300   0.01423
  86        3PY         0.00012  -0.08318   0.11722  -0.11217   0.04893
  87        3PZ         0.00931  -0.00734   0.01108   0.22232  -0.04522
  88        4S          0.24897  -0.12951   0.02961   0.06658  -0.03612
  89        4PX        -0.01592  -0.02486   0.01943   0.02760   0.00997
  90        4PY        -0.00049  -0.04094   0.06921  -0.06726   0.02429
  91        4PZ        -0.00087  -0.00296   0.00758   0.13842  -0.02325
  92        5S         -0.02733  -0.02582   0.02551   0.03978  -0.00374
  93        5PX         0.00845   0.01140  -0.00151   0.00599  -0.00314
  94        5PY         0.00330   0.00666  -0.00922   0.03560  -0.00512
  95        5PZ         0.00774  -0.01569   0.00118   0.00645   0.00056
  96        6D 0        0.00083  -0.00512   0.00312   0.00975  -0.00189
  97        6D+1        0.00363  -0.00193  -0.00071  -0.00095  -0.00211
  98        6D-1       -0.00180   0.00317  -0.00389   0.00788  -0.00444
  99        6D+2       -0.00300   0.00487  -0.00092   0.00461  -0.00406
 100        6D-2        0.00526   0.00464  -0.00627   0.00426  -0.00149
 101 7   H  1S          0.01356   0.05195  -0.06139  -0.06394  -0.01062
 102        2S          0.01849   0.06194  -0.07531  -0.07188  -0.01962
 103        3S         -0.00069  -0.00485  -0.00181  -0.01099  -0.00711
 104        4PX         0.00169  -0.00019  -0.00338   0.00115   0.00071
 105        4PY         0.00121   0.00067   0.00039  -0.00022  -0.00274
 106        4PZ         0.00390   0.01070  -0.00975  -0.00643  -0.00113
 107 8   H  1S          0.01402   0.05414  -0.06655   0.01242   0.03975
 108        2S          0.01825   0.06371  -0.08089   0.00952   0.05618
 109        3S         -0.00352  -0.00255  -0.00482   0.00118   0.02087
 110        4PX        -0.00001  -0.00543   0.00238   0.00056  -0.00360
 111        4PY         0.00434   0.00843  -0.00834   0.00099   0.00348
 112        4PZ        -0.00154  -0.00393   0.00595   0.00292  -0.00044
 113 9   H  1S          0.05993  -0.04612   0.02523   0.12290  -0.02450
 114        2S          0.05711  -0.05011   0.02590   0.14658  -0.03141
 115        3S         -0.00569   0.01122   0.00283   0.01436  -0.00626
 116        4PX        -0.00518   0.00164  -0.00037  -0.00679   0.00160
 117        4PY        -0.00210  -0.00167   0.00398  -0.00856   0.00256
 118        4PZ        -0.01234   0.00899  -0.00403  -0.01218   0.00210
 119 10  H  1S         -0.05584  -0.04991  -0.04841   0.01593   0.10989
 120        2S         -0.05351  -0.05659  -0.05577   0.02144   0.14479
 121        3S          0.00592   0.01121   0.00604   0.00164   0.04310
 122        4PX         0.00270   0.00430   0.00375  -0.00043  -0.00085
 123        4PY        -0.01102  -0.00698  -0.00360   0.00271   0.01496
 124        4PZ         0.00533   0.00533   0.00585   0.00060   0.00146
 125 11  H  1S         -0.05585  -0.05005  -0.04729  -0.01815  -0.11305
 126        2S         -0.05312  -0.05718  -0.05449  -0.02176  -0.14936
 127        3S          0.00568   0.01320   0.00622  -0.00994  -0.04213
 128        4PX        -0.00345  -0.00100  -0.00075  -0.00118  -0.00148
 129        4PY        -0.00179   0.00101   0.00343  -0.00136  -0.00957
 130        4PZ        -0.01187  -0.00970  -0.00698  -0.00145  -0.01205
 131 12  C  1S         -0.00215   0.01762  -0.01931   0.04664  -0.02214
 132        2S         -0.00355   0.02765  -0.03039   0.07354  -0.03508
 133        2PX        -0.00093  -0.00170   0.00015  -0.00090   0.00635
 134        2PY        -0.05172   0.04785  -0.03682   0.07873  -0.01911
 135        2PZ         0.03202  -0.02658   0.02728  -0.03471   0.00628
 136        3S          0.00874  -0.07911   0.08856  -0.21621   0.10624
 137        3PX        -0.00141  -0.00258   0.00000  -0.00224   0.01001
 138        3PY        -0.07483   0.06944  -0.05258   0.11188  -0.02787
 139        3PZ         0.04676  -0.03885   0.03933  -0.04730   0.00838
 140        4S          0.00738  -0.04205   0.05351  -0.15002   0.08037
 141        4PX         0.00170   0.00075  -0.00108   0.00673   0.00465
 142        4PY        -0.00203   0.01451  -0.00934   0.03943  -0.01512
 143        4PZ         0.00300  -0.00488   0.00828  -0.01667   0.00581
 144        5S          0.00231  -0.02724   0.01832  -0.05435   0.01724
 145        5PX        -0.00159   0.00252   0.00005   0.00055   0.00104
 146        5PY        -0.00486   0.01152  -0.00779   0.02017  -0.00521
 147        5PZ         0.00040  -0.00323   0.00358  -0.01163   0.00177
 148        6D 0       -0.00259  -0.00265   0.00366   0.00829   0.00085
 149        6D+1       -0.00619  -0.00044   0.00134  -0.00000   0.00228
 150        6D-1       -0.01307   0.01050  -0.00739   0.00036  -0.00091
 151        6D+2       -0.00743   0.00424  -0.00086   0.00919  -0.00174
 152        6D-2       -0.00374   0.00487  -0.00350  -0.00583  -0.00022
 153 13  O  1S          0.02237  -0.00738   0.00633  -0.03046   0.01020
 154        2S          0.03586  -0.01189   0.01025  -0.04929   0.01650
 155        2PX        -0.00735  -0.00111   0.00043  -0.01308   0.01659
 156        2PY        -0.00765   0.00649  -0.00530   0.03378  -0.00469
 157        2PZ        -0.00742  -0.00305   0.00720  -0.03829   0.01974
 158        3S         -0.10397   0.03448  -0.03007   0.14683  -0.04827
 159        3PX        -0.01063  -0.00106   0.00005  -0.01787   0.02309
 160        3PY        -0.01147   0.00995  -0.00827   0.04867  -0.00714
 161        3PZ        -0.01053  -0.00407   0.00973  -0.05329   0.02727
 162        4S         -0.07828   0.03502  -0.03279   0.15845  -0.06237
 163        4PX        -0.00476  -0.00117  -0.00113  -0.00992   0.01640
 164        4PY        -0.00713   0.00488  -0.00455   0.03407  -0.00275
 165        4PZ        -0.00340  -0.00096   0.00516  -0.03160   0.01527
 166        5S          0.00030   0.00832  -0.00807   0.03782  -0.00989
 167        5PX        -0.00029   0.00092   0.00009   0.00023  -0.00166
 168        5PY        -0.00044  -0.00125   0.00186   0.00074  -0.00282
 169        5PZ         0.00108   0.00118  -0.00229   0.00228   0.00300
 170        6D 0       -0.00071  -0.00048   0.00088  -0.00238   0.00100
 171        6D+1       -0.00190   0.00015  -0.00032  -0.00194   0.00191
 172        6D-1       -0.00228   0.00189  -0.00155   0.00449  -0.00077
 173        6D+2       -0.00106   0.00011   0.00003   0.00024   0.00066
 174        6D-2       -0.00114   0.00137  -0.00102   0.00221  -0.00069
 175 14  O  1S          0.02369  -0.01743   0.01460  -0.01565   0.01149
 176        2S          0.03796  -0.02807   0.02355  -0.02538   0.01861
 177        2PX         0.00739  -0.00247  -0.00213   0.00661  -0.00827
 178        2PY         0.00388   0.00811  -0.01463   0.03015  -0.02351
 179        2PZ         0.01016  -0.00795   0.00692  -0.00108  -0.00638
 180        3S         -0.11004   0.08280  -0.06959   0.07492  -0.05518
 181        3PX         0.01081  -0.00361  -0.00312   0.00781  -0.01119
 182        3PY         0.00540   0.01177  -0.02100   0.04139  -0.03302
 183        3PZ         0.01505  -0.01138   0.00991  -0.00340  -0.00880
 184        4S         -0.08458   0.07049  -0.06902   0.08694  -0.06525
 185        4PX         0.00455  -0.00159  -0.00076   0.00304  -0.00618
 186        4PY         0.00032   0.00802  -0.01223   0.02574  -0.02048
 187        4PZ         0.00803  -0.00682   0.00733  -0.00143  -0.00571
 188        5S         -0.00304   0.01043  -0.01423  -0.00032  -0.01564
 189        5PX         0.00074  -0.00208   0.00066   0.00312  -0.00145
 190        5PY         0.00162  -0.00293   0.00250   0.00591  -0.00093
 191        5PZ         0.00027   0.00108   0.00089   0.00231  -0.00123
 192        6D 0       -0.00062   0.00106  -0.00136   0.00237  -0.00091
 193        6D+1       -0.00189   0.00111  -0.00076   0.00158   0.00018
 194        6D-1       -0.00240   0.00118  -0.00077   0.00007   0.00099
 195        6D+2       -0.00095   0.00162  -0.00155   0.00274  -0.00154
 196        6D-2       -0.00123  -0.00004   0.00082  -0.00103   0.00118
                          16        17        18        19        20
                           O         O         O         O         O
     Eigenvalues --    -0.46246  -0.44108  -0.43318  -0.39895  -0.39090
   1 1   N  1S         -0.00843   0.00915   0.00721  -0.00494   0.00146
   2        2S         -0.01348   0.01482   0.01162  -0.00799   0.00241
   3        2PX        -0.02407  -0.04800   0.01542   0.06571  -0.03982
   4        2PY        -0.04164  -0.12382  -0.07024   0.02716  -0.07355
   5        2PZ         0.04726  -0.06463   0.02030   0.08825   0.03445
   6        3S          0.03942  -0.04704  -0.03570   0.02547  -0.00886
   7        3PX        -0.03544  -0.07172   0.02172   0.09683  -0.06031
   8        3PY        -0.05988  -0.18166  -0.10277   0.04000  -0.10582
   9        3PZ         0.06905  -0.09411   0.02884   0.12613   0.05040
  10        4S          0.03923  -0.04262  -0.03337   0.02915  -0.01205
  11        4PX        -0.03011  -0.04195   0.01973   0.06796  -0.04626
  12        4PY        -0.03485  -0.12404  -0.07162   0.03082  -0.07572
  13        4PZ         0.04716  -0.06587   0.01477   0.08959   0.03607
  14        5S          0.01266   0.08242   0.02191  -0.03246   0.02294
  15        5PX         0.00048   0.01675   0.00887  -0.00362   0.00519
  16        5PY        -0.00678  -0.00980  -0.00527   0.00545  -0.01377
  17        5PZ        -0.00111  -0.01658  -0.00037   0.02067   0.00315
  18        6D 0       -0.00136   0.00790  -0.00359  -0.01283  -0.00144
  19        6D+1        0.00463  -0.00176  -0.00099  -0.00133   0.00189
  20        6D-1       -0.00075   0.00086  -0.00298  -0.00734  -0.00196
  21        6D+2       -0.00697  -0.00301  -0.00045   0.00093  -0.00991
  22        6D-2       -0.00491  -0.01167  -0.00659   0.00201  -0.00732
  23 2   C  1S          0.00102  -0.00186  -0.00238   0.00417  -0.00113
  24        2S          0.00160  -0.00280  -0.00370   0.00648  -0.00168
  25        2PX        -0.01763   0.12216   0.05274  -0.04880  -0.01922
  26        2PY         0.05971   0.06306   0.01018  -0.03310   0.10442
  27        2PZ         0.04510  -0.00778  -0.03425  -0.08984   0.00100
  28        3S         -0.00489   0.00640   0.01036  -0.01555   0.00080
  29        3PX        -0.02573   0.18302   0.07888  -0.07243  -0.02657
  30        3PY         0.08807   0.09433   0.01474  -0.05007   0.15399
  31        3PZ         0.06678  -0.01209  -0.04981  -0.13013   0.00206
  32        4S         -0.00503  -0.00752  -0.00302  -0.02031   0.02375
  33        4PX        -0.01514   0.08953   0.04129  -0.03447  -0.02743
  34        4PY         0.04715   0.05949   0.00396  -0.02941   0.10393
  35        4PZ         0.05188  -0.00059  -0.02155  -0.08805   0.00122
  36        5S          0.02147  -0.05909  -0.04938  -0.03270   0.01756
  37        5PX         0.00240  -0.00201  -0.00657  -0.00407  -0.00583
  38        5PY        -0.00608   0.01163   0.00172  -0.00271   0.00780
  39        5PZ         0.00371   0.01103   0.00701  -0.00528  -0.00082
  40        6D 0        0.00356   0.00602   0.00234  -0.01207   0.00683
  41        6D+1        0.00024  -0.00323  -0.00849  -0.00825  -0.00226
  42        6D-1       -0.00897   0.00002  -0.00069  -0.00479  -0.00918
  43        6D+2       -0.00075   0.00179  -0.00405  -0.00401  -0.00764
  44        6D-2        0.00577  -0.01604  -0.00585   0.01143  -0.00914
  45 3   C  1S          0.01015  -0.00538  -0.00054  -0.00208  -0.00100
  46        2S          0.01586  -0.00843  -0.00077  -0.00339  -0.00162
  47        2PX         0.07025  -0.06913  -0.08363  -0.02445   0.01746
  48        2PY         0.12702   0.03932   0.01136   0.05132   0.00904
  49        2PZ        -0.00461   0.06599  -0.03921  -0.07208  -0.07625
  50        3S         -0.03961   0.02386  -0.00082   0.01305   0.00412
  51        3PX         0.10461  -0.10318  -0.12353  -0.03504   0.02586
  52        3PY         0.18665   0.05784   0.01608   0.07492   0.01427
  53        3PZ        -0.00742   0.09788  -0.05692  -0.10467  -0.11055
  54        4S         -0.05458   0.02291   0.02243  -0.01706   0.02228
  55        4PX         0.03945  -0.06025  -0.07035  -0.03403   0.02289
  56        4PY         0.11453   0.03410   0.02527   0.03971   0.01085
  57        4PZ        -0.01170   0.06206  -0.04803  -0.08606  -0.07292
[...]
     1          0.91437483         -3.58923322         -2.30593906
     6          1.43536137         -1.06656124        -10.80295152
     8         -0.77893886         -1.66238815        -10.15461517
     8          2.06842813          0.41826410        -12.56814522

 Electric dipole moment (dipole orientation):
 (Debye = 10**-18 statcoulomb cm , SI units = C m)
                  (au)            (Debye)         (10**-30 SI)
   Tot        0.115260D+02      0.292961D+02      0.977212D+02
   x          0.000000D+00      0.000000D+00      0.000000D+00
   y          0.000000D+00      0.000000D+00      0.000000D+00
   z          0.115260D+02      0.292961D+02      0.977212D+02

 Dipole polarizability, Alpha (dipole orientation).
 (esu units = cm**3 , SI units = C**2 m**2 J**-1)
 Alpha(0;0):
               (au)            (10**-24 esu)      (10**-40 SI)
   iso        0.865600D+02      0.128269D+02      0.142718D+02
   aniso      0.250203D+02      0.370762D+01      0.412528D+01
   xx         0.863893D+02      0.128016D+02      0.142437D+02
   yx         0.566430D+00      0.839363D-01      0.933917D-01
   yy         0.793563D+02      0.117594D+02      0.130841D+02
   zx         0.442659D+00      0.655953D-01      0.729846D-01
   zy        -0.124500D+02     -0.184491D+01     -0.205273D+01
   zz         0.939343D+02      0.139196D+02      0.154877D+02

 First dipole hyperpolarizability, Beta (dipole orientation).
 ||, _|_  parallel and perpendicular components, (z) with respect to z axis,
 vector components x,y,z.  Values do not include the 1/n! factor of 1/2.
 (esu units = statvolt**-1 cm**4 , SI units = C**3 m**3 J**-2)
 Beta(0;0,0):
               (au)            (10**-30 esu)      (10**-50 SI)
   || (z)     0.806445D+02      0.696705D+00      0.258575D+00
   _|_(z)     0.268815D+02      0.232235D+00      0.861918D-01
   x          0.379838D+02      0.328150D+00      0.121790D+00
   y         -0.454695D+03     -0.392821D+01     -0.145792D+01
   z          0.403222D+03      0.348353D+01      0.129288D+01
   ||         0.121783D+03      0.105211D+01      0.390481D+00
   xxx        0.865859D+02      0.748035D+00      0.277626D+00
   xxy        0.272366D+02      0.235303D+00      0.873305D-01
   yxy       -0.990182D+01     -0.855440D-01     -0.317488D-01
   yyy       -0.138940D+03     -0.120034D+01     -0.445493D+00
   xxz       -0.813785D+02     -0.703047D+00     -0.260929D+00
   yxz        0.500653D+02      0.432525D+00      0.160527D+00
   yyz        0.505259D+02      0.436505D+00      0.162004D+00
   zxz       -0.640228D+02     -0.553107D+00     -0.205280D+00
   zyz       -0.398612D+02     -0.344370D+00     -0.127809D+00
   zzz        0.165260D+03      0.142772D+01      0.529884D+00

 ----------------------------------------------------------------------
 Unable to Open any file for archive entry.
 1\1\GINC-NODE1733\Freq\RB3LYP\6-311+G(d,p)\C3H7N2O2(1-)\SVICCHI\02-Jun
 -2023\0\\#p freq=raman scale=0.967 pop=(nbo,full,hirshfeld) guess=read
  geom=allcheck b3lyp/6-311+G(d,p) int=grid=ultrafine EmpiricalDispersi
 on=GD3BJ SCRF=(Solvent=ethanol) scf=(xqc,intrep,maxconventionalcycle=3
 50) nosymm\\EDA-CO2_binding-site_index-5.gjf\\-1,1\N,2.041547153,-0.94
 03529827,0.2400370092\C,3.0512913604,0.1086397057,0.438532914\C,4.4243
 031584,-0.1852586977,-0.1886558577\H,3.1738997701,0.2663382725,1.51535
 31406\H,2.6659105901,1.0424667648,0.0204947015\N,5.4019228908,0.872496
 5979,0.0031197725\H,4.3022849031,-0.3426319623,-1.2621935106\H,4.82300
 56304,-1.1130400832,0.2380154223\H,5.7205347581,1.0081381724,0.9521803
 869\H,2.3756562483,-1.8240416748,0.6154920176\H,1.889052763,-1.0930024
 745,-0.7532973846\C,5.358971296,2.0748793662,-0.7430769738\O,4.7146982
 309,2.0622675101,-1.826999561\O,6.0126092476,3.0434564857,-0.256489076
 9\\Version=ES64L-G16RevC.01\HF=-378.7968327\RMSD=2.082e-09\RMSF=1.502e
 -05\ZeroPoint=0.1089435\Thermal=0.1167507\ETot=-378.680082\HTot=-378.6
 791378\GTot=-378.7205157\Dipole=-1.5634601,-3.8982514,1.6751862\Dipole
 Deriv=-0.95598,-0.2397944,0.1562154,-0.2392378,-0.5230049,-0.0281043,0
 .1065393,-0.0402478,-0.377203,0.4528858,0.1136967,-0.010645,0.313783,0
 .4084694,0.0266312,0.1039038,0.0611541,0.3275815,0.4763677,0.0940449,-
 0.0282022,0.1938951,0.6029055,-0.1064527,0.0527818,0.1347633,0.2212477
 ,-0.0056838,-0.0489866,-0.0420667,-0.0231545,0.0386928,-0.0352413,-0.0
 253631,-0.0719869,-0.222781,-0.0105355,0.0663034,-0.0332027,0.0512264,
 -0.1454538,0.0447184,-0.0283343,0.0854308,0.0426812,-0.8262069,0.08585
 97,-0.0244344,-0.1924162,-1.5083489,0.4960138,0.1127826,0.4056797,-0.5
 873583,0.008694,-0.0530638,-0.0232639,-0.00527,0.0748456,-0.0422897,-0
 .0269704,-0.1144754,-0.1262029,-0.0300661,0.0463959,-0.0186036,0.03818
 03,-0.2360947,0.0921642,-0.015262,0.1551377,0.030889,0.3227442,-0.1225
 444,0.0228435,-0.1142327,0.1588753,-0.0046965,-0.0769419,0.045542,0.06
 5225,0.2184505,0.1404234,-0.1292975,0.0203289,0.0299794,0.0259912,-0.1
 1243,-0.0104082,0.2463499,0.3408602,-0.0239102,0.0620147,-0.0788741,0.
 1502449,-0.0268372,-0.0392007,-0.0515305,0.0041356,1.1627931,0.7088548
 ,1.0211327,0.8702469,2.7041108,-0.2208591,0.9036722,-0.3763959,2.22296
 5,-1.0238558,-0.1093812,-0.6073606,-0.1079901,-0.9381512,0.1127773,-0.
 6120044,0.094185,-1.8018622,-1.1304674,-0.6578981,-0.3451297,-0.726485
 3,-1.8170702,-0.3338154,-0.3431729,-0.3168478,-1.0456676\Polar=83.1850
 708,11.7498045,93.2461595,5.6116041,-2.3650134,83.2487215\PolarDeriv=-
 6.724868,-4.4434149,-2.8221776,-0.9397038,2.3381853,1.9432504,-3.76981
 72,-5.1633557,6.8075223,2.4584316,-0.7052186,2.4647769,-1.9677926,2.40
 8086,-1.3915763,0.1499343,2.2333889,8.3911958,-4.5565873,-0.5498124,2.
 5486559,3.2106901,-1.1506308,-4.1928098,4.2093447,5.2136347,-7.7643387
 ,-2.1320352,1.2027897,-2.7781672,5.6677269,-0.7703401,4.300372,-2.3854
 041,-5.1176238,-11.2202828,4.0488411,1.2924713,-3.4121241,-3.7232272,2
 .4755217,3.2184976,-2.7901629,-4.4466047,8.5003671,1.7907177,-0.771449
 ,2.5060024,-3.6640355,2.4219758,-3.5621183,1.4718881,5.9255634,9.51432
 88,1.3301284,0.5321505,0.1396635,1.763022,0.7395788,1.7332341,-0.85459
 26,-0.6343166,0.7760055,0.2903255,1.8061721,0.8079545,1.5632371,0.8366
 055,1.7031433,0.3360602,2.3632548,12.9730638,-2.229981,2.4391571,-2.12
 95918,-1.4790769,0.1766117,-0.1128991,2.2263639,-2.6252727,9.2238473,0
 .3808681,-1.8968409,1.5874234,-2.5749191,0.3135476,-4.186227,-0.235473
 6,2.4470296,-1.0484399,5.8145603,-1.5648864,-0.6882797,1.4490913,0.059
 4725,-3.5535753,-1.3242397,2.7497813,-2.2023862,-1.8180037,-1.7082875,
 -2.7591854,-0.0103565,-2.1798087,-1.8575498,-2.8360009,-0.1027348,-7.3
 797179,-0.8674269,-0.5323131,0.2272829,-1.3124934,-1.1498976,-1.541145
 6,0.6069987,1.0854336,-0.3523709,-0.7064771,-2.4477491,-1.1698312,-1.8
 455537,-1.2460055,-3.202268,0.0545625,-2.6701844,-10.7937388,2.2097434
 ,-2.2449992,2.8958808,1.301813,-0.8800026,0.5740218,-1.9069833,2.53307
 26,-12.9362872,-0.56868,2.7278363,-1.3985043,2.3903609,-0.1903593,5.67
 58928,0.5893441,-3.2017194,1.598,1.4612234,0.7036232,1.6617397,1.20306
 34,0.1852739,3.4100002,0.4174664,0.4986773,-0.2118518,1.0238382,1.1585
 077,0.4675075,2.9411047,0.8019986,3.0171909,3.6878951,-0.8385329,10.99
 34088,-0.0226776,-0.2480594,2.3823886,1.1003651,-0.9747061,0.9233301,-
 1.068625,1.0374505,-10.8993588,-0.4514539,2.4146732,-1.6136988,1.75448
 12,-1.2679896,4.2013043,0.2165499,-1.6951332,1.8752472,-1.5920437,0.16
 01727,-0.6085506,-0.2551779,-1.2004383,-2.8644804,0.1668399,-0.5840846
 ,-0.7651569,-0.7690857,-1.5036631,-0.6794572,-1.7801549,-1.1876358,-2.
 8266259,-2.6141369,-2.6847791,-10.1461413,0.9039393,-1.5532458,-1.0030
 08,0.3361037,-1.511428,2.086061,1.2780159,-3.8394547,-2.1517695,-1.424
 9703,-0.1768021,0.5004367,-1.2455109,0.827431,-0.374801,2.5411063,-1.1
 499199,5.5224501,-6.3421224,0.3097047,-3.6000543,-4.2438694,2.0605396,
 -3.0756411,0.3232874,-0.9211095,-0.6345804,0.9705701,-1.5491174,-0.895
 7318,-2.1929194,-1.7914513,-6.3572481,-2.6861705,1.8228808,-13.6903485
 ,6.567271,5.6994517,4.4081748,1.5894,-1.1680802,1.452156,2.4861038,5.0
 961485,12.6103582,0.9559546,1.4491486,2.9604745,0.9643317,1.0239458,4.
 8605111,1.7098456,2.6685102,3.4109746\HyperPolar=-69.4346815,-106.7170
 078,-34.6788225,-78.7490339,38.727764,-32.6683667,-125.4774812,47.4431
 638,-5.883509,49.7166843\Quadrupole=-59.5398917,19.0759698,40.4639219,
 -58.8973925,23.5481161,10.4752887\PG=C01 [X(C3H7N2O2)]\NImag=0\\0.2597
 3783,0.00845111,0.56574696,0.15144225,-0.05986018,0.58729304,-0.128527
 56,-0.08358560,-0.03573805,0.43675452,-0.04021254,-0.14396117,-0.00794
 552,-0.03729850,0.55082958,-0.01223216,0.00804885,-0.09341467,0.043787
 71,-0.02663106,0.58937867,-0.02357690,-0.00575272,0.00535942,-0.134261
 44,0.03471536,0.03618961,0.44182710,-0.03221387,-0.00324029,0.00903195
 ,0.03678000,-0.08671452,-0.01426026,-0.02614818,0.54315057,-0.00803018
 ,0.00014285,0.00369034,0.03634077,-0.01430340,-0.10356006,0.04522348,-
 0.02533303,0.59560765,-0.00823791,-0.00599470,-0.02707901,-0.04937382,
 -0.00195174,-0.02276718,0.00004352,0.00384381,0.03170336,0.06149662,-0
 .00991027,-0.00591624,-0.02711876,0.00005991,-0.05287283,-0.02398694,0
 .00038877,-0.00083482,-0.00946685,0.00829406,0.05706043,-0.00352364,-0
 .00273616,-0.00247469,-0.02675787,-0.02888127,-0.29378674,-0.00165042,
 -0.00210360,-0.01532564,0.02928133,0.03603710,0.31841732,0.00639167,-0
 .02637756,0.01226537,-0.08272081,0.08296463,-0.04077260,-0.01369244,0.
 02634956,-0.01111333,-0.00135101,0.00293796,-0.00114888,0.09423216,0.0
 0209425,-0.02551304,0.01079476,0.07886571,-0.22688705,0.08277272,0.004
 09858,-0.00773792,0.00347462,-0.00139614,0.00512234,-0.00099692,-0.081
 40506,0.25572771,0.00140771,-0.00563440,0.00336169,-0.03837911,0.08818
 197,-0.09211654,0.00741307,-0.01243640,0.00564436,-0.01106184,0.026253
 80,-0.01180578,0.03959011,-0.09338139,0.09313615,-0.01032653,-0.001256
 10,0.00369219,-0.02488308,-0.03131654,-0.00707947,-0.12983238,-0.06519
 755,-0.02301098,0.00286255,0.00001119,-0.00016632,0.00296111,-0.000047
 75,-0.00140649,0.27641886,-0.00409744,0.00086725,0.00061765,-0.0097652
 3,-0.00432485,-0.00048657,-0.08515031,-0.14257282,0.01128444,0.0015284
 4,0.00027887,0.00081280,-0.00063387,0.00171063,-0.00000688,0.19458133,
 0.47602792,0.00612065,0.00043929,0.00051838,0.00456927,0.01270568,0.00
 511385,-0.03773113,-0.00768872,-0.10772929,-0.00101576,0.00077391,0.00
 157849,-0.00019258,-0.00057642,0.00019555,0.20645885,-0.04627837,0.662
 11670,0.00293698,0.00120671,-0.00062610,0.00015082,0.00384734,0.031619
 55,-0.05025071,-0.00301763,-0.02420421,-0.00508428,0.00101242,0.002710
 27,0.00139885,-0.00020212,-0.00077706,-0.00838671,-0.00673289,-0.02780
 751,0.06221193,-0.00001517,0.00026815,0.00095803,-0.00024994,-0.001052
 96,-0.00984980,-0.00160815,-0.05042727,-0.02690975,0.00122480,0.000202
 48,-0.00104156,-0.00049982,0.00016726,-0.00010762,-0.00880677,-0.00625
 949,-0.02761892,0.00868916,0.05413600,-0.00024523,0.00076075,0.0020352
 7,-0.00087560,-0.00241704,-0.01516656,-0.02805669,-0.03485127,-0.30025
 494,0.00239334,-0.00088093,0.00026280,0.00000806,-0.00008670,0.0008579
 9,-0.00533152,-0.00476982,-0.00361064,0.03117050,0.03933608,0.32618562
 ,0.00258564,0.00005999,0.00000708,-0.01375400,0.02597147,-0.01179965,-
 0.08413728,0.08225549,-0.04105170,0.00143908,-0.00065279,0.00019505,-0
 .00499517,0.00093687,0.00279991,0.00603248,-0.02765851,0.01444852,-0.0
 0164964,0.00289810,-0.00093954,0.09602544,0.00018106,0.00231067,-0.000
 45481,0.00382781,-0.00854129,0.00409295,0.07836944,-0.21617630,0.08134
 425,-0.00022134,0.00037214,-0.00034236,0.00109202,0.00037748,-0.001160
 74,0.00048741,-0.02803468,0.01407173,-0.00155526,0.00509978,-0.0007443
 8,-0.08104657,0.24473717,-0.00149584,-0.00080648,0.00009347,0.00887725
 ,-0.01256105,0.00549462,-0.03811314,0.08476124,-0.09154928,-0.00092688
 ,-0.00008769,0.00105555,0.00289540,-0.00080634,0.00001583,0.00052860,-
 0.00657753,0.00298935,-0.01124164,0.02595309,-0.01010976,0.03927281,-0
 .09199654,0.09238172,-0.00006256,-0.00003765,0.00081519,0.00040818,-0.
 00011199,-0.00197898,-0.00949885,-0.00149249,-0.02003973,-0.00069240,-
 0.00003503,0.00065494,-0.00009367,0.00006717,0.00004612,-0.05419411,-0
 .03838783,-0.10872272,-0.00116313,-0.00157734,0.00066667,0.00056131,-0
 .00005996,0.00048649,0.06782153,-0.00034971,-0.00000826,0.00026040,0.0
 0068497,0.00009806,-0.00011562,-0.00445056,-0.00243444,-0.02599122,-0.
 00030714,0.00013665,0.00039569,0.00001458,0.00005517,0.00006016,-0.042
 34339,-0.05950128,-0.04805301,-0.00428700,-0.00415373,-0.00058463,0.00
 082997,0.00039866,0.00024893,0.03663952,0.06304990,0.00055078,0.000247
 71,-0.00016185,-0.00003145,0.00067387,0.00131479,0.00463310,0.00009477
 ,0.00042153,-0.00040231,-0.00001449,-0.00006431,-0.00000070,-0.0000272
 5,-0.00004409,-0.13178356,-0.03291755,-0.39803400,0.00008971,-0.000327
 39,0.00111835,-0.00013092,-0.00020823,0.00032054,0.13253477,0.04063326
 ,0.40985582,-0.07554416,0.12524430,-0.08137552,0.00482671,-0.02768814,
 0.01264837,0.00158607,-0.00239793,0.00087282,0.00070540,0.00089663,-0.
 00014917,-0.00233763,-0.00302049,-0.00029775,-0.00016028,0.00097047,-0
 .00057252,-0.00006676,0.00010160,0.00005464,-0.00051230,0.00056777,-0.
 00033177,-0.00000255,0.00004043,-0.00000477,0.07597883,0.09352879,-0.3
 2600143,0.12721122,0.01196349,-0.02582416,0.00953564,0.00088744,0.0018
 3121,0.00038771,0.00041416,0.00061011,-0.00045606,-0.00471689,-0.00275
 589,-0.00208677,0.00026339,0.00044168,-0.00048807,-0.00011680,0.000048
 86,0.00004392,-0.00107580,0.00025311,0.00043772,0.00002916,-0.00001433
 ,-0.00000371,-0.10080595,0.34641267,-0.05620002,0.10043878,-0.09456845
 ,0.00424984,-0.00469465,0.00317261,-0.00042723,-0.00001794,-0.00042228
 ,0.00044250,-0.00025228,0.00017595,-0.00130512,-0.00212096,0.00104085,
 -0.00027637,-0.00051564,0.00039499,0.00006136,0.00007761,-0.00008794,0
 .00022718,0.00021348,-0.00010616,0.00000181,-0.00005129,0.00001205,0.0
 6734247,-0.12953423,0.10602611,-0.02409178,-0.01203965,-0.02888658,-0.
 00904833,-0.00662840,-0.02785240,0.00052716,0.00036740,-0.00239803,-0.
 00194180,-0.00282017,0.00021429,0.00088136,0.00054251,0.00064144,0.000
 52043,0.00033286,0.00064807,-0.00039505,-0.00001112,0.00087512,-0.0000
 3298,0.00003294,0.00013036,0.00021867,0.00021051,-0.00001063,-0.004629
 32,-0.00050713,-0.01394698,0.03789836,-0.01974799,-0.06550072,-0.05311
 077,-0.00336682,-0.00408793,-0.03056354,0.00053023,0.00052294,0.000081
 36,-0.00466133,-0.00403362,-0.00086335,0.00085386,0.00034846,0.0000109
 9,0.00003391,-0.00014292,0.00035093,-0.00040412,0.00025158,0.00048721,
 0.00002080,0.00003165,0.00009370,0.00018207,0.00001694,0.00000246,0.00
 600284,0.00495175,0.03642124,0.02050669,0.06751331,-0.07518067,-0.0406
 3162,-0.40690630,0.00341439,-0.00114647,-0.00510817,0.00058000,0.00152
 378,0.00181378,-0.00059278,-0.00164602,0.00193799,0.00006555,-0.000217
 68,0.00042889,0.00049881,0.00009207,-0.00001863,-0.00073839,0.00006408
 ,0.00001644,-0.00009265,-0.00001620,-0.00001707,0.00010408,0.00001878,
 -0.00009857,0.00158800,-0.00520595,-0.01550261,0.07035566,0.04719950,0
 .42344468,-0.00157026,0.00076752,-0.00023291,-0.00015712,-0.00552368,0
 .00005285,-0.00182154,-0.01484189,0.01770852,0.00030127,0.00033752,-0.
 00027337,-0.00134616,0.00062134,0.00008739,-0.07615203,-0.00880911,-0.
 02478788,0.00000073,-0.00096831,-0.00186064,-0.00102935,-0.00028765,-0
 .00140175,-0.00469618,0.01185442,-0.00464630,0.00012133,0.00038738,0.0
 0005107,-0.00003945,-0.00005253,0.00004446,0.43728081,0.00732502,0.001
 98227,-0.00152612,-0.00058103,0.00606559,0.00346029,-0.00356965,-0.038
 07475,-0.00506931,-0.00060708,-0.00004780,-0.00053923,-0.00057103,-0.0
 0031323,0.00038748,-0.02695342,-0.14671105,0.06042564,0.00181283,0.000
 89955,0.00218545,-0.00027294,0.00314796,-0.00111639,0.00900835,0.00784
 516,-0.01204943,-0.00046497,-0.00007495,0.00055956,-0.00067265,0.00023
 286,-0.00006596,0.14953424,0.55729298,-0.00490610,-0.00080603,0.000752
 77,0.00096923,-0.00294729,-0.00263800,0.01356708,0.00759434,0.01393761
 ,0.00029417,0.00042395,-0.00019069,-0.00118997,0.00107010,0.00035022,-
 0.01246163,0.02765701,-0.12389461,-0.00200944,-0.00298745,-0.00328612,
 -0.00453521,-0.00662119,-0.00184203,-0.00559907,0.02912315,-0.01783022
 ,0.00054252,0.00022165,-0.00033043,0.00040584,-0.00027826,0.00004726,0
 .22951993,0.03126000,0.62170126,0.00112819,-0.00034938,0.00016704,-0.0
 0041339,0.00277998,0.00041394,-0.00179600,-0.00405254,-0.00259609,-0.0
 0008340,-0.00050890,0.00039884,0.00063343,-0.00123725,0.00000954,0.003
 55842,0.01398937,-0.02854124,0.00037784,0.00068568,0.00184240,0.000642
 68,0.00041997,0.00108630,0.00513016,0.00103860,-0.00166172,-0.00011757
 ,-0.00023062,-0.00007993,-0.00001488,0.00012856,-0.00002799,-0.1765862
 5,0.00073975,-0.15263333,0.18763823,-0.00112886,-0.00023676,0.00020487
 ,0.00109784,0.00018137,-0.00024054,0.00257268,-0.00039271,0.00087634,-
 0.00021897,-0.00010695,0.00019426,-0.00000703,-0.00054806,0.00010422,0
 .01808748,-0.00369009,0.04638876,0.00028115,0.00077614,0.00224187,0.00
 010936,-0.00024468,0.00201899,-0.00087540,-0.00586400,0.00540911,0.000
 15950,0.00001058,-0.00015703,0.00023991,-0.00002765,0.00000319,-0.0032
 3489,-0.09895757,0.00105481,0.02067730,0.10407025,0.00241382,0.0005791
 2,-0.00034649,-0.00025843,0.00063398,0.00150814,-0.00372437,-0.0090430
 5,-0.00415959,-0.00033272,0.00005517,0.00005178,0.00049954,0.00026456,
 -0.00087179,-0.03656490,0.03706284,-0.05567946,0.00113321,0.00139975,0
 .00140566,0.00092288,0.00124680,0.00058541,0.00034748,0.00696361,-0.00
 063818,-0.00027223,-0.00002519,0.00021602,-0.00017511,0.00012409,-0.00
 003488,-0.14813744,0.01305887,-0.34897360,0.24163878,-0.00861832,0.448
 80741,-0.00084264,-0.00033626,0.00018962,0.00099933,0.00045275,-0.0002
 2959,0.00488368,-0.00023418,0.00059531,-0.00008381,-0.00001129,0.00021
 496,0.00003831,0.00008237,-0.00007305,0.01158125,-0.03016726,-0.002874
 01,-0.00008086,0.00013728,0.00029849,-0.00117592,-0.00180763,0.0002338
 2,-0.00373641,0.00042480,0.00086400,0.00015222,-0.00002060,-0.00014057
 ,0.00014761,-0.00002615,-0.00001848,-0.17430580,-0.13472742,-0.0619640
 1,-0.02009745,-0.03776006,-0.05749051,0.18252050,-0.00390439,-0.000797
 40,0.00093727,0.00156738,-0.00290782,-0.00177614,0.00511707,0.00310113
 ,0.00948198,0.00005318,0.00002924,0.00052066,-0.00000135,0.00024612,-0
 .00018441,-0.03754318,-0.08808917,-0.00445244,-0.00053377,0.00004365,-
 0.00072050,-0.00237542,-0.00373168,0.00043835,-0.00334856,0.00037550,-
 0.00151312,0.00039395,0.00011079,-0.00036665,0.00044629,-0.00007665,0.
 00002851,-0.12978436,-0.29328703,-0.08476478,-0.03408050,0.00503013,-0
 .04370224,0.20399364,0.37995320,-0.00012135,-0.00018249,0.00012748,-0.
 00016794,-0.00066776,-0.00019193,-0.00326279,0.00272819,0.00188581,0.0
 0006379,-0.00008997,0.00016797,0.00039916,-0.00016309,-0.00019333,0.00
 690279,0.01402556,0.01605931,0.00061976,0.00105385,0.00063382,0.000676
 23,0.00057524,0.00068778,0.00068294,-0.00290820,0.00382813,-0.00004509
 ,-0.00003788,-0.00002070,-0.00000103,0.00004443,-0.00000282,-0.0661239
 2,-0.09097085,-0.13780341,-0.06001655,-0.04948054,-0.04187043,0.120394
 00,0.12607351,0.15669232\\-0.00000282,0.00000332,0.00000250,0.00000118
 ,0.,0.00000104,0.00000156,0.00000125,0.00000101,0.00000124,0.00000023,
 0.00000234,-0.00000085,0.00000193,0.00000098,-0.00000986,-0.00000952,-
 0.00002549,-0.00000056,-0.00000001,-0.00000103,0.00000033,-0.00000165,
 -0.00000118,0.00000836,0.00000058,0.00002141,0.00000139,-0.00000496,0.
 00000271,-0.00000195,-0.00000176,-0.00000700,-0.00000073,-0.00002531,0
 .00001757,-0.00003689,-0.00000476,-0.00004143,0.00003958,0.00004063,0.
 00002659\\\@
 The archive entry for this job was punched.


 You can't act like a skunk without someone's getting wind of it.
 -- Lorene Workman
 Job cpu time:       0 days  0 hours 22 minutes 25.6 seconds.
 Elapsed time:       0 days  0 hours 12 minutes  9.9 seconds.
 File lengths (MBytes):  RWF=    121 Int=      0 D2E=      0 Chk=     15 Scr=      1
 Normal termination of Gaussian 16 at Fri Jun  2 13:50:52 2023.
