 Entering Gaussian System, Link 0=g16
 Input=PyrCHOCH3-isolated-freq.gjf
 Output=PyrCHOCH3-isolated-freq.log
 Initial command:
 /software/commercial/gaussian/g16/AVX2/g16/l1.exe "/scratch1/svicchi/G09-1734023.pbs02/Gau-2376072.inp" -scrdir="/scratch1/svicchi/G09-1734023.pbs02/"
 Entering Link 1 = /software/commercial/gaussian/g16/AVX2/g16/l1.exe PID=   2376073.
  
 Copyright (c) 1988-2021, Gaussian, Inc.  All Rights Reserved.
  
 This is part of the Gaussian(R) 16 program.  It is based on
 the Gaussian(R) 09 system (copyright 2009, Gaussian, Inc.),
 the Gaussian(R) 03 system (copyright 2003, Gaussian, Inc.),
 the Gaussian(R) 98 system (copyright 1998, Gaussian, Inc.),
 the Gaussian(R) 94 system (copyright 1995, Gaussian, Inc.),
 the Gaussian 92(TM) system (copyright 1992, Gaussian, Inc.),
 the Gaussian 90(TM) system (copyright 1990, Gaussian, Inc.),
 the Gaussian 88(TM) system (copyright 1988, Gaussian, Inc.),
 the Gaussian 86(TM) system (copyright 1986, Carnegie Mellon
 University), and the Gaussian 82(TM) system (copyright 1983,
 Carnegie Mellon University). Gaussian is a federally registered
 trademark of Gaussian, Inc.
  
 This software contains proprietary and confidential information,
 including trade secrets, belonging to Gaussian, Inc.
  
 This software is provided under written license and may be
 used, copied, transmitted, or stored only in accord with that
 written license.
  
 The following legend is applicable only to US Government
 contracts under FAR:
  
                    RESTRICTED RIGHTS LEGEND
  
 Use, reproduction and disclosure by the US Government is
 subject to restrictions as set forth in subparagraphs (a)
 and (c) of the Commercial Computer Software - Restricted
 Rights clause in FAR 52.227-19.
  
 Gaussian, Inc.
 340 Quinnipiac St., Bldg. 40, Wallingford CT 06492
  
  
 ---------------------------------------------------------------
 Warning -- This program may not be used in any manner that
 competes with the business of Gaussian, Inc. or will provide
 assistance to any competitor of Gaussian, Inc.  The licensee
 of this program is prohibited from giving any competitor of
 Gaussian, Inc. access to this program.  By using this program,
 the user acknowledges that Gaussian, Inc. is engaged in the
 business of creating and licensing software in the field of
 computational chemistry and represents and warrants to the
 licensee that it is not a competitor of Gaussian, Inc. and that
 it will not use this program in any manner prohibited above.
 ---------------------------------------------------------------
  

 Cite this work as:
 Gaussian 16, Revision C.02,
 M. J. Frisch, G. W. Trucks, H. B. Schlegel, G. E. Scuseria, 
 M. A. Robb, J. R. Cheeseman, G. Scalmani, V. Barone, 
 G. A. Petersson, H. Nakatsuji, X. Li, M. Caricato, A. V. Marenich, 
 J. Bloino, B. G. Janesko, R. Gomperts, B. Mennucci, H. P. Hratchian, 
 J. V. Ortiz, A. F. Izmaylov, J. L. Sonnenberg, D. Williams-Young, 
 F. Ding, F. Lipparini, F. Egidi, J. Goings, B. Peng, A. Petrone, 
 T. Henderson, D. Ranasinghe, V. G. Zakrzewski, J. Gao, N. Rega, 
 G. Zheng, W. Liang, M. Hada, M. Ehara, K. Toyota, R. Fukuda, 
 J. Hasegawa, M. Ishida, T. Nakajima, Y. Honda, O. Kitao, H. Nakai, 
 T. Vreven, K. Throssell, J. A. Montgomery, Jr., J. E. Peralta, 
 F. Ogliaro, M. J. Bearpark, J. J. Heyd, E. N. Brothers, K. N. Kudin, 
 V. N. Staroverov, T. A. Keith, R. Kobayashi, J. Normand, 
 K. Raghavachari, A. P. Rendell, J. C. Burant, S. S. Iyengar, 
 J. Tomasi, M. Cossi, J. M. Millam, M. Klene, C. Adamo, R. Cammi, 
 J. W. Ochterski, R. L. Martin, K. Morokuma, O. Farkas, 
 J. B. Foresman, and D. J. Fox, Gaussian, Inc., Wallingford CT, 2019.
 
 ******************************************
 Gaussian 16:  ES64L-G16RevC.02  7-Dec-2021
                14-Dec-2023 
 ******************************************
 %NProcShared=12
 Will use up to   12 processors via shared memory.
 %mem=110gb
 %chk=/scratch1/svicchi/G09-1734023.pbs02/02-freq/PyrCHOCH3-isolated-freq.chk
 ----------------------------------------------------------------------
 #p freq=raman scale=0.967 guess=read geom=allcheck b3lyp/6-311+G(d,p) 
 int=grid=ultrafine EmpiricalDispersion=GD3BJ SCRF=(Solvent=ethanol) sc
 f=(xqc,intrep,maxconventionalcycle=350) nosymm
 ----------------------------------------------------------------------
 1/10=4,29=7,30=1,38=1,114=967000/1,3;
 2/12=2,15=1,40=1/2;
 3/5=4,6=6,7=111,11=2,14=-4,25=1,30=1,70=2201,71=2,72=4,74=-5,75=-5,116=-2,124=41,140=1/1,2,3;
 4/5=1/1;
 5/5=2,8=3,13=1,17=20,38=6,53=4,85=350,98=1/2,8;
 8/6=4,10=90,11=11/1;
 10/13=10,15=4,31=1/2;
 11/6=3,8=1,9=11,15=111,16=1,31=1/1,2,10;
 10/6=1,31=1/2;
 6/7=2,8=2,9=2,10=2,28=1/1;
 7/8=1,10=1,25=1,30=1/1,2,3,16;
 1/10=4,30=1/3;
 99//99;
 Leave Link    1 at Thu Dec 14 12:28:22 2023, MaxMem= 14763950080 cpu:               0.1 elap:               0.1
 (Enter /software/commercial/gaussian/g16/AVX2/g16/l101.exe)
 Structure from the checkpoint file:  "/scratch1/svicchi/G09-1734023.pbs02/02-freq/PyrCHOCH3-isolated-freq.chk"
 ------------------
 PyrCHOCH3-isolated
 ------------------
 Charge = -1 Multiplicity = 1
 No Z-Matrix found in chk file; cartesian coordinates used.
  C                                                -0.453159688495      0.691494517552      0.142420725198
  C                                                -1.291323303156     -0.345888547940     -0.345475760852
  C                                                -0.437264480211     -1.400899292737     -0.668310950985
  H                                                -2.368591429279     -0.316092281510     -0.444344099707
  C                                                 0.876184458216     -0.955474064576     -0.361210802057
  N                                                 0.840875400082      0.338625796240      0.137840608470
  H                                                -0.762818611685      1.671325831253      0.489856425974
  C                                                 2.098490028730     -1.694633613794     -0.519436854990
  H                                                -0.705626609914     -2.367753730667     -1.069703762312
  O                                                 2.135001490057     -2.855377994610     -0.976272949297
  C                                                 3.404654057500     -1.039622710565     -0.102627894312
  H                                                 3.270614847666      0.000112980999      0.187580179641
  H                                                 4.118397419009     -1.110499288963     -0.927872214461
  H                                                 3.825366421481     -1.598037600681      0.739707349690
 Recover connectivity data from disk.
 ITRead=  0  0  0  0  0  0  0  0  0  0  0  0  0  0
 MicOpt= -1 -1 -1 -1 -1 -1 -1 -1 -1 -1 -1 -1 -1 -1
 NAtoms=     14 NQM=       14 NQMF=       0 NMMI=      0 NMMIF=      0
                NMic=       0 NMicF=      0.
                    Isotopes and Nuclear Properties:
 (Nuclear quadrupole moments (NQMom) in fm**2, nuclear magnetic moments (NMagM)
  in nuclear magnetons)

  Atom         1           2           3           4           5           6           7           8           9          10
 IAtWgt=          12          12          12           1          12          14           1          12           1          16
 AtmWgt=  12.0000000  12.0000000  12.0000000   1.0078250  12.0000000  14.0030740   1.0078250  12.0000000   1.0078250  15.9949146
 NucSpn=           0           0           0           1           0           2           1           0           1           0
 AtZEff=   3.6000000   3.6000000   3.6000000   1.0000000   3.6000000   4.5500000   1.0000000   3.6000000   1.0000000   5.6000000
 NQMom=    0.0000000   0.0000000   0.0000000   0.0000000   0.0000000   2.0440000   0.0000000   0.0000000   0.0000000   0.0000000
 NMagM=    0.0000000   0.0000000   0.0000000   2.7928460   0.0000000   0.4037610   2.7928460   0.0000000   2.7928460   0.0000000
 AtZNuc=   6.0000000   6.0000000   6.0000000   1.0000000   6.0000000   7.0000000   1.0000000   6.0000000   1.0000000   8.0000000

  Atom        11          12          13          14
 IAtWgt=          12           1           1           1
 AtmWgt=  12.0000000   1.0078250   1.0078250   1.0078250
 NucSpn=           0           1           1           1
 AtZEff=   3.6000000   1.0000000   1.0000000   1.0000000
 NQMom=    0.0000000   0.0000000   0.0000000   0.0000000
 NMagM=    0.0000000   2.7928460   2.7928460   2.7928460
 AtZNuc=   6.0000000   1.0000000   1.0000000   1.0000000
 Leave Link  101 at Thu Dec 14 12:28:23 2023, MaxMem= 14763950080 cpu:               0.2 elap:               0.2
 (Enter /software/commercial/gaussian/g16/AVX2/g16/l103.exe)

 GradGradGradGradGradGradGradGradGradGradGradGradGradGradGradGradGradGrad
 Berny optimization.
 Initialization pass.
 Trust Radius=3.00D-01 FncErr=1.00D-07 GrdErr=1.00D-07 EigMax=2.50D+02 EigMin=1.00D-04
 Number of steps in this run=      2 maximum allowed number of steps=      2.
 GradGradGradGradGradGradGradGradGradGradGradGradGradGradGradGradGradGrad

 Leave Link  103 at Thu Dec 14 12:28:23 2023, MaxMem= 14763950080 cpu:               0.1 elap:               0.1
 (Enter /software/commercial/gaussian/g16/AVX2/g16/l202.exe)
                          Input orientation:                          
 ---------------------------------------------------------------------
 Center     Atomic      Atomic             Coordinates (Angstroms)
 Number     Number       Type             X           Y           Z
 ---------------------------------------------------------------------
      1          6           0       -0.453160    0.691495    0.142421
      2          6           0       -1.291323   -0.345889   -0.345476
      3          6           0       -0.437264   -1.400899   -0.668311
      4          1           0       -2.368591   -0.316092   -0.444344
      5          6           0        0.876184   -0.955474   -0.361211
      6          7           0        0.840875    0.338626    0.137841
      7          1           0       -0.762819    1.671326    0.489856
      8          6           0        2.098490   -1.694634   -0.519437
      9          1           0       -0.705627   -2.367754   -1.069704
     10          8           0        2.135001   -2.855378   -0.976273
     11          6           0        3.404654   -1.039623   -0.102628
     12          1           0        3.270615    0.000113    0.187580
     13          1           0        4.118397   -1.110499   -0.927872
     14          1           0        3.825366   -1.598038    0.739707
 ---------------------------------------------------------------------
                    Distance matrix (angstroms):
                    1          2          3          4          5
     1  C    0.000000
     2  C    1.420114   0.000000
     3  C    2.244025   1.395237   0.000000
     4  H    2.242410   1.082206   2.226430   0.000000
     5  C    2.175616   2.251651   1.420515   3.308216   0.000000
     6  N    1.341292   2.290944   2.304229   3.326901   1.387441
     7  H    1.084744   2.246386   3.299379   2.720490   3.211032
     8  C    3.555640   3.652425   2.557048   4.675557   1.437158
     9  H    3.300301   2.226092   1.080714   2.714008   2.235760
    10  O    4.531044   4.293617   2.971010   5.197429   2.360626
    11  C    4.235510   4.753151   3.900110   5.828433   2.543050
    12  H    3.787683   4.605990   4.055090   5.683306   2.635833
    13  H    5.029100   5.494442   4.572282   6.553313   3.295009
    14  H    4.889222   5.378291   4.493484   6.435097   3.212878
                    6          7          8          9         10
     6  N    0.000000
     7  H    2.114672   0.000000
     8  C    2.479466   4.531605   0.000000
     9  H    3.342802   4.330088   2.935806   0.000000
    10  O    3.621833   5.571171   1.247942   2.883691   0.000000
    11  C    2.920677   5.006806   1.519485   4.426463   2.381647
    12  H    2.453711   4.376404   2.178512   4.795628   3.286031
    13  H    3.738697   5.794374   2.141975   4.987185   2.642121
    14  H    3.608337   5.639380   2.139364   4.939264   2.717136
                   11         12         13         14
    11  C    0.000000
    12  H    1.087767   0.000000
    13  H    1.093381   1.787856   0.000000
    14  H    1.094694   1.779517   1.761926   0.000000
 Symmetry turned off by external request.
 Stoichiometry    C6H6NO(1-)
 Framework group  C1[X(C6H6NO)]
 Deg. of freedom    36
 Full point group                 C1      NOp   1
 Rotational constants (GHZ):           4.8809845           1.6180160           1.2244343
 Leave Link  202 at Thu Dec 14 12:28:23 2023, MaxMem= 14763950080 cpu:               0.1 elap:               0.1
 (Enter /software/commercial/gaussian/g16/AVX2/g16/l301.exe)
 Standard basis: 6-311+G(d,p) (5D, 7F)
 Ernie: Thresh=  0.10000D-02 Tol=  0.10000D-05 Strict=F.
   212 basis functions,   336 primitive gaussians,   220 cartesian basis functions
    29 alpha electrons       29 beta electrons
       nuclear repulsion energy       333.3033781737 Hartrees.
 IExCor=  402 DFT=T Ex+Corr=B3LYP ExCW=0 ScaHFX=  0.200000
 ScaDFX=  0.800000  0.720000  1.000000  0.810000 ScalE2=  1.000000  1.000000
 IRadAn=      5 IRanWt=     -1 IRanGd=            0 ICorTp=0 IEmpDi=141
 NAtoms=   14 NActive=   14 NUniq=   14 SFac= 1.00D+00 NAtFMM=   60 NAOKFM=F Big=F
 Integral buffers will be    131072 words long.
 Raffenetti 2 integral format.
 Two-electron integral symmetry is turned off.
 R6Disp:  Grimme-D3(BJ) Dispersion energy=       -0.0218433489 Hartrees.
 Nuclear repulsion after empirical dispersion term =      333.2815348249 Hartrees.
 Force inversion solution in PCM.
 ------------------------------------------------------------------------------
 Polarizable Continuum Model (PCM)
 =================================
 Model                : PCM.
 Atomic radii         : UFF (Universal Force Field).
 Polarization charges : Total charges.
 Charge compensation  : None.
 Solution method      : Matrix inversion.
 Cavity type          : Scaled VdW (van der Waals Surface) (Alpha=1.100).
 Cavity algorithm     : GePol (No added spheres)
                        Default sphere list used, NSphG=   14.
                        Lebedev-Laikov grids with approx.  5.0 points / Ang**2.
                        Smoothing algorithm: York/Karplus (Gamma=1.0000).
                        Polarization charges: spherical gaussians, with
                                              point-specific exponents (IZeta= 3).
                        Self-potential: point-specific (ISelfS= 7).
                        Self-field    : sphere-specific E.n sum rule (ISelfD= 2).
 1st derivatives      : Analytical E(r).r(x)/FMM algorithm (CHGder, D1EAlg=3).
                        Cavity 1st derivative terms included.
 2nd derivatives      : Analytical E(r).r(xy)/FMM algorithm (CHGder, D2EAlg=3).
                        Cavity 2nd derivative terms included.
 Solvent              : Ethanol, Eps=  24.852000 Eps(inf)=   1.852593
 ------------------------------------------------------------------------------
 Spheres list:
 ISph  on   Nord     Re0    Alpha      Xe            Ye            Ze
    1   C      1    1.9255  1.100     -0.453160      0.691495      0.142421
    2   C      2    1.9255  1.100     -1.291323     -0.345889     -0.345476
    3   C      3    1.9255  1.100     -0.437264     -1.400899     -0.668311
    4   H      4    1.4430  1.100     -2.368591     -0.316092     -0.444344
    5   C      5    1.9255  1.100      0.876184     -0.955474     -0.361211
    6   N      6    1.8300  1.100      0.840875      0.338626      0.137841
    7   H      7    1.4430  1.100     -0.762819      1.671326      0.489856
    8   C      8    1.9255  1.100      2.098490     -1.694634     -0.519437
    9   H      9    1.4430  1.100     -0.705627     -2.367754     -1.069704
   10   O     10    1.7500  1.100      2.135001     -2.855378     -0.976273
   11   C     11    1.9255  1.100      3.404654     -1.039623     -0.102628
   12   H     12    1.4430  1.100      3.270615      0.000113      0.187580
   13   H     13    1.4430  1.100      4.118397     -1.110499     -0.927872
   14   H     14    1.4430  1.100      3.825366     -1.598038      0.739707
 ------------------------------------------------------------------------------
 GePol: Number of generator spheres                  =      14
 GePol: Total number of spheres                      =      14
 GePol: Number of exposed spheres                    =      14 (100.00%)
 GePol: Number of points                             =    1275
 GePol: Average weight of points                     =       0.13
 GePol: Minimum weight of points                     =   0.45D-11
 GePol: Maximum weight of points                     =    0.20577
 GePol: Number of points with low weight             =      65
 GePol: Fraction of low-weight points (<1% of avg)   =       5.10%
 GePol: Cavity surface area                          =    170.767 Ang**2
 GePol: Cavity volume                                =    164.125 Ang**3
 Leave Link  301 at Thu Dec 14 12:28:24 2023, MaxMem= 14763950080 cpu:               0.1 elap:               0.1
 (Enter /software/commercial/gaussian/g16/AVX2/g16/l302.exe)
 NPDir=0 NMtPBC=     1 NCelOv=     1 NCel=       1 NClECP=     1 NCelD=      1
         NCelK=      1 NCelE2=     1 NClLst=     1 CellRange=     0.0.
 One-electron integrals computed using PRISM.
 NBasis=   212 RedAO= T EigKep=  8.19D-06  NBF=   212
 NBsUse=   212 1.00D-06 EigRej= -1.00D+00 NBFU=   212
 Precomputing XC quadrature grid using
 IXCGrd= 4 IRadAn=           5 IRanWt=          -1 IRanGd=           0 AccXCQ= 0.00D+00.
 Generated NRdTot=       0 NPtTot=           0 NUsed=           0 NTot=          32
 NSgBfM=   220   220   220   220   220 MxSgAt=    14 MxSgA2=    14.
 Leave Link  302 at Thu Dec 14 12:28:24 2023, MaxMem= 14763950080 cpu:               1.4 elap:               0.2
 (Enter /software/commercial/gaussian/g16/AVX2/g16/l303.exe)
 DipDrv:  MaxL=1.
 Leave Link  303 at Thu Dec 14 12:28:25 2023, MaxMem= 14763950080 cpu:               0.2 elap:               0.1
 (Enter /software/commercial/gaussian/g16/AVX2/g16/l401.exe)
 Initial guess from the checkpoint file:  "/scratch1/svicchi/G09-1734023.pbs02/02-freq/PyrCHOCH3-isolated-freq.chk"
 B after Tr=     0.000000    0.000000    0.000000
         Rot=    1.000000    0.000000    0.000000    0.000000 Ang=   0.00 deg.
 Guess basis will be translated and rotated to current coordinates.
 JPrj=2 DoOrth=T DoCkMO=T.
 Leave Link  401 at Thu Dec 14 12:28:25 2023, MaxMem= 14763950080 cpu:               0.5 elap:               0.2
 (Enter /software/commercial/gaussian/g16/AVX2/g16/l502.exe)
 Two-electron integral symmetry not used.
 Closed shell SCF:
 Using DIIS extrapolation, IDIIS=  1040.
 NGot= 14763950080 LenX= 14763848618 LenY= 14763799777
 Requested convergence on RMS density matrix=1.00D-08 within 350 cycles.
 Requested convergence on MAX density matrix=1.00D-06.
 Requested convergence on             energy=1.00D-06.
 No special actions if energy rises.
 Fock matrices will be formed incrementally for  20 cycles.

 Cycle   1  Pass 1  IDiag  1:
 FoFJK:  IHMeth= 1 ICntrl=       0 DoSepK=F KAlg= 0 I1Cent=           0 FoldK=F
 IRaf= 950000000 NMat=       1 IRICut=       1 DoRegI=T DoRafI=F ISym2E= 0 IDoP0=0 IntGTp=1.
 FoFCou: FMM=F IPFlag=           0 FMFlag=      100000 FMFlg1=           0
         NFxFlg=           0 DoJE=F BraDBF=F KetDBF=F FulRan=T
         wScrn=  0.000000 ICntrl=         0 IOpCl=  0 I1Cent=           0 NGrid=           0
         NMat0=    1 NMatS0=      1 NMatT0=    0 NMatD0=    1 NMtDS0=    0 NMtDT0=    0
 Symmetry not used in FoFCou.
 Inv3:  Mode=1 IEnd=     4876875.
 Iteration    1 A*A^-1 deviation from unit magnitude is 2.55D-15 for    370.
 Iteration    1 A*A^-1 deviation from orthogonality  is 2.00D-15 for   1122     23.
 Iteration    1 A^-1*A deviation from unit magnitude is 2.78D-15 for    370.
 Iteration    1 A^-1*A deviation from orthogonality  is 1.38D-15 for    308    255.
 E= -362.474725307160    
 DIIS: error= 5.30D-08 at cycle   1 NSaved=   1.
 NSaved= 1 IEnMin= 1 EnMin= -362.474725307160     IErMin= 1 ErrMin= 5.30D-08
 ErrMax= 5.30D-08  0.00D+00 EMaxC= 1.00D-01 BMatC= 2.54D-13 BMatP= 2.54D-13
 IDIUse=1 WtCom= 1.00D+00 WtEn= 0.00D+00
 Coeff-Com:  0.100D+01
 Coeff:      0.100D+01
 Gap=     0.171 Goal=   None    Shift=    0.000
 RMSDP=9.67D-09 MaxDP=5.22D-07              OVMax= 5.26D-07

 Error on total polarization charges =  0.02129
 SCF Done:  E(RB3LYP) =  -362.474725307     A.U. after    1 cycles
            NFock=  1  Conv=0.97D-08     -V/T= 2.0044
 KE= 3.609033056395D+02 PE=-1.523223407957D+03 EE= 4.665638421855D+02
 Leave Link  502 at Thu Dec 14 12:28:27 2023, MaxMem= 14763950080 cpu:              19.1 elap:               2.0
 (Enter /software/commercial/gaussian/g16/AVX2/g16/l508.exe)
 QCSCF skips out because SCF is already converged.
 Leave Link  508 at Thu Dec 14 12:28:28 2023, MaxMem= 14763950080 cpu:               0.1 elap:               0.1
 (Enter /software/commercial/gaussian/g16/AVX2/g16/l801.exe)
 DoSCS=F DFT=T ScalE2(SS,OS)=  1.000000  1.000000
 Range of M.O.s used for correlation:     1   212
 NBasis=   212 NAE=    29 NBE=    29 NFC=     0 NFV=     0
 NROrb=    212 NOA=    29 NOB=    29 NVA=   183 NVB=   183

 **** Warning!!: The largest alpha MO coefficient is  0.12920131D+03

 Leave Link  801 at Thu Dec 14 12:28:28 2023, MaxMem= 14763950080 cpu:               0.1 elap:               0.1
 (Enter /software/commercial/gaussian/g16/AVX2/g16/l1002.exe)
 Minotr:  Closed shell wavefunction.
 NEqPCM:  Using equilibrium solvation (IEInf=0, Eps=  24.8520, EpsInf=   1.8526)
          Direct CPHF calculation.
          Differentiating once with respect to electric field.
                with respect to dipole field.
          Electric field/nuclear overlap derivatives assumed to be zero.
          Requested convergence is 1.0D-08 RMS, and 1.0D-07 maximum.
          Secondary convergence is 1.0D-12 RMS, and 1.0D-12 maximum.
          NewPWx=F KeepS1=T KeepF1=T KeepIn=T MapXYZ=F SortEE=F KeepMc=T.
         4313 words used for storage of precomputed grid.
 Two-electron integral symmetry not used.
          MDV=   14763950080 using IRadAn=       1.
          Solving linear equations simultaneously, MaxMat=     384.
          There are     3 degrees of freedom in the 1st order CPHF.  IDoFFX=0 NUNeed=     3.
      3 vectors produced by pass  0 Test12= 1.77D-13 3.33D-08 XBig12= 1.66D+02 1.01D+01.
 AX will form     3 AO Fock derivatives at one time.
 FoFJK:  IHMeth= 1 ICntrl=       0 DoSepK=F KAlg= 0 I1Cent=           0 FoldK=F
 IRaf= 950000000 NMat=       3 IRICut=       1 DoRegI=T DoRafI=F ISym2E= 0 IDoP0=0 IntGTp=1.
 FoFCou: FMM=F IPFlag=           0 FMFlag=      100000 FMFlg1=           0
         NFxFlg=           0 DoJE=F BraDBF=F KetDBF=F FulRan=T
         wScrn=  0.000000 ICntrl=         0 IOpCl=  0 I1Cent=           0 NGrid=           0
         NMat0=    3 NMatS0=      3 NMatT0=    0 NMatD0=    3 NMtDS0=    0 NMtDT0=    0
 Symmetry not used in FoFCou.
      3 vectors produced by pass  1 Test12= 1.77D-13 3.33D-08 XBig12= 5.81D+01 1.59D+00.
      3 vectors produced by pass  2 Test12= 1.77D-13 3.33D-08 XBig12= 8.67D+00 1.08D+00.
      3 vectors produced by pass  3 Test12= 1.77D-13 3.33D-08 XBig12= 4.92D+00 5.57D-01.
      3 vectors produced by pass  4 Test12= 1.77D-13 3.33D-08 XBig12= 4.60D-01 1.28D-01.
      3 vectors produced by pass  5 Test12= 1.77D-13 3.33D-08 XBig12= 1.02D-01 1.05D-01.
      3 vectors produced by pass  6 Test12= 1.77D-13 3.33D-08 XBig12= 1.66D-02 2.28D-02.
      3 vectors produced by pass  7 Test12= 1.77D-13 3.33D-08 XBig12= 2.85D-03 1.60D-02.
      3 vectors produced by pass  8 Test12= 1.77D-13 3.33D-08 XBig12= 1.92D-04 2.87D-03.
      3 vectors produced by pass  9 Test12= 1.77D-13 3.33D-08 XBig12= 9.40D-06 6.89D-04.
      3 vectors produced by pass 10 Test12= 1.77D-13 3.33D-08 XBig12= 2.70D-07 1.26D-04.
      3 vectors produced by pass 11 Test12= 1.77D-13 3.33D-08 XBig12= 7.22D-09 1.10D-05.
      2 vectors produced by pass 12 Test12= 1.77D-13 3.33D-08 XBig12= 2.11D-10 1.98D-06.
      2 vectors produced by pass 13 Test12= 1.77D-13 3.33D-08 XBig12= 6.19D-12 2.99D-07.
      1 vectors produced by pass 14 Test12= 1.77D-13 3.33D-08 XBig12= 1.09D-13 6.26D-08.
 InvSVY:  IOpt=1 It=  1 EMax= 5.33D-15
 Solved reduced A of dimension    41 with     3 vectors.
 End of Minotr F.D. properties file   721 does not exist.
 End of Minotr F.D. properties file   722 does not exist.
 End of Minotr F.D. properties file   788 does not exist.
 Leave Link 1002 at Thu Dec 14 12:28:49 2023, MaxMem= 14763950080 cpu:             242.5 elap:              21.4
 (Enter /software/commercial/gaussian/g16/AVX2/g16/l1101.exe)
 Using compressed storage, NAtomX=    14.
 Will process     15 centers per pass.
 R6Disp: Adding Grimme-D3(BJ) dispersion energy 1st derivatives to the gradient.
 Leave Link 1101 at Thu Dec 14 12:28:50 2023, MaxMem= 14763950080 cpu:               1.4 elap:               0.2
 (Enter /software/commercial/gaussian/g16/AVX2/g16/l1102.exe)
 Symmetrizing basis deriv contribution to polar:
 IMax=3 JMax=2 DiffMx= 0.00D+00
 Leave Link 1102 at Thu Dec 14 12:28:50 2023, MaxMem= 14763950080 cpu:               0.1 elap:               0.1
 (Enter /software/commercial/gaussian/g16/AVX2/g16/l1110.exe)
 Forming Gx(P) for the SCF density, NAtomX=    14.
 Integral derivatives from FoFJK, PRISM(SPDF).
 Do as many integral derivatives as possible in FoFJK.
 G2DrvN: MDV=   14763948502.
 G2DrvN: will do    15 centers at a time, making    1 passes.
 PxScal for G2LodP:  IOpCl= 0 ISclPx=1 IMOff=     1 NMtTot=     4 NTT=   22578 ScalPx= 8.22D+01
 Calling FoFCou, ICntrl=  3107 FMM=F I1Cent=   0 AccDes= 0.00D+00.
 FoFJK:  IHMeth= 1 ICntrl=    3107 DoSepK=F KAlg= 0 I1Cent=           0 FoldK=F
 IRaf=         0 NMat=       1 IRICut=       1 DoRegI=T DoRafI=F ISym2E= 0 IDoP0=0 IntGTp=1.
 FoFCou: FMM=F IPFlag=           0 FMFlag=      100000 FMFlg1=           0
         NFxFlg=           0 DoJE=F BraDBF=F KetDBF=F FulRan=T
         wScrn=  0.000000 ICntrl=      3107 IOpCl=  0 I1Cent=           0 NGrid=           0
         NMat0=    1 NMatS0=      1 NMatT0=    0 NMatD0=    4 NMtDS0=    3 NMtDT0=    0
 Symmetry not used in FoFCou.
 PxScal for G2LodP:  IOpCl= 0 ISclPx=0 IMOff=     1 NMtTot=     4 NTT=   22578 ScalPx= 1.00D+00
 NEqPCM:  Using equilibrium solvation (IEInf=0, Eps=  24.8520, EpsInf=   1.8526)
 G2PCM: DoFxE=T DoFxN=T DoGrad=T DoDP/DQ/DG/TGxP=TFFF NFrqRd=   0 IEInf=0 SqF1=F DoCFld=F IF1Alg=4.
 GePol: Maximum number of non-zero 1st derivatives   =     211
 End of G2Drv F.D. properties file   721 does not exist.
 End of G2Drv F.D. properties file   722 does not exist.
 End of G2Drv F.D. properties file   788 does not exist.
 Leave Link 1110 at Thu Dec 14 12:29:14 2023, MaxMem= 14763950080 cpu:             280.3 elap:              23.8
 (Enter /software/commercial/gaussian/g16/AVX2/g16/l1002.exe)
 Minotr:  Closed shell wavefunction.
          IDoAtm=11111111111111
 NEqPCM:  Using equilibrium solvation (IEInf=0, Eps=  24.8520, EpsInf=   1.8526)
          Direct CPHF calculation.
          Differentiating once with respect to electric field.
                with respect to dipole field.
          Differentiating once with respect to nuclear coordinates.
          Requested convergence is 1.0D-08 RMS, and 1.0D-07 maximum.
          Secondary convergence is 1.0D-12 RMS, and 1.0D-12 maximum.
          NewPWx=T KeepS1=F KeepF1=F KeepIn=T MapXYZ=F SortEE=F KeepMc=T.
         4313 words used for storage of precomputed grid.
 Keep R1 ints in memory in canonical form, NReq=267479970.
 FoFCou: FMM=F IPFlag=           0 FMFlag=           0 FMFlg1=           0
         NFxFlg=           0 DoJE=F BraDBF=F KetDBF=F FulRan=T
         wScrn=  0.000000 ICntrl=       600 IOpCl=  0 I1Cent=           0 NGrid=           0
         NMat0=    1 NMatS0=  22578 NMatT0=    0 NMatD0=    1 NMtDS0=    0 NMtDT0=    0
 Symmetry not used in FoFCou.
 Two-electron integral symmetry not used.
          MDV=   14763950080 using IRadAn=       1.
          Solving linear equations simultaneously, MaxMat=       0.
          There are    45 degrees of freedom in the 1st order CPHF.  IDoFFX=5 NUNeed=    45.
 Will reuse    3 saved solutions.
     39 vectors produced by pass  0 Test12= 1.18D-14 2.22D-09 XBig12= 1.67D-01 1.78D-01.
 AX will form    39 AO Fock derivatives at one time.
     39 vectors produced by pass  1 Test12= 1.18D-14 2.22D-09 XBig12= 4.08D-02 8.39D-02.
     39 vectors produced by pass  2 Test12= 1.18D-14 2.22D-09 XBig12= 5.24D-04 4.63D-03.
     39 vectors produced by pass  3 Test12= 1.18D-14 2.22D-09 XBig12= 3.36D-06 3.71D-04.
     39 vectors produced by pass  4 Test12= 1.18D-14 2.22D-09 XBig12= 9.78D-09 1.38D-05.
     36 vectors produced by pass  5 Test12= 1.18D-14 2.22D-09 XBig12= 2.27D-11 6.23D-07.
     14 vectors produced by pass  6 Test12= 1.18D-14 2.22D-09 XBig12= 3.78D-14 2.55D-08.
 InvSVY:  IOpt=1 It=  1 EMax= 1.78D-15
 Solved reduced A of dimension   245 with    39 vectors.
 FullF1:  Do perturbations      1 to       3.
 Isotropic polarizability for W=    0.000000      130.45 Bohr**3.
 FullF1:  Do perturbations      1 to       6.
 End of Minotr F.D. properties file   721 does not exist.
 End of Minotr F.D. properties file   722 does not exist.
 End of Minotr F.D. properties file   788 does not exist.
 Leave Link 1002 at Thu Dec 14 12:29:37 2023, MaxMem= 14763950080 cpu:             262.5 elap:              23.1
 (Enter /software/commercial/gaussian/g16/AVX2/g16/l601.exe)
 Copying SCF densities to generalized density rwf, IOpCl= 0 IROHF=0.

 **********************************************************************

            Population analysis using the SCF Density.

 **********************************************************************

 Alpha  occ. eigenvalues --  -19.07517 -14.26555 -10.22934 -10.15678 -10.15092
 Alpha  occ. eigenvalues --  -10.14797 -10.13738 -10.13521  -1.00066  -0.90998
 Alpha  occ. eigenvalues --   -0.73467  -0.72067  -0.68027  -0.57505  -0.52859
 Alpha  occ. eigenvalues --   -0.48651  -0.46641  -0.42214  -0.41238  -0.40414
 Alpha  occ. eigenvalues --   -0.37176  -0.36555  -0.35925  -0.34853  -0.32657
 Alpha  occ. eigenvalues --   -0.24775  -0.23129  -0.21452  -0.19152
 Alpha virt. eigenvalues --   -0.02086   0.01222   0.02820   0.03679   0.04903
 Alpha virt. eigenvalues --    0.05050   0.05609   0.06427   0.06850   0.07727
 Alpha virt. eigenvalues --    0.08568   0.08908   0.08980   0.10111   0.11049
 Alpha virt. eigenvalues --    0.12846   0.12905   0.13295   0.14565   0.15726
 Alpha virt. eigenvalues --    0.16829   0.17132   0.17622   0.18539   0.19950
 Alpha virt. eigenvalues --    0.20387   0.20563   0.21918   0.22375   0.22974
 Alpha virt. eigenvalues --    0.23767   0.23972   0.24778   0.25792   0.26874
 Alpha virt. eigenvalues --    0.28082   0.29322   0.29553   0.29971   0.30616
 Alpha virt. eigenvalues --    0.31212   0.33853   0.34980   0.37206   0.38773
 Alpha virt. eigenvalues --    0.42656   0.44030   0.45679   0.47650   0.49695
 Alpha virt. eigenvalues --    0.51617   0.53178   0.55617   0.56890   0.58077
 Alpha virt. eigenvalues --    0.60432   0.60611   0.63248   0.64503   0.65372
 Alpha virt. eigenvalues --    0.66804   0.67276   0.68239   0.71408   0.72406
 Alpha virt. eigenvalues --    0.74404   0.76793   0.78020   0.80566   0.82524
 Alpha virt. eigenvalues --    0.84049   0.85906   0.87083   0.90513   0.91503
 Alpha virt. eigenvalues --    0.92010   0.93882   0.97106   0.98192   0.99517
 Alpha virt. eigenvalues --    1.03010   1.05002   1.07279   1.12637   1.13604
 Alpha virt. eigenvalues --    1.15479   1.17943   1.21366   1.26626   1.27524
 Alpha virt. eigenvalues --    1.29813   1.32251   1.35006   1.43354   1.46927
 Alpha virt. eigenvalues --    1.49450   1.53588   1.55710   1.57076   1.58401
 Alpha virt. eigenvalues --    1.58702   1.61216   1.65047   1.68449   1.69656
 Alpha virt. eigenvalues --    1.71629   1.76308   1.76691   1.78556   1.82528
 Alpha virt. eigenvalues --    1.83564   1.84524   1.88708   1.93764   1.94834
 Alpha virt. eigenvalues --    1.97630   1.98922   1.99295   2.00997   2.03832
 Alpha virt. eigenvalues --    2.14510   2.16788   2.24220   2.24600   2.31361
 Alpha virt. eigenvalues --    2.36786   2.40212   2.45338   2.46800   2.49558
 Alpha virt. eigenvalues --    2.50774   2.52061   2.52856   2.54745   2.56241
 Alpha virt. eigenvalues --    2.64130   2.65577   2.69885   2.72610   2.74010
 Alpha virt. eigenvalues --    2.77597   2.77842   2.80576   2.82607   2.90349
 Alpha virt. eigenvalues --    2.91154   2.91860   2.92399   2.98199   3.02524
 Alpha virt. eigenvalues --    3.05191   3.07363   3.15567   3.26240   3.28149
 Alpha virt. eigenvalues --    3.31069   3.34626   3.41144   3.47400   3.58862
 Alpha virt. eigenvalues --    3.65886   3.71924   3.81010   3.86496   3.90215
 Alpha virt. eigenvalues --    3.96320   4.10827   4.19943   4.21535   4.44699
 Alpha virt. eigenvalues --    4.58075   5.08298   5.16085   5.24899   5.75459
 Alpha virt. eigenvalues --   23.74577  23.88276  23.95168  24.00986  24.04669
 Alpha virt. eigenvalues --   24.18576  35.66524  50.03298
          Condensed to atoms (all electrons):
               1          2          3          4          5          6
     1  C    5.489176   0.366058  -0.149398  -0.030111  -0.113778   0.257133
     2  C    0.366058   5.271480   0.363402   0.389805  -0.101912  -0.042493
     3  C   -0.149398   0.363402   6.084269  -0.041178  -0.021246   0.050174
     4  H   -0.030111   0.389805  -0.041178   0.550048   0.012045   0.009915
     5  C   -0.113778  -0.101912  -0.021246   0.012045   8.427174   0.169027
     6  N    0.257133  -0.042493   0.050174   0.009915   0.169027   7.120420
     7  H    0.423406  -0.043773  -0.026376  -0.000689   0.046973  -0.072179
     8  C    0.016403  -0.000009  -0.165671   0.005378  -1.780744  -0.219423
     9  H   -0.007946  -0.000370   0.359804  -0.003700  -0.002235   0.009297
    10  O   -0.015057   0.027881  -0.040863   0.000041  -0.195366   0.005574
    11  C   -0.100642   0.041429  -0.195594  -0.000122  -0.818704   0.032254
    12  H   -0.008038   0.001162  -0.006124   0.000001   0.095989  -0.021755
    13  H    0.002920  -0.000276   0.003304  -0.000001   0.000425   0.005970
    14  H    0.002104  -0.000553   0.006071  -0.000001  -0.029424   0.003774
               7          8          9         10         11         12
     1  C    0.423406   0.016403  -0.007946  -0.015057  -0.100642  -0.008038
     2  C   -0.043773  -0.000009  -0.000370   0.027881   0.041429   0.001162
     3  C   -0.026376  -0.165671   0.359804  -0.040863  -0.195594  -0.006124
     4  H   -0.000689   0.005378  -0.003700   0.000041  -0.000122   0.000001
     5  C    0.046973  -1.780744  -0.002235  -0.195366  -0.818704   0.095989
     6  N   -0.072179  -0.219423   0.009297   0.005574   0.032254  -0.021755
     7  H    0.568801   0.002156  -0.000146   0.000056   0.001296  -0.000030
     8  C    0.002156   7.315769  -0.008420   0.475647   0.590171  -0.113623
     9  H   -0.000146  -0.008420   0.542049   0.000068   0.000692   0.000019
    10  O    0.000056   0.475647   0.000068   8.374357  -0.118483   0.012135
    11  C    0.001296   0.590171   0.000692  -0.118483   5.944068   0.411845
    12  H   -0.000030  -0.113623   0.000019   0.012135   0.411845   0.519349
    13  H   -0.000002  -0.040369  -0.000009  -0.005592   0.399641  -0.027801
    14  H   -0.000002  -0.009443  -0.000013  -0.004418   0.395541  -0.024374
              13         14
     1  C    0.002920   0.002104
     2  C   -0.000276  -0.000553
     3  C    0.003304   0.006071
     4  H   -0.000001  -0.000001
     5  C    0.000425  -0.029424
     6  N    0.005970   0.003774
     7  H   -0.000002  -0.000002
     8  C   -0.040369  -0.009443
     9  H   -0.000009  -0.000013
    10  O   -0.005592  -0.004418
    11  C    0.399641   0.395541
    12  H   -0.027801  -0.024374
    13  H    0.540404  -0.028445
    14  H   -0.028445   0.532504
 Mulliken charges:
               1
     1  C   -0.132231
     2  C   -0.271830
     3  C   -0.220573
     4  H    0.108570
     5  C    0.311778
     6  N   -0.307689
     7  H    0.100508
     8  C   -0.067823
     9  H    0.110909
    10  O   -0.515981
    11  C   -0.583391
    12  H    0.161242
    13  H    0.149830
    14  H    0.156680
 Sum of Mulliken charges =  -1.00000
 Mulliken charges with hydrogens summed into heavy atoms:
               1
     1  C   -0.031722
     2  C   -0.163260
     3  C   -0.109664
     5  C    0.311778
     6  N   -0.307689
     8  C   -0.067823
    10  O   -0.515981
    11  C   -0.115639
 APT charges:
               1
     1  C   -0.081584
     2  C   -0.383006
     3  C    0.132766
     4  H    0.037383
     5  C   -0.735519
     6  N   -0.326118
     7  H    0.006100
     8  C    1.746155
     9  H    0.069350
    10  O   -1.368963
    11  C   -0.111894
    12  H    0.040196
    13  H   -0.012065
    14  H   -0.012804
 Sum of APT charges =  -1.00000
 APT charges with hydrogens summed into heavy atoms:
               1
     1  C   -0.075484
     2  C   -0.345622
     3  C    0.202116
     5  C   -0.735519
     6  N   -0.326118
     8  C    1.746155
    10  O   -1.368963
    11  C   -0.096567
 Electronic spatial extent (au):  <R**2>=           1364.0033
 Charge=             -1.0000 electrons
 Dipole moment (field-independent basis, Debye):
    X=             -4.8796    Y=              5.8515    Z=              2.2114  Tot=              7.9335
 Quadrupole moment (field-independent basis, Debye-Ang):
   XX=            -59.1420   YY=            -72.4201   ZZ=            -55.5958
   XY=             10.8618   XZ=              4.1319   YZ=             -6.9681
 Traceless Quadrupole moment (field-independent basis, Debye-Ang):
   XX=              3.2440   YY=            -10.0341   ZZ=              6.7901
   XY=             10.8618   XZ=              4.1319   YZ=             -6.9681
 Octapole moment (field-independent basis, Debye-Ang**2):
  XXX=           -154.5970  YYY=            201.2102  ZZZ=             53.1179  XYY=            -94.2093
  XXY=             69.5768  XXZ=             24.5232  XZZ=            -48.7539  YZZ=             51.6577
  YYZ=             39.8914  XYZ=            -18.7369
 Hexadecapole moment (field-independent basis, Debye-Ang**3):
 XXXX=          -1109.5261 YYYY=           -879.3027 ZZZZ=           -156.9845 XXXY=            296.9446
 XXXZ=             70.0279 YYYX=            393.9692 YYYZ=           -169.1725 ZZZX=             52.6656
 ZZZY=           -112.6458 XXYY=           -397.0414 XXZZ=           -215.7631 YYZZ=           -160.7902
 XXYZ=            -70.5498 YYXZ=             73.0732 ZZXY=             95.8405
 N-N= 3.332815348249D+02 E-N=-1.523223416518D+03  KE= 3.609033056395D+02
  Exact polarizability:     165.993     -30.882     138.661      -2.628      20.186      86.699
 Approx polarizability:     179.546     -36.374     161.970      -4.281      25.859      96.254
 No NMR shielding tensors so no spin-rotation constants.
 Leave Link  601 at Thu Dec 14 12:29:38 2023, MaxMem= 14763950080 cpu:               1.1 elap:               0.2
 (Enter /software/commercial/gaussian/g16/AVX2/g16/l701.exe)
 ... and contract with generalized density number  0.
 Compute integral second derivatives.
 R6Disp: Adding Grimme-D3(BJ) dispersion energy 2nd derivatives to the Hessian.
 D2PCM: PCM CHGder 2nd derivatives, FixD1E=F FixD2E=F DoIter=F DoCFld=F I1PDM=0
 GePol: Maximum number of non-zero 2nd derivatives   =     211
 Leave Link  701 at Thu Dec 14 12:29:41 2023, MaxMem= 14763950080 cpu:              30.9 elap:               3.0
 (Enter /software/commercial/gaussian/g16/AVX2/g16/l702.exe)
 L702 exits ... SP integral derivatives will be done elsewhere.
 Leave Link  702 at Thu Dec 14 12:29:42 2023, MaxMem= 14763950080 cpu:               0.1 elap:               0.1
 (Enter /software/commercial/gaussian/g16/AVX2/g16/l703.exe)
 Integral derivatives from FoFJK, PRISM(SPDF).
 Compute integral second derivatives, UseDBF=F ICtDFT=           0.
 Calling FoFJK, ICntrl=    100127 FMM=F ISym2X=0 I1Cent= 0 IOpClX= 0 NMat=1 NMatS=1 NMatT=0.
 FoFJK:  IHMeth= 1 ICntrl=  100127 DoSepK=F KAlg= 0 I1Cent=           0 FoldK=F
 IRaf=         0 NMat=       1 IRICut=       1 DoRegI=T DoRafI=F ISym2E= 0 IDoP0=0 IntGTp=1.
 FoFCou: FMM=F IPFlag=           0 FMFlag=      100000 FMFlg1=         800
         NFxFlg=           0 DoJE=F BraDBF=F KetDBF=F FulRan=T
         wScrn=  0.000000 ICntrl=    100127 IOpCl=  0 I1Cent=           0 NGrid=           0
         NMat0=    1 NMatS0=      1 NMatT0=    0 NMatD0=    1 NMtDS0=    0 NMtDT0=    0
 Symmetry not used in FoFCou.
 Leave Link  703 at Thu Dec 14 12:30:10 2023, MaxMem= 14763950080 cpu:             336.6 elap:              28.3
 (Enter /software/commercial/gaussian/g16/AVX2/g16/l716.exe)
 Dipole        =-1.91976355D+00 2.30217310D+00 8.70042083D-01
 Polarizability= 1.65992712D+02-3.08824332D+01 1.38661163D+02
                -2.62762183D+00 2.01861227D+01 8.66985989D+01
 HyperPolar    = 9.61101244D+02-8.42500398D+02 3.76289213D+02
                 1.46570826D+02-1.61872510D+02 1.60001056D+02
                -2.02283778D+00-2.54891413D+02 1.32771101D+02
                 6.79773859D+01
 Full mass-weighted force constant matrix:
 Low frequencies ---  -19.0461   -0.0005    0.0002    0.0004   12.7618   22.4289
 Low frequencies ---   51.0894  113.4896  184.1069
 Diagonal vibrational polarizability:
       31.4838100      34.5171423      86.2399138
 Diagonal vibrational hyperpolarizability:
     -132.0095142     156.6081075     183.6705114
 Harmonic frequencies (cm**-1), IR intensities (KM/Mole), Raman scattering
 activities (A**4/AMU), depolarization ratios for plane and unpolarized
 incident light, reduced masses (AMU), force constants (mDyne/A),
 and normal coordinates:
                      1                      2                      3
                      A                      A                      A
 Frequencies --     49.0351               113.3827               184.0844
 Red. masses --      1.1996                 2.6652                 4.8410
 Frc consts  --      0.0017                 0.0202                 0.0967
 IR Inten    --      5.4641                11.9564                 2.7698
 Raman Activ --      0.9120                 1.7776                 4.1011
 Depolar (P) --      0.6996                 0.7458                 0.7493
 Depolar (U) --      0.8233                 0.8544                 0.8567
  Atom  AN      X      Y      Z        X      Y      Z        X      Y      Z
     1   6    -0.00  -0.00   0.00    -0.01  -0.04   0.11     0.02   0.06  -0.16
     2   6     0.00   0.02  -0.05     0.01   0.04  -0.08     0.02   0.08  -0.19
     3   6     0.00   0.01  -0.03     0.01   0.06  -0.15    -0.02  -0.06   0.17
     4   1     0.01   0.03  -0.09     0.02   0.07  -0.17     0.05   0.19  -0.45
     5   6    -0.00  -0.01   0.02    -0.00   0.00  -0.01    -0.04  -0.14   0.34
     6   7    -0.01  -0.01   0.04    -0.01  -0.06   0.14    -0.01  -0.07   0.17
     7   1    -0.01  -0.01   0.01    -0.02  -0.09   0.23     0.05   0.15  -0.39
     8   6    -0.00  -0.01   0.03    -0.00  -0.01   0.01    -0.01  -0.03   0.06
     9   1     0.01   0.02  -0.06     0.03   0.12  -0.30    -0.03  -0.07   0.19
    10   8    -0.01  -0.02   0.06    -0.01  -0.07   0.16     0.02   0.06  -0.17
    11   6     0.01   0.02  -0.06     0.01   0.07  -0.17     0.01   0.05  -0.11
    12   1    -0.06  -0.12   0.39     0.06   0.20  -0.58     0.02   0.11  -0.32
    13   1    -0.23   0.49  -0.31     0.06  -0.31  -0.10    -0.01  -0.15  -0.10
    14   1     0.36  -0.28  -0.44    -0.07   0.40   0.09     0.02   0.24   0.02
                      4                      5                      6
                      A                      A                      A
 Frequencies --    220.3186               388.0153               521.1423
 Red. masses --      4.0948                 3.7711                 6.7810
 Frc consts  --      0.1171                 0.3345                 1.0851
 IR Inten    --     22.8859                 2.5867                15.4322
 Raman Activ --      0.1774                 5.7722                13.3958
 Depolar (P) --      0.7469                 0.1579                 0.5093
 Depolar (U) --      0.8551                 0.2727                 0.6749
  Atom  AN      X      Y      Z        X      Y      Z        X      Y      Z
     1   6     0.14   0.02   0.03    -0.09   0.05   0.01     0.17  -0.10  -0.02
     2   6    -0.01   0.14   0.06    -0.14   0.09   0.02     0.02  -0.00   0.00
     3   6    -0.16   0.02  -0.01    -0.17   0.05   0.00    -0.15  -0.13  -0.07
     4   1    -0.01   0.28   0.12    -0.14   0.13   0.04     0.02   0.17   0.08
     5   6    -0.08  -0.14  -0.07    -0.09  -0.03  -0.02    -0.09  -0.13  -0.06
     6   7     0.09  -0.14  -0.05    -0.10  -0.02  -0.02     0.09  -0.26  -0.10
     7   1     0.29   0.06   0.06    -0.02   0.06   0.02     0.31  -0.07   0.01
     8   6    -0.03  -0.07  -0.03     0.04   0.03   0.02     0.01   0.22   0.10
     9   1    -0.33   0.07  -0.00    -0.27   0.08   0.00    -0.29  -0.09  -0.07
    10   8     0.21  -0.07  -0.00     0.25   0.03   0.04    -0.26   0.27   0.07
    11   6    -0.18   0.19   0.06     0.19  -0.17  -0.05     0.21   0.09   0.06
    12   1    -0.43   0.14   0.08     0.57  -0.13  -0.01     0.49   0.12   0.08
    13   1    -0.12   0.37   0.10     0.08  -0.39  -0.12     0.10  -0.07  -0.01
    14   1    -0.10   0.25   0.06     0.11  -0.33  -0.11     0.18  -0.02   0.00
                      7                      8                      9
                      A                      A                      A
 Frequencies --    576.9067               621.5153               646.8754
 Red. masses --      3.1111                 3.5667                 2.9655
 Frc consts  --      0.6101                 0.8117                 0.7311
 IR Inten    --      1.7348                37.4563                27.0624
 Raman Activ --      1.7505                22.7686                 1.6370
 Depolar (P) --      0.6947                 0.0951                 0.6444
 Depolar (U) --      0.8198                 0.1737                 0.7838
  Atom  AN      X      Y      Z        X      Y      Z        X      Y      Z
     1   6    -0.01   0.02  -0.03    -0.09   0.03   0.02     0.02   0.08  -0.20
     2   6    -0.02  -0.05   0.14    -0.09   0.07  -0.01    -0.03  -0.08   0.21
     3   6     0.02   0.08  -0.17    -0.06   0.05   0.04     0.01   0.05  -0.12
     4   1    -0.03  -0.10   0.25    -0.09   0.05  -0.04    -0.03  -0.09   0.23
     5   6    -0.00  -0.02   0.06     0.05  -0.03  -0.02    -0.00  -0.03   0.07
     6   7     0.00   0.04  -0.08    -0.08  -0.01  -0.02    -0.02  -0.06   0.15
     7   1     0.01   0.07  -0.17    -0.04   0.02   0.08     0.06   0.23  -0.57
     8   6    -0.02  -0.13   0.29     0.18  -0.12  -0.04     0.03   0.05  -0.15
     9   1     0.03   0.13  -0.31    -0.18   0.07   0.08     0.03   0.17  -0.42
    10   8     0.01   0.03  -0.11    -0.13  -0.14  -0.07    -0.02  -0.03   0.05
    11   6     0.01   0.00   0.02     0.26   0.12   0.08     0.02   0.02  -0.01
    12   1    -0.04   0.08  -0.27    -0.21   0.08   0.02    -0.00  -0.03   0.13
    13   1    -0.32  -0.11  -0.27     0.43   0.42   0.20     0.23   0.10   0.16
    14   1     0.46   0.33   0.01     0.33   0.35   0.20    -0.22  -0.13   0.02
                     10                     11                     12
                      A                      A                      A
 Frequencies --    692.0057               750.6460               817.8786
 Red. masses --      2.7320                 1.5167                 1.3114
 Frc consts  --      0.7708                 0.5035                 0.5169
 IR Inten    --     25.4307               107.3166                 3.6794
 Raman Activ --      6.0567                32.6337                31.2019
 Depolar (P) --      0.7495                 0.7499                 0.7498
 Depolar (U) --      0.8568                 0.8571                 0.8570
  Atom  AN      X      Y      Z        X      Y      Z        X      Y      Z
     1   6    -0.01  -0.05   0.12    -0.00   0.00  -0.00     0.01   0.05  -0.13
     2   6    -0.00  -0.01   0.03     0.01   0.03  -0.08    -0.00   0.00  -0.00
     3   6     0.00   0.01  -0.03     0.01   0.04  -0.11    -0.01  -0.03   0.08
     4   1     0.05   0.18  -0.47    -0.08  -0.30   0.76    -0.02  -0.06   0.15
     5   6    -0.02  -0.10   0.24    -0.01  -0.05   0.14    -0.00   0.00  -0.00
     6   7     0.02   0.08  -0.21     0.00   0.01  -0.04    -0.00  -0.00   0.01
     7   1    -0.01  -0.02   0.06    -0.03  -0.10   0.27    -0.08  -0.29   0.75
     8   6     0.01   0.03  -0.08     0.01   0.01  -0.04    -0.00  -0.00   0.01
     9   1     0.06   0.25  -0.63    -0.04  -0.15   0.39     0.05   0.19  -0.51
    10   8    -0.00  -0.01   0.02    -0.00  -0.01   0.01     0.00   0.00  -0.00
    11   6     0.00   0.01  -0.02     0.00   0.01  -0.01    -0.00  -0.00   0.00
    12   1     0.00  -0.03   0.13     0.00  -0.01   0.05     0.00   0.00  -0.02
    13   1     0.17   0.07   0.12     0.08   0.03   0.06    -0.02  -0.01  -0.01
    14   1    -0.20  -0.13   0.00    -0.10  -0.06   0.00     0.03   0.02   0.00
                     13                     14                     15
                      A                      A                      A
 Frequencies --    873.9156               905.2981               919.4430
 Red. masses --      1.3617                 5.6393                 4.4278
 Frc consts  --      0.6127                 2.7230                 2.2054
 IR Inten    --      6.5100                19.5448               123.9531
 Raman Activ --      0.1593                16.2461                51.3389
 Depolar (P) --      0.7482                 0.7439                 0.1994
 Depolar (U) --      0.8560                 0.8532                 0.3325
  Atom  AN      X      Y      Z        X      Y      Z        X      Y      Z
     1   6    -0.01  -0.03   0.08    -0.10   0.32   0.11     0.05   0.02   0.01
     2   6     0.01   0.04  -0.11     0.37   0.05   0.06     0.14  -0.06  -0.01
     3   6    -0.01  -0.04   0.10     0.08  -0.17  -0.06    -0.16  -0.22  -0.10
     4   1    -0.06  -0.22   0.56     0.38  -0.29  -0.08     0.14   0.35   0.14
     5   6     0.00   0.01  -0.03    -0.05  -0.11  -0.05    -0.14   0.03   0.00
     6   7    -0.00   0.00  -0.00    -0.26  -0.08  -0.06     0.09   0.25   0.11
     7   1     0.05   0.18  -0.47    -0.03   0.34   0.14    -0.42  -0.09  -0.08
     8   6    -0.00  -0.00   0.00     0.04   0.01   0.01    -0.16  -0.04  -0.04
     9   1     0.06   0.21  -0.55    -0.45  -0.02  -0.05    -0.22  -0.21  -0.10
    10   8     0.00  -0.00  -0.00    -0.01   0.02   0.01     0.02  -0.11  -0.04
    11   6    -0.00  -0.00   0.01    -0.02  -0.03  -0.02     0.12   0.11   0.06
    12   1     0.00   0.00  -0.02    -0.14  -0.05  -0.03     0.45   0.15   0.09
    13   1    -0.02  -0.01  -0.02     0.00   0.01  -0.00     0.07  -0.02   0.02
    14   1     0.03   0.02   0.00    -0.02   0.01   0.01     0.13   0.01  -0.01
                     16                     17                     18
                      A                      A                      A
 Frequencies --    980.0953              1032.6810              1039.0734
 Red. masses --      1.7996                 1.2730                 1.7663
 Frc consts  --      1.0185                 0.7999                 1.1236
 IR Inten    --     13.4870                95.9343                 7.1163
 Raman Activ --      6.7947                22.9761                 6.5668
 Depolar (P) --      0.3829                 0.4844                 0.5705
 Depolar (U) --      0.5537                 0.6527                 0.7265
  Atom  AN      X      Y      Z        X      Y      Z        X      Y      Z
     1   6     0.01   0.05   0.02    -0.02   0.01   0.00    -0.01  -0.01  -0.00
     2   6    -0.02  -0.02  -0.01    -0.01   0.07   0.03     0.01   0.00   0.00
     3   6     0.08   0.08   0.04     0.06  -0.05  -0.02    -0.00   0.00   0.00
     4   1    -0.01  -0.37  -0.15    -0.01   0.57   0.22     0.00   0.01   0.04
     5   6    -0.02  -0.01  -0.01    -0.06   0.02   0.00     0.01   0.01  -0.05
     6   7    -0.03  -0.06  -0.03    -0.05  -0.05  -0.02     0.00   0.00   0.00
     7   1     0.22   0.10   0.06     0.01   0.02   0.01    -0.04  -0.02  -0.01
     8   6    -0.11  -0.03  -0.02    -0.02  -0.02  -0.00    -0.01  -0.07   0.18
     9   1     0.22   0.04   0.04     0.74  -0.24  -0.01    -0.06   0.03  -0.02
    10   8    -0.00  -0.08  -0.03     0.01  -0.00  -0.00    -0.00   0.01  -0.03
    11   6     0.02   0.15   0.06     0.02   0.00  -0.00     0.01   0.07  -0.15
    12   1     0.68   0.20   0.14    -0.01  -0.01   0.01     0.05  -0.07   0.35
    13   1    -0.14  -0.25  -0.05     0.05   0.03   0.02     0.49   0.07   0.28
    14   1    -0.02  -0.17  -0.13     0.01   0.02   0.02    -0.62  -0.29  -0.04
                     19                     20                     21
                      A                      A                      A
 Frequencies --   1055.5371              1134.7164              1204.8507
 Red. masses --      1.7284                 3.2036                 1.8939
 Frc consts  --      1.1346                 2.4303                 1.6199
 IR Inten    --      1.4706                81.5476               188.8966
 Raman Activ --     27.3389               179.5292                32.8380
 Depolar (P) --      0.1290                 0.1149                 0.7492
 Depolar (U) --      0.2286                 0.2061                 0.8566
  Atom  AN      X      Y      Z        X      Y      Z        X      Y      Z
     1   6    -0.07  -0.12  -0.05     0.02   0.13   0.05     0.08  -0.08  -0.02
     2   6     0.08   0.07   0.04    -0.16  -0.03  -0.03     0.02  -0.07  -0.02
     3   6     0.04   0.05   0.02    -0.06  -0.16  -0.07     0.00  -0.02  -0.01
     4   1     0.09   0.51   0.21    -0.18   0.19   0.06     0.02   0.36   0.14
     5   6     0.09  -0.04  -0.00     0.13  -0.04  -0.00     0.07   0.12   0.06
     6   7    -0.05  -0.01  -0.01     0.00   0.09   0.03    -0.16   0.01  -0.01
     7   1    -0.42  -0.22  -0.13     0.41   0.24   0.13     0.76   0.08   0.11
     8   6     0.06   0.00  -0.01     0.25   0.01   0.03    -0.08   0.02   0.00
     9   1    -0.33   0.16   0.03     0.08  -0.23  -0.08    -0.37   0.09  -0.01
    10   8    -0.02  -0.02  -0.01    -0.05  -0.03  -0.02     0.02  -0.03  -0.01
    11   6    -0.06   0.06   0.03    -0.13   0.06   0.01     0.01  -0.01  -0.00
    12   1     0.29   0.10   0.03     0.23   0.09   0.03     0.02  -0.01   0.01
    13   1    -0.22  -0.23  -0.08    -0.29  -0.36  -0.10     0.07   0.09   0.03
    14   1    -0.04  -0.15  -0.12    -0.16  -0.28  -0.19     0.04   0.08   0.04
                     22                     23                     24
                      A                      A                      A
 Frequencies --   1300.8551              1338.3050              1361.9644
 Red. masses --      8.4571                 3.5612                 1.3089
 Frc consts  --      8.4319                 3.7580                 1.4305
 IR Inten    --     86.9126                83.8980                37.7532
 Raman Activ --     50.4910               159.4557                83.4096
 Depolar (P) --      0.6598                 0.7332                 0.4843
 Depolar (U) --      0.7951                 0.8460                 0.6526
  Atom  AN      X      Y      Z        X      Y      Z        X      Y      Z
     1   6    -0.26   0.12   0.02    -0.18   0.04  -0.00     0.03   0.03   0.02
     2   6    -0.00   0.00   0.00    -0.14   0.06   0.01    -0.01  -0.02  -0.01
     3   6    -0.06  -0.16  -0.07     0.28  -0.11  -0.01    -0.02   0.01   0.00
     4   1    -0.02   0.03   0.01    -0.17   0.32   0.11    -0.02   0.03   0.01
     5   6     0.04   0.52   0.21     0.01  -0.14  -0.05     0.05  -0.01  -0.00
     6   7     0.26  -0.34  -0.11     0.14   0.05   0.03    -0.01  -0.01  -0.01
     7   1    -0.26   0.12   0.02     0.35   0.18   0.10    -0.18  -0.01  -0.02
     8   6     0.02  -0.05  -0.02    -0.14  -0.06  -0.04     0.00   0.01   0.00
     9   1    -0.50  -0.05  -0.07    -0.61   0.12  -0.02     0.05  -0.01  -0.00
    10   8     0.02  -0.06  -0.02     0.01   0.07   0.03    -0.00   0.00   0.00
    11   6    -0.03   0.03   0.01     0.02  -0.01  -0.00    -0.13  -0.05  -0.04
    12   1     0.09   0.04   0.02     0.12  -0.00   0.02     0.51  -0.01   0.10
    13   1    -0.02  -0.09   0.02     0.11   0.15   0.06     0.39   0.20   0.37
    14   1     0.03  -0.04  -0.07     0.09   0.13   0.06     0.47   0.34  -0.06
                     25                     26                     27
                      A                      A                      A
 Frequencies --   1386.5912              1446.3364              1472.8087
 Red. masses --      2.6450                 1.3558                 2.3883
 Frc consts  --      2.9962                 1.6710                 3.0524
 IR Inten    --    376.6014                63.3756                20.3298
 Raman Activ --    300.5483                29.8402                32.2247
 Depolar (P) --      0.4901                 0.7423                 0.4478
 Depolar (U) --      0.6578                 0.8521                 0.6186
  Atom  AN      X      Y      Z        X      Y      Z        X      Y      Z
     1   6    -0.09  -0.18  -0.08     0.01  -0.03  -0.01     0.16  -0.01   0.01
     2   6     0.08   0.19   0.08    -0.02   0.11   0.04    -0.11   0.16   0.05
     3   6    -0.00  -0.06  -0.02    -0.02  -0.06  -0.03     0.07  -0.13  -0.04
     4   1     0.10  -0.47  -0.17    -0.02  -0.23  -0.09    -0.13  -0.32  -0.14
     5   6    -0.14   0.05   0.01     0.08   0.01   0.01     0.11   0.04   0.03
     6   7     0.01   0.07   0.03    -0.02   0.00  -0.00    -0.09  -0.01  -0.01
     7   1     0.60  -0.04   0.05    -0.06  -0.05  -0.03    -0.43  -0.16  -0.11
     8   6     0.11  -0.03  -0.00    -0.02   0.02   0.01    -0.10  -0.01  -0.01
     9   1     0.09  -0.09  -0.02     0.05  -0.10  -0.03    -0.15  -0.09  -0.05
    10   8    -0.01  -0.00  -0.00     0.00  -0.02  -0.01     0.01   0.01   0.00
    11   6    -0.07   0.01  -0.01     0.01  -0.05  -0.01     0.02   0.04   0.02
    12   1     0.11   0.01   0.02     0.37  -0.01   0.05    -0.33   0.04  -0.15
    13   1     0.18  -0.13   0.20    -0.27   0.48  -0.28     0.19  -0.27   0.19
    14   1     0.26  -0.00  -0.17    -0.39   0.26   0.38     0.23  -0.26  -0.28
                     28                     29                     30
                      A                      A                      A
 Frequencies --   1475.4746              1505.7211              1590.7128
 Red. masses --      1.0545                 4.6330                 9.1326
 Frc consts  --      1.3526                 6.1888                13.6154
 IR Inten    --     13.5775               244.7501              1110.9660
 Raman Activ --     12.4196                10.0545               476.4443
 Depolar (P) --      0.6799                 0.4946                 0.4230
 Depolar (U) --      0.8095                 0.6619                 0.5945
  Atom  AN      X      Y      Z        X      Y      Z        X      Y      Z
     1   6     0.01  -0.00  -0.00    -0.22  -0.01  -0.03    -0.14  -0.00  -0.02
     2   6    -0.01   0.01   0.00     0.11   0.03   0.02    -0.01   0.06   0.02
     3   6     0.01  -0.01  -0.00    -0.26   0.02  -0.02     0.04  -0.01   0.00
     4   1    -0.01  -0.02  -0.01     0.14  -0.08  -0.02    -0.00   0.02   0.01
     5   6     0.00   0.00   0.00     0.36  -0.11  -0.01     0.04  -0.11  -0.04
     6   7    -0.01  -0.00  -0.00     0.05   0.01   0.01     0.09  -0.02   0.00
     7   1    -0.03  -0.01  -0.01     0.35   0.12   0.08     0.11   0.05   0.03
     8   6    -0.00   0.02  -0.02    -0.20  -0.05  -0.05    -0.08   0.63   0.24
     9   1    -0.02  -0.00  -0.00     0.50  -0.20  -0.03     0.03  -0.00   0.00
    10   8     0.00  -0.01   0.00     0.01   0.08   0.03     0.02  -0.37  -0.15
    11   6     0.01   0.02  -0.05     0.04   0.03   0.01     0.01  -0.04  -0.01
    12   1    -0.14  -0.21   0.69    -0.26  -0.00   0.00    -0.39  -0.05  -0.14
    13   1    -0.11  -0.47  -0.10     0.13  -0.23   0.11     0.20  -0.04   0.16
    14   1     0.10   0.41   0.19     0.17  -0.10  -0.14     0.18  -0.07  -0.12
                     31                     32                     33
                      A                      A                      A
 Frequencies --   3029.0312              3083.1246              3147.4377
 Red. masses --      1.0393                 1.0985                 1.0989
 Frc consts  --      5.6184                 6.1519                 6.4137
 IR Inten    --     40.0094                27.6955                14.4714
 Raman Activ --    637.0105               219.9192                85.2406
 Depolar (P) --      0.0820                 0.7035                 0.7104
 Depolar (U) --      0.1516                 0.8259                 0.8307
  Atom  AN      X      Y      Z        X      Y      Z        X      Y      Z
     1   6    -0.00   0.00   0.00     0.00  -0.00   0.00     0.00  -0.00  -0.00
     2   6    -0.00   0.00   0.00     0.00  -0.00   0.00     0.00   0.00   0.00
     3   6     0.00  -0.00  -0.00    -0.00   0.00   0.00    -0.00   0.00   0.00
     4   1     0.00   0.00   0.00     0.00   0.00  -0.00    -0.00   0.00  -0.00
     5   6    -0.00  -0.00  -0.00     0.00   0.00  -0.00    -0.00  -0.00  -0.00
     6   7     0.00  -0.00  -0.00    -0.00   0.00   0.00     0.00  -0.00   0.00
     7   1     0.00  -0.00  -0.00    -0.00   0.00   0.00    -0.01   0.02   0.01
     8   6     0.00   0.00   0.00    -0.00   0.00  -0.00     0.00  -0.00  -0.00
     9   1     0.00   0.00   0.00    -0.00  -0.00  -0.00     0.00   0.00   0.00
    10   8     0.00  -0.00   0.00    -0.00  -0.00   0.00    -0.00   0.00   0.00
    11   6    -0.05   0.01  -0.02     0.02   0.03  -0.08     0.03  -0.08  -0.03
    12   1    -0.05   0.33   0.09     0.02  -0.09  -0.05    -0.11   0.89   0.25
    13   1     0.36  -0.03  -0.44    -0.50   0.06   0.57    -0.18   0.01   0.22
    14   1     0.27  -0.38   0.57     0.25  -0.33   0.48    -0.07   0.09  -0.16
                     34                     35                     36
                      A                      A                      A
 Frequencies --   3158.5803              3193.5953              3218.9774
 Red. masses --      1.0903                 1.0928                 1.1000
 Frc consts  --      6.4089                 6.5670                 6.7153
 IR Inten    --     44.0687                41.7765                25.9093
 Raman Activ --    258.6928               288.5049               284.0713
 Depolar (P) --      0.5108                 0.4086                 0.2068
 Depolar (U) --      0.6762                 0.5802                 0.3427
  Atom  AN      X      Y      Z        X      Y      Z        X      Y      Z
     1   6     0.02  -0.08  -0.03    -0.00   0.02   0.01    -0.00   0.01   0.00
     2   6    -0.02   0.00  -0.00    -0.08   0.00  -0.01    -0.04   0.00  -0.00
     3   6     0.00   0.00   0.00     0.01   0.03   0.01    -0.02  -0.07  -0.03
     4   1     0.26  -0.01   0.02     0.88  -0.02   0.08     0.38  -0.01   0.03
     5   6    -0.00   0.00   0.00    -0.00  -0.00  -0.00     0.00   0.00   0.00
     6   7    -0.00  -0.00  -0.00     0.00  -0.00  -0.00     0.00   0.00   0.00
     7   1    -0.27   0.87   0.31     0.06  -0.22  -0.08     0.02  -0.07  -0.03
     8   6    -0.00   0.00   0.00     0.00   0.00   0.00    -0.00  -0.00  -0.00
     9   1    -0.01  -0.02  -0.01    -0.10  -0.36  -0.15     0.23   0.82   0.34
    10   8     0.00  -0.00  -0.00    -0.00   0.00   0.00     0.00   0.00   0.00
    11   6    -0.00   0.00   0.00     0.00  -0.00  -0.00     0.00   0.00  -0.00
    12   1     0.00  -0.02  -0.00    -0.00   0.01   0.00     0.00   0.00   0.00
    13   1     0.00  -0.00  -0.00    -0.00   0.00   0.00    -0.00   0.00   0.00
    14   1     0.00  -0.00   0.00    -0.00   0.00  -0.00    -0.00   0.00  -0.00

 -------------------
 - Thermochemistry -
 -------------------
 Temperature   298.150 Kelvin.  Pressure   1.00000 Atm.
 Thermochemistry will use frequencies scaled by 0.9670.
 Atom     1 has atomic number  6 and mass  12.00000
 Atom     2 has atomic number  6 and mass  12.00000
 Atom     3 has atomic number  6 and mass  12.00000
 Atom     4 has atomic number  1 and mass   1.00783
 Atom     5 has atomic number  6 and mass  12.00000
 Atom     6 has atomic number  7 and mass  14.00307
 Atom     7 has atomic number  1 and mass   1.00783
 Atom     8 has atomic number  6 and mass  12.00000
 Atom     9 has atomic number  1 and mass   1.00783
 Atom    10 has atomic number  8 and mass  15.99491
 Atom    11 has atomic number  6 and mass  12.00000
 Atom    12 has atomic number  1 and mass   1.00783
 Atom    13 has atomic number  1 and mass   1.00783
 Atom    14 has atomic number  1 and mass   1.00783
 Molecular mass:   108.04494 amu.
 Principal axes and moments of inertia in atomic units:
                           1         2         3
     Eigenvalues --   369.749431115.403811473.93873
           X            0.86868   0.48499  -0.10089
           Y           -0.48587   0.79444  -0.36440
           Z           -0.09658   0.36557   0.92576
 This molecule is an asymmetric top.
 Rotational symmetry number  1.
 Rotational temperatures (Kelvin)      0.23425     0.07765     0.05876
 Rotational constants (GHZ):           4.88098     1.61802     1.22443
 Zero-point vibrational energy     268588.6 (Joules/Mol)
                                   64.19422 (Kcal/Mol)
 Warning -- explicit consideration of   8 degrees of freedom as
           vibrations may cause significant error
 Vibrational temperatures:     68.22   157.75   256.12   306.53   539.84
          (Kelvin)            725.06   802.65   864.71   900.00   962.79
                             1044.37  1137.91  1215.88  1259.54  1279.22
                             1363.60  1436.77  1445.66  1468.57  1578.73
                             1676.31  1809.88  1861.98  1894.90  1929.16
                             2012.28  2049.11  2052.82  2094.91  2213.15
                             4214.28  4289.54  4379.02  4394.52  4443.24
                             4478.55
 
 Zero-point correction=                           0.102300 (Hartree/Particle)
 Thermal correction to Energy=                    0.109635
 Thermal correction to Enthalpy=                  0.110580
 Thermal correction to Gibbs Free Energy=         0.069959
 Sum of electronic and zero-point Energies=           -362.372425
 Sum of electronic and thermal Energies=              -362.365090
 Sum of electronic and thermal Enthalpies=            -362.364146
 Sum of electronic and thermal Free Energies=         -362.404767
 
                     E (Thermal)             CV                S
                      KCal/Mol        Cal/Mol-Kelvin    Cal/Mol-Kelvin
 Total                   68.797             26.530             85.494
 Electronic               0.000              0.000              0.000
 Translational            0.889              2.981             39.949
 Rotational               0.889              2.981             27.899
 Vibrational             67.020             20.569             17.646
 Vibration     1          0.595              1.979              4.922
 Vibration     2          0.606              1.941              3.275
 Vibration     3          0.628              1.869              2.349
 Vibration     4          0.644              1.821              2.017
 Vibration     5          0.746              1.523              1.058
 Vibration     6          0.859              1.241              0.648
 Vibration     7          0.913              1.122              0.528
 Vibration     8          0.959              1.030              0.448
                       Q            Log10(Q)             Ln(Q)
 Total Bot       0.662628D-32        -32.178730        -74.094264
 Total V=0       0.751564D+15         14.875966         34.253178
 Vib (Bot)       0.537842D-45        -45.269346       -104.236520
 Vib (Bot)    1  0.436075D+01          0.639561          1.472644
 Vib (Bot)    2  0.186816D+01          0.271414          0.624955
 Vib (Bot)    3  0.112908D+01          0.052726          0.121407
 Vib (Bot)    4  0.931113D+00         -0.030998         -0.071375
 Vib (Bot)    5  0.483484D+00         -0.315618         -0.726738
 Vib (Bot)    6  0.324989D+00         -0.488131         -1.123963
 Vib (Bot)    7  0.279178D+00         -0.554119         -1.275906
 Vib (Bot)    8  0.248193D+00         -0.605211         -1.393550
 Vib (V=0)       0.610029D+02          1.785350          4.110921
 Vib (V=0)    1  0.488932D+01          0.689249          1.587053
 Vib (V=0)    2  0.243391D+01          0.386305          0.889501
 Vib (V=0)    3  0.173484D+01          0.239259          0.550915
 Vib (V=0)    4  0.155687D+01          0.192252          0.442677
 Vib (V=0)    5  0.119553D+01          0.077559          0.178586
 Vib (V=0)    6  0.109634D+01          0.039944          0.091975
 Vib (V=0)    7  0.107266D+01          0.030462          0.070142
 Vib (V=0)    8  0.105821D+01          0.024572          0.056580
 Electronic      0.100000D+01          0.000000          0.000000
 Translational   0.441429D+08          7.644861         17.602942
 Rotational      0.279097D+06          5.445755         12.539315
 
                                                          PyrCHOCH3-isolated
                                                             IR Spectrum
 
     3333  3 3                                                        1 1111  1111   1  1 111                                        
     2111  0 0                                                        5 5444  3333   2  1 000 9 998 8  7 6 66 5 5    3      21  1    
     1954  8 2                                                        9 0774  8630   0  3 533 8 107 1  5 9 42 7 2    8      28  1  4 
     9497  3 9                                                        1 6536  7281   5  5 693 0 954 8  1 2 72 7 1    8      04  3  9 
 
     XXXX  X X                                                        X XXXX  XXXX   X  X XXX X XXX X  X X XX X X    X      XX  X  X 
                                                                      X X     X XX   X      X   X      X                             
                                                                      X X     X      X                                               
                                                                      X X     X                                                      
                                                                      X       X                                                      
                                                                      X       X                                                      
                                                                      X       X                                                      
                                                                      X                                                              
                                                                      X                                                              
                                                                      X                                                              
                                                                      X                                                              
                                                                      X                                                              
                                                                      X                                                              
                                                                      X                                                              
                                                                      X                                                              
                                                                      X                                                              
                                                                      X                                                              
                                                                      X                                                              
                                                                      X                                                              
                                                                      X                                                              
 
 
                                                          PyrCHOCH3-isolated
                                                            Raman Spectrum
 
     3333  3 3                                                        1 1111  1111   1  1 111                                        
     2111  0 0                                                        5 5444  3333   2  1 000 9 998 8  7 6 66 5 5    3      21  1    
     1954  8 2                                                        9 0774  8630   0  3 533 8 107 1  5 9 42 7 2    8      28  1  4 
     9497  3 9                                                        1 6536  7281   5  5 693 0 954 8  1 2 72 7 1    8      04  3  9 
 
     XXXX  X X                                                        X XXXX  XXXX   X  X XXX X XXX X  X X XX X X    X      XX  X  X 
     XXXX  X X                                                        X       XXXX      X       X                                    
     XXXX  X X                                                        X       XXX       X                                            
     XXX   X X                                                        X       X X       X                                            
     XXX   X X                                                        X       X X       X                                            
     XXX   X X                                                        X       X         X                                            
     XXX   X X                                                        X       X                                                      
     XXX     X                                                        X       X                                                      
     XX      X                                                        X       X                                                      
             X                                                        X                                                              
             X                                                        X                                                              
             X                                                        X                                                              
             X                                                        X                                                              
             X                                                        X                                                              
             X                                                        X                                                              
             X                                                                                                                       
             X                                                                                                                       
             X                                                                                                                       
             X                                                                                                                       
             X                                                                                                                       
 
 -------------------------------------------------------------------
 Center     Atomic                   Forces (Hartrees/Bohr)
 Number     Number              X              Y              Z
 -------------------------------------------------------------------
      1        6          -0.000009870   -0.000012984    0.000014514
      2        6          -0.000003768   -0.000016240    0.000020897
      3        6          -0.000001037   -0.000009578    0.000010668
      4        1          -0.000007123   -0.000007791    0.000010821
      5        6           0.000003613   -0.000000908    0.000001431
      6        7           0.000000314   -0.000008551    0.000001384
      7        1          -0.000001764   -0.000008222    0.000006614
      8        6          -0.000002958    0.000015658   -0.000009573
      9        1           0.000002400   -0.000003262    0.000005454
     10        8           0.000014831    0.000004888   -0.000019837
     11        6          -0.000014283    0.000037833   -0.000024391
     12        1          -0.000008481    0.000003809   -0.000005806
     13        1           0.000006018    0.000012719   -0.000024090
     14        1           0.000022108   -0.000007372    0.000011914
 -------------------------------------------------------------------
 Cartesian Forces:  Max     0.000037833 RMS     0.000012606
 Leave Link  716 at Thu Dec 14 12:30:11 2023, MaxMem= 14763950080 cpu:               0.2 elap:               0.1
 (Enter /software/commercial/gaussian/g16/AVX2/g16/l103.exe)

 GradGradGradGradGradGradGradGradGradGradGradGradGradGradGradGradGradGrad
 Berny optimization.
 Search for a local minimum.
 Step number   1 out of a maximum of    2
 All quantities printed in internal units (Hartrees-Bohrs-Radians)
 Second derivative matrix not updated -- analytic derivatives used.
 ITU=  0
     Eigenvalues ---    0.00011   0.00194   0.00731   0.00799   0.02383
     Eigenvalues ---    0.02423   0.03759   0.04330   0.04449   0.05790
     Eigenvalues ---    0.05819   0.07405   0.07830   0.10348   0.10409
     Eigenvalues ---    0.12656   0.17231   0.20409   0.21669   0.22164
     Eigenvalues ---    0.23707   0.27557   0.29290   0.33403   0.44682
     Eigenvalues ---    0.59529   0.68443   0.73537   0.75072   0.81425
     Eigenvalues ---    0.82889   0.90523   1.07074   1.10862   1.19987
     Eigenvalues ---    1.26301
 Angle between quadratic step and forces=  85.62 degrees.
 Linear search not attempted -- first point.
 B after Tr=    -0.000005    0.000379   -0.000579
         Rot=    1.000000    0.000444    0.000063    0.000069 Ang=   0.05 deg.
 Variable       Old X    -DE/DX   Delta X   Delta X   Delta X     New X
                                 (Linear)    (Quad)   (Total)
    X1       -0.85635  -0.00001   0.00000   0.00015   0.00030  -0.85605
    Y1        1.30674  -0.00001   0.00000   0.00095   0.00169   1.30842
    Z1        0.26914   0.00001   0.00000  -0.00241  -0.00426   0.26488
    X2       -2.44025  -0.00000   0.00000   0.00022   0.00021  -2.44004
    Y2       -0.65363  -0.00002   0.00000   0.00125   0.00138  -0.65226
    Z2       -0.65285   0.00002   0.00000  -0.00318  -0.00349  -0.65634
    X3       -0.82631  -0.00000   0.00000  -0.00010  -0.00031  -0.82662
    Y3       -2.64732  -0.00001   0.00000   0.00007  -0.00056  -2.64787
    Z3       -1.26292   0.00001   0.00000  -0.00011   0.00157  -1.26136
    X4       -4.47599  -0.00001   0.00000   0.00045   0.00047  -4.47552
    Y4       -0.59733  -0.00001   0.00000   0.00222   0.00247  -0.59486
    Z4       -0.83969   0.00001   0.00000  -0.00556  -0.00617  -0.84586
[...]
     1          3.65737415          2.84846733         -6.82332385
     1          4.87879784         -0.20162605         -6.28387482

 Electric dipole moment (dipole orientation):
 (Debye = 10**-18 statcoulomb cm , SI units = C m)
                  (au)            (Debye)         (10**-30 SI)
   Tot        0.312129D+01      0.793353D+01      0.264634D+02
   x          0.000000D+00      0.000000D+00      0.000000D+00
   y          0.000000D+00      0.000000D+00      0.000000D+00
   z          0.312129D+01      0.793353D+01      0.264634D+02

 Dipole polarizability, Alpha (dipole orientation).
 (esu units = cm**3 , SI units = C**2 m**2 J**-1)
 Alpha(0;0):
               (au)            (10**-24 esu)      (10**-40 SI)
   iso        0.130451D+03      0.193308D+02      0.215084D+02
   aniso      0.947189D+02      0.140359D+02      0.156170D+02
   xx         0.123660D+03      0.183245D+02      0.203888D+02
   yx         0.166618D+02      0.246903D+01      0.274716D+01
   yy         0.855087D+02      0.126711D+02      0.140985D+02
   zx        -0.184154D+02     -0.272887D+01     -0.303628D+01
   zy        -0.164778D+01     -0.244175D+00     -0.271682D+00
   zz         0.182184D+03      0.269968D+02      0.300380D+02

 First dipole hyperpolarizability, Beta (dipole orientation).
 ||, _|_  parallel and perpendicular components, (z) with respect to z axis,
 vector components x,y,z.  Values do not include the 1/n! factor of 1/2.
 (esu units = statvolt**-1 cm**4 , SI units = C**3 m**3 J**-2)
 Beta(0;0,0):
               (au)            (10**-30 esu)      (10**-50 SI)
   || (z)    -0.664741D+03     -0.574284D+01     -0.213140D+01
   _|_(z)    -0.221580D+03     -0.191428D+01     -0.710466D+00
   x          0.151045D+04      0.130491D+02      0.484304D+01
   y          0.393587D+03      0.340029D+01      0.126198D+01
   z         -0.332370D+04     -0.287142D+02     -0.106570D+02
   ||         0.734394D+03      0.634459D+01      0.235473D+01
   xxx       -0.137933D+03     -0.119164D+01     -0.442264D+00
   xxy        0.655024D+02      0.565890D+00      0.210024D+00
   yxy       -0.109442D+03     -0.945495D+00     -0.350911D+00
   yyy       -0.127968D+03     -0.110555D+01     -0.410313D+00
   xxz       -0.163718D+02     -0.141439D+00     -0.524938D-01
   yxz       -0.677171D+02     -0.585023D+00     -0.217125D+00
   yyz        0.268887D+03      0.232298D+01      0.862150D+00
   zxz        0.750858D+03      0.648683D+01      0.240752D+01
   zyz        0.193662D+03      0.167309D+01      0.620950D+00
   zzz       -0.136042D+04     -0.117529D+02     -0.436199D+01

 ----------------------------------------------------------------------
 Unable to Open any file for archive entry.
 1\1\GINC-NODE0062\Freq\RB3LYP\6-311+G(d,p)\C6H6N1O1(1-)\SVICCHI\14-Dec
 -2023\0\\#p freq=raman scale=0.967 guess=read geom=allcheck b3lyp/6-31
 1+G(d,p) int=grid=ultrafine EmpiricalDispersion=GD3BJ SCRF=(Solvent=et
 hanol) scf=(xqc,intrep,maxconventionalcycle=350) nosymm\\PyrCHOCH3-iso
 lated\\-1,1\C,-0.4531596885,0.6914945176,0.1424207252\C,-1.2913233032,
 -0.3458885479,-0.3454757609\C,-0.4372644802,-1.4008992927,-0.668310951
 \H,-2.3685914293,-0.3160922815,-0.4443440997\C,0.8761844582,-0.9554740
 646,-0.3612108021\N,0.8408754001,0.3386257962,0.1378406085\H,-0.762818
 6117,1.6713258313,0.489856426\C,2.0984900287,-1.6946336138,-0.51943685
 5\H,-0.7056266099,-2.3677537307,-1.0697037623\O,2.1350014901,-2.855377
 9946,-0.9762729493\C,3.4046540575,-1.0396227106,-0.1026278943\H,3.2706
 148477,0.000112981,0.1875801796\H,4.118397419,-1.110499289,-0.92787221
 45\H,3.8253664215,-1.5980376007,0.7397073497\\Version=ES64L-G16RevC.02
 \HF=-362.4747253\RMSD=9.666e-09\RMSF=1.261e-05\ZeroPoint=0.1023\Therma
 l=0.1096354\ETot=-362.3650899\HTot=-362.3641457\GTot=-362.4047666\Dipo
 le=-0.0788067,0.5562077,0.2402022\DipoleDeriv=-0.3569688,0.7511679,0.2
 741342,0.0225372,0.2314285,0.174224,-0.0084949,0.2511849,-0.1192122,-0
 .2416696,0.024112,0.0234986,0.6385768,-0.5393076,0.0024537,0.2636067,-
 0.0619104,-0.3680398,0.7265958,-0.525492,-0.0974092,-0.3516458,-0.0436
 39,0.0646527,-0.0321452,0.0465183,-0.28466,-0.2260568,0.0291006,-0.037
 4556,0.0141182,0.11646,-0.0479551,-0.0426746,-0.0464466,0.2217471,-1.6
 442535,1.1571033,0.2886101,0.8647222,-0.4484885,-0.0322677,0.1777793,0
 .0000559,-0.1138137,-0.367996,-0.6537413,-0.2525738,-0.8331159,-0.1845
 772,-0.003985,-0.3224254,0.0115692,-0.4257795,0.0375049,0.070995,0.011
 3295,0.1248527,-0.1662137,-0.1271447,0.0335313,-0.1335761,0.1470102,2.
 3832993,-0.8091707,-0.0605243,-1.4293666,2.3907014,0.7319713,-0.284174
 3,0.7801164,0.4644649,0.0895449,-0.0757103,-0.0445579,-0.0886113,-0.06
 5484,-0.126109,-0.0490942,-0.1229278,0.1839898,-1.0376905,0.2031189,0.
 0246317,1.1607882,-2.3000681,-0.5791386,0.3904634,-0.674073,-0.769129,
 -0.3995607,-0.2375191,-0.170173,-0.0742527,-0.0121924,-0.0648595,-0.15
 07345,-0.0787492,0.0760714,0.1119856,0.0156471,0.0029252,-0.0760166,-0
 .0741646,-0.0586417,-0.0196586,-0.0412079,0.0827684,-0.0682935,0.01353
 51,0.0907227,-0.0155551,0.0877314,-0.0390577,0.1646613,-0.0294158,-0.0
 556329,-0.0064411,0.0368538,-0.0531582,0.0429687,0.0078137,0.1058572,-
 0.1206403,0.0988622,-0.0397848\Polar=165.992712,-30.8824332,138.661163
 4,-2.6276218,20.1861227,86.6985989\PolarDeriv=18.8067608,-23.7630362,0
 .6570166,-6.3530838,-2.5309227,-4.0229135,11.8127478,-11.7172638,15.61
 51587,-1.3352681,-2.3564668,5.5762901,7.980714,-5.2368288,-2.1711522,-
 8.6534538,8.1774474,8.4084393,-8.5767651,1.3431717,-2.6381529,1.903246
 6,2.309094,-8.1098443,-16.4287053,24.4637591,-8.6333708,12.0633015,-3.
 4500996,3.3010169,-4.7287746,14.0130576,-6.3819504,-7.2023982,2.228097
 2,0.6956696,-12.7161728,18.3696674,-8.1656962,6.0484005,-1.5711799,2.8
 043271,-4.6466699,-7.1040909,-1.0581531,-0.238535,4.9721312,-6.3482293
 ,-2.0159931,1.8179509,3.6593073,-4.2867313,-3.2985543,-8.0961756,-20.3
 023097,1.7035737,-1.0435782,-1.7681269,-0.1448968,-0.1545019,1.4940297
 ,-1.8238847,0.3366651,-1.6712902,0.3568733,-0.0090562,-2.1240908,-1.54
 65724,0.8365591,2.094917,-0.8974141,-0.2348763,15.1547321,-15.0863496,
 11.9251496,-4.39386,4.1702294,-1.466327,-7.1568804,6.1189048,-3.047837
 5,-0.6283975,-1.7978015,3.6293312,-2.0731744,-1.0775871,1.4572126,3.92
 92412,-1.2444818,1.4221027,-5.8536528,14.0380804,7.2003524,4.1672785,2
 .4314256,5.1958623,14.5392823,-5.9147674,3.3968986,-1.6472856,0.418779
 3,-3.3283436,4.4698779,-2.2817655,-0.5186588,2.4697969,3.1420274,2.499
 4741,-3.0526169,4.0204128,-4.2592306,1.0703772,-0.9829448,-0.3273375,2
 .6051593,-5.477406,13.6017457,-2.6009333,5.5803951,1.972336,0.2861679,
 -2.2559652,6.5300185,1.0919849,0.2063708,-0.4771715,6.5191109,3.321066
 2,-2.929998,0.2539369,-3.7119637,7.6594582,28.5930854,-33.2052357,23.3
 725878,-11.4055409,10.2662438,-5.2843659,8.594583,-14.0548677,10.80423
 36,2.5851775,-0.2513022,-3.2028638,-1.38278,-2.3296668,-2.8416418,-1.1
 31318,-1.3917672,-0.7910955,-1.8763867,-4.4700629,-9.4915419,-2.310410
 7,-4.3833447,-2.2399743,-1.0788678,-2.4336304,-4.5520842,-0.0354896,-1
 .1972025,-0.1510404,3.7715315,-5.3004019,-0.3821025,-1.5841985,0.59564
 58,-1.6171532,-33.0095832,33.7764258,-34.46758,8.6680905,-9.3379,1.803
 1092,-12.1766907,12.4108538,-9.3070259,4.719206,-8.2129098,-3.4813564,
 -12.4780535,8.9311241,-0.4998722,4.3094053,1.9775663,-5.0332264,8.0605
 561,-0.0129123,-5.6850028,3.7014825,-4.5982222,3.4052012,4.7382657,3.2
 735313,-3.9930555,-9.2506129,3.5135646,0.0438841,-0.9377167,0.7934108,
 0.4238044,-0.1505343,-0.0956236,0.4702578,4.7605514,1.0248881,8.945558
 1,0.3825676,2.1510585,1.5675244,1.2136819,-0.0894242,1.8382977,1.09206
 98,1.4427146,1.3162637,12.3567524,-2.1956035,1.1537288,-4.6300863,-0.0
 053149,3.005794,-2.4680789,1.5206758,0.187872,-0.496504,-0.900672,-1.0
 424691,-9.4219985,0.6713411,-1.4395583,6.0183741,-0.8800466,-5.6125526
 ,8.6911797,-3.845449,1.4002207,2.2585629,-1.0493475,2.3866999,-6.27910
 76,2.8209699,-3.0729998,-2.4812768,3.0790257,-3.0023705,6.3362993,-3.2
 100934,3.2378565,5.4279185,-2.7283106,6.8702029\HyperPolar=961.101244,
 -842.5003979,376.2892127,146.5708257,-161.8725103,160.0010564,-2.02283
 78,-254.8914129,132.7711013,67.9773859\Quadrupole=2.4118332,-7.4601303
 ,5.0482971,8.0754667,3.0719735,-5.1805958\PG=C01 [X(C6H6N1O1)]\NImag=0
 \\0.58034813,-0.09630246,0.70387997,0.00881566,0.21268814,0.21272739,-
 0.15433363,-0.08796673,-0.04374416,0.80424609,-0.05675349,-0.19367136,
 -0.05689754,-0.04547203,0.47804686,-0.03164657,-0.06018417,-0.08886230
 ,0.05349836,0.13798637,0.17130991,0.03230449,0.02245865,0.01069329,-0.
 19228276,0.09218725,0.02202393,0.54219316,-0.02498072,-0.06419013,-0.0
 3254498,0.12309440,-0.22712070,-0.05277421,0.02584828,0.71588618,-0.00
 771472,-0.02750335,0.00140626,0.03402292,-0.05605692,-0.07821461,0.053
 16318,0.23480724,0.21507665,-0.00650248,0.00717870,0.00240190,-0.33705
 074,0.00856740,-0.02860840,-0.00721160,-0.00583386,-0.00298999,0.35589
 754,-0.01891098,0.00877890,0.00256341,0.00811018,-0.05373126,-0.010364
 24,0.02136508,0.00685001,0.00497345,-0.00950157,0.04357845,-0.00770499
 ,0.00524277,-0.00159843,-0.02885566,-0.01026746,-0.03199634,0.00765847
 ,0.00215482,0.00131084,0.03067469,0.00811314,0.02664400,-0.07122580,0.
 04085318,0.00755958,-0.06668354,0.06839604,0.01861407,-0.22758550,-0.0
 6965838,-0.04328055,-0.00247707,0.00314372,0.00030192,0.69269167,0.073
 95932,-0.05667178,-0.01833982,0.00783517,-0.00478577,-0.00511964,-0.06
 102054,-0.10080369,-0.02017208,0.00165784,-0.00419607,-0.00383030,-0.0
 8330479,0.53428048,0.02048361,-0.02180597,0.00365607,-0.00478062,0.001
 16491,0.01034321,-0.04018429,-0.02098694,-0.07766324,-0.00023049,-0.00
 366526,0.00458403,0.02603277,0.14751264,0.19362652,-0.32236929,0.05035
 937,-0.00627725,-0.07348964,-0.05031021,-0.02905798,-0.03021920,-0.007
 73490,-0.00762565,-0.00253966,-0.00476900,-0.00274058,-0.07116754,-0.0
 0377751,-0.00184683,0.52995705,0.06670793,-0.10975700,-0.00865091,-0.0
 0052697,0.01245075,-0.00307544,-0.03566425,-0.05343521,-0.03026368,-0.
 00138092,-0.00218620,-0.00340614,-0.04735972,-0.21485014,-0.06139536,-
 0.03058397,0.39888524,-0.00002792,-0.01034872,-0.07324434,-0.00970529,
 -0.00809274,0.01615040,-0.01836338,-0.02738997,0.00236681,-0.00143784,
 -0.00375507,0.00464616,-0.01872960,-0.05689098,-0.09411470,0.03132982,
 0.11074302,0.15188725,-0.07386904,0.06018583,0.01852045,0.01070820,-0.
 01434595,-0.00450936,-0.00263161,-0.00293999,-0.00176945,-0.00007244,0
 .00092967,0.00052890,-0.00617433,0.00133032,-0.00094387,-0.00811405,0.
 03095814,0.01185839,0.07845031,0.06361277,-0.27864103,-0.09078114,0.01
 004506,-0.00883851,-0.00259333,-0.00257469,-0.00206291,-0.00242551,-0.
 00065811,-0.00023500,0.00051415,0.00245270,0.00159745,-0.00219315,0.00
 385668,-0.00482483,0.00118173,-0.07724462,0.29347547,0.01987797,-0.091
 07454,-0.06030049,0.00493196,-0.00512790,-0.00091037,-0.00164796,-0.00
 246636,0.00240217,-0.00008461,0.00067755,-0.00148297,-0.00044823,-0.00
 234138,0.00697050,0.00133374,0.00394999,-0.00518771,-0.02408911,0.0972
 5944,0.05672258,0.02680985,-0.00404216,0.00053595,-0.00049444,-0.02321
 929,-0.00941063,-0.04466336,0.02302493,0.00433956,0.00053812,0.0005836
 8,0.00017178,-0.22587860,0.05647740,0.00458269,-0.01062047,0.02360895,
 0.00990207,0.00152094,-0.00092681,-0.00049607,0.53569745,-0.02943662,-
 0.00787952,-0.00822952,-0.00891715,0.02418478,0.00740051,0.02189623,0.
 00300778,0.00439012,-0.00158228,0.00152174,-0.00022063,0.02526840,-0.1
 0614434,-0.01420955,0.04408582,-0.04065323,-0.00588707,0.00078137,0.00
 107485,-0.00050356,-0.03363597,0.69414408,-0.00885154,-0.00553275,0.00
 235805,-0.00376892,0.00558921,0.00465971,0.00384017,0.00437700,-0.0000
 4334,-0.00071818,0.00000578,0.00159193,-0.00746290,-0.01087567,-0.0676
 4494,0.01729607,-0.00780295,-0.01487667,0.00019923,-0.00072524,0.00241
 494,0.02161461,0.18488990,0.29659441,-0.00388595,0.00363953,0.00054350
 ,0.01095777,0.01619911,0.00731133,-0.07465568,-0.06367528,-0.02945854,
 0.00023510,-0.00137731,-0.00018194,0.00559985,-0.02123286,-0.00750303,
 -0.00491098,-0.00430267,-0.00274731,0.00101914,0.00071769,0.00027619,0
 .00047990,-0.00071542,-0.00003778,0.06489218,0.00138545,-0.00221903,-0
 .00252482,-0.01023516,-0.00845275,-0.00462535,-0.06343190,-0.28229086,
 -0.10543860,0.00026932,0.00001616,0.00130164,0.00152649,-0.00201230,-0
 .00015404,0.00015791,-0.00020364,-0.00223250,-0.00061460,-0.00033751,-
 0.00060702,0.00068091,-0.00265503,-0.00020697,0.06974973,0.29687902,-0
 .00028872,-0.00227982,0.00374353,-0.00292008,-0.00199816,-0.00025244,-
 0.02950764,-0.10544618,-0.07016445,0.00046385,0.00113585,-0.00278082,0
 .00122035,-0.00246098,-0.00204505,-0.00103270,-0.00266673,0.00447360,-
 0.00024684,-0.00046968,0.00085268,0.00052055,-0.00041674,-0.00206597,0
 .03160680,0.11392065,0.06814254,-0.00414274,0.00383379,0.00121387,0.00
 074405,0.00327079,0.00127787,0.00346315,-0.00098850,0.00025598,-0.0003
 2800,0.00000579,-0.00004769,0.00420411,0.04233428,0.01530721,-0.003345
 19,-0.00092499,-0.00165212,-0.00077054,0.00050282,0.00027141,-0.097127
 79,0.00909904,0.00087654,0.00029895,0.00071906,0.00023306,0.09271203,0
 .02155056,-0.00092213,0.00252080,0.00258467,-0.01884867,-0.00726612,-0
 .02354422,0.00545958,-0.00014394,0.00099169,-0.00015194,0.00002144,0.0
 5082634,-0.05708186,-0.02361326,-0.00602659,0.01696018,0.00265921,0.00
 096320,-0.00108435,0.00019998,-0.01106158,-0.47046544,-0.16045216,0.00
 089569,0.00105888,0.00050589,-0.01495481,0.56142607,0.00797870,0.00057
 353,-0.00044637,0.00098394,-0.00712570,-0.00205978,-0.00844952,0.00247
 508,-0.00103308,0.00034735,-0.00009641,0.00009608,0.01846272,-0.024446
 36,0.00871851,-0.00344077,0.00322867,0.00910349,0.00044081,0.00016861,
 -0.00129526,-0.00677823,-0.15816127,-0.13364600,0.00014961,0.00044953,
 0.00020386,0.00078004,0.21028715,0.11283686,-0.00055932,-0.00051127,-0
 .00028380,-0.00187160,-0.00016708,-0.00010706,0.00004135,0.00285348,0.
 00043171,-0.00032439,0.00019448,0.00017390,-0.02483717,-0.01000691,-0.
 00893828,-0.00298777,0.00068737,0.00021097,-0.00004235,0.00015642,0.00
 005908,-0.16429805,-0.01898626,-0.01727950,-0.00008407,-0.00012765,-0.
 00004551,0.00630713,-0.01946219,-0.00824771,0.47026381,0.00015388,0.00
 031733,0.00000850,0.00088997,-0.00015865,0.00027962,0.00156103,-0.0013
 8352,-0.00228015,0.00015224,-0.00038953,0.00026681,0.01156509,0.012236
 05,0.00026508,-0.00141871,0.00045105,0.00019578,-0.00001030,-0.0000636
 7,0.00001531,-0.02714984,-0.08955902,-0.00642151,-0.00000188,0.0002159
 2,0.00017996,-0.03836383,-0.03524739,-0.02514339,-0.04381724,0.5708025
 9,-0.00057356,-0.00021467,0.00082486,0.00021028,0.00062691,-0.00038249
 ,0.00073587,-0.00246901,0.00453947,0.00017598,0.00036252,-0.00109596,-
 0.00080657,-0.00189356,0.01489375,0.00023586,-0.00016478,-0.00131697,0
 .00000695,0.00005067,-0.00013540,-0.01856347,-0.00540897,-0.08462939,-
 0.00000212,0.00011224,-0.00007807,-0.01571535,-0.02222193,0.00370627,-
 0.02902921,0.01361477,0.52146780,-0.00116356,0.00059884,0.00023110,0.0
 0046827,0.00069355,0.00036761,0.00102189,-0.00009506,0.00001988,0.0000
 8423,0.00005550,0.00001975,-0.00123311,0.00059005,-0.00013842,-0.00092
 958,-0.00004708,-0.00019809,0.00005464,-0.00006671,-0.00003518,0.01357
 193,-0.02574073,-0.00479218,0.00008399,0.00007976,0.00005838,-0.007536
 59,-0.00567045,-0.00406004,-0.05230788,0.03585685,0.01108621,0.0522725
 2,-0.00037614,0.00045633,0.00008414,0.00035452,0.00044820,0.00014535,0
 .00045410,-0.00011412,-0.00002330,0.00008031,0.00004995,0.00005784,-0.
 00129413,-0.00020059,-0.00034578,0.00373119,-0.00201802,0.00002883,-0.
 00000665,-0.00002511,0.00002286,0.00636145,-0.01172789,-0.00167538,0.0
 0004622,0.00000113,-0.00000254,-0.00420549,-0.00159237,-0.00203118,0.0
 2919862,-0.29660064,-0.06918224,-0.03561101,0.32230665,-0.00018186,0.0
 0023907,-0.00015754,0.00013820,0.00016056,0.00010924,0.00018075,-0.000
 09120,0.00004194,0.00003117,0.00000609,0.00003734,-0.00036131,0.000075
 32,-0.00005742,0.00125672,-0.00025444,-0.00024838,0.00000431,-0.000006
 59,-0.00000901,0.00394377,-0.00715194,-0.00491117,0.00002172,0.0000108
 5,-0.00000055,-0.00312711,-0.00242655,0.00135089,0.00907282,-0.0688732
 5,-0.06695533,-0.00984995,0.07661635,0.06807774,-0.00060716,-0.0001126
 0,-0.00018893,-0.00053445,0.00036519,0.00018924,0.00012810,0.00110620,
 -0.00080634,-0.00016188,0.00000120,0.00024221,-0.00249484,-0.00220638,
 -0.00275427,0.00030471,-0.00065689,0.00001973,-0.00004655,0.00005521,0
 .00005961,-0.02197105,0.00246704,0.02297786,-0.00001876,-0.00009273,-0
 .00001588,0.00351212,0.00240615,-0.00152289,-0.15190176,0.00913860,0.1
 3246807,-0.00226491,0.00006043,0.00110730,0.16755715,-0.00050623,0.000
 12078,0.00045659,0.00004357,0.00029543,0.00034418,0.00041238,0.0003160
 4,-0.00037867,0.00002931,0.00006702,0.00000968,-0.00143073,-0.00054313
 ,-0.00125453,0.00150963,-0.00062022,-0.00027662,0.00000931,0.00000605,
 -0.00005095,-0.00686877,-0.00085132,0.01172265,0.00002654,-0.00001859,
 0.00002491,0.00024258,0.00065622,-0.00143995,0.01005523,-0.04734958,-0
 .01534537,0.01907425,0.00184424,-0.02273663,-0.01121428,0.04526231,0.0
 0018697,0.00015272,0.00014387,0.00008390,-0.00027260,0.00002928,-0.000
 32286,0.00031730,-0.00031386,0.00000690,0.00001326,0.00004559,-0.00043
 280,-0.00028807,-0.00104801,0.00020241,0.00008333,0.00022455,0.0000116
 7,-0.00000890,-0.00003839,-0.00833066,-0.00116039,0.00706371,0.0000222
 8,0.00001207,0.00000728,0.00029290,0.00124323,0.00066629,0.13108661,-0
 .01485104,-0.19349229,0.00320051,0.00036226,-0.00543950,-0.14224456,0.
 01630104,0.21113801,-0.00080350,-0.00017267,-0.00002116,-0.00038360,0.
 00058873,0.00005760,0.00009757,-0.00002062,0.00141201,-0.00008674,0.00
 016955,-0.00024076,-0.00273813,-0.00263539,0.00091381,0.00043159,-0.00
 051493,-0.00045943,-0.00003231,0.00007159,-0.00000881,-0.01356443,0.01
 541651,-0.02389347,-0.00001145,-0.00006660,-0.00004562,0.00200931,0.00
 050154,0.00335599,-0.07739792,0.05144413,-0.08022894,-0.00212183,0.001
 20658,-0.00223652,0.00849929,-0.01138279,0.01623671,0.08610217,-0.0001
 0328,0.00039866,-0.00035286,0.00016051,0.00018165,-0.00015353,0.000052
 59,-0.00011844,0.00051540,0.00002992,0.00002777,0.00004223,-0.00098421
 ,-0.00082431,0.00068121,0.00092029,-0.00019872,0.00006511,0.00000427,-
 0.00004089,0.00004657,-0.00383290,0.00600257,-0.01289190,0.00003091,0.
 00001860,-0.00002644,-0.00057053,-0.00016678,0.00126167,0.04993300,-0.
 11327095,0.10213342,0.01028221,-0.01282776,0.02443237,-0.00131714,0.00
 081476,-0.00190421,-0.05460565,0.12000386,-0.00035303,0.00004776,-0.00
 025057,-0.00009484,0.00031105,0.00007658,0.00017999,0.00003740,0.00028
 843,-0.00003234,0.00002992,-0.00000146,-0.00066943,-0.00092913,-0.0002
 1925,0.00036713,-0.00032458,0.00013649,-0.00001207,0.00002896,-0.00000
 328,-0.00203193,0.00466910,-0.00686529,-0.00000071,-0.00001769,-0.0000
 3616,0.00003337,-0.00131373,0.00179824,-0.07710401,0.10274351,-0.19734
 626,0.00409042,-0.00405721,0.00816175,-0.00953115,0.01262367,-0.018986
 55,0.08515860,-0.11384903,0.21324733\\0.00000987,0.00001298,-0.0000145
 1,0.00000377,0.00001624,-0.00002090,0.00000104,0.00000958,-0.00001067,
 0.00000712,0.00000779,-0.00001082,-0.00000361,0.00000091,-0.00000143,-
 0.00000031,0.00000855,-0.00000138,0.00000176,0.00000822,-0.00000661,0.
 00000296,-0.00001566,0.00000957,-0.00000240,0.00000326,-0.00000545,-0.
 00001483,-0.00000489,0.00001984,0.00001428,-0.00003783,0.00002439,0.00
 000848,-0.00000381,0.00000581,-0.00000602,-0.00001272,0.00002409,-0.00
 002211,0.00000737,-0.00001191\\\@
 The archive entry for this job was punched.


 ...THE PHYSICISTS HAVE MADE THEIR UNIVERSE, AND IF YOU DO NOT LIKE
 IT, YOU MUST MAKE YOUR OWN.
                               -- E. R. HARRISON IN "COSMOLOGY" (1980)
 Job cpu time:       0 days  0 hours 19 minutes 38.0 seconds.
 Elapsed time:       0 days  0 hours  1 minutes 43.6 seconds.
 File lengths (MBytes):  RWF=    131 Int=      0 D2E=      0 Chk=     16 Scr=      1
 Normal termination of Gaussian 16 at Thu Dec 14 12:30:11 2023.
