 Entering Gaussian System, Link 0=g16
 Input=3ethyl5hydroxymethylthiazolium-CO2_binding-site_index-1-freq.gjf
 Output=3ethyl5hydroxymethylthiazolium-CO2_binding-site_index-1-freq.log
 Initial command:
 /software/commercial/gaussian/g16/AVX/g16/l1.exe "/scratch1/svicchi/G09-659745.pbs02/Gau-2809247.inp" -scrdir="/scratch1/svicchi/G09-659745.pbs02/"
 Entering Link 1 = /software/commercial/gaussian/g16/AVX/g16/l1.exe PID=   2809248.
  
 Copyright (c) 1988-2019, Gaussian, Inc.  All Rights Reserved.
  
 This is part of the Gaussian(R) 16 program.  It is based on
 the Gaussian(R) 09 system (copyright 2009, Gaussian, Inc.),
 the Gaussian(R) 03 system (copyright 2003, Gaussian, Inc.),
 the Gaussian(R) 98 system (copyright 1998, Gaussian, Inc.),
 the Gaussian(R) 94 system (copyright 1995, Gaussian, Inc.),
 the Gaussian 92(TM) system (copyright 1992, Gaussian, Inc.),
 the Gaussian 90(TM) system (copyright 1990, Gaussian, Inc.),
 the Gaussian 88(TM) system (copyright 1988, Gaussian, Inc.),
 the Gaussian 86(TM) system (copyright 1986, Carnegie Mellon
 University), and the Gaussian 82(TM) system (copyright 1983,
 Carnegie Mellon University). Gaussian is a federally registered
 trademark of Gaussian, Inc.
  
 This software contains proprietary and confidential information,
 including trade secrets, belonging to Gaussian, Inc.
  
 This software is provided under written license and may be
 used, copied, transmitted, or stored only in accord with that
 written license.
  
 The following legend is applicable only to US Government
 contracts under FAR:
  
                    RESTRICTED RIGHTS LEGEND
  
 Use, reproduction and disclosure by the US Government is
 subject to restrictions as set forth in subparagraphs (a)
 and (c) of the Commercial Computer Software - Restricted
 Rights clause in FAR 52.227-19.
  
 Gaussian, Inc.
 340 Quinnipiac St., Bldg. 40, Wallingford CT 06492
  
  
 ---------------------------------------------------------------
 Warning -- This program may not be used in any manner that
 competes with the business of Gaussian, Inc. or will provide
 assistance to any competitor of Gaussian, Inc.  The licensee
 of this program is prohibited from giving any competitor of
 Gaussian, Inc. access to this program.  By using this program,
 the user acknowledges that Gaussian, Inc. is engaged in the
 business of creating and licensing software in the field of
 computational chemistry and represents and warrants to the
 licensee that it is not a competitor of Gaussian, Inc. and that
 it will not use this program in any manner prohibited above.
 ---------------------------------------------------------------
  

 Cite this work as:
 Gaussian 16, Revision C.01,
 M. J. Frisch, G. W. Trucks, H. B. Schlegel, G. E. Scuseria, 
 M. A. Robb, J. R. Cheeseman, G. Scalmani, V. Barone, 
 G. A. Petersson, H. Nakatsuji, X. Li, M. Caricato, A. V. Marenich, 
 J. Bloino, B. G. Janesko, R. Gomperts, B. Mennucci, H. P. Hratchian, 
 J. V. Ortiz, A. F. Izmaylov, J. L. Sonnenberg, D. Williams-Young, 
 F. Ding, F. Lipparini, F. Egidi, J. Goings, B. Peng, A. Petrone, 
 T. Henderson, D. Ranasinghe, V. G. Zakrzewski, J. Gao, N. Rega, 
 G. Zheng, W. Liang, M. Hada, M. Ehara, K. Toyota, R. Fukuda, 
 J. Hasegawa, M. Ishida, T. Nakajima, Y. Honda, O. Kitao, H. Nakai, 
 T. Vreven, K. Throssell, J. A. Montgomery, Jr., J. E. Peralta, 
 F. Ogliaro, M. J. Bearpark, J. J. Heyd, E. N. Brothers, K. N. Kudin, 
 V. N. Staroverov, T. A. Keith, R. Kobayashi, J. Normand, 
 K. Raghavachari, A. P. Rendell, J. C. Burant, S. S. Iyengar, 
 J. Tomasi, M. Cossi, J. M. Millam, M. Klene, C. Adamo, R. Cammi, 
 J. W. Ochterski, R. L. Martin, K. Morokuma, O. Farkas, 
 J. B. Foresman, and D. J. Fox, Gaussian, Inc., Wallingford CT, 2019.
 
 ******************************************
 Gaussian 16:  ES64L-G16RevC.01  3-Jul-2019
                 2-Jun-2023 
 ******************************************
 %NProcShared=2
 Will use up to    2 processors via shared memory.
 %mem=55gb
 %chk=/scratch1/svicchi/G09-659745.pbs02/02-freq/3ethyl5hydroxymethylthiazolium-C
 O2_binding-site_index-1-freq.chk
 ----------------------------------------------------------------------
 #p freq=raman scale=0.967 pop=(nbo,full,hirshfeld) guess=read geom=all
 check b3lyp/6-311+G(d,p) int=grid=ultrafine EmpiricalDispersion=GD3BJ 
 SCRF=(Solvent=ethanol) scf=(xqc,intrep,maxconventionalcycle=350) nosym
 m
 ----------------------------------------------------------------------
 1/10=4,29=7,30=1,38=1,114=967000/1,3;
 2/12=2,15=1,40=1/2;
 3/5=4,6=6,7=111,11=2,14=-4,25=1,30=1,70=2201,71=2,72=4,74=-5,75=-5,116=-2,124=41,140=1/1,2,3;
 4/5=1/1;
 5/5=2,8=3,13=1,17=20,38=6,53=4,85=350,98=1/2,8;
 8/6=4,10=90,11=11/1;
 10/13=10,15=4,31=1/2;
 11/6=3,8=1,9=11,15=111,16=1,31=1/1,2,10;
 10/6=1,31=1/2;
 6/7=3,28=1,40=1,79=1/1,7;
 7/8=1,10=1,25=1,30=1/1,2,3,16;
 1/10=4,30=1/3;
 99//99;
 Leave Link    1 at Fri Jun  2 14:46:02 2023, MaxMem=  7381975040 cpu:               5.1 elap:               5.3
 (Enter /software/commercial/gaussian/g16/AVX/g16/l101.exe)
 Structure from the checkpoint file:  "/scratch1/svicchi/G09-659745.pbs02/02-freq/3ethyl5hydroxymethylthiazolium-CO2_binding-site_index-1-freq.chk"
 -----------------------------------------------------------
 3ethyl5hydroxymethylthiazolium-CO2_binding-site_index-1.gjf
 -----------------------------------------------------------
 Charge =  0 Multiplicity = 1
 No Z-Matrix found in chk file; cartesian coordinates used.
  N                                                -0.163719048396      0.050873909509     -0.032306758956
  C                                                 0.985736645362     -0.609031186519      0.075426106454
  C                                                -0.559124490805      0.300101833468     -1.337543389346
  C                                                 0.313577098955     -0.172979854761     -2.259736527723
  S                                                 1.650071696360     -0.952805823616     -1.464846204816
  C                                                -1.034411169671      0.455826469683      1.104486025287
  C                                                -2.043923351382     -0.636805727900      1.431473672912
  H                                                -2.685525050090     -0.294062108478      2.245671605214
  H                                                -2.674897350589     -0.868723768849      0.570898149608
  H                                                -1.532985520979     -1.545032171545      1.754301989953
  H                                                -1.523631878549      1.376939362318      0.790818331982
  H                                                -0.381171575151      0.651984067211      1.947419982846
  H                                                -1.479083581502      0.828260170760     -1.525091129990
  C                                                 0.202228001058     -0.067630902880     -3.748270239156
  O                                                -1.023310255103      0.589830482292     -4.041263562252
  H                                                 0.230484486756     -1.070662204372     -4.189972798643
  H                                                 1.057846137209      0.494875886321     -4.139738164017
  H                                                -1.090140410642      0.697124326428     -4.996040568094
  C                                                 1.745179304864     -1.069467188576      1.337331445381
  O                                                 1.251405826825     -0.755814373899      2.433952212881
  O                                                 2.780085485471     -1.707833196594      1.058896820476
 Recover connectivity data from disk.
 ITRead=  0  0  0  0  0  0  0  0  0  0  0  0  0  0  0  0  0  0  0  0
 ITRead=  0
 MicOpt= -1 -1 -1 -1 -1 -1 -1 -1 -1 -1 -1 -1 -1 -1 -1 -1 -1 -1 -1 -1
 MicOpt= -1
 NAtoms=     21 NQM=       21 NQMF=       0 NMMI=      0 NMMIF=      0
                NMic=       0 NMicF=      0.
                    Isotopes and Nuclear Properties:
 (Nuclear quadrupole moments (NQMom) in fm**2, nuclear magnetic moments (NMagM)
  in nuclear magnetons)

  Atom         1           2           3           4           5           6           7           8           9          10
 IAtWgt=          14          12          12          12          32          12          12           1           1           1
 AtmWgt=  14.0030740  12.0000000  12.0000000  12.0000000  31.9720718  12.0000000  12.0000000   1.0078250   1.0078250   1.0078250
 NucSpn=           2           0           0           0           0           0           0           1           1           1
 AtZEff=   4.5500000   3.6000000   3.6000000   3.6000000  13.6000000   3.6000000   3.6000000   1.0000000   1.0000000   1.0000000
 NQMom=    2.0440000   0.0000000   0.0000000   0.0000000   0.0000000   0.0000000   0.0000000   0.0000000   0.0000000   0.0000000
 NMagM=    0.4037610   0.0000000   0.0000000   0.0000000   0.0000000   0.0000000   0.0000000   2.7928460   2.7928460   2.7928460
 AtZNuc=   7.0000000   6.0000000   6.0000000   6.0000000  16.0000000   6.0000000   6.0000000   1.0000000   1.0000000   1.0000000

  Atom        11          12          13          14          15          16          17          18          19          20
 IAtWgt=           1           1           1          12          16           1           1           1          12          16
 AtmWgt=   1.0078250   1.0078250   1.0078250  12.0000000  15.9949146   1.0078250   1.0078250   1.0078250  12.0000000  15.9949146
 NucSpn=           1           1           1           0           0           1           1           1           0           0
 AtZEff=   1.0000000   1.0000000   1.0000000   3.6000000   5.6000000   1.0000000   1.0000000   1.0000000   3.6000000   5.6000000
 NQMom=    0.0000000   0.0000000   0.0000000   0.0000000   0.0000000   0.0000000   0.0000000   0.0000000   0.0000000   0.0000000
 NMagM=    2.7928460   2.7928460   2.7928460   0.0000000   0.0000000   2.7928460   2.7928460   2.7928460   0.0000000   0.0000000
 AtZNuc=   1.0000000   1.0000000   1.0000000   6.0000000   8.0000000   1.0000000   1.0000000   1.0000000   6.0000000   8.0000000

  Atom        21
 IAtWgt=          16
 AtmWgt=  15.9949146
 NucSpn=           0
 AtZEff=   5.6000000
 NQMom=    0.0000000
 NMagM=    0.0000000
 AtZNuc=   8.0000000
 Leave Link  101 at Fri Jun  2 14:46:09 2023, MaxMem=  7381975040 cpu:               0.6 elap:               4.3
 (Enter /software/commercial/gaussian/g16/AVX/g16/l103.exe)

 GradGradGradGradGradGradGradGradGradGradGradGradGradGradGradGradGradGrad
 Berny optimization.
 Initialization pass.
 Trust Radius=3.00D-01 FncErr=1.00D-07 GrdErr=1.00D-07 EigMax=2.50D+02 EigMin=1.00D-04
 Number of steps in this run=      2 maximum allowed number of steps=      2.
 GradGradGradGradGradGradGradGradGradGradGradGradGradGradGradGradGradGrad

 Leave Link  103 at Fri Jun  2 14:46:13 2023, MaxMem=  7381975040 cpu:               0.1 elap:               2.1
 (Enter /software/commercial/gaussian/g16/AVX/g16/l202.exe)
                          Input orientation:                          
 ---------------------------------------------------------------------
 Center     Atomic      Atomic             Coordinates (Angstroms)
 Number     Number       Type             X           Y           Z
 ---------------------------------------------------------------------
      1          7           0       -0.163719    0.050874   -0.032307
      2          6           0        0.985737   -0.609031    0.075426
      3          6           0       -0.559124    0.300102   -1.337543
      4          6           0        0.313577   -0.172980   -2.259737
      5         16           0        1.650072   -0.952806   -1.464846
      6          6           0       -1.034411    0.455826    1.104486
      7          6           0       -2.043923   -0.636806    1.431474
      8          1           0       -2.685525   -0.294062    2.245672
      9          1           0       -2.674897   -0.868724    0.570898
     10          1           0       -1.532986   -1.545032    1.754302
     11          1           0       -1.523632    1.376939    0.790818
     12          1           0       -0.381172    0.651984    1.947420
     13          1           0       -1.479084    0.828260   -1.525091
     14          6           0        0.202228   -0.067631   -3.748270
     15          8           0       -1.023310    0.589830   -4.041264
     16          1           0        0.230484   -1.070662   -4.189973
     17          1           0        1.057846    0.494876   -4.139738
     18          1           0       -1.090140    0.697124   -4.996041
     19          6           0        1.745179   -1.069467    1.337331
     20          8           0        1.251406   -0.755814    2.433952
     21          8           0        2.780085   -1.707833    1.058897
 ---------------------------------------------------------------------
                    Distance matrix (angstroms):
                    1          2          3          4          5
     1  N    0.000000
     2  C    1.329786   0.000000
     3  C    1.386399   2.282455   0.000000
     4  C    2.288966   2.468790   1.354937   0.000000
     5  S    2.519797   1.712297   2.542938   1.739597   0.000000
     6  C    1.488082   2.504772   2.492720   3.678378   3.973935
     7  C    2.480065   3.319409   3.278701   4.404313   4.704692
     8  H    3.415797   4.276369   4.208805   5.413684   5.744500
     9  H    2.741447   3.703130   3.079740   4.174630   4.780866
    10  H    2.759307   3.168388   3.729937   4.626535   4.565687
    11  H    2.070108   3.279146   2.572893   3.883745   4.537414
    12  H    2.080369   2.638742   3.308545   4.343202   4.283090
    13  H    2.136099   3.271514   1.077242   2.180784   3.601033
    14  C    3.735819   3.940514   2.554699   1.496406   2.844962
    15  O    4.135348   4.735047   2.758535   2.354355   4.020525
    16  H    4.324283   4.356276   3.261722   2.130387   3.074969
    17  H    4.308173   4.357915   3.241115   2.129407   3.098638
    18  H    5.090634   5.633390   3.718092   3.196070   4.764490
    19  C    2.602876   1.543101   3.786884   3.973924   2.806217
    20  O    2.955632   2.377976   4.314760   4.821818   3.924076
    21  O    3.598578   2.322556   4.574391   4.410529   2.866405
                    6          7          8          9         10
     6  C    0.000000
     7  C    1.523116   0.000000
     8  H    2.142619   1.091808   0.000000
     9  H    2.174935   1.092018   1.770654   0.000000
    10  H    2.162007   1.090940   1.770513   1.778145   0.000000
    11  H    1.089116   2.176307   2.501767   2.533136   3.076736
    12  H    1.084314   2.166085   2.508785   3.077100   2.488142
    13  H    2.692790   3.347647   4.115065   2.950067   4.048437
    14  C    5.035129   5.674408   6.657156   5.251173   5.955836
    15  O    5.147506   5.700626   6.562757   5.111473   6.197256
    16  H    5.653443   6.079624   7.108005   5.581032   6.218461
    17  H    5.646322   6.476116   7.443703   6.163025   6.753765
    18  H    6.105551   6.633401   7.481317   5.996177   7.126746
    19  C    3.179129   3.814886   4.588843   4.490523   3.338621
    20  O    2.908696   3.446494   3.968386   4.347364   2.972814
    21  O    4.385645   4.955499   5.768889   5.540676   4.371804
                   11         12         13         14         15
    11  H    0.000000
    12  H    1.780029   0.000000
    13  H    2.380435   3.646206   0.000000
    14  C    5.066429   5.770536   2.927790   0.000000
    15  O    4.921268   6.023333   2.568210   1.421283   0.000000
    16  H    5.820306   6.403844   3.691900   1.096345   2.085989
    17  H    5.634931   6.256912   3.658352   1.096241   2.085648
    18  H    5.842756   6.979708   3.495134   1.952434   0.963108
    19  C    4.119309   2.803029   4.710701   5.408116   6.272726
    20  O    3.866440   2.209959   5.063486   6.308268   6.993820
    21  O    5.301855   4.043731   5.590106   5.696005   6.764371
                   16         17         18         19         20
    16  H    0.000000
    17  H    1.771429   0.000000
    18  H    2.349226   2.321208   0.000000
    19  C    5.731090   5.737411   7.160411   0.000000
    20  O    6.709530   6.694408   7.924561   1.242887   0.000000
    21  O    5.870016   5.902867   7.577911   1.247424   2.265828
                   21
    21  O    0.000000
 Symmetry turned off by external request.
 Stoichiometry    C7H9NO3S
 Framework group  C1[X(C7H9NO3S)]
 Deg. of freedom    57
 Full point group                 C1      NOp   1
 Rotational constants (GHZ):           1.2754517           0.5965626           0.4236562
 Leave Link  202 at Fri Jun  2 14:46:17 2023, MaxMem=  7381975040 cpu:               0.0 elap:               2.6
 (Enter /software/commercial/gaussian/g16/AVX/g16/l301.exe)
 Standard basis: 6-311+G(d,p) (5D, 7F)
 Ernie: Thresh=  0.10000D-02 Tol=  0.10000D-05 Strict=F.
   326 basis functions,   518 primitive gaussians,   338 cartesian basis functions
    49 alpha electrons       49 beta electrons
       nuclear repulsion energy       813.5499141017 Hartrees.
 IExCor=  402 DFT=T Ex+Corr=B3LYP ExCW=0 ScaHFX=  0.200000
 ScaDFX=  0.800000  0.720000  1.000000  0.810000 ScalE2=  1.000000  1.000000
 IRadAn=      5 IRanWt=     -1 IRanGd=            0 ICorTp=0 IEmpDi=141
 NAtoms=   21 NActive=   21 NUniq=   21 SFac= 1.00D+00 NAtFMM=   60 NAOKFM=F Big=F
 Integral buffers will be    131072 words long.
 Raffenetti 2 integral format.
 Two-electron integral symmetry is turned off.
 R6Disp:  Grimme-D3(BJ) Dispersion energy=       -0.0406840662 Hartrees.
 Nuclear repulsion after empirical dispersion term =      813.5092300355 Hartrees.
 Force inversion solution in PCM.
 ------------------------------------------------------------------------------
 Polarizable Continuum Model (PCM)
 =================================
 Model                : PCM.
 Atomic radii         : UFF (Universal Force Field).
 Polarization charges : Total charges.
 Charge compensation  : None.
 Solution method      : Matrix inversion.
 Cavity type          : Scaled VdW (van der Waals Surface) (Alpha=1.100).
 Cavity algorithm     : GePol (No added spheres)
                        Default sphere list used, NSphG=   21.
                        Lebedev-Laikov grids with approx.  5.0 points / Ang**2.
                        Smoothing algorithm: York/Karplus (Gamma=1.0000).
                        Polarization charges: spherical gaussians, with
                                              point-specific exponents (IZeta= 3).
                        Self-potential: point-specific (ISelfS= 7).
                        Self-field    : sphere-specific E.n sum rule (ISelfD= 2).
 1st derivatives      : Analytical E(r).r(x)/FMM algorithm (CHGder, D1EAlg=3).
                        Cavity 1st derivative terms included.
 2nd derivatives      : Analytical E(r).r(xy)/FMM algorithm (CHGder, D2EAlg=3).
                        Cavity 2nd derivative terms included.
 Solvent              : Ethanol, Eps=  24.852000 Eps(inf)=   1.852593
 ------------------------------------------------------------------------------
 GePol: Number of generator spheres                  =      21
 GePol: Total number of spheres                      =      21
 GePol: Number of exposed spheres                    =      21 (100.00%)
 GePol: Number of points                             =    1813
 GePol: Average weight of points                     =       0.13
 GePol: Minimum weight of points                     =   0.15D-10
 GePol: Maximum weight of points                     =    0.20577
 GePol: Number of points with low weight             =      92
 GePol: Fraction of low-weight points (<1% of avg)   =       5.07%
 GePol: Cavity surface area                          =    237.737 Ang**2
 GePol: Cavity volume                                =    243.040 Ang**3
 Leave Link  301 at Fri Jun  2 14:46:21 2023, MaxMem=  7381975040 cpu:               0.8 elap:               3.1
 (Enter /software/commercial/gaussian/g16/AVX/g16/l302.exe)
 NPDir=0 NMtPBC=     1 NCelOv=     1 NCel=       1 NClECP=     1 NCelD=      1
         NCelK=      1 NCelE2=     1 NClLst=     1 CellRange=     0.0.
 One-electron integrals computed using PRISM.
 NBasis=   326 RedAO= T EigKep=  3.94D-06  NBF=   326
 NBsUse=   326 1.00D-06 EigRej= -1.00D+00 NBFU=   326
 Precomputing XC quadrature grid using
 IXCGrd= 4 IRadAn=           5 IRanWt=          -1 IRanGd=           0 AccXCQ= 0.00D+00.
 Generated NRdTot=       0 NPtTot=           0 NUsed=           0 NTot=          32
 NSgBfM=   337   337   337   337   337 MxSgAt=    21 MxSgA2=    21.
 Leave Link  302 at Fri Jun  2 14:46:26 2023, MaxMem=  7381975040 cpu:               1.4 elap:               3.4
 (Enter /software/commercial/gaussian/g16/AVX/g16/l303.exe)
 DipDrv:  MaxL=1.
 Leave Link  303 at Fri Jun  2 14:46:27 2023, MaxMem=  7381975040 cpu:               0.2 elap:               0.6
 (Enter /software/commercial/gaussian/g16/AVX/g16/l401.exe)
 Initial guess from the checkpoint file:  "/scratch1/svicchi/G09-659745.pbs02/02-freq/3ethyl5hydroxymethylthiazolium-CO2_binding-site_index-1-freq.chk"
 B after Tr=     0.000000    0.000000    0.000000
         Rot=    1.000000    0.000000    0.000000    0.000000 Ang=   0.00 deg.
 Guess basis will be translated and rotated to current coordinates.
 JPrj=2 DoOrth=T DoCkMO=T.
 Leave Link  401 at Fri Jun  2 14:46:32 2023, MaxMem=  7381975040 cpu:               1.7 elap:               4.6
 (Enter /software/commercial/gaussian/g16/AVX/g16/l502.exe)
 Keep R1 ints in memory in canonical form, NReq=1440005423.
 FoFCou: FMM=F IPFlag=           0 FMFlag=           0 FMFlg1=           0
         NFxFlg=           0 DoJE=F BraDBF=F KetDBF=F FulRan=T
         wScrn=  0.000000 ICntrl=       600 IOpCl=  0 I1Cent=           0 NGrid=           0
         NMat0=    1 NMatS0=  53301 NMatT0=    0 NMatD0=    1 NMtDS0=    0 NMtDT0=    0
 Symmetry not used in FoFCou.
 Two-electron integral symmetry not used.
 Closed shell SCF:
 Using DIIS extrapolation, IDIIS=  1040.
 NGot=  7381975040 LenX=  5961216583 LenY=  5961101898
 Requested convergence on RMS density matrix=1.00D-08 within 350 cycles.
 Requested convergence on MAX density matrix=1.00D-06.
 Requested convergence on             energy=1.00D-06.
 No special actions if energy rises.

 Cycle   1  Pass 1  IDiag  1:
 Inv3:  Mode=1 IEnd=     9860907.
 Iteration    1 A*A^-1 deviation from unit magnitude is 3.89D-15 for   1791.
 Iteration    1 A*A^-1 deviation from orthogonality  is 2.00D-15 for   1808   1703.
 Iteration    1 A^-1*A deviation from unit magnitude is 3.89D-15 for   1791.
 Iteration    1 A^-1*A deviation from orthogonality  is 1.83D-15 for   1813   1663.
 E= -951.009229590860    
 DIIS: error= 1.76D-08 at cycle   1 NSaved=   1.
 NSaved= 1 IEnMin= 1 EnMin= -951.009229590860     IErMin= 1 ErrMin= 1.76D-08
 ErrMax= 1.76D-08  0.00D+00 EMaxC= 1.00D-01 BMatC= 1.67D-13 BMatP= 1.67D-13
 IDIUse=1 WtCom= 1.00D+00 WtEn= 0.00D+00
 Coeff-Com:  0.100D+01
 Coeff:      0.100D+01
 Gap=     0.174 Goal=   None    Shift=    0.000
 RMSDP=7.99D-09 MaxDP=4.57D-07              OVMax= 4.34D-07

 Error on total polarization charges =  0.01613
 SCF Done:  E(RB3LYP) =  -951.009229591     A.U. after    1 cycles
            NFock=  1  Conv=0.80D-08     -V/T= 2.0029
 KE= 9.482751381301D+02 PE=-3.865834878670D+03 EE= 1.153041280914D+03
 Leave Link  502 at Fri Jun  2 14:47:28 2023, MaxMem=  7381975040 cpu:              95.6 elap:              53.8
 (Enter /software/commercial/gaussian/g16/AVX/g16/l508.exe)
 QCSCF skips out because SCF is already converged.
 Leave Link  508 at Fri Jun  2 14:47:33 2023, MaxMem=  7381975040 cpu:               0.0 elap:               3.4
 (Enter /software/commercial/gaussian/g16/AVX/g16/l801.exe)
 DoSCS=F DFT=T ScalE2(SS,OS)=  1.000000  1.000000
 Range of M.O.s used for correlation:     1   326
 NBasis=   326 NAE=    49 NBE=    49 NFC=     0 NFV=     0
 NROrb=    326 NOA=    49 NOB=    49 NVA=   277 NVB=   277

 **** Warning!!: The largest alpha MO coefficient is  0.10119192D+03

 Leave Link  801 at Fri Jun  2 14:47:35 2023, MaxMem=  7381975040 cpu:               0.3 elap:               1.2
 (Enter /software/commercial/gaussian/g16/AVX/g16/l1002.exe)
 Minotr:  Closed shell wavefunction.
 NEqPCM:  Using equilibrium solvation (IEInf=0, Eps=  24.8520, EpsInf=   1.8526)
          Direct CPHF calculation.
          Differentiating once with respect to electric field.
                with respect to dipole field.
          Electric field/nuclear overlap derivatives assumed to be zero.
          Requested convergence is 1.0D-08 RMS, and 1.0D-07 maximum.
          Secondary convergence is 1.0D-12 RMS, and 1.0D-12 maximum.
          NewPWx=F KeepS1=T KeepF1=T KeepIn=T MapXYZ=F SortEE=F KeepMc=T.
         6483 words used for storage of precomputed grid.
 Keep R1 ints in memory in canonical form, NReq=1440014369.
 FoFCou: FMM=F IPFlag=           0 FMFlag=           0 FMFlg1=           0
         NFxFlg=           0 DoJE=F BraDBF=F KetDBF=F FulRan=T
         wScrn=  0.000000 ICntrl=       600 IOpCl=  0 I1Cent=           0 NGrid=           0
         NMat0=    1 NMatS0=  53301 NMatT0=    0 NMatD0=    1 NMtDS0=    0 NMtDT0=    0
 Symmetry not used in FoFCou.
 Two-electron integral symmetry not used.
          MDV=    7381975040 using IRadAn=       1.
          Solving linear equations simultaneously, MaxMat=       0.
          There are     3 degrees of freedom in the 1st order CPHF.  IDoFFX=0 NUNeed=     3.
      3 vectors produced by pass  0 Test12= 4.52D-13 3.33D-08 XBig12= 1.52D+02 7.15D+00.
 AX will form     3 AO Fock derivatives at one time.
      3 vectors produced by pass  1 Test12= 4.52D-13 3.33D-08 XBig12= 6.18D+01 2.06D+00.
      3 vectors produced by pass  2 Test12= 4.52D-13 3.33D-08 XBig12= 1.65D+01 1.71D+00.
      3 vectors produced by pass  3 Test12= 4.52D-13 3.33D-08 XBig12= 6.61D+00 5.44D-01.
      3 vectors produced by pass  4 Test12= 4.52D-13 3.33D-08 XBig12= 2.13D+00 3.48D-01.
      3 vectors produced by pass  5 Test12= 4.52D-13 3.33D-08 XBig12= 6.94D-01 1.62D-01.
      3 vectors produced by pass  6 Test12= 4.52D-13 3.33D-08 XBig12= 1.59D-01 1.10D-01.
      3 vectors produced by pass  7 Test12= 4.52D-13 3.33D-08 XBig12= 2.24D-02 4.56D-02.
      3 vectors produced by pass  8 Test12= 4.52D-13 3.33D-08 XBig12= 2.83D-03 1.28D-02.
      3 vectors produced by pass  9 Test12= 4.52D-13 3.33D-08 XBig12= 4.45D-04 4.27D-03.
      3 vectors produced by pass 10 Test12= 4.52D-13 3.33D-08 XBig12= 3.52D-05 1.06D-03.
      3 vectors produced by pass 11 Test12= 4.52D-13 3.33D-08 XBig12= 1.32D-06 1.83D-04.
      3 vectors produced by pass 12 Test12= 4.52D-13 3.33D-08 XBig12= 4.17D-08 3.42D-05.
      3 vectors produced by pass 13 Test12= 4.52D-13 3.33D-08 XBig12= 1.42D-09 8.52D-06.
      3 vectors produced by pass 14 Test12= 4.52D-13 3.33D-08 XBig12= 4.58D-11 1.50D-06.
      2 vectors produced by pass 15 Test12= 4.52D-13 3.33D-08 XBig12= 9.27D-13 1.59D-07.
 InvSVY:  IOpt=1 It=  1 EMax= 5.33D-15
 Solved reduced A of dimension    47 with     3 vectors.
 End of Minotr F.D. properties file   721 does not exist.
 End of Minotr F.D. properties file   722 does not exist.
 End of Minotr F.D. properties file   788 does not exist.
 Leave Link 1002 at Fri Jun  2 14:52:14 2023, MaxMem=  7381975040 cpu:             532.1 elap:             277.6
 (Enter /software/commercial/gaussian/g16/AVX/g16/l1101.exe)
 Using compressed storage, NAtomX=    21.
 Will process     22 centers per pass.
 R6Disp: Adding Grimme-D3(BJ) dispersion energy 1st derivatives to the gradient.
 Leave Link 1101 at Fri Jun  2 14:52:19 2023, MaxMem=  7381975040 cpu:               1.3 elap:               4.6
 (Enter /software/commercial/gaussian/g16/AVX/g16/l1102.exe)
 Symmetrizing basis deriv contribution to polar:
 IMax=3 JMax=2 DiffMx= 0.00D+00
 Leave Link 1102 at Fri Jun  2 14:52:24 2023, MaxMem=  7381975040 cpu:               0.1 elap:               3.4
 (Enter /software/commercial/gaussian/g16/AVX/g16/l1110.exe)
 Forming Gx(P) for the SCF density, NAtomX=    21.
 Integral derivatives from FoFJK, PRISM(SPDF).
 Do as many integral derivatives as possible in FoFJK.
 G2DrvN: MDV=    7381972741.
 G2DrvN: will do    22 centers at a time, making    1 passes.
 PxScal for G2LodP:  IOpCl= 0 ISclPx=1 IMOff=     1 NMtTot=     4 NTT=   53301 ScalPx= 4.18D+01
 Calling FoFCou, ICntrl=  3107 FMM=F I1Cent=   0 AccDes= 0.00D+00.
 FoFJK:  IHMeth= 1 ICntrl=    3107 DoSepK=F KAlg= 0 I1Cent=           0 FoldK=F
 IRaf=         0 NMat=       1 IRICut=       1 DoRegI=T DoRafI=F ISym2E= 0 IDoP0=0 IntGTp=1.
 FoFCou: FMM=F IPFlag=           0 FMFlag=      100000 FMFlg1=           0
         NFxFlg=           0 DoJE=F BraDBF=F KetDBF=F FulRan=T
         wScrn=  0.000000 ICntrl=      3107 IOpCl=  0 I1Cent=           0 NGrid=           0
         NMat0=    1 NMatS0=      1 NMatT0=    0 NMatD0=    4 NMtDS0=    3 NMtDT0=    0
 Symmetry not used in FoFCou.
 PxScal for G2LodP:  IOpCl= 0 ISclPx=0 IMOff=     1 NMtTot=     4 NTT=   53301 ScalPx= 1.00D+00
 NEqPCM:  Using equilibrium solvation (IEInf=0, Eps=  24.8520, EpsInf=   1.8526)
 G2PCM: DoFxE=T DoFxN=T DoGrad=T DoDP/DQ/DG/TGxP=TFFF NFrqRd=   0 IEInf=0 SqF1=F DoCFld=F IF1Alg=4.
 GePol: Maximum number of non-zero 1st derivatives   =     257
 End of G2Drv F.D. properties file   721 does not exist.
 End of G2Drv F.D. properties file   722 does not exist.
 End of G2Drv F.D. properties file   788 does not exist.
 Leave Link 1110 at Fri Jun  2 15:03:14 2023, MaxMem=  7381975040 cpu:            1280.6 elap:             649.0
 (Enter /software/commercial/gaussian/g16/AVX/g16/l1002.exe)
 Minotr:  Closed shell wavefunction.
          IDoAtm=111111111111111111111
 NEqPCM:  Using equilibrium solvation (IEInf=0, Eps=  24.8520, EpsInf=   1.8526)
          Direct CPHF calculation.
          Differentiating once with respect to electric field.
                with respect to dipole field.
          Differentiating once with respect to nuclear coordinates.
          Requested convergence is 1.0D-08 RMS, and 1.0D-07 maximum.
          Secondary convergence is 1.0D-12 RMS, and 1.0D-12 maximum.
          NewPWx=T KeepS1=F KeepF1=F KeepIn=T MapXYZ=F SortEE=F KeepMc=T.
         6483 words used for storage of precomputed grid.
 Keep R1 ints in memory in canonical form, NReq=1440014852.
 FoFCou: FMM=F IPFlag=           0 FMFlag=           0 FMFlg1=           0
         NFxFlg=           0 DoJE=F BraDBF=F KetDBF=F FulRan=T
         wScrn=  0.000000 ICntrl=       600 IOpCl=  0 I1Cent=           0 NGrid=           0
         NMat0=    1 NMatS0=  53301 NMatT0=    0 NMatD0=    1 NMtDS0=    0 NMtDT0=    0
 Symmetry not used in FoFCou.
 Two-electron integral symmetry not used.
          MDV=    7381975040 using IRadAn=       1.
          Solving linear equations simultaneously, MaxMat=       0.
          There are    66 degrees of freedom in the 1st order CPHF.  IDoFFX=5 NUNeed=    66.
 Will reuse    3 saved solutions.
     60 vectors produced by pass  0 Test12= 2.06D-14 1.52D-09 XBig12= 1.78D-01 1.07D-01.
 AX will form    60 AO Fock derivatives at one time.
     60 vectors produced by pass  1 Test12= 2.06D-14 1.52D-09 XBig12= 3.11D-02 5.90D-02.
     60 vectors produced by pass  2 Test12= 2.06D-14 1.52D-09 XBig12= 5.49D-04 3.84D-03.
     60 vectors produced by pass  3 Test12= 2.06D-14 1.52D-09 XBig12= 4.23D-06 3.40D-04.
     60 vectors produced by pass  4 Test12= 2.06D-14 1.52D-09 XBig12= 1.56D-08 1.92D-05.
     58 vectors produced by pass  5 Test12= 2.06D-14 1.52D-09 XBig12= 3.03D-11 4.65D-07.
     23 vectors produced by pass  6 Test12= 2.06D-14 1.52D-09 XBig12= 3.60D-14 1.48D-08.
 InvSVY:  IOpt=1 It=  1 EMax= 5.00D-16
 Solved reduced A of dimension   381 with    66 vectors.
 FullF1:  Do perturbations      1 to       3.
 Isotropic polarizability for W=    0.000000      154.38 Bohr**3.
 FullF1:  Do perturbations      1 to       6.
 End of Minotr F.D. properties file   721 does not exist.
 End of Minotr F.D. properties file   722 does not exist.
 End of Minotr F.D. properties file   788 does not exist.
 Leave Link 1002 at Fri Jun  2 15:15:23 2023, MaxMem=  7381975040 cpu:            1417.8 elap:             727.9
 (Enter /software/commercial/gaussian/g16/AVX/g16/l601.exe)
 Copying SCF densities to generalized density rwf, IOpCl= 0 IROHF=0.

 **********************************************************************

            Population analysis using the SCF Density.

 **********************************************************************

 Alpha  occ. eigenvalues --  -88.92669 -19.15056 -19.08886 -19.08762 -14.43443
 Alpha  occ. eigenvalues --  -10.29371 -10.28698 -10.25592 -10.24871 -10.24753
 Alpha  occ. eigenvalues --  -10.23113 -10.17662  -8.01236  -5.97512  -5.97109
 Alpha  occ. eigenvalues --   -5.96876  -1.06595  -1.05442  -1.04377  -0.97438
 Alpha  occ. eigenvalues --   -0.88100  -0.81160  -0.78438  -0.73058  -0.67734
 Alpha  occ. eigenvalues --   -0.63941  -0.62047  -0.55931  -0.54610  -0.51388
 Alpha  occ. eigenvalues --   -0.50283  -0.48491  -0.47675  -0.46856  -0.46127
 Alpha  occ. eigenvalues --   -0.44644  -0.42671  -0.42379  -0.40638  -0.39652
 Alpha  occ. eigenvalues --   -0.38921  -0.37999  -0.37167  -0.32952  -0.30792
 Alpha  occ. eigenvalues --   -0.28531  -0.27814  -0.27660  -0.26536
 Alpha virt. eigenvalues --   -0.09148  -0.02013  -0.01358  -0.00545   0.00784
 Alpha virt. eigenvalues --    0.02011   0.02794   0.03006   0.03621   0.04151
 Alpha virt. eigenvalues --    0.04598   0.05938   0.06356   0.06857   0.06997
 Alpha virt. eigenvalues --    0.07346   0.07771   0.08342   0.09173   0.09258
 Alpha virt. eigenvalues --    0.10186   0.10583   0.10897   0.11918   0.12024
 Alpha virt. eigenvalues --    0.12226   0.13441   0.14315   0.14632   0.15232
 Alpha virt. eigenvalues --    0.15484   0.16113   0.16461   0.16850   0.17509
 Alpha virt. eigenvalues --    0.18084   0.19524   0.19727   0.20288   0.20730
 Alpha virt. eigenvalues --    0.20887   0.21186   0.21869   0.22338   0.23096
 Alpha virt. eigenvalues --    0.23543   0.23700   0.24294   0.25235   0.25665
 Alpha virt. eigenvalues --    0.26221   0.26659   0.26978   0.28146   0.28485
 Alpha virt. eigenvalues --    0.28718   0.29722   0.30481   0.30722   0.31716
 Alpha virt. eigenvalues --    0.32154   0.32528   0.33271   0.34216   0.34890
 Alpha virt. eigenvalues --    0.35814   0.37005   0.37529   0.39573   0.41326
 Alpha virt. eigenvalues --    0.42408   0.43257   0.43518   0.45035   0.45369
 Alpha virt. eigenvalues --    0.46424   0.49149   0.50251   0.51755   0.53555
 Alpha virt. eigenvalues --    0.54656   0.55285   0.55538   0.57383   0.57955
 Alpha virt. eigenvalues --    0.58465   0.59478   0.60662   0.61789   0.63486
 Alpha virt. eigenvalues --    0.64346   0.65290   0.66303   0.66801   0.67452
 Alpha virt. eigenvalues --    0.68578   0.69522   0.72039   0.72117   0.73761
 Alpha virt. eigenvalues --    0.74396   0.75950   0.76716   0.77768   0.80091
 Alpha virt. eigenvalues --    0.80948   0.83797   0.85321   0.86638   0.86839
 Alpha virt. eigenvalues --    0.89026   0.91285   0.93714   0.94459   0.95154
 Alpha virt. eigenvalues --    0.98302   0.98930   1.00322   1.01470   1.06395
 Alpha virt. eigenvalues --    1.07401   1.08344   1.09069   1.10128   1.10717
 Alpha virt. eigenvalues --    1.14483   1.15384   1.16054   1.17328   1.20636
 Alpha virt. eigenvalues --    1.22097   1.22881   1.23266   1.25537   1.25732
 Alpha virt. eigenvalues --    1.31843   1.34892   1.36059   1.37947   1.39028
 Alpha virt. eigenvalues --    1.41851   1.42811   1.44278   1.46465   1.47280
 Alpha virt. eigenvalues --    1.49146   1.51385   1.53403   1.54181   1.54748
 Alpha virt. eigenvalues --    1.56391   1.57549   1.58021   1.59567   1.62127
 Alpha virt. eigenvalues --    1.63507   1.64960   1.65486   1.66438   1.69016
 Alpha virt. eigenvalues --    1.69899   1.70378   1.71550   1.72908   1.76799
 Alpha virt. eigenvalues --    1.77699   1.79891   1.80062   1.80952   1.82871
 Alpha virt. eigenvalues --    1.86896   1.87845   1.89671   1.96240   1.96975
 Alpha virt. eigenvalues --    1.98336   2.02992   2.06311   2.06368   2.07845
 Alpha virt. eigenvalues --    2.10261   2.11251   2.12225   2.14883   2.15669
 Alpha virt. eigenvalues --    2.20271   2.23995   2.25057   2.30180   2.32086
 Alpha virt. eigenvalues --    2.34072   2.41130   2.44172   2.46958   2.47696
 Alpha virt. eigenvalues --    2.48638   2.49689   2.51318   2.55046   2.56709
 Alpha virt. eigenvalues --    2.58166   2.60773   2.61479   2.62892   2.66643
 Alpha virt. eigenvalues --    2.68131   2.69103   2.73445   2.77506   2.79024
 Alpha virt. eigenvalues --    2.81953   2.84013   2.84627   2.85985   2.87123
 Alpha virt. eigenvalues --    2.88061   2.92944   2.93077   2.94587   2.96412
 Alpha virt. eigenvalues --    2.96469   3.01409   3.07173   3.07941   3.17489
 Alpha virt. eigenvalues --    3.18088   3.20594   3.25752   3.27746   3.29194
 Alpha virt. eigenvalues --    3.30799   3.35434   3.41217   3.45288   3.55499
 Alpha virt. eigenvalues --    3.62097   3.63502   3.71972   3.74292   3.77324
 Alpha virt. eigenvalues --    3.79109   3.81706   3.85522   3.87183   3.88728
 Alpha virt. eigenvalues --    3.98683   4.07619   4.09418   4.22287   4.26129
 Alpha virt. eigenvalues --    4.85956   4.94133   4.98649   5.04419   5.06889
 Alpha virt. eigenvalues --    5.17860   5.21995   5.39929   5.63417   5.65654
 Alpha virt. eigenvalues --    5.89060   7.95850  17.24828  17.47010  17.50512
 Alpha virt. eigenvalues --   23.63316  23.72446  23.81996  23.85255  23.87928
 Alpha virt. eigenvalues --   23.96877  24.11779  35.51070  49.88889  49.93977
 Alpha virt. eigenvalues --   50.04843 189.12128
     Molecular Orbital Coefficients:
                           1         2         3         4         5
                           O         O         O         O         O
     Eigenvalues --   -88.92669 -19.15056 -19.08886 -19.08762 -14.43443
   1 1   N  1S         -0.00000  -0.00000  -0.00000   0.00000   0.55737
   2        2S          0.00001   0.00001   0.00004  -0.00000   0.46566
   3        2PX         0.00001  -0.00001   0.00005   0.00004   0.00002
   4        2PY        -0.00001   0.00001  -0.00002  -0.00003  -0.00003
   5        2PZ        -0.00000  -0.00001   0.00001   0.00003  -0.00005
   6        3S         -0.00003  -0.00008  -0.00038   0.00017   0.01681
   7        3PX        -0.00006   0.00008  -0.00025  -0.00018   0.00064
   8        3PY         0.00003  -0.00005   0.00013   0.00013  -0.00043
   9        3PZ         0.00003   0.00004  -0.00003  -0.00009  -0.00051
  10        4S         -0.00009   0.00118   0.00392  -0.00255  -0.02146
  11        4PX         0.00016  -0.00051   0.00176  -0.00057  -0.00198
  12        4PY        -0.00008   0.00035  -0.00088   0.00023   0.00130
  13        4PZ        -0.00015  -0.00040  -0.00024  -0.00047   0.00170
  14        5S          0.00027   0.00092   0.00889  -0.00090   0.00237
  15        5PX         0.00029  -0.00074  -0.00187  -0.00159  -0.00079
  16        5PY        -0.00012  -0.00013   0.00049   0.00061   0.00000
  17        5PZ         0.00011   0.00265  -0.00142  -0.00059   0.00297
  18        6D 0        0.00001  -0.00001   0.00005   0.00002   0.00005
  19        6D+1       -0.00000   0.00000   0.00000  -0.00007   0.00012
  20        6D-1        0.00000  -0.00000   0.00000   0.00004  -0.00009
  21        6D+2       -0.00001  -0.00000  -0.00002  -0.00004   0.00023
  22        6D-2        0.00001   0.00000   0.00003   0.00007  -0.00038
  23 2   C  1S          0.00000   0.00000  -0.00001  -0.00001  -0.00001
  24        2S          0.00000  -0.00000   0.00005   0.00005   0.00014
  25        2PX         0.00002  -0.00000   0.00005   0.00009  -0.00042
  26        2PY        -0.00001   0.00000  -0.00003  -0.00005   0.00025
  27        2PZ        -0.00005   0.00000   0.00010   0.00008  -0.00010
  28        3S          0.00003   0.00006  -0.00022  -0.00022   0.00008
  29        3PX        -0.00006  -0.00001  -0.00026  -0.00049   0.00126
  30        3PY         0.00003  -0.00001   0.00016   0.00028  -0.00076
  31        3PZ         0.00011  -0.00003  -0.00041  -0.00047   0.00043
  32        4S          0.00003   0.00041  -0.00111   0.00197   0.00410
  33        4PX         0.00012   0.00015   0.00552  -0.00218  -0.00757
  34        4PY        -0.00009  -0.00001  -0.00323   0.00137   0.00442
  35        4PZ         0.00006   0.00024  -0.00086   0.00322  -0.00145
  36        5S          0.00054  -0.00810   0.01367   0.00870  -0.00504
  37        5PX         0.00148   0.00351  -0.00239  -0.00213   0.00429
  38        5PY        -0.00080  -0.00187   0.00207   0.00113  -0.00199
  39        5PZ        -0.00198   0.01034  -0.00611   0.00857   0.00308
  40        6D 0       -0.00008   0.00001  -0.00022  -0.00006   0.00061
  41        6D+1        0.00007  -0.00002  -0.00014  -0.00020  -0.00005
  42        6D-1       -0.00004   0.00002   0.00008   0.00013   0.00004
  43        6D+2        0.00000  -0.00001   0.00003   0.00004  -0.00037
  44        6D-2       -0.00001   0.00001  -0.00007  -0.00007   0.00065
  45 3   C  1S         -0.00000  -0.00000  -0.00000  -0.00000   0.00001
  46        2S          0.00001   0.00002  -0.00000   0.00000   0.00002
  47        2PX         0.00000  -0.00000   0.00003  -0.00000   0.00008
  48        2PY        -0.00000   0.00000  -0.00001   0.00000  -0.00005
  49        2PZ        -0.00000  -0.00004   0.00002  -0.00000   0.00045
  50        3S         -0.00006  -0.00010   0.00010  -0.00007   0.00012
  51        3PX        -0.00005  -0.00008  -0.00015   0.00000  -0.00008
  52        3PY         0.00003   0.00003   0.00007  -0.00001   0.00005
  53        3PZ         0.00002   0.00017  -0.00008   0.00001  -0.00126
  54        4S          0.00028   0.00068  -0.00213  -0.00025   0.00969
  55        4PX         0.00005  -0.00076  -0.00041   0.00034   0.00465
  56        4PY        -0.00005   0.00057   0.00031  -0.00012  -0.00268
  57        4PZ        -0.00001  -0.00250  -0.00021   0.00022   0.00346
  58        5S         -0.00033   0.02490  -0.02734  -0.00789   0.01251
  59        5PX        -0.00016   0.00177  -0.00449  -0.00113   0.00237
  60        5PY         0.00014  -0.00114   0.00239   0.00056  -0.00080
  61        5PZ        -0.00082   0.00197   0.00186  -0.00021  -0.00012
  62        6D 0       -0.00001  -0.00007  -0.00002   0.00001  -0.00059
  63        6D+1        0.00003   0.00003  -0.00007   0.00000  -0.00061
  64        6D-1       -0.00002  -0.00001   0.00004   0.00001   0.00035
  65        6D+2        0.00001   0.00002  -0.00000   0.00002   0.00019
  66        6D-2       -0.00002  -0.00003   0.00001  -0.00003  -0.00030
  67 4   C  1S          0.00000   0.00000  -0.00000  -0.00000  -0.00001
  68        2S         -0.00000  -0.00000   0.00000   0.00001   0.00007
  69        2PX         0.00004   0.00003   0.00000  -0.00001  -0.00006
  70        2PY        -0.00003  -0.00001  -0.00000   0.00000   0.00003
  71        2PZ         0.00002  -0.00002  -0.00000   0.00002   0.00003
  72        3S          0.00006   0.00018  -0.00005   0.00000  -0.00033
  73        3PX        -0.00012  -0.00010  -0.00000   0.00003   0.00054
  74        3PY         0.00007   0.00005   0.00000  -0.00002  -0.00028
  75        3PZ        -0.00002   0.00013  -0.00002  -0.00012  -0.00051
  76        4S          0.00002  -0.00459   0.00080  -0.00112  -0.00274
  77        4PX         0.00023   0.00216  -0.00017  -0.00054   0.00021
  78        4PY        -0.00012  -0.00130   0.00007   0.00029   0.00000
  79        4PZ        -0.00013   0.00384   0.00091   0.00073  -0.00599
  80        5S         -0.00045  -0.00882   0.01786  -0.00413  -0.00515
  81        5PX         0.00167   0.01213  -0.00895  -0.00317   0.00318
  82        5PY        -0.00108  -0.00683   0.00543   0.00178  -0.00204
  83        5PZ         0.00312   0.00889  -0.00582   0.00390  -0.00053
  84        6D 0        0.00002  -0.00016   0.00004  -0.00001   0.00004
  85        6D+1       -0.00007  -0.00004   0.00000  -0.00002   0.00041
  86        6D-1        0.00004   0.00002  -0.00000   0.00001  -0.00023
  87        6D+2       -0.00002   0.00005  -0.00000   0.00000  -0.00005
  88        6D-2        0.00004  -0.00007   0.00000   0.00000   0.00006
  89 5   S  1S          0.41089  -0.00000  -0.00000  -0.00000  -0.00000
  90        2S          0.65436   0.00000   0.00000   0.00001   0.00001
  91        3S          0.01537  -0.00001  -0.00003  -0.00004  -0.00006
  92        4S         -0.00460   0.00003   0.00006   0.00010   0.00015
  93        5S          0.00194  -0.00001  -0.00002  -0.00030  -0.00036
  94        6S         -0.00186  -0.00145  -0.00219   0.00296   0.00267
  95        7S         -0.00624  -0.00670   0.00496   0.01521  -0.00009
  96        7PX         0.00078   0.00142  -0.00169  -0.00195  -0.00051
  97        7PY        -0.00042  -0.00108   0.00082   0.00109   0.00028
  98        7PZ        -0.00045   0.00317  -0.00206   0.00142  -0.00035
  99        8PX        -0.00009  -0.00000  -0.00000   0.00000   0.00001
 100        8PY         0.00005   0.00000   0.00000  -0.00000  -0.00000
 101        8PZ         0.00003   0.00000   0.00000  -0.00001  -0.00001
 102        9PX         0.00003   0.00001   0.00001  -0.00002  -0.00003
 103        9PY        -0.00002  -0.00001  -0.00001   0.00001   0.00002
 104        9PZ        -0.00001  -0.00001  -0.00002   0.00003   0.00006
 105       10PX        -0.00001  -0.00007  -0.00007   0.00012   0.00009
 106       10PY         0.00001   0.00004   0.00002  -0.00006  -0.00005
 107       10PZ         0.00000   0.00004   0.00013  -0.00012  -0.00025
 108       11PX        -0.00008   0.00041   0.00022  -0.00043  -0.00007
 109       11PY         0.00005  -0.00024  -0.00008   0.00021   0.00005
 110       11PZ         0.00007  -0.00004  -0.00076   0.00051   0.00047
 111       12PX         0.00051   0.00023  -0.00019  -0.00102  -0.00031
 112       12PY        -0.00030  -0.00018   0.00011   0.00056   0.00001
 113       12PZ        -0.00012   0.00110  -0.00147  -0.00023   0.00177
 114       13D 0        0.00001   0.00003  -0.00012  -0.00000   0.00003
 115       13D+1       -0.00001  -0.00001   0.00001  -0.00003   0.00015
 116       13D-1        0.00001   0.00000   0.00000   0.00001  -0.00009
 117       13D+2        0.00001  -0.00002   0.00001   0.00000  -0.00002
 118       13D-2       -0.00002   0.00004  -0.00002   0.00000   0.00003
 119 6   C  1S         -0.00000  -0.00000  -0.00000   0.00000   0.00001
 120        2S          0.00000   0.00000   0.00002  -0.00000  -0.00004
 121        2PX        -0.00000  -0.00001   0.00005   0.00000   0.00015
 122        2PY        -0.00000  -0.00000  -0.00003   0.00000  -0.00009
 123        2PZ         0.00000  -0.00002   0.00003   0.00001  -0.00022
 124        3S         -0.00003  -0.00004  -0.00009  -0.00006   0.00014
 125        3PX         0.00001   0.00002  -0.00019   0.00002  -0.00011
 126        3PY         0.00000   0.00001   0.00011  -0.00000   0.00029
 127        3PZ        -0.00001   0.00009  -0.00015  -0.00003   0.00035
 128        4S          0.00035  -0.00022   0.00066   0.00107   0.00282
 129        4PX         0.00006  -0.00048   0.00009   0.00022   0.00063
 130        4PY        -0.00002  -0.00013  -0.00062  -0.00012  -0.00023
 131        4PZ        -0.00011   0.00003   0.00038   0.00032  -0.00075
 132        5S          0.00047  -0.00810  -0.01600  -0.00379  -0.00893
 133        5PX         0.00058  -0.00101   0.00145  -0.00121   0.00038
 134        5PY         0.00014   0.00078   0.00397   0.00073   0.00194
 135        5PZ        -0.00033   0.00211   0.00036   0.00066   0.00086
 136        6D 0        0.00000  -0.00003   0.00000   0.00002  -0.00017
 137        6D+1       -0.00000   0.00002  -0.00003   0.00002   0.00036
 138        6D-1       -0.00000  -0.00001  -0.00001   0.00001  -0.00012
 139        6D+2        0.00000  -0.00001  -0.00004   0.00002  -0.00010
 140        6D-2       -0.00000  -0.00000   0.00006   0.00001   0.00016
 141 7   C  1S         -0.00000   0.00000   0.00000   0.00000  -0.00000
 142        2S          0.00000  -0.00000  -0.00001  -0.00000   0.00001
 143        2PX         0.00000  -0.00001  -0.00000   0.00000   0.00004
 144        2PY         0.00000   0.00000   0.00002   0.00001   0.00005
 145        2PZ        -0.00000  -0.00000  -0.00000   0.00000  -0.00001
 146        3S         -0.00000   0.00005   0.00010   0.00009  -0.00004
 147        3PX        -0.00001   0.00004   0.00003   0.00000  -0.00025
 148        3PY        -0.00001   0.00000  -0.00010  -0.00001  -0.00033
 149        3PZ         0.00001   0.00002  -0.00001  -0.00002   0.00010
 150        4S         -0.00007  -0.00043  -0.00082  -0.00069  -0.00007
 151        4PX         0.00003  -0.00034  -0.00051  -0.00031  -0.00010
 152        4PY        -0.00000  -0.00017  -0.00002   0.00004  -0.00037
 153        4PZ        -0.00004   0.00021  -0.00004   0.00001  -0.00023
 154        5S          0.00117   0.00087   0.01286  -0.00058   0.00738
 155        5PX         0.00021   0.00013   0.00256  -0.00003   0.00160
 156        5PY         0.00019  -0.00002   0.00176  -0.00020   0.00086
 157        5PZ        -0.00011  -0.00034  -0.00101   0.00003  -0.00104
 158        6D 0        0.00000   0.00000   0.00002   0.00002   0.00008
 159        6D+1       -0.00000  -0.00001   0.00001  -0.00001   0.00002
 160        6D-1        0.00000   0.00001   0.00001   0.00000   0.00008
 161        6D+2        0.00000   0.00001   0.00000  -0.00001  -0.00002
 162        6D-2        0.00000  -0.00001  -0.00003   0.00001  -0.00015
 163 8   H  1S         -0.00001   0.00001  -0.00002  -0.00001  -0.00004
 164        2S          0.00003  -0.00007   0.00016   0.00005   0.00004
 165        3S          0.00001   0.00009  -0.00023   0.00014   0.00006
 166        4PX         0.00000  -0.00001   0.00005   0.00003  -0.00000
 167        4PY         0.00000   0.00001  -0.00001  -0.00001   0.00004
 168        4PZ        -0.00000   0.00000  -0.00000   0.00001   0.00003
 169 9   H  1S         -0.00000  -0.00002  -0.00000  -0.00001   0.00004
 170        2S          0.00002   0.00015   0.00003   0.00006  -0.00032
 171        3S         -0.00002  -0.00051  -0.00054   0.00017  -0.00065
 172        4PX         0.00000   0.00001  -0.00001   0.00002  -0.00014
 173        4PY        -0.00000   0.00000  -0.00001  -0.00000  -0.00002
 174        4PZ         0.00000   0.00002   0.00000   0.00001  -0.00004
 175 10  H  1S         -0.00000  -0.00000  -0.00001  -0.00001   0.00008
 176        2S          0.00001   0.00004   0.00023   0.00014  -0.00045
 177        3S          0.00002  -0.00002  -0.00018   0.00015  -0.00054
 178        4PX        -0.00000   0.00000  -0.00003  -0.00002  -0.00002
 179        4PY        -0.00000   0.00000  -0.00003   0.00002  -0.00014
 180        4PZ        -0.00000  -0.00001   0.00001  -0.00001   0.00013
 181 11  H  1S          0.00000   0.00002  -0.00001   0.00002   0.00001
 182        2S         -0.00005  -0.00013  -0.00003  -0.00012  -0.00086
 183        3S          0.00004   0.00004   0.00030   0.00021  -0.00003
 184        4PX        -0.00000   0.00001  -0.00002  -0.00001  -0.00012
 185        4PY         0.00001   0.00002   0.00002   0.00001   0.00018
 186        4PZ        -0.00000  -0.00000  -0.00001  -0.00001  -0.00006
 187 12  H  1S          0.00000   0.00000   0.00000   0.00004   0.00003
 188        2S         -0.00004  -0.00002  -0.00027  -0.00039  -0.00113
 189        3S         -0.00000   0.00026   0.00066  -0.00061  -0.00006
 190        4PX         0.00000   0.00001  -0.00003   0.00002   0.00012
 191        4PY         0.00000   0.00001  -0.00001   0.00005   0.00004
 192        4PZ         0.00000   0.00000  -0.00008   0.00004   0.00026
 193 13  H  1S         -0.00001   0.00004  -0.00001  -0.00001  -0.00021
 194        2S         -0.00005  -0.00056  -0.00002   0.00009   0.00030
 195        3S          0.00015  -0.00130   0.00002   0.00010   0.00128
 196        4PX        -0.00002  -0.00011   0.00000  -0.00000  -0.00022
 197        4PY         0.00001   0.00006  -0.00000  -0.00001   0.00013
 198        4PZ         0.00000   0.00014  -0.00001  -0.00002  -0.00035
 199 14  C  1S         -0.00000   0.00002   0.00000  -0.00000  -0.00000
 200        2S          0.00000  -0.00006  -0.00000   0.00000   0.00001
 201        2PX         0.00001  -0.00015  -0.00001   0.00000  -0.00001
 202        2PY        -0.00000   0.00008   0.00000  -0.00000   0.00000
 203        2PZ         0.00001  -0.00002  -0.00000   0.00001   0.00008
 204        3S         -0.00000  -0.00016   0.00002  -0.00008   0.00006
 205        3PX        -0.00002  -0.00000   0.00002  -0.00000   0.00007
 206        3PY         0.00001   0.00001  -0.00001   0.00000  -0.00002
 207        3PZ        -0.00003  -0.00017   0.00000  -0.00005  -0.00039
 208        4S         -0.00012   0.00884   0.00031   0.00097  -0.00429
 209        4PX         0.00002  -0.00175  -0.00003   0.00017  -0.00003
 210        4PY         0.00001   0.00083  -0.00004  -0.00013   0.00013
 211        4PZ        -0.00004   0.00184   0.00011   0.00061  -0.00145
 212        5S          0.00437   0.01361  -0.01308   0.00489  -0.00013
 213        5PX        -0.00011  -0.00055   0.00078   0.00052  -0.00066
 214        5PY         0.00005   0.00022  -0.00040  -0.00036   0.00038
 215        5PZ         0.00086   0.00249  -0.00268   0.00098  -0.00012
 216        6D 0       -0.00001   0.00009  -0.00001   0.00001  -0.00012
 217        6D+1       -0.00002  -0.00009   0.00001   0.00001   0.00000
 218        6D-1        0.00001   0.00005  -0.00000  -0.00001   0.00000
 219        6D+2        0.00000  -0.00013  -0.00000  -0.00000  -0.00000
 220        6D-2       -0.00000   0.00018  -0.00000   0.00000   0.00002
 221 15  O  1S         -0.00000   0.55133   0.00000  -0.00000   0.00000
 222        2S          0.00000   0.46973   0.00001  -0.00000   0.00001
 223        2PX         0.00000   0.00090  -0.00000  -0.00000   0.00001
 224        2PY        -0.00000  -0.00040   0.00000   0.00000  -0.00000
 225        2PZ         0.00000  -0.00085   0.00000  -0.00000   0.00001
 226        3S         -0.00000   0.01366  -0.00002   0.00001  -0.00003
 227        3PX        -0.00001  -0.00003   0.00001   0.00001  -0.00004
 228        3PY         0.00000   0.00003  -0.00001  -0.00000   0.00001
 229        3PZ        -0.00001  -0.00005  -0.00001   0.00001  -0.00005
 230        4S         -0.00001  -0.01011   0.00009  -0.00007  -0.00024
 231        4PX         0.00001  -0.00153  -0.00002  -0.00006   0.00027
 232        4PY        -0.00001   0.00082   0.00002   0.00003  -0.00014
 233        4PZ         0.00003  -0.00068   0.00002  -0.00005   0.00043
 234        5S          0.00022   0.00691  -0.00090  -0.00012   0.00042
 235        5PX         0.00005   0.00035  -0.00001   0.00015   0.00012
 236        5PY        -0.00003  -0.00018  -0.00001  -0.00008  -0.00021
 237        5PZ         0.00002   0.00099  -0.00002   0.00011   0.00144
 238        6D 0       -0.00000   0.00026   0.00000  -0.00000  -0.00003
 239        6D+1       -0.00000   0.00005   0.00000  -0.00000   0.00000
 240        6D-1        0.00000  -0.00006  -0.00000   0.00000   0.00000
 241        6D+2       -0.00000  -0.00002   0.00000  -0.00000   0.00000
 242        6D-2        0.00000   0.00002   0.00000   0.00000  -0.00001
 243 16  H  1S         -0.00000   0.00005   0.00001   0.00001  -0.00002
 244        2S          0.00000  -0.00126  -0.00006  -0.00011   0.00014
 245        3S         -0.00013  -0.00056   0.00028   0.00030  -0.00003
 246        4PX        -0.00001   0.00020   0.00000  -0.00000   0.00000
 247        4PY        -0.00000  -0.00032  -0.00000  -0.00001  -0.00001
 248        4PZ        -0.00001  -0.00012   0.00000  -0.00000  -0.00003
 249 17  H  1S          0.00000   0.00004   0.00000   0.00000  -0.00000
 250        2S         -0.00001  -0.00121  -0.00002  -0.00009   0.00006
 251        3S         -0.00012  -0.00057   0.00029   0.00030   0.00009
 252        4PX         0.00000   0.00037  -0.00000   0.00000   0.00002
 253        4PY         0.00001   0.00002  -0.00000   0.00001   0.00001
 254        4PZ        -0.00001  -0.00011   0.00001   0.00000  -0.00003
 255 18  H  1S         -0.00000  -0.00003   0.00001   0.00000  -0.00002
 256        2S          0.00003   0.00019  -0.00004  -0.00001   0.00037
 257        3S         -0.00012  -0.00134   0.00048   0.00029   0.00109
 258        4PX        -0.00000   0.00005   0.00000   0.00002  -0.00004
 259        4PY         0.00000   0.00003  -0.00000  -0.00001   0.00001
 260        4PZ         0.00000  -0.00079   0.00000   0.00001   0.00012
 261 19  C  1S         -0.00000   0.00000  -0.00002  -0.00002  -0.00000
 262        2S          0.00000  -0.00000   0.00007   0.00007   0.00002
 263        2PX         0.00000  -0.00000  -0.00013   0.00033  -0.00006
 264        2PY        -0.00000   0.00000   0.00008  -0.00020   0.00004
 265        2PZ        -0.00001   0.00000   0.00036  -0.00004  -0.00007
 266        3S         -0.00001   0.00003   0.00047   0.00046  -0.00014
 267        3PX        -0.00000   0.00002   0.00024  -0.00074   0.00022
 268        3PY         0.00001  -0.00002  -0.00012   0.00045  -0.00013
 269        3PZ         0.00006  -0.00001  -0.00083   0.00001   0.00025
 270        4S         -0.00020  -0.00029   0.00020  -0.00018   0.00230
 271        4PX         0.00015   0.00019  -0.00560   0.00673   0.00311
 272        4PY        -0.00011  -0.00012   0.00335  -0.00416  -0.00190
 273        4PZ        -0.00009   0.00007   0.00800  -0.00346  -0.00474
 274        5S          0.00109  -0.00872  -0.00152  -0.01709  -0.00343
 275        5PX        -0.00034   0.00068   0.00149   0.00170   0.00007
 276        5PY         0.00019  -0.00046  -0.00094  -0.00107  -0.00016
 277        5PZ        -0.00003   0.00107   0.00001   0.00382   0.00016
 278        6D 0       -0.00002  -0.00001  -0.00045   0.00049   0.00005
 279        6D+1       -0.00002   0.00001   0.00063   0.00040  -0.00028
 280        6D-1        0.00001  -0.00000  -0.00039  -0.00025   0.00015
 281        6D+2        0.00000   0.00000   0.00001  -0.00023  -0.00001
 282        6D-2       -0.00001   0.00000  -0.00000   0.00047   0.00001
 283 20  O  1S         -0.00000  -0.00000   0.55128   0.00527   0.00000
 284        2S          0.00000  -0.00000   0.46969   0.00454   0.00003
 285        2PX         0.00000  -0.00000   0.00044   0.00005   0.00003
 286        2PY        -0.00000   0.00000  -0.00027  -0.00003  -0.00001
 287        2PZ        -0.00000   0.00000  -0.00095  -0.00004  -0.00003
 288        3S         -0.00002  -0.00002   0.01402  -0.00029  -0.00032
 289        3PX        -0.00000   0.00000   0.00019  -0.00015  -0.00014
 290        3PY         0.00000  -0.00001  -0.00013   0.00009   0.00007
 291        3PZ         0.00002  -0.00001  -0.00060   0.00017   0.00016
 292        4S          0.00006   0.00018  -0.01277   0.00265   0.00211
 293        4PX         0.00002   0.00002  -0.00056  -0.00016   0.00043
 294        4PY        -0.00001   0.00001   0.00038   0.00010  -0.00024
 295        4PZ        -0.00004  -0.00003   0.00234  -0.00127  -0.00074
 296        5S          0.00037  -0.00070   0.00198   0.00392   0.00319
 297        5PX        -0.00001   0.00003  -0.00114  -0.00018   0.00035
 298        5PY         0.00002  -0.00007   0.00072   0.00012  -0.00016
 299        5PZ        -0.00017   0.00027   0.00039  -0.00120  -0.00073
 300        6D 0       -0.00000   0.00000   0.00015   0.00013  -0.00002
 301        6D+1        0.00000  -0.00000  -0.00016   0.00012   0.00001
 302        6D-1       -0.00000   0.00000   0.00010  -0.00007  -0.00002
 303        6D+2       -0.00000  -0.00000   0.00003  -0.00004  -0.00002
 304        6D-2        0.00000   0.00000  -0.00005   0.00008   0.00003
 305 21  O  1S         -0.00000   0.00000  -0.00526   0.55128   0.00000
 306        2S          0.00000   0.00000  -0.00444   0.46970  -0.00000
 307        2PX        -0.00000   0.00000  -0.00002  -0.00089  -0.00003
 308        2PY         0.00000  -0.00000   0.00002   0.00055   0.00002
 309        2PZ        -0.00000  -0.00000   0.00004   0.00022  -0.00004
 310        3S         -0.00002   0.00001  -0.00056   0.01387   0.00008
 311        3PX         0.00001  -0.00001   0.00017  -0.00051   0.00011
 312        3PY        -0.00001   0.00001  -0.00012   0.00032  -0.00007
 313        3PZ         0.00002   0.00000  -0.00014   0.00010   0.00013
 314        4S          0.00003  -0.00008   0.00319  -0.01198  -0.00197
 315        4PX        -0.00000   0.00006  -0.00098   0.00178   0.00040
 316        4PY         0.00001  -0.00004   0.00066  -0.00111  -0.00023
 317        4PZ        -0.00003  -0.00002  -0.00050  -0.00016  -0.00025
 318        5S         -0.00049  -0.00016   0.00431   0.00363  -0.00270
 319        5PX         0.00015  -0.00009  -0.00125  -0.00000   0.00073
 320        5PY        -0.00010   0.00004   0.00071   0.00002  -0.00054
 321        5PZ         0.00011   0.00017  -0.00038  -0.00096   0.00027
 322        6D 0        0.00000  -0.00000  -0.00007  -0.00009   0.00007
 323        6D+1        0.00000   0.00000   0.00017  -0.00008  -0.00001
 324        6D-1       -0.00000   0.00000  -0.00010   0.00005   0.00001
 325        6D+2        0.00000  -0.00000   0.00000   0.00009   0.00000
 326        6D-2       -0.00000   0.00000  -0.00000  -0.00019   0.00000
                           6         7         8         9        10
                           O         O         O         O         O
     Eigenvalues --   -10.29371 -10.28698 -10.25592 -10.24871 -10.24753
   1 1   N  1S          0.00000  -0.00007   0.00000  -0.00001  -0.00004
   2        2S          0.00002  -0.00000   0.00001   0.00003  -0.00008
   3        2PX         0.00005   0.00051   0.00000  -0.00008  -0.00004
   4        2PY        -0.00003  -0.00030  -0.00000   0.00005   0.00002
   5        2PZ         0.00003   0.00006  -0.00005  -0.00021  -0.00026
   6        3S         -0.00010   0.00067  -0.00004  -0.00000   0.00066
   7        3PX        -0.00022  -0.00164  -0.00002   0.00025  -0.00012
   8        3PY         0.00015   0.00095   0.00001  -0.00016   0.00008
   9        3PZ        -0.00008  -0.00030   0.00026   0.00080   0.00018
  10        4S          0.00129  -0.00589  -0.00115   0.00039   0.00033
  11        4PX         0.00121  -0.00182   0.00003   0.00082   0.00168
  12        4PY        -0.00076   0.00120   0.00004  -0.00032  -0.00098
  13        4PZ        -0.00103   0.00172  -0.00087  -0.00148   0.00099
  14        5S          0.00298   0.02252  -0.00211   0.02313   0.02453
  15        5PX         0.00433   0.01481  -0.00271  -0.00183   0.00145
  16        5PY        -0.00281  -0.00959   0.00151   0.00142  -0.00107
  17        5PZ        -0.00132   0.00412  -0.00373  -0.01708  -0.01322
  18        6D 0        0.00005   0.00066  -0.00007  -0.00046  -0.00050
  19        6D+1       -0.00008  -0.00012  -0.00000  -0.00025  -0.00013
  20        6D-1        0.00004   0.00008   0.00001   0.00016   0.00009
  21        6D+2       -0.00002  -0.00066   0.00001   0.00002  -0.00009
  22        6D-2        0.00005   0.00112  -0.00002  -0.00003   0.00015
  23 2   C  1S          0.00827   0.56286   0.00001   0.00006   0.00002
  24        2S          0.00679   0.46340   0.00003   0.00006   0.00001
  25        2PX         0.00022  -0.00026  -0.00001  -0.00001   0.00001
  26        2PY        -0.00013   0.00019   0.00001  -0.00001  -0.00001
  27        2PZ         0.00029  -0.00081  -0.00002   0.00006   0.00001
  28        3S          0.00071   0.01869  -0.00017  -0.00017   0.00006
  29        3PX        -0.00054  -0.00170   0.00010   0.00023   0.00002
  30        3PY         0.00030   0.00091  -0.00006  -0.00009   0.00000
  31        3PZ        -0.00056   0.00082   0.00016  -0.00012   0.00004
  32        4S          0.00010  -0.01914   0.00018  -0.00134  -0.00409
  33        4PX         0.00389  -0.00063  -0.00179  -0.00025   0.00108
  34        4PY        -0.00214   0.00061   0.00106  -0.00003  -0.00057
  35        4PZ         0.00395  -0.00236  -0.00109   0.00043  -0.00203
  36        5S          0.00759  -0.03353   0.02430   0.03822  -0.00215
  37        5PX         0.00804   0.01048  -0.01499   0.01999   0.00614
  38        5PY        -0.00452  -0.00500   0.00943  -0.01232  -0.00377
  39        5PZ         0.01887  -0.00722  -0.03332   0.05107   0.02929
  40        6D 0       -0.00025  -0.00041   0.00002   0.00023   0.00009
  41        6D+1       -0.00036   0.00071   0.00004   0.00012   0.00013
  42        6D-1        0.00022  -0.00041  -0.00002  -0.00008  -0.00008
  43        6D+2       -0.00009   0.00070   0.00002  -0.00000  -0.00000
  44        6D-2        0.00015  -0.00123  -0.00004   0.00001  -0.00000
  45 3   C  1S         -0.00001  -0.00004   0.00008   0.18273   0.53241
  46        2S          0.00001  -0.00003   0.00012   0.15063   0.43795
  47        2PX         0.00000  -0.00010   0.00007   0.00065  -0.00003
  48        2PY        -0.00000   0.00006  -0.00004  -0.00038  -0.00002
  49        2PZ         0.00003   0.00002  -0.00014  -0.00038   0.00106
  50        3S         -0.00015  -0.00013  -0.00022   0.00630   0.01957
  51        3PX        -0.00007   0.00037  -0.00061  -0.00317   0.00156
  52        3PY         0.00004  -0.00022   0.00032   0.00180  -0.00079
  53        3PZ        -0.00020  -0.00009   0.00088   0.00278  -0.00296
  54        4S         -0.00164   0.00307  -0.00015  -0.00931  -0.01648
  55        4PX        -0.00084   0.00150   0.00037  -0.00164  -0.00528
  56        4PY         0.00054  -0.00077  -0.00018   0.00082   0.00295
  57        4PZ         0.00110   0.00079  -0.00047  -0.00505   0.00101
  58        5S         -0.00530   0.04636  -0.01308  -0.08295  -0.02767
  59        5PX        -0.00133   0.00679  -0.00257  -0.01134  -0.00227
  60        5PY         0.00082  -0.00386   0.00150   0.00763   0.00191
  61        5PZ         0.00669   0.00807   0.00042  -0.00324  -0.00324
  62        6D 0       -0.00001  -0.00013  -0.00022  -0.00031   0.00008
  63        6D+1       -0.00002   0.00010   0.00046   0.00187  -0.00144
  64        6D-1        0.00002  -0.00005  -0.00025  -0.00104   0.00077
  65        6D+2        0.00004   0.00013   0.00002  -0.00018   0.00122
  66        6D-2       -0.00006  -0.00024  -0.00006   0.00020  -0.00198
  67 4   C  1S         -0.00000  -0.00005   0.01029   0.53226  -0.18287
  68        2S          0.00000  -0.00003   0.00848   0.43818  -0.15023
  69        2PX        -0.00001  -0.00000   0.00006   0.00063  -0.00070
  70        2PY         0.00001   0.00001  -0.00002  -0.00036   0.00038
  71        2PZ         0.00002  -0.00003  -0.00061   0.00022   0.00053
  72        3S         -0.00003  -0.00009   0.00059   0.01804  -0.00669
  73        3PX         0.00006   0.00008  -0.00045  -0.00226   0.00308
  74        3PY        -0.00003  -0.00005   0.00020   0.00127  -0.00168
  75        3PZ        -0.00017  -0.00011   0.00193   0.00080  -0.00323
  76        4S          0.00016  -0.00222   0.00431  -0.01601   0.00613
  77        4PX        -0.00094  -0.00001  -0.00089   0.00203  -0.00199
  78        4PY         0.00047   0.00006   0.00065  -0.00119   0.00107
  79        4PZ         0.00225  -0.00098  -0.00565   0.00227   0.00369
  80        5S          0.00312   0.00610   0.06900   0.06768   0.00392
  81        5PX        -0.00433  -0.00110  -0.01107  -0.00889  -0.00746
  82        5PY         0.00227   0.00192   0.00775   0.00293   0.00373
  83        5PZ         0.00743  -0.04147  -0.06110   0.04423   0.00671
  84        6D 0        0.00003   0.00010  -0.00081   0.00104  -0.00071
  85        6D+1       -0.00000   0.00013  -0.00030  -0.00106   0.00210
  86        6D-1       -0.00000  -0.00008   0.00021   0.00054  -0.00113
  87        6D+2        0.00001   0.00001   0.00015   0.00031  -0.00068
  88        6D-2       -0.00001  -0.00001  -0.00024  -0.00047   0.00104
  89 5   S  1S         -0.00000  -0.00000  -0.00000  -0.00000   0.00000
  90        2S          0.00000  -0.00000   0.00000  -0.00000   0.00001
  91        3S         -0.00003  -0.00001  -0.00002   0.00001  -0.00005
  92        4S          0.00007   0.00001   0.00004  -0.00005   0.00014
  93        5S         -0.00016   0.00013  -0.00003   0.00035  -0.00039
  94        6S          0.00073   0.00145   0.00102  -0.00033  -0.00094
  95        7S          0.01577   0.01125  -0.00535   0.00661   0.03567
  96        7PX        -0.00186  -0.00361   0.00099   0.00014  -0.00689
  97        7PY         0.00094   0.00182  -0.00048   0.00010   0.00381
  98        7PZ         0.00224  -0.00048  -0.00311   0.00018   0.00322
  99        8PX         0.00000  -0.00000   0.00000  -0.00001   0.00000
 100        8PY         0.00000   0.00000  -0.00000   0.00000  -0.00000
 101        8PZ        -0.00000   0.00001  -0.00000  -0.00001   0.00000
 102        9PX        -0.00000   0.00003  -0.00001   0.00009  -0.00004
 103        9PY        -0.00000  -0.00001   0.00000  -0.00005   0.00003
 104        9PZ         0.00001  -0.00009   0.00001   0.00007  -0.00003
 105       10PX         0.00003  -0.00014   0.00002  -0.00042   0.00014
 106       10PY        -0.00000   0.00007  -0.00001   0.00024  -0.00008
 107       10PZ        -0.00002   0.00042  -0.00011  -0.00029   0.00010
 108       11PX        -0.00021  -0.00002  -0.00013   0.00047   0.00026
 109       11PY         0.00009   0.00001   0.00006  -0.00024  -0.00014
 110       11PZ        -0.00004  -0.00018   0.00039   0.00029  -0.00015
 111       12PX        -0.00155  -0.00063  -0.00048  -0.00088   0.00051
 112       12PY         0.00091   0.00018   0.00026   0.00051  -0.00029
 113       12PZ        -0.00201   0.00212   0.00018  -0.00169  -0.00120
 114       13D 0       -0.00009  -0.00002  -0.00003   0.00004   0.00004
 115       13D+1       -0.00004   0.00008  -0.00009   0.00003  -0.00013
 116       13D-1        0.00002  -0.00006   0.00005  -0.00001   0.00007
 117       13D+2        0.00003  -0.00002  -0.00000  -0.00005   0.00001
 118       13D-2       -0.00004   0.00004   0.00001   0.00008  -0.00001
 119 6   C  1S         -0.00002  -0.00006  -0.00001  -0.00012  -0.00009
 120        2S         -0.00000  -0.00001  -0.00000  -0.00006  -0.00007
 121        2PX         0.00004   0.00000  -0.00001   0.00001   0.00002
 122        2PY        -0.00000  -0.00004   0.00000  -0.00002  -0.00002
 123        2PZ         0.00003  -0.00008   0.00000   0.00000   0.00005
 124        3S         -0.00020  -0.00046  -0.00009  -0.00054  -0.00010
 125        3PX        -0.00016  -0.00008   0.00005  -0.00002  -0.00007
 126        3PY         0.00001   0.00026   0.00000   0.00014   0.00010
 127        3PZ        -0.00018   0.00043  -0.00002   0.00003  -0.00017
 128        4S          0.00293   0.00069   0.00131   0.00414   0.00097
 129        4PX         0.00038  -0.00079   0.00043   0.00025   0.00002
 130        4PY         0.00009  -0.00169  -0.00044  -0.00058  -0.00031
 131        4PZ         0.00005  -0.00008  -0.00011  -0.00100   0.00033
 132        5S          0.00131  -0.01094  -0.00097  -0.00924  -0.01029
 133        5PX         0.00106   0.00349   0.00047   0.00447   0.00216
 134        5PY        -0.00103   0.00223   0.00007   0.00392   0.00367
 135        5PZ         0.00129   0.00027   0.00020  -0.00310  -0.00168
 136        6D 0       -0.00001  -0.00009  -0.00001   0.00003   0.00010
 137        6D+1       -0.00002   0.00016  -0.00001   0.00004   0.00004
 138        6D-1       -0.00001   0.00001   0.00001  -0.00006  -0.00005
 139        6D+2       -0.00001   0.00006   0.00001  -0.00004  -0.00004
 140        6D-2        0.00001   0.00001  -0.00001  -0.00006  -0.00000
 141 7   C  1S          0.00000   0.00000   0.00000  -0.00001  -0.00000
 142        2S         -0.00000  -0.00001   0.00000   0.00000  -0.00000
 143        2PX        -0.00002   0.00000   0.00001   0.00004   0.00002
 144        2PY         0.00002   0.00003   0.00000   0.00000  -0.00001
 145        2PZ        -0.00001  -0.00002   0.00000  -0.00001   0.00002
 146        3S          0.00008   0.00028   0.00004  -0.00000   0.00003
 147        3PX         0.00013   0.00007  -0.00004  -0.00018  -0.00009
 148        3PY        -0.00008  -0.00009   0.00000   0.00003   0.00006
 149        3PZ         0.00003   0.00013  -0.00002   0.00002  -0.00010
 150        4S         -0.00015  -0.00244  -0.00057  -0.00086   0.00001
 151        4PX        -0.00073  -0.00150  -0.00015   0.00029  -0.00019
 152        4PY        -0.00030   0.00008  -0.00000  -0.00049   0.00003
 153        4PZ        -0.00010   0.00062   0.00011   0.00030   0.00036
 154        5S          0.00086   0.01329   0.00139   0.01904   0.01410
 155        5PX         0.00032   0.00264   0.00029   0.00370   0.00267
 156        5PY        -0.00002   0.00202   0.00023   0.00288   0.00210
 157        5PZ        -0.00025  -0.00109  -0.00019  -0.00197  -0.00135
 158        6D 0        0.00004  -0.00000   0.00001  -0.00000   0.00002
 159        6D+1        0.00002  -0.00003  -0.00001   0.00001   0.00000
 160        6D-1        0.00002   0.00002   0.00001   0.00004   0.00002
 161        6D+2        0.00000  -0.00006  -0.00000   0.00001   0.00001
 162        6D-2       -0.00005  -0.00003   0.00000   0.00001   0.00003
 163 8   H  1S         -0.00002  -0.00000  -0.00001  -0.00004   0.00000
 164        2S          0.00011  -0.00001   0.00005   0.00028  -0.00003
 165        3S         -0.00039  -0.00072  -0.00005  -0.00018  -0.00048
 166        4PX         0.00005   0.00004   0.00001   0.00000  -0.00001
 167        4PY         0.00001  -0.00000   0.00000   0.00003   0.00000
 168        4PZ         0.00001   0.00003  -0.00001  -0.00005   0.00000
 169 9   H  1S         -0.00002  -0.00009  -0.00000  -0.00002   0.00001
 170        2S          0.00006   0.00074   0.00005   0.00026   0.00004
 171        3S         -0.00056  -0.00058  -0.00015  -0.00032  -0.00049
 172        4PX         0.00003   0.00014  -0.00000  -0.00004  -0.00006
 173        4PY         0.00002   0.00003  -0.00001  -0.00003  -0.00005
 174        4PZ        -0.00003   0.00001   0.00001   0.00004   0.00001
 175 10  H  1S          0.00002  -0.00001  -0.00002  -0.00007  -0.00005
 176        2S          0.00006   0.00039   0.00019   0.00048   0.00045
 177        3S         -0.00108  -0.00047   0.00001  -0.00131  -0.00076
 178        4PX        -0.00007  -0.00011   0.00000   0.00002   0.00001
 179        4PY        -0.00006  -0.00003   0.00002   0.00005   0.00005
 180        4PZ         0.00004   0.00002  -0.00001  -0.00006  -0.00004
 181 11  H  1S          0.00004   0.00000   0.00001   0.00003  -0.00001
 182        2S         -0.00044  -0.00006  -0.00006  -0.00085  -0.00018
 183        3S          0.00080   0.00303  -0.00014   0.00087   0.00054
 184        4PX        -0.00002   0.00004  -0.00002  -0.00004  -0.00002
 185        4PY         0.00006   0.00006   0.00000   0.00011   0.00005
 186        4PZ        -0.00004  -0.00003   0.00001   0.00001   0.00009
 187 12  H  1S          0.00000  -0.00001   0.00001   0.00000   0.00002
 188        2S         -0.00024  -0.00061  -0.00023  -0.00022  -0.00016
 189        3S         -0.00245   0.00083   0.00045   0.00149   0.00141
 190        4PX        -0.00008  -0.00000   0.00002   0.00007   0.00003
 191        4PY         0.00004   0.00012   0.00002   0.00000   0.00002
 192        4PZ         0.00002   0.00012   0.00000   0.00003  -0.00002
 193 13  H  1S         -0.00000  -0.00005  -0.00008  -0.00013   0.00020
 194        2S         -0.00018   0.00003  -0.00021  -0.00252  -0.00404
 195        3S          0.00014   0.00297  -0.00045  -0.00011   0.00060
 196        4PX        -0.00003  -0.00002  -0.00022  -0.00123  -0.00175
 197        4PY         0.00001  -0.00001   0.00012   0.00070   0.00101
 198        4PZ        -0.00006   0.00002   0.00003   0.00006  -0.00065
 199 14  C  1S         -0.00001  -0.00001   0.56297  -0.00980   0.00327
 200        2S          0.00000  -0.00000   0.46317  -0.00801   0.00273
 201        2PX        -0.00001  -0.00001  -0.00090   0.00005  -0.00004
 202        2PY         0.00001  -0.00000   0.00046  -0.00005   0.00002
 203        2PZ        -0.00001   0.00003   0.00032   0.00060  -0.00008
 204        3S         -0.00013  -0.00017   0.01912  -0.00035  -0.00019
 205        3PX         0.00005   0.00003   0.00193   0.00001   0.00012
 206        3PY        -0.00002  -0.00000  -0.00098   0.00007  -0.00008
 207        3PZ         0.00002  -0.00020  -0.00092  -0.00189  -0.00002
 208        4S          0.00196   0.00074  -0.01929   0.00588   0.00109
 209        4PX        -0.00005   0.00009   0.00155  -0.00041   0.00074
 210        4PY        -0.00005  -0.00020  -0.00078   0.00017  -0.00048
 211        4PZ         0.00060   0.00025  -0.00306   0.00226   0.00063
 212        5S          0.01084  -0.05622  -0.11294   0.02713   0.00380
 213        5PX         0.00042  -0.00151  -0.00034   0.00240   0.00139
 214        5PY        -0.00037   0.00112   0.00096  -0.00130  -0.00076
 215        5PZ         0.00220  -0.01147  -0.02334   0.00390   0.00067
 216        6D 0       -0.00001  -0.00005  -0.00026  -0.00120   0.00007
 217        6D+1        0.00003   0.00002  -0.00055  -0.00030   0.00017
 218        6D-1       -0.00001  -0.00000   0.00034   0.00023  -0.00010
 219        6D+2        0.00001  -0.00003  -0.00053  -0.00010   0.00006
 220        6D-2       -0.00002   0.00002   0.00081   0.00018  -0.00013
 221 15  O  1S         -0.00000  -0.00000  -0.00002   0.00000   0.00000
 222        2S         -0.00000  -0.00000  -0.00007   0.00001   0.00001
 223        2PX         0.00000  -0.00000   0.00013   0.00002   0.00001
 224        2PY        -0.00000   0.00000  -0.00007  -0.00001  -0.00000
 225        2PZ        -0.00000   0.00001   0.00002   0.00001   0.00002
 226        3S          0.00004   0.00005   0.00045   0.00010  -0.00010
 227        3PX        -0.00001   0.00001   0.00002  -0.00008  -0.00006
 228        3PY        -0.00000  -0.00002  -0.00002   0.00002   0.00002
 229        3PZ         0.00001  -0.00002   0.00006  -0.00003  -0.00008
 230        4S         -0.00032  -0.00039   0.00035  -0.00142   0.00015
 231        4PX        -0.00006  -0.00010   0.00042  -0.00039   0.00022
 232        4PY         0.00004   0.00007  -0.00024   0.00021  -0.00009
 233        4PZ         0.00005   0.00034   0.00065   0.00068   0.00032
 234        5S         -0.00046   0.00218   0.00943   0.00013  -0.00008
 235        5PX        -0.00021   0.00002   0.00199  -0.00013   0.00012
 236        5PY         0.00008   0.00006  -0.00089  -0.00003  -0.00015
 237        5PZ         0.00041  -0.00189  -0.00278  -0.00119  -0.00023
 238        6D 0       -0.00001  -0.00002   0.00003  -0.00000  -0.00002
 239        6D+1        0.00000   0.00000  -0.00004   0.00001   0.00002
 240        6D-1        0.00000   0.00000   0.00003   0.00000  -0.00001
 241        6D+2       -0.00000  -0.00000  -0.00011  -0.00003  -0.00000
 242        6D-2        0.00000   0.00001   0.00016   0.00005   0.00000
 243 16  H  1S         -0.00000   0.00004   0.00006  -0.00012   0.00005
 244        2S         -0.00007  -0.00041  -0.00277  -0.00098  -0.00012
 245        3S         -0.00010   0.00002   0.00433   0.00074   0.00008
 246        4PX         0.00001   0.00000  -0.00012   0.00005  -0.00007
 247        4PY        -0.00002  -0.00006  -0.00197  -0.00038   0.00001
 248        4PZ         0.00000  -0.00004  -0.00077  -0.00005  -0.00002
 249 17  H  1S         -0.00001   0.00003   0.00005  -0.00012   0.00006
 250        2S         -0.00005  -0.00034  -0.00275  -0.00104  -0.00010
 251        3S         -0.00002   0.00016   0.00438   0.00095   0.00020
 252        4PX         0.00001   0.00004   0.00157   0.00035  -0.00006
 253        4PY         0.00000   0.00004   0.00125   0.00018   0.00005
[...]
 00027837,0.01082540,-0.02243037,0.00669443,0.10439012,-0.22872912,0.06
 471266,0.00370845,-0.00735059,0.00248807,-0.00372694,0.00730053,-0.001
 86838,-0.11289934,0.25041073,-0.00136165,0.00037632,0.00061763,0.00035
 186,-0.00003058,-0.00012571,-0.00009813,-0.00001109,-0.00032405,-0.000
 09732,0.00005146,0.00010959,0.00003459,-0.00002210,0.00005295,-0.00148
 472,0.00675779,-0.00353830,-0.03866010,0.06462761,-0.07113719,0.010746
 11,-0.02074436,0.00841253,-0.01118505,0.02155692,-0.00679848,0.0403694
 2,-0.07270560,0.07176710,-0.01753808,0.01965321,-0.00110634,0.00125956
 ,0.00019065,0.00273309,0.00026351,-0.00027867,-0.00177096,-0.00010704,
 -0.00010812,0.00005280,-0.00072356,0.00009318,0.00040322,-0.10164801,0
 .09998489,-0.03643261,0.01132227,-0.02122578,0.00734898,0.00080696,0.0
 0103194,-0.00029620,0.00091776,0.00075891,-0.00040465,-0.00284222,-0.0
 0384090,0.00094237,0.11496160,0.00752304,-0.00809858,0.00055701,-0.001
 09130,0.00030275,-0.00094396,0.00006596,0.00090740,0.00176875,0.000271
 66,-0.00000097,-0.00024784,0.00000129,0.00013921,-0.00035987,0.1031505
 6,-0.23835748,0.06430526,0.00863586,-0.01957227,0.00801802,0.00003817,
 0.00087509,0.00007369,0.00047300,0.00088427,-0.00068576,-0.00353730,-0
 .00181392,0.00086862,-0.11177717,0.25695736,0.02162021,-0.02804651,0.0
 0151661,-0.00051246,-0.00058281,-0.00337078,0.00151080,-0.00121125,0.0
 0058922,0.00013643,-0.00047037,0.00046438,0.00166618,0.00016074,-0.001
 27647,-0.04453941,0.07402128,-0.07683250,-0.00364326,0.00509446,-0.001
 63990,0.00002999,0.00003296,0.00011370,0.00061375,-0.00040048,0.000467
 64,0.00134602,0.00102561,0.00075386,0.03276727,-0.07227602,0.08387282,
 0.01241250,0.00466367,0.02478618,0.00154365,0.00034403,-0.00053292,-0.
 00266753,0.00209767,0.00138219,-0.00025550,-0.00042518,0.00124718,-0.0
 0012178,-0.00029784,0.00041188,-0.15346937,-0.03252732,-0.13993747,-0.
 01352435,-0.00498947,-0.01579119,0.00042563,0.00051846,0.00011187,-0.0
 0152672,-0.00285346,0.00166396,0.00113913,0.00058097,0.00019623,-0.006
 16856,-0.00277092,-0.00843164,0.16620122,-0.00466756,-0.00246727,-0.01
 021377,-0.00065724,0.00033842,0.00002411,0.00101705,-0.00066213,0.0005
 0075,0.00016099,0.00017647,-0.00024371,0.00021439,0.00000636,-0.000502
 94,-0.02656483,-0.05752981,-0.03608450,-0.01635369,-0.00547275,-0.0187
 3623,0.00063927,0.00097925,0.00019423,-0.00336524,-0.00286362,0.001396
 29,0.00085703,0.00074990,-0.00057590,0.01468016,0.00708580,0.02144110,
 0.03419078,0.05953513,-0.01076297,-0.00471865,-0.02917250,-0.00120351,
 0.00107854,0.00051516,0.00274239,-0.00279207,-0.00032641,-0.00001834,0
 .00009252,-0.00131087,-0.00007037,0.00037905,-0.00042573,-0.12685829,-
 0.04187008,-0.21680764,0.00526529,0.00175074,0.00937061,-0.00054219,-0
 .00042661,0.00032243,0.00170814,0.00240533,0.00051170,-0.00021151,-0.0
 0012502,0.00016202,-0.00340577,-0.00021276,-0.00314970,0.13524569,0.04
 315656,0.24211325,-0.00248142,0.00053045,0.00068377,0.00131304,0.00089
 160,0.00016755,-0.27220798,0.13910797,-0.04364721,-0.00714641,0.006989
 38,-0.00351815,0.00078735,0.00276875,0.00109258,-0.00048576,-0.0003688
 3,0.00085725,0.00017741,0.00001962,0.00004241,-0.00000390,0.00001914,-
 0.00001470,-0.00018578,-0.00029817,0.00009009,-0.00003437,-0.00002389,
 -0.00003572,0.00051280,-0.00040967,-0.00030961,0.00004708,-0.00012808,
 0.00003417,0.28026536,0.00123485,-0.00251509,-0.00087740,0.00094327,0.
 00225364,0.00009455,0.13894260,-0.10938752,0.02610706,0.00649178,0.001
 47906,0.00187955,0.00278845,0.00411927,-0.00034360,-0.00081799,-0.0004
 7517,-0.00052443,0.00006426,-0.00008710,0.00015347,-0.00008214,-0.0000
 1961,-0.00011571,-0.00033437,-0.00018369,0.00017988,-0.00001906,0.0000
 0768,-0.00006667,-0.00005834,0.00029000,-0.00007535,0.00004642,0.00008
 845,-0.00009058,-0.14781690,0.10658851,-0.02844935,0.01625651,-0.00641
 921,0.00101227,-0.00041525,-0.00653210,-0.03526785,0.02070302,-0.06147
 215,0.01569417,-0.00893243,0.00935195,0.00289164,-0.00148119,-0.000725
 41,-0.00144347,0.00125237,0.00089152,0.00016698,0.00006666,-0.00017531
 ,0.00001584,-0.00000183,0.00004738,0.00013538,0.00019577,-0.00028428,-
 0.00002861,-0.00008550,0.00009844,-0.00014338,-0.00054982,-0.00054314,
 0.00004537,-0.00021627,0.00010579,0.04677201,-0.02745206,0.06431689,0.
 00036747,0.00372715,0.00542294,-0.00614895,0.00363932,0.00124488,0.007
 15954,-0.00355595,0.01803833,-0.07274334,0.00602366,-0.01127284,-0.000
 88011,-0.00043995,-0.02017293,0.00169052,0.00001787,0.00014367,-0.0000
 7552,0.00007420,0.00003062,-0.00005224,-0.00005744,0.00005084,0.000028
 02,-0.00001352,-0.00000876,0.00000017,-0.00001500,0.00000486,-0.000054
 86,-0.00001355,-0.00003390,-0.00041788,0.00009175,0.00038243,-0.001311
 42,-0.00111989,0.00003758,0.49891641,0.00434705,0.00511017,-0.00302909
 ,0.00324262,-0.00173368,-0.00061481,-0.00285029,0.00439879,-0.00990468
 ,0.00499644,-0.06732994,0.01032578,-0.00068865,-0.00220347,0.01154433,
 -0.00046592,0.00128993,0.00014119,0.00010384,-0.00017643,-0.00024032,0
 .00012420,0.00005129,-0.00000457,-0.00000562,-0.00000452,0.00005070,-0
 .00002638,-0.00001772,0.00002230,0.00002448,-0.00004978,0.00010124,0.0
 0008820,-0.00002689,-0.00003867,-0.00111996,-0.00274925,-0.00011700,0.
 03186946,0.54332916,-0.00105298,0.00091327,0.00013826,0.00519058,-0.00
 318391,0.00059978,0.00253147,-0.00075259,-0.01865626,0.00877888,-0.000
 25009,-0.21997659,-0.00870702,0.00530382,-0.00326283,0.00014778,-0.000
 08049,-0.00027604,0.00005039,0.00021994,0.00013957,-0.00009200,-0.0000
 6974,0.00005779,-0.00000123,-0.00000368,-0.00002919,0.00001735,-0.0000
 1138,-0.00001807,-0.00010944,0.00000118,0.00008607,-0.00007938,0.00000
 474,0.00005665,-0.00090606,0.00044454,0.00064916,-0.03134555,0.0169725
 6,0.51438973,0.00004933,-0.00011424,-0.00115172,-0.00071291,0.00054458
 ,-0.00047565,0.00041364,-0.00023127,0.00169591,-0.01092817,0.00814636,
 -0.01026904,0.00155762,-0.00106575,0.00029954,-0.00041564,0.00017639,0
 .00034059,0.00002685,-0.00012443,-0.00009305,0.00006344,0.00004679,-0.
 00003410,-0.00000017,0.00000387,0.00002247,-0.00001216,0.00000232,0.00
 000797,0.00005587,-0.00002402,-0.00002703,0.00007311,0.00000389,-0.000
 07350,0.00018878,-0.00024665,-0.00009496,-0.18386853,0.06394698,0.0060
 0002,0.27774919,-0.00008234,-0.00001647,0.00060290,0.00071720,-0.00016
 792,0.00032491,-0.00031492,0.00009162,-0.00084673,0.00962295,-0.001542
 71,0.00633239,-0.00111461,0.00026276,0.00009838,0.00018368,-0.00018584
 ,-0.00021818,-0.00003854,0.00008349,0.00005861,-0.00004046,-0.00002959
 ,0.00002659,0.00001951,-0.00000337,-0.00001162,0.00000735,-0.00000052,
 -0.00000897,-0.00004658,0.00000467,0.00000126,-0.00002905,-0.00001137,
 0.00003704,-0.00022755,-0.00014827,0.00000700,0.06755859,-0.09503766,-
 0.00020806,-0.12760146,0.11349106,-0.00067694,0.00032815,0.00048048,-0
 .00357368,0.00211145,-0.00155599,0.00135574,-0.00082742,-0.00056374,-0
 .04312310,0.02372190,-0.01485656,0.00185155,-0.00099740,-0.00576444,-0
 .00032301,0.00017957,0.00067565,0.00001425,-0.00018681,-0.00011457,0.0
 0008599,0.00006257,-0.00005521,-0.00001658,-0.00001132,0.00003692,-0.0
 0001847,0.00000989,0.00001024,0.00009408,-0.00000674,-0.00001568,0.000
 03384,0.00003784,-0.00004990,-0.00107625,0.00057801,-0.00086263,-0.034
 86886,0.02073999,-0.09447098,0.06262443,-0.07631484,0.62087676,-0.0002
 6968,0.00037596,-0.00051170,0.00031237,-0.00048076,-0.00055467,0.00003
 522,-0.00032496,-0.00013972,0.00149644,-0.00133905,0.00240832,0.000110
 58,0.00032075,-0.00050443,-0.00007694,0.00012759,0.00009369,0.00002349
 ,-0.00002228,-0.00002018,0.00001478,0.00000793,-0.00000490,-0.00000574
 ,0.00000057,0.00000204,-0.00000413,-0.00000282,0.00000164,0.00000598,-
 0.00000169,0.00000383,0.00000520,0.00000673,-0.00000546,0.00001237,0.0
 0003702,-0.00018192,-0.04856795,-0.00934070,-0.00510357,-0.01315750,0.
 03821271,0.00902177,0.05758296,-0.00023137,-0.00039030,0.00059211,-0.0
 0032006,0.00046373,-0.00001345,-0.00033416,0.00022607,0.00079909,-0.00
 100242,0.00522701,-0.00061343,0.00058724,-0.00001537,-0.00003248,0.000
 02220,-0.00014156,-0.00002668,-0.00002094,0.00002517,0.00002800,-0.000
 01557,-0.00000802,0.00000049,-0.00000129,-0.00000187,-0.00000565,0.000
 00158,0.00000203,-0.00000084,-0.00000222,0.00000688,-0.00000538,-0.000
 00471,0.00000318,0.00000152,0.00003313,0.00009755,0.00010552,-0.005914
 28,-0.25494951,-0.09223252,0.01429539,-0.01455945,-0.00021172,-0.00469
 292,0.27942701,0.00046342,0.00164417,-0.00163030,0.00123591,-0.0001218
 6,-0.00129266,-0.00235860,0.00052076,-0.00099663,0.00055898,-0.0297996
 2,-0.01953159,-0.00006728,-0.00068884,0.00040755,-0.00036965,0.0003884
 5,0.00014635,0.00004479,-0.00007736,-0.00008289,0.00005356,0.00002752,
 -0.00000963,-0.00000100,-0.00000463,0.00001748,-0.00001464,-0.00000509
 ,0.00000453,0.00002479,-0.00001313,0.00003327,0.00005365,-0.00000151,-
 0.00005222,-0.00027389,-0.00048661,0.00002533,-0.00046610,-0.09381867,
 -0.09217751,-0.00359581,0.01094375,0.00643637,0.00346627,0.10020172,0.
 10064596,-0.00048343,-0.00022464,-0.00071919,0.00079239,-0.00014697,-0
 .00038423,0.00056593,-0.00001629,-0.00063067,0.00478788,0.00118721,0.0
 0242079,-0.00088495,0.00042321,-0.00020956,-0.00016708,-0.00004751,0.0
 0006163,0.00000709,-0.00000613,0.00000444,0.00000511,0.00000474,-0.000
 00756,-0.00000045,0.00000251,-0.00000010,-0.00000233,0.00000018,0.0000
 0220,0.00000824,-0.00001133,0.00000074,0.00003002,-0.00000525,-0.00002
 960,0.00002032,0.00002812,-0.00017755,-0.18611854,-0.10155294,0.065532
 67,-0.03840123,-0.00345778,0.00410305,0.00148194,-0.00277601,0.0009424
 9,0.21750579,0.00035479,-0.00024434,0.00028678,-0.00025605,0.00007072,
 0.00051883,0.00010486,-0.00031178,-0.00043079,0.00016288,0.00102847,-0
 .00053359,0.00012518,0.00042852,0.00050246,0.00010812,-0.00002539,-0.0
 0006456,-0.00000808,0.00000902,0.00000346,-0.00000941,-0.00000315,0.00
 000530,0.00000229,0.00000017,-0.00000331,0.00000368,0.00000274,-0.0000
 0208,-0.00000788,0.00000261,-0.00000627,-0.00001750,0.00000041,0.00000
 993,0.00004205,0.00004108,0.00008213,-0.10583721,-0.12635984,0.0516479
 4,0.02183433,0.01108453,-0.00656314,-0.02219587,-0.01583011,0.01061097
 ,0.10645548,0.12917728,-0.00131594,-0.00110267,-0.00164314,0.00080150,
 -0.00098240,-0.00138717,-0.00154555,0.00174517,-0.00071220,0.02520533,
 0.01712377,-0.01811295,0.00038109,0.00043134,0.00026292,-0.00054287,-0
 .00006697,0.00005827,0.00002642,-0.00002467,0.00000577,0.00002041,0.00
 001923,-0.00002412,-0.00001219,0.00000305,-0.00000081,-0.00000629,0.00
 000230,0.00000396,0.00003139,0.00001031,0.00001018,0.00012028,-0.00001
 323,-0.00012253,0.00028476,0.00051847,0.00003404,0.07017453,0.04895073
 ,-0.08277544,-0.01125519,-0.00290910,0.00551273,-0.00948168,-0.0079335
 8,0.00695944,-0.07242171,-0.05505718,0.09063999,0.00030545,-0.00005924
 ,-0.00004640,-0.00047496,0.00029885,0.00003291,-0.00039327,0.00020705,
 0.00066666,-0.00594336,0.00277243,-0.00044987,0.00047465,0.00009985,-0
 .00112148,0.00006227,-0.00000245,-0.00001723,0.00000056,-0.00000189,-0
 .00000526,0.00000030,0.00000033,0.00000259,0.00000607,0.00000350,-0.00
 000387,-0.00000099,-0.00000243,0.00000033,0.00000266,-0.00000750,-0.00
 001348,-0.00001051,0.00000569,0.00001132,0.00025937,-0.00029747,-0.000
 33251,-0.00861606,0.00685256,-0.04044297,-0.03301185,0.01680369,0.0039
 4814,0.00100274,0.00036085,0.00026725,0.00077322,-0.00080993,-0.000454
 80,0.04547701,-0.00004763,0.00025013,0.00000194,0.00025487,-0.00009617
 ,-0.00002997,0.00022202,-0.00017464,-0.00041832,0.00253603,-0.00216897
 ,0.00003958,0.00006240,0.00063118,0.00052656,-0.00003006,0.00001663,0.
 00001370,0.00000404,-0.00000213,0.00000184,0.00000149,0.00000190,-0.00
 000412,-0.00000298,0.00000007,-0.00000238,0.00000043,0.00000152,0.0000
 0114,-0.00000158,0.00000836,0.00001707,0.00000869,0.00000239,-0.000007
 04,-0.00028037,-0.00005642,0.00020212,0.00344658,-0.00483785,0.0210853
 8,0.02054585,-0.01347072,0.03761243,-0.00057894,0.00036336,0.00061424,
 0.00008013,0.00094923,-0.00062143,-0.02612133,0.01863112,-0.00006271,0
 .00002531,0.00035474,-0.00006146,0.00004764,0.00001622,0.00007601,-0.0
 0005377,0.00032062,-0.00136287,0.00064165,0.00004960,0.00013901,-0.000
 08444,0.00010902,0.00006752,-0.00003113,-0.00004297,-0.00000553,0.0000
 1302,0.00001119,-0.00000834,-0.00000468,0.00000336,0.00000179,0.000000
 07,-0.00000124,0.00000154,-0.00000027,-0.00000081,-0.00000628,0.000003
 20,0.00000434,-0.00000961,0.00000202,0.00001254,-0.00013410,0.00007632
 ,0.00021036,0.00414942,-0.00191600,-0.00577437,-0.04371421,0.06192974,
 -0.51499100,0.00140243,-0.00058760,0.00087225,0.00137253,-0.00094538,0
 .00105861,0.03816006,-0.05911953,0.51773859,-0.01369339,0.00779856,-0.
 01591051,-0.06279482,-0.00295325,-0.01875082,-0.00125647,0.00324795,0.
 00768139,0.00322827,-0.00175128,0.00385896,0.00897963,-0.00574007,0.01
 341862,-0.00165269,-0.00084477,-0.00055365,-0.00037476,-0.00056250,0.0
 0011199,0.00051731,0.00001876,-0.00009949,0.00050644,0.00008671,0.0002
 1206,-0.00079481,-0.00053542,0.00028688,0.00100913,-0.00027596,0.00054
 213,-0.00210069,0.00242049,0.00033864,0.00051602,0.00083002,0.00019417
 ,0.00003689,0.00129153,-0.00102483,0.00078377,-0.00045388,0.00127386,0
 .00008206,0.00002082,0.00043623,0.00019506,-0.00018320,0.00034340,0.00
 003997,-0.00008533,-0.00008283,0.58091236,0.00813888,-0.00539451,0.008
 80123,-0.00403195,-0.06453266,0.01261392,0.00346045,0.00294760,-0.0042
 7140,-0.00197553,0.00109831,-0.00207041,-0.00504823,0.00303797,-0.0074
 2503,-0.00078718,-0.00291109,0.00029040,-0.00028215,0.00072739,0.00028
 365,-0.00038779,-0.00026559,0.00012051,-0.00030094,0.00000350,-0.00012
 957,0.00025755,0.00045328,-0.00004341,-0.00048532,0.00011765,-0.000585
 50,0.00149045,-0.00154635,-0.00070704,0.00074298,0.00141991,-0.0000953
 3,0.00137284,0.00155761,0.00055042,-0.00041254,0.00027876,-0.00066516,
 -0.00024042,0.00009442,-0.00009700,0.00006675,0.00002273,-0.00039105,-
 0.00007799,-0.00007502,0.00005294,-0.23083135,0.34872233,-0.00992717,0
 .00466885,0.01383796,-0.00820784,0.00601724,-0.09558680,0.00472274,-0.
 00256366,0.01443213,0.01014071,-0.00546410,-0.00098415,-0.00414405,0.0
 0264770,-0.02343777,-0.00473146,0.00512116,0.00253154,0.00019997,-0.00
 218508,-0.00139471,0.00056274,0.00058482,-0.00018598,-0.00048914,0.000
 19059,-0.00004537,0.00041886,0.00088850,0.00023826,-0.00080207,-0.0005
 7075,-0.00247491,0.00458486,-0.00465976,0.00003087,0.00038350,-0.00027
 037,0.00149461,-0.00118707,0.00065611,-0.00203369,0.00124290,-0.000765
 09,0.00210176,0.00026018,-0.00005226,0.00066527,0.00021007,-0.00022581
 ,0.00073166,-0.00000938,0.00002439,-0.00007062,-0.19937025,0.12454857,
 0.62998133,-0.00007792,-0.00046912,0.00260543,0.01227102,0.00380001,-0
 .00184109,0.00111053,-0.00072318,0.00082799,0.00029958,-0.00030533,-0.
 00060585,-0.00032907,0.00109529,-0.00540279,-0.00359916,0.00607472,0.0
 0034065,0.00036774,-0.00054583,-0.00025651,-0.00016952,0.00016871,0.00
 003495,-0.00050502,0.00015032,-0.00024783,0.00037302,0.00105725,0.0000
 6980,-0.00145753,-0.00036005,-0.00232135,-0.00276027,-0.00097403,-0.00
 271503,0.00003819,-0.00019680,0.00008883,0.00002790,-0.00041042,0.0000
 1074,-0.00004307,0.00002574,-0.00003435,0.00001518,-0.00001527,-0.0000
 8818,-0.00002894,0.00002853,-0.00002411,0.00001618,0.00000711,0.000025
 18,-0.14295412,0.04497181,0.13847281,0.17306139,0.00010712,-0.00025478
 ,-0.00167083,0.00443210,0.01650735,0.00019161,-0.00104153,-0.00002275,
 -0.00036038,-0.00023746,-0.00020526,0.00021700,0.00073828,0.00049988,0
 .00315628,0.00341344,-0.00357895,0.00004573,-0.00018137,-0.00056100,0.
 00044697,-0.00003203,0.00012498,-0.00006166,0.00017445,0.00045128,-0.0
 0003626,0.00008570,0.00037204,-0.00010613,0.00106883,0.00039193,0.0014
 8709,0.00053905,0.00059498,0.00223456,-0.00016275,-0.00012588,-0.00006
 252,-0.00039901,-0.00034833,0.00003054,0.00001366,0.00001521,-0.000025
 34,0.00005111,-0.00002405,-0.00001355,-0.00003618,0.00000970,0.0000895
 0,-0.00000522,0.00001797,-0.00001543,0.04447381,-0.09942341,-0.0872671
 1,-0.09212485,0.08411031,0.00510406,-0.00256077,0.00155169,0.00213659,
 -0.00215663,-0.06700080,-0.00082579,0.00058972,-0.00596246,-0.00207391
 ,0.00127247,-0.00352206,-0.00488737,0.00291910,-0.00087784,0.00068481,
 -0.00036938,-0.00053253,0.00009657,0.00111989,0.00101284,-0.00034764,-
 0.00028856,0.00006767,0.00030348,-0.00017164,0.00002000,-0.00011781,-0
 .00053530,-0.00021691,-0.00008817,0.00010400,0.00064330,-0.00390986,0.
 00306492,-0.00183475,-0.00018571,0.00013162,-0.00014341,-0.00018645,0.
 00013631,0.00190626,-0.00094719,0.00059913,-0.00178866,-0.00011901,0.0
 0000132,-0.00027773,-0.00006527,0.00011649,-0.00032279,-0.00013667,0.0
 0004645,0.00006944,0.14828346,-0.09480654,-0.43429572,-0.19912826,0.12
 581118,0.53215389,0.00173665,0.00020261,-0.00832800,-0.04760931,0.0407
 1536,-0.01099790,-0.00190409,0.00038613,-0.00333735,-0.00277259,0.0024
 1898,-0.00009331,-0.00199005,0.00008441,-0.00161607,0.00119173,-0.0001
 8865,-0.00083300,-0.00000795,0.00058853,-0.00014147,-0.00032448,-0.000
 11191,0.00011839,-0.00028018,-0.00009618,-0.00011391,0.00034548,0.0003
 0381,-0.00009157,-0.00058649,0.00012092,-0.00040521,0.00114562,-0.0015
 7228,0.00016847,-0.00028105,-0.00041716,-0.00093465,0.00062849,-0.0004
 2650,0.00060516,-0.00041038,0.00025574,-0.00069546,-0.00009938,0.00001
 001,-0.00031217,-0.00008605,0.00010293,-0.00032880,0.00003055,-0.00002
 143,0.00005246,-0.37118517,0.18435969,0.06766910,-0.03565612,0.0391228
 6,0.05641013,0.45811479,0.00024624,0.00178869,0.00514359,0.04092206,-0
 .00596481,0.00656060,0.00064086,-0.00137608,0.00179246,0.00235518,-0.0
 0002358,0.00003370,-0.00015221,-0.00174596,0.00067476,-0.00046419,0.00
 066857,0.00084712,0.00004477,-0.00034179,-0.00010519,0.00025208,0.0000
 7438,-0.00007263,0.00019477,-0.00001829,0.00008969,-0.00025766,-0.0003
 0895,0.00005555,0.00034631,-0.00008099,0.00027713,-0.00065294,0.001019
 45,-0.00015728,-0.00030889,-0.00063715,0.00053810,-0.00045564,0.000087
 91,-0.00038185,0.00025994,-0.00013822,0.00042808,0.00008003,-0.0000161
 7,0.00017629,0.00003273,-0.00005260,0.00020838,-0.00001933,0.00000807,
 -0.00003367,0.18402836,-0.18633281,-0.04132393,0.03874541,0.00144879,-
 0.03502379,-0.26583789,0.19194154,-0.00159774,0.00130677,-0.00422549,-
 0.02719457,0.01637758,0.00315319,-0.00274152,0.00149872,-0.00257764,-0
 .00094934,0.00061749,0.00116537,0.00081140,-0.00066157,0.00118930,0.00
 178111,-0.00145798,-0.00135152,-0.00013860,0.00038163,0.00046531,-0.00
 013219,-0.00016647,0.00006358,0.00018119,0.00000761,0.00000871,-0.0001
 6108,-0.00024548,-0.00007162,0.00016789,0.00015662,0.00074769,-0.00119
 109,0.00142528,0.00005121,-0.00030670,0.00013930,-0.00006783,-0.000137
 64,0.00004257,0.00142770,-0.00050240,0.00032089,-0.00104157,-0.0000329
 3,-0.00001417,-0.00016265,-0.00000517,0.00004784,-0.00017644,-0.000055
 34,0.00001594,0.00005013,0.05881057,-0.03597420,-0.10553566,0.07018898
 ,-0.04409125,-0.02064943,-0.09679485,0.06027290,0.12753766\\0.00000389
 ,0.00000207,0.00000035,-0.00000111,-0.00000773,0.00000052,0.00000396,0
 .00000532,0.00000044,0.00000075,-0.00000367,0.00000030,-0.00000997,-0.
 00002160,-0.00000191,0.00000829,0.00000883,0.00000085,-0.00000053,0.00
 001807,0.00000272,0.00000160,0.00001007,0.00000177,-0.00000117,0.00000
 929,0.00000360,-0.00000303,0.00000669,0.00000146,0.00000589,0.00000605
 ,0.00000072,0.00000523,0.00000161,-0.00000007,0.00000345,0.00000493,0.
 ,0.00000199,-0.00000225,0.00000286,-0.00000014,0.00001878,-0.00014021,
 -0.00000570,0.00000326,0.00000111,-0.00000100,-0.00000654,0.00000001,0
 .00000524,-0.00000442,0.00013301,-0.00000509,-0.00001268,0.00000023,0.
 00000204,-0.00001248,-0.00000669,-0.00001461,-0.00002361,-0.00000109\\
 \@
 The archive entry for this job was punched.


 BOOKS ARE LIGHTHOUSES ERECTED IN THE GREAT SEA OF TIME.
     -- E.P.WHIPPLE
 Job cpu time:       0 days  1 hours 18 minutes 56.4 seconds.
 Elapsed time:       0 days  0 hours 41 minutes  1.6 seconds.
 File lengths (MBytes):  RWF=    310 Int=      0 D2E=      0 Chk=     30 Scr=      1
 Normal termination of Gaussian 16 at Fri Jun  2 15:27:30 2023.
