 Entering Gaussian System, Link 0=g16
 Input=2methylimidazolide-isolated-freq.gjf
 Output=2methylimidazolide-isolated-freq.log
 Initial command:
 /software/commercial/gaussian/g16/AVX/g16/l1.exe "/scratch1/svicchi/G09-659807.pbs02/Gau-2157678.inp" -scrdir="/scratch1/svicchi/G09-659807.pbs02/"
 Entering Link 1 = /software/commercial/gaussian/g16/AVX/g16/l1.exe PID=   2157679.
  
 Copyright (c) 1988-2019, Gaussian, Inc.  All Rights Reserved.
  
 This is part of the Gaussian(R) 16 program.  It is based on
 the Gaussian(R) 09 system (copyright 2009, Gaussian, Inc.),
 the Gaussian(R) 03 system (copyright 2003, Gaussian, Inc.),
 the Gaussian(R) 98 system (copyright 1998, Gaussian, Inc.),
 the Gaussian(R) 94 system (copyright 1995, Gaussian, Inc.),
 the Gaussian 92(TM) system (copyright 1992, Gaussian, Inc.),
 the Gaussian 90(TM) system (copyright 1990, Gaussian, Inc.),
 the Gaussian 88(TM) system (copyright 1988, Gaussian, Inc.),
 the Gaussian 86(TM) system (copyright 1986, Carnegie Mellon
 University), and the Gaussian 82(TM) system (copyright 1983,
 Carnegie Mellon University). Gaussian is a federally registered
 trademark of Gaussian, Inc.
  
 This software contains proprietary and confidential information,
 including trade secrets, belonging to Gaussian, Inc.
  
 This software is provided under written license and may be
 used, copied, transmitted, or stored only in accord with that
 written license.
  
 The following legend is applicable only to US Government
 contracts under FAR:
  
                    RESTRICTED RIGHTS LEGEND
  
 Use, reproduction and disclosure by the US Government is
 subject to restrictions as set forth in subparagraphs (a)
 and (c) of the Commercial Computer Software - Restricted
 Rights clause in FAR 52.227-19.
  
 Gaussian, Inc.
 340 Quinnipiac St., Bldg. 40, Wallingford CT 06492
  
  
 ---------------------------------------------------------------
 Warning -- This program may not be used in any manner that
 competes with the business of Gaussian, Inc. or will provide
 assistance to any competitor of Gaussian, Inc.  The licensee
 of this program is prohibited from giving any competitor of
 Gaussian, Inc. access to this program.  By using this program,
 the user acknowledges that Gaussian, Inc. is engaged in the
 business of creating and licensing software in the field of
 computational chemistry and represents and warrants to the
 licensee that it is not a competitor of Gaussian, Inc. and that
 it will not use this program in any manner prohibited above.
 ---------------------------------------------------------------
  

 Cite this work as:
 Gaussian 16, Revision C.01,
 M. J. Frisch, G. W. Trucks, H. B. Schlegel, G. E. Scuseria, 
 M. A. Robb, J. R. Cheeseman, G. Scalmani, V. Barone, 
 G. A. Petersson, H. Nakatsuji, X. Li, M. Caricato, A. V. Marenich, 
 J. Bloino, B. G. Janesko, R. Gomperts, B. Mennucci, H. P. Hratchian, 
 J. V. Ortiz, A. F. Izmaylov, J. L. Sonnenberg, D. Williams-Young, 
 F. Ding, F. Lipparini, F. Egidi, J. Goings, B. Peng, A. Petrone, 
 T. Henderson, D. Ranasinghe, V. G. Zakrzewski, J. Gao, N. Rega, 
 G. Zheng, W. Liang, M. Hada, M. Ehara, K. Toyota, R. Fukuda, 
 J. Hasegawa, M. Ishida, T. Nakajima, Y. Honda, O. Kitao, H. Nakai, 
 T. Vreven, K. Throssell, J. A. Montgomery, Jr., J. E. Peralta, 
 F. Ogliaro, M. J. Bearpark, J. J. Heyd, E. N. Brothers, K. N. Kudin, 
 V. N. Staroverov, T. A. Keith, R. Kobayashi, J. Normand, 
 K. Raghavachari, A. P. Rendell, J. C. Burant, S. S. Iyengar, 
 J. Tomasi, M. Cossi, J. M. Millam, M. Klene, C. Adamo, R. Cammi, 
 J. W. Ochterski, R. L. Martin, K. Morokuma, O. Farkas, 
 J. B. Foresman, and D. J. Fox, Gaussian, Inc., Wallingford CT, 2019.
 
 ******************************************
 Gaussian 16:  ES64L-G16RevC.01  3-Jul-2019
                 2-Jun-2023 
 ******************************************
 %NProcShared=2
 Will use up to    2 processors via shared memory.
 %mem=55gb
 %chk=/scratch1/svicchi/G09-659807.pbs02/02-freq/2methylimidazolide-isolated-freq
 .chk
 ----------------------------------------------------------------------
 #p freq=raman scale=0.967 pop=(nbo,full,hirshfeld) guess=read geom=all
 check b3lyp/6-311+G(d,p) int=grid=ultrafine EmpiricalDispersion=GD3BJ 
 SCRF=(Solvent=ethanol) scf=(xqc,intrep,maxconventionalcycle=350) nosym
 m
 ----------------------------------------------------------------------
 1/10=4,29=7,30=1,38=1,114=967000/1,3;
 2/12=2,15=1,40=1/2;
 3/5=4,6=6,7=111,11=2,14=-4,25=1,30=1,70=2201,71=2,72=4,74=-5,75=-5,116=-2,124=41,140=1/1,2,3;
 4/5=1/1;
 5/5=2,8=3,13=1,17=20,38=6,53=4,85=350,98=1/2,8;
 8/6=4,10=90,11=11/1;
 10/13=10,15=4,31=1/2;
 11/6=3,8=1,9=11,15=111,16=1,31=1/1,2,10;
 10/6=1,31=1/2;
 6/7=3,28=1,40=1,79=1/1,7;
 7/8=1,10=1,25=1,30=1/1,2,3,16;
 1/10=4,30=1/3;
 99//99;
 Leave Link    1 at Fri Jun  2 11:23:08 2023, MaxMem=  7381975040 cpu:               0.5 elap:               0.6
 (Enter /software/commercial/gaussian/g16/AVX/g16/l101.exe)
 Structure from the checkpoint file:  "/scratch1/svicchi/G09-659807.pbs02/02-freq/2methylimidazolide-isolated-freq.chk"
 -------------------------------
 2methylimidazolide-isolated.gjf
 -------------------------------
 Charge = -1 Multiplicity = 1
 No Z-Matrix found in chk file; cartesian coordinates used.
  N                                                -1.167557515033     -0.028531290231     -0.184446225945
  N                                                 0.967552334109     -0.703519709878      0.220249971304
  C                                                -0.321861822178     -1.060763550778      0.029296229358
  C                                                -0.771321452474     -2.492802856306      0.012740905847
  C                                                -0.353417130348      1.080931916086     -0.128732713273
  C                                                 0.946875922615      0.670064739485      0.118129034104
  H                                                -0.787352852845     -2.905430683803     -1.003989692328
  H                                                -0.098431085735     -3.115695206516      0.606636991195
  H                                                -1.782013752629     -2.591511485626      0.417497630099
  H                                                -0.743410963404      2.082789017595     -0.257365730512
  H                                                 1.844039317921      1.265130109972      0.233533600150
 Recover connectivity data from disk.
 ITRead=  0  0  0  0  0  0  0  0  0  0  0
 MicOpt= -1 -1 -1 -1 -1 -1 -1 -1 -1 -1 -1
 NAtoms=     11 NQM=       11 NQMF=       0 NMMI=      0 NMMIF=      0
                NMic=       0 NMicF=      0.
                    Isotopes and Nuclear Properties:
 (Nuclear quadrupole moments (NQMom) in fm**2, nuclear magnetic moments (NMagM)
  in nuclear magnetons)

  Atom         1           2           3           4           5           6           7           8           9          10
 IAtWgt=          14          14          12          12          12          12           1           1           1           1
 AtmWgt=  14.0030740  14.0030740  12.0000000  12.0000000  12.0000000  12.0000000   1.0078250   1.0078250   1.0078250   1.0078250
 NucSpn=           2           2           0           0           0           0           1           1           1           1
 AtZEff=   4.5500000   4.5500000   3.6000000   3.6000000   3.6000000   3.6000000   1.0000000   1.0000000   1.0000000   1.0000000
 NQMom=    2.0440000   2.0440000   0.0000000   0.0000000   0.0000000   0.0000000   0.0000000   0.0000000   0.0000000   0.0000000
 NMagM=    0.4037610   0.4037610   0.0000000   0.0000000   0.0000000   0.0000000   2.7928460   2.7928460   2.7928460   2.7928460
 AtZNuc=   7.0000000   7.0000000   6.0000000   6.0000000   6.0000000   6.0000000   1.0000000   1.0000000   1.0000000   1.0000000

  Atom        11
 IAtWgt=           1
 AtmWgt=   1.0078250
 NucSpn=           1
 AtZEff=   1.0000000
 NQMom=    0.0000000
 NMagM=    2.7928460
 AtZNuc=   1.0000000
 Leave Link  101 at Fri Jun  2 11:23:10 2023, MaxMem=  7381975040 cpu:               0.6 elap:               1.2
 (Enter /software/commercial/gaussian/g16/AVX/g16/l103.exe)

 GradGradGradGradGradGradGradGradGradGradGradGradGradGradGradGradGradGrad
 Berny optimization.
 Initialization pass.
 Trust Radius=3.00D-01 FncErr=1.00D-07 GrdErr=1.00D-07 EigMax=2.50D+02 EigMin=1.00D-04
 Number of steps in this run=      2 maximum allowed number of steps=      2.
 GradGradGradGradGradGradGradGradGradGradGradGradGradGradGradGradGradGrad

 Leave Link  103 at Fri Jun  2 11:23:12 2023, MaxMem=  7381975040 cpu:               0.1 elap:               0.3
 (Enter /software/commercial/gaussian/g16/AVX/g16/l202.exe)
                          Input orientation:                          
 ---------------------------------------------------------------------
 Center     Atomic      Atomic             Coordinates (Angstroms)
 Number     Number       Type             X           Y           Z
 ---------------------------------------------------------------------
      1          7           0       -1.167558   -0.028531   -0.184446
      2          7           0        0.967552   -0.703520    0.220250
      3          6           0       -0.321862   -1.060764    0.029296
      4          6           0       -0.771321   -2.492803    0.012741
      5          6           0       -0.353417    1.080932   -0.128733
      6          6           0        0.946876    0.670065    0.118129
      7          1           0       -0.787353   -2.905431   -1.003990
      8          1           0       -0.098431   -3.115695    0.606637
      9          1           0       -1.782014   -2.591511    0.417498
     10          1           0       -0.743411    2.082789   -0.257366
     11          1           0        1.844039    1.265130    0.233534
 ---------------------------------------------------------------------
                    Distance matrix (angstroms):
                    1          2          3          4          5
     1  N    0.000000
     2  N    2.275540   0.000000
     3  C    1.351440   1.351546   0.000000
     4  C    2.503701   2.503653   1.501008   0.000000
     5  C    1.377257   2.247447   2.147750   3.600866   0.000000
     6  C    2.247313   1.377531   2.147872   3.600978   1.385826
     7  H    3.015420   3.070320   2.164985   1.097388   4.104322
     8  H    3.361462   2.665372   2.146157   1.092469   4.268192
     9  H    2.703472   3.341187   2.150798   1.093193   3.978203
    10  H    2.154737   3.304395   3.184620   4.583642   1.082755
    11  H    3.304237   2.154991   3.184748   4.583767   2.234722
                    6          7          8          9         10
     6  C    0.000000
     7  H    4.129270   0.000000
     8  H    3.957687   1.764353   0.000000
     9  H    4.263137   1.763100   1.773413   0.000000
    10  H    2.234694   5.043978   5.309118   4.835620   0.000000
    11  H    1.082739   5.084217   4.806665   5.296771   2.757616
                   11
    11  H    0.000000
 Symmetry turned off by external request.
 Stoichiometry    C4H5N2(1-)
 Framework group  C1[X(C4H5N2)]
 Deg. of freedom    27
 Full point group                 C1      NOp   1
 Rotational constants (GHZ):           9.2281762           3.6689115           2.6687329
 Leave Link  202 at Fri Jun  2 11:23:13 2023, MaxMem=  7381975040 cpu:               0.0 elap:               1.0
 (Enter /software/commercial/gaussian/g16/AVX/g16/l301.exe)
 Standard basis: 6-311+G(d,p) (5D, 7F)
 Ernie: Thresh=  0.10000D-02 Tol=  0.10000D-05 Strict=F.
   162 basis functions,   256 primitive gaussians,   168 cartesian basis functions
    22 alpha electrons       22 beta electrons
       nuclear repulsion energy       213.4961256858 Hartrees.
 IExCor=  402 DFT=T Ex+Corr=B3LYP ExCW=0 ScaHFX=  0.200000
 ScaDFX=  0.800000  0.720000  1.000000  0.810000 ScalE2=  1.000000  1.000000
 IRadAn=      5 IRanWt=     -1 IRanGd=            0 ICorTp=0 IEmpDi=141
 NAtoms=   11 NActive=   11 NUniq=   11 SFac= 1.00D+00 NAtFMM=   60 NAOKFM=F Big=F
 Integral buffers will be    131072 words long.
 Raffenetti 2 integral format.
 Two-electron integral symmetry is turned off.
 R6Disp:  Grimme-D3(BJ) Dispersion energy=       -0.0146680892 Hartrees.
 Nuclear repulsion after empirical dispersion term =      213.4814575966 Hartrees.
 Force inversion solution in PCM.
 ------------------------------------------------------------------------------
 Polarizable Continuum Model (PCM)
 =================================
 Model                : PCM.
 Atomic radii         : UFF (Universal Force Field).
 Polarization charges : Total charges.
 Charge compensation  : None.
 Solution method      : Matrix inversion.
 Cavity type          : Scaled VdW (van der Waals Surface) (Alpha=1.100).
 Cavity algorithm     : GePol (No added spheres)
                        Default sphere list used, NSphG=   11.
                        Lebedev-Laikov grids with approx.  5.0 points / Ang**2.
                        Smoothing algorithm: York/Karplus (Gamma=1.0000).
                        Polarization charges: spherical gaussians, with
                                              point-specific exponents (IZeta= 3).
                        Self-potential: point-specific (ISelfS= 7).
                        Self-field    : sphere-specific E.n sum rule (ISelfD= 2).
 1st derivatives      : Analytical E(r).r(x)/FMM algorithm (CHGder, D1EAlg=3).
                        Cavity 1st derivative terms included.
 2nd derivatives      : Analytical E(r).r(xy)/FMM algorithm (CHGder, D2EAlg=3).
                        Cavity 2nd derivative terms included.
 Solvent              : Ethanol, Eps=  24.852000 Eps(inf)=   1.852593
 ------------------------------------------------------------------------------
 Spheres list:
 ISph  on   Nord     Re0    Alpha      Xe            Ye            Ze
    1   N      1    1.8300  1.100     -1.167558     -0.028531     -0.184446
    2   N      2    1.8300  1.100      0.967552     -0.703520      0.220250
    3   C      3    1.9255  1.100     -0.321862     -1.060764      0.029296
    4   C      4    1.9255  1.100     -0.771321     -2.492803      0.012741
    5   C      5    1.9255  1.100     -0.353417      1.080932     -0.128733
    6   C      6    1.9255  1.100      0.946876      0.670065      0.118129
    7   H      7    1.4430  1.100     -0.787353     -2.905431     -1.003990
    8   H      8    1.4430  1.100     -0.098431     -3.115695      0.606637
    9   H      9    1.4430  1.100     -1.782014     -2.591511      0.417498
   10   H     10    1.4430  1.100     -0.743411      2.082789     -0.257366
   11   H     11    1.4430  1.100      1.844039      1.265130      0.233534
 ------------------------------------------------------------------------------
 GePol: Number of generator spheres                  =      11
 GePol: Total number of spheres                      =      11
 GePol: Number of exposed spheres                    =      11 (100.00%)
 GePol: Number of points                             =    1049
 GePol: Average weight of points                     =       0.13
 GePol: Minimum weight of points                     =   0.24D-07
 GePol: Maximum weight of points                     =    0.20577
 GePol: Number of points with low weight             =      51
 GePol: Fraction of low-weight points (<1% of avg)   =       4.86%
 GePol: Cavity surface area                          =    140.758 Ang**2
 GePol: Cavity volume                                =    129.380 Ang**3
 Leave Link  301 at Fri Jun  2 11:23:16 2023, MaxMem=  7381975040 cpu:               1.4 elap:               2.2
 (Enter /software/commercial/gaussian/g16/AVX/g16/l302.exe)
 NPDir=0 NMtPBC=     1 NCelOv=     1 NCel=       1 NClECP=     1 NCelD=      1
         NCelK=      1 NCelE2=     1 NClLst=     1 CellRange=     0.0.
 One-electron integrals computed using PRISM.
 NBasis=   162 RedAO= T EigKep=  2.02D-05  NBF=   162
 NBsUse=   162 1.00D-06 EigRej= -1.00D+00 NBFU=   162
 Precomputing XC quadrature grid using
 IXCGrd= 4 IRadAn=           5 IRanWt=          -1 IRanGd=           0 AccXCQ= 0.00D+00.
 Generated NRdTot=       0 NPtTot=           0 NUsed=           0 NTot=          32
 NSgBfM=   168   168   168   168   168 MxSgAt=    11 MxSgA2=    11.
 Leave Link  302 at Fri Jun  2 11:23:18 2023, MaxMem=  7381975040 cpu:               0.5 elap:               1.0
 (Enter /software/commercial/gaussian/g16/AVX/g16/l303.exe)
 DipDrv:  MaxL=1.
 Leave Link  303 at Fri Jun  2 11:23:21 2023, MaxMem=  7381975040 cpu:               0.5 elap:               2.1
 (Enter /software/commercial/gaussian/g16/AVX/g16/l401.exe)
 Initial guess from the checkpoint file:  "/scratch1/svicchi/G09-659807.pbs02/02-freq/2methylimidazolide-isolated-freq.chk"
 B after Tr=     0.000000    0.000000    0.000000
         Rot=    1.000000    0.000000    0.000000    0.000000 Ang=   0.00 deg.
 Guess basis will be translated and rotated to current coordinates.
 JPrj=2 DoOrth=T DoCkMO=T.
 Leave Link  401 at Fri Jun  2 11:23:22 2023, MaxMem=  7381975040 cpu:               0.4 elap:               0.6
 (Enter /software/commercial/gaussian/g16/AVX/g16/l502.exe)
 Keep R1 ints in memory in canonical form, NReq=89580368.
 FoFCou: FMM=F IPFlag=           0 FMFlag=           0 FMFlg1=           0
         NFxFlg=           0 DoJE=F BraDBF=F KetDBF=F FulRan=T
         wScrn=  0.000000 ICntrl=       600 IOpCl=  0 I1Cent=           0 NGrid=           0
         NMat0=    1 NMatS0=  13203 NMatT0=    0 NMatD0=    1 NMtDS0=    0 NMtDT0=    0
 Symmetry not used in FoFCou.
 Two-electron integral symmetry not used.
 Closed shell SCF:
 Using DIIS extrapolation, IDIIS=  1040.
 NGot=  7381975040 LenX=  7294749778 LenY=  7294721113
 Requested convergence on RMS density matrix=1.00D-08 within 350 cycles.
 Requested convergence on MAX density matrix=1.00D-06.
 Requested convergence on             energy=1.00D-06.
 No special actions if energy rises.

 Cycle   1  Pass 1  IDiag  1:
 Inv3:  Mode=1 IEnd=     3301203.
 Iteration    1 A*A^-1 deviation from unit magnitude is 4.00D-15 for   1034.
 Iteration    1 A*A^-1 deviation from orthogonality  is 1.59D-15 for    956     14.
 Iteration    1 A^-1*A deviation from unit magnitude is 4.00D-15 for   1034.
 Iteration    1 A^-1*A deviation from orthogonality  is 1.54D-15 for    899    676.
 E= -265.149318590265    
 DIIS: error= 2.12D-08 at cycle   1 NSaved=   1.
 NSaved= 1 IEnMin= 1 EnMin= -265.149318590265     IErMin= 1 ErrMin= 2.12D-08
 ErrMax= 2.12D-08  0.00D+00 EMaxC= 1.00D-01 BMatC= 3.53D-14 BMatP= 3.53D-14
 IDIUse=1 WtCom= 1.00D+00 WtEn= 0.00D+00
 Coeff-Com:  0.100D+01
 Coeff:      0.100D+01
 Gap=     0.196 Goal=   None    Shift=    0.000
 RMSDP=3.54D-09 MaxDP=6.59D-08              OVMax= 2.02D-07

 Error on total polarization charges =  0.02379
 SCF Done:  E(RB3LYP) =  -265.149318590     A.U. after    1 cycles
            NFock=  1  Conv=0.35D-08     -V/T= 2.0045
 KE= 2.639487945592D+02 PE=-1.053666070014D+03 EE= 3.110864992682D+02
 Leave Link  502 at Fri Jun  2 11:23:33 2023, MaxMem=  7381975040 cpu:              14.9 elap:               9.4
 (Enter /software/commercial/gaussian/g16/AVX/g16/l508.exe)
 QCSCF skips out because SCF is already converged.
 Leave Link  508 at Fri Jun  2 11:23:35 2023, MaxMem=  7381975040 cpu:               0.0 elap:               1.2
 (Enter /software/commercial/gaussian/g16/AVX/g16/l801.exe)
 DoSCS=F DFT=T ScalE2(SS,OS)=  1.000000  1.000000
 Range of M.O.s used for correlation:     1   162
 NBasis=   162 NAE=    22 NBE=    22 NFC=     0 NFV=     0
 NROrb=    162 NOA=    22 NOB=    22 NVA=   140 NVB=   140

 **** Warning!!: The largest alpha MO coefficient is  0.63785980D+02

 Leave Link  801 at Fri Jun  2 11:23:37 2023, MaxMem=  7381975040 cpu:               0.1 elap:               0.8
 (Enter /software/commercial/gaussian/g16/AVX/g16/l1002.exe)
 Minotr:  Closed shell wavefunction.
 NEqPCM:  Using equilibrium solvation (IEInf=0, Eps=  24.8520, EpsInf=   1.8526)
          Direct CPHF calculation.
          Differentiating once with respect to electric field.
                with respect to dipole field.
          Electric field/nuclear overlap derivatives assumed to be zero.
          Requested convergence is 1.0D-08 RMS, and 1.0D-07 maximum.
          Secondary convergence is 1.0D-12 RMS, and 1.0D-12 maximum.
          NewPWx=F KeepS1=T KeepF1=T KeepIn=T MapXYZ=F SortEE=F KeepMc=T.
         3363 words used for storage of precomputed grid.
 Keep R1 ints in memory in canonical form, NReq=91145616.
 FoFCou: FMM=F IPFlag=           0 FMFlag=           0 FMFlg1=           0
         NFxFlg=           0 DoJE=F BraDBF=F KetDBF=F FulRan=T
         wScrn=  0.000000 ICntrl=       600 IOpCl=  0 I1Cent=           0 NGrid=           0
         NMat0=    1 NMatS0=  13203 NMatT0=    0 NMatD0=    1 NMtDS0=    0 NMtDT0=    0
 Symmetry not used in FoFCou.
 Two-electron integral symmetry not used.
          MDV=    7381975040 using IRadAn=       1.
          Solving linear equations simultaneously, MaxMat=       0.
          There are     3 degrees of freedom in the 1st order CPHF.  IDoFFX=0 NUNeed=     3.
      3 vectors produced by pass  0 Test12= 1.03D-13 3.33D-08 XBig12= 7.56D+01 4.75D+00.
 AX will form     3 AO Fock derivatives at one time.
      3 vectors produced by pass  1 Test12= 1.03D-13 3.33D-08 XBig12= 4.49D+01 1.93D+00.
      3 vectors produced by pass  2 Test12= 1.03D-13 3.33D-08 XBig12= 5.02D+00 4.14D-01.
      3 vectors produced by pass  3 Test12= 1.03D-13 3.33D-08 XBig12= 1.61D+00 3.86D-01.
      3 vectors produced by pass  4 Test12= 1.03D-13 3.33D-08 XBig12= 2.23D-01 1.13D-01.
      3 vectors produced by pass  5 Test12= 1.03D-13 3.33D-08 XBig12= 1.04D-02 2.76D-02.
      3 vectors produced by pass  6 Test12= 1.03D-13 3.33D-08 XBig12= 8.37D-04 4.57D-03.
      3 vectors produced by pass  7 Test12= 1.03D-13 3.33D-08 XBig12= 5.60D-05 1.83D-03.
      3 vectors produced by pass  8 Test12= 1.03D-13 3.33D-08 XBig12= 1.21D-06 1.94D-04.
      3 vectors produced by pass  9 Test12= 1.03D-13 3.33D-08 XBig12= 2.74D-08 4.13D-05.
      3 vectors produced by pass 10 Test12= 1.03D-13 3.33D-08 XBig12= 8.27D-10 5.24D-06.
      2 vectors produced by pass 11 Test12= 1.03D-13 3.33D-08 XBig12= 1.58D-11 6.00D-07.
      2 vectors produced by pass 12 Test12= 1.03D-13 3.33D-08 XBig12= 2.69D-13 8.36D-08.
 InvSVY:  IOpt=1 It=  1 EMax= 8.75D-15
 Solved reduced A of dimension    37 with     3 vectors.
 End of Minotr F.D. properties file   721 does not exist.
 End of Minotr F.D. properties file   722 does not exist.
 End of Minotr F.D. properties file   788 does not exist.
 Leave Link 1002 at Fri Jun  2 11:24:28 2023, MaxMem=  7381975040 cpu:              86.2 elap:              49.9
 (Enter /software/commercial/gaussian/g16/AVX/g16/l1101.exe)
 Using compressed storage, NAtomX=    11.
 Will process     12 centers per pass.
 R6Disp: Adding Grimme-D3(BJ) dispersion energy 1st derivatives to the gradient.
 Leave Link 1101 at Fri Jun  2 11:24:31 2023, MaxMem=  7381975040 cpu:               1.1 elap:               2.1
 (Enter /software/commercial/gaussian/g16/AVX/g16/l1102.exe)
 Symmetrizing basis deriv contribution to polar:
 IMax=3 JMax=2 DiffMx= 0.00D+00
 Leave Link 1102 at Fri Jun  2 11:24:33 2023, MaxMem=  7381975040 cpu:               0.2 elap:               0.7
 (Enter /software/commercial/gaussian/g16/AVX/g16/l1110.exe)
 Forming Gx(P) for the SCF density, NAtomX=    11.
 Integral derivatives from FoFJK, PRISM(SPDF).
 Do as many integral derivatives as possible in FoFJK.
 G2DrvN: MDV=    7381973771.
 G2DrvN: will do    12 centers at a time, making    1 passes.
 PxScal for G2LodP:  IOpCl= 0 ISclPx=1 IMOff=     1 NMtTot=     4 NTT=   13203 ScalPx= 9.72D+00
 Calling FoFCou, ICntrl=  3107 FMM=F I1Cent=   0 AccDes= 0.00D+00.
 FoFJK:  IHMeth= 1 ICntrl=    3107 DoSepK=F KAlg= 0 I1Cent=           0 FoldK=F
 IRaf=         0 NMat=       1 IRICut=       1 DoRegI=T DoRafI=F ISym2E= 0 IDoP0=0 IntGTp=1.
 FoFCou: FMM=F IPFlag=           0 FMFlag=      100000 FMFlg1=           0
         NFxFlg=           0 DoJE=F BraDBF=F KetDBF=F FulRan=T
         wScrn=  0.000000 ICntrl=      3107 IOpCl=  0 I1Cent=           0 NGrid=           0
         NMat0=    1 NMatS0=      1 NMatT0=    0 NMatD0=    4 NMtDS0=    3 NMtDT0=    0
 Symmetry not used in FoFCou.
 PxScal for G2LodP:  IOpCl= 0 ISclPx=0 IMOff=     1 NMtTot=     4 NTT=   13203 ScalPx= 1.00D+00
 NEqPCM:  Using equilibrium solvation (IEInf=0, Eps=  24.8520, EpsInf=   1.8526)
 G2PCM: DoFxE=T DoFxN=T DoGrad=T DoDP/DQ/DG/TGxP=TFFF NFrqRd=   0 IEInf=0 SqF1=F DoCFld=F IF1Alg=4.
 GePol: Maximum number of non-zero 1st derivatives   =     230
 End of G2Drv F.D. properties file   721 does not exist.
 End of G2Drv F.D. properties file   722 does not exist.
 End of G2Drv F.D. properties file   788 does not exist.
 Leave Link 1110 at Fri Jun  2 11:26:23 2023, MaxMem=  7381975040 cpu:             211.7 elap:             108.9
 (Enter /software/commercial/gaussian/g16/AVX/g16/l1002.exe)
 Minotr:  Closed shell wavefunction.
          IDoAtm=11111111111
 NEqPCM:  Using equilibrium solvation (IEInf=0, Eps=  24.8520, EpsInf=   1.8526)
          Direct CPHF calculation.
          Differentiating once with respect to electric field.
                with respect to dipole field.
          Differentiating once with respect to nuclear coordinates.
          Requested convergence is 1.0D-08 RMS, and 1.0D-07 maximum.
          Secondary convergence is 1.0D-12 RMS, and 1.0D-12 maximum.
          NewPWx=T KeepS1=F KeepF1=F KeepIn=T MapXYZ=F SortEE=F KeepMc=T.
         3363 words used for storage of precomputed grid.
 Keep R1 ints in memory in canonical form, NReq=91145869.
 FoFCou: FMM=F IPFlag=           0 FMFlag=           0 FMFlg1=           0
         NFxFlg=           0 DoJE=F BraDBF=F KetDBF=F FulRan=T
         wScrn=  0.000000 ICntrl=       600 IOpCl=  0 I1Cent=           0 NGrid=           0
         NMat0=    1 NMatS0=  13203 NMatT0=    0 NMatD0=    1 NMtDS0=    0 NMtDT0=    0
 Symmetry not used in FoFCou.
 Two-electron integral symmetry not used.
          MDV=    7381975040 using IRadAn=       1.
          Solving linear equations simultaneously, MaxMat=       0.
          There are    36 degrees of freedom in the 1st order CPHF.  IDoFFX=5 NUNeed=    36.
 Will reuse    3 saved solutions.
     30 vectors produced by pass  0 Test12= 8.56D-15 2.78D-09 XBig12= 1.33D-01 9.81D-02.
 AX will form    30 AO Fock derivatives at one time.
     30 vectors produced by pass  1 Test12= 8.56D-15 2.78D-09 XBig12= 1.84D-02 4.67D-02.
     30 vectors produced by pass  2 Test12= 8.56D-15 2.78D-09 XBig12= 2.66D-04 4.18D-03.
     30 vectors produced by pass  3 Test12= 8.56D-15 2.78D-09 XBig12= 2.25D-06 3.14D-04.
     30 vectors produced by pass  4 Test12= 8.56D-15 2.78D-09 XBig12= 5.95D-09 1.07D-05.
     28 vectors produced by pass  5 Test12= 8.56D-15 2.78D-09 XBig12= 1.20D-11 4.75D-07.
     15 vectors produced by pass  6 Test12= 8.56D-15 2.78D-09 XBig12= 1.96D-14 3.09D-08.
 InvSVY:  IOpt=1 It=  1 EMax= 2.22D-15
 Solved reduced A of dimension   193 with    30 vectors.
 FullF1:  Do perturbations      1 to       3.
 Isotropic polarizability for W=    0.000000       92.17 Bohr**3.
 FullF1:  Do perturbations      1 to       6.
 End of Minotr F.D. properties file   721 does not exist.
 End of Minotr F.D. properties file   722 does not exist.
 End of Minotr F.D. properties file   788 does not exist.
 Leave Link 1002 at Fri Jun  2 11:28:06 2023, MaxMem=  7381975040 cpu:             188.5 elap:             102.2
 (Enter /software/commercial/gaussian/g16/AVX/g16/l601.exe)
 Copying SCF densities to generalized density rwf, IOpCl= 0 IROHF=0.

 **********************************************************************

            Population analysis using the SCF Density.

 **********************************************************************

 Alpha  occ. eigenvalues --  -14.25301 -14.25271 -10.16955 -10.14665 -10.14194
 Alpha  occ. eigenvalues --  -10.14133  -0.94066  -0.78869  -0.72921  -0.64535
 Alpha  occ. eigenvalues --   -0.53733  -0.49428  -0.45255  -0.40880  -0.40272
 Alpha  occ. eigenvalues --   -0.35232  -0.35131  -0.34794  -0.26563  -0.22766
 Alpha  occ. eigenvalues --   -0.22467  -0.18062
 Alpha virt. eigenvalues --    0.01577   0.02912   0.04320   0.05250   0.05931
 Alpha virt. eigenvalues --    0.06381   0.06513   0.06659   0.08263   0.09700
 Alpha virt. eigenvalues --    0.09942   0.10072   0.11415   0.13306   0.14561
 Alpha virt. eigenvalues --    0.14650   0.16409   0.16680   0.17972   0.20851
 Alpha virt. eigenvalues --    0.21020   0.21855   0.22682   0.23146   0.23604
 Alpha virt. eigenvalues --    0.24048   0.25203   0.27233   0.28811   0.30004
 Alpha virt. eigenvalues --    0.30655   0.31141   0.32802   0.34646   0.44376
 Alpha virt. eigenvalues --    0.45145   0.45414   0.47895   0.49813   0.53134
 Alpha virt. eigenvalues --    0.57989   0.59157   0.61115   0.61567   0.63023
 Alpha virt. eigenvalues --    0.63825   0.65551   0.68651   0.70297   0.76135
 Alpha virt. eigenvalues --    0.76988   0.77784   0.82175   0.82664   0.83756
 Alpha virt. eigenvalues --    0.89197   0.90239   0.90546   0.92385   0.93546
 Alpha virt. eigenvalues --    0.98568   1.00685   1.03450   1.05372   1.06962
 Alpha virt. eigenvalues --    1.13939   1.23009   1.25298   1.26104   1.28785
 Alpha virt. eigenvalues --    1.36957   1.41317   1.44991   1.47354   1.53680
 Alpha virt. eigenvalues --    1.57614   1.58457   1.62341   1.66855   1.67733
 Alpha virt. eigenvalues --    1.71182   1.74543   1.75842   1.77604   1.79921
 Alpha virt. eigenvalues --    1.83481   1.89753   1.95355   2.00255   2.07590
 Alpha virt. eigenvalues --    2.08711   2.10547   2.15290   2.20640   2.31250
 Alpha virt. eigenvalues --    2.32069   2.38737   2.44466   2.45802   2.49076
 Alpha virt. eigenvalues --    2.53261   2.54058   2.54589   2.55767   2.62850
 Alpha virt. eigenvalues --    2.67035   2.67554   2.70099   2.74671   2.78224
 Alpha virt. eigenvalues --    2.78992   2.84366   2.85890   2.89196   2.95079
 Alpha virt. eigenvalues --    2.98218   2.99212   3.05775   3.24572   3.26892
 Alpha virt. eigenvalues --    3.35077   3.62262   3.65373   3.68817   3.80726
 Alpha virt. eigenvalues --    3.86286   3.96600   3.97068   4.07970   4.13611
 Alpha virt. eigenvalues --    4.52649   4.59259   4.83494   5.27682  23.84774
 Alpha virt. eigenvalues --   23.88038  23.98113  24.15351  35.54707  35.72909
     Molecular Orbital Coefficients:
                           1         2         3         4         5
                           O         O         O         O         O
     Eigenvalues --   -14.25301 -14.25271 -10.16955 -10.14665 -10.14194
   1 1   N  1S         -0.02648   0.55675  -0.00006   0.00000  -0.00004
   2        2S         -0.02204   0.46527  -0.00002   0.00003  -0.00004
   3        2PX        -0.00000   0.00118   0.00033   0.00001   0.00025
   4        2PY        -0.00007   0.00010  -0.00037  -0.00007   0.00027
   5        2PZ         0.00001   0.00019   0.00008   0.00001   0.00002
   6        3S         -0.00132   0.01596   0.00069  -0.00013   0.00080
   7        3PX        -0.00041   0.00105  -0.00094  -0.00010  -0.00067
   8        3PY         0.00040  -0.00019   0.00106   0.00033  -0.00057
   9        3PZ        -0.00010   0.00018  -0.00024  -0.00007  -0.00007
  10        4S          0.00249  -0.01746  -0.00366   0.00009  -0.00454
  11        4PX         0.00007  -0.00404  -0.00130   0.00022  -0.00161
  12        4PY        -0.00110   0.00061   0.00062  -0.00015  -0.00118
  13        4PZ         0.00008  -0.00070  -0.00026   0.00013  -0.00021
  14        5S         -0.00139   0.00290   0.00841   0.00137   0.00734
  15        5PX        -0.00051  -0.00028   0.00303   0.00069   0.00226
  16        5PY        -0.00136  -0.00022  -0.00272  -0.00015   0.00212
  17        5PZ         0.00007  -0.00009   0.00077  -0.00017   0.00030
  18        6D 0        0.00006  -0.00030   0.00068   0.00004   0.00053
  19        6D+1       -0.00004   0.00005  -0.00026   0.00000  -0.00009
  20        6D-1        0.00003  -0.00006   0.00024   0.00003  -0.00004
  21        6D+2       -0.00007  -0.00023   0.00008   0.00010   0.00007
  22        6D-2        0.00014  -0.00005   0.00087   0.00012  -0.00068
  23 2   N  1S          0.55675   0.02648  -0.00006   0.00000  -0.00003
  24        2S          0.46526   0.02222  -0.00002   0.00003  -0.00002
  25        2PX        -0.00090  -0.00013  -0.00049  -0.00005  -0.00001
  26        2PY         0.00077   0.00001  -0.00011  -0.00005   0.00028
  27        2PZ        -0.00021  -0.00002  -0.00007   0.00000  -0.00002
  28        3S          0.01601   0.00020   0.00068  -0.00013   0.00064
  29        3PX        -0.00101   0.00048   0.00139   0.00028   0.00007
  30        3PY         0.00043   0.00014   0.00034   0.00023  -0.00077
  31        3PZ        -0.00020   0.00007   0.00020   0.00000   0.00007
  32        4S         -0.01756   0.00087  -0.00353   0.00013  -0.00479
  33        4PX         0.00367  -0.00039   0.00134  -0.00029   0.00098
  34        4PY        -0.00175  -0.00105  -0.00030  -0.00006  -0.00167
  35        4PZ         0.00076  -0.00000   0.00025   0.00003   0.00026
  36        5S          0.00309  -0.00101   0.00854   0.00156   0.00441
  37        5PX         0.00018  -0.00047  -0.00414  -0.00059  -0.00002
  38        5PY        -0.00012  -0.00162  -0.00062   0.00093   0.00189
  39        5PZ        -0.00003   0.00010  -0.00057  -0.00047  -0.00008
  40        6D 0       -0.00030   0.00003   0.00068   0.00004   0.00039
  41        6D+1        0.00007  -0.00004  -0.00031  -0.00002  -0.00002
  42        6D-1       -0.00000  -0.00000  -0.00003  -0.00001   0.00010
  43        6D+2       -0.00001  -0.00016  -0.00080  -0.00007   0.00058
  44        6D-2        0.00023   0.00004  -0.00037  -0.00013   0.00008
  45 3   C  1S         -0.00000  -0.00000   0.56292  -0.00324  -0.00000
  46        2S          0.00007   0.00008   0.46336  -0.00267  -0.00004
  47        2PX         0.00048  -0.00029  -0.00004  -0.00017  -0.00000
  48        2PY         0.00011   0.00038  -0.00013  -0.00055  -0.00002
  49        2PZ         0.00008  -0.00007  -0.00001   0.00000  -0.00000
  50        3S          0.00014   0.00017   0.01809   0.00030   0.00014
  51        3PX        -0.00126   0.00069   0.00033   0.00046  -0.00002
  52        3PY        -0.00037  -0.00107   0.00103   0.00147  -0.00000
  53        3PZ        -0.00019   0.00018  -0.00004  -0.00002   0.00000
  54        4S          0.00350   0.00369  -0.01089   0.00152  -0.00008
  55        4PX         0.00640  -0.00278   0.00025  -0.00127   0.00321
  56        4PY         0.00330   0.00688   0.00120  -0.00396   0.00899
  57        4PZ         0.00085  -0.00094  -0.00006   0.00002   0.00001
  58        5S         -0.00253  -0.00454   0.00247   0.03467  -0.01028
  59        5PX         0.00017   0.00209  -0.00517  -0.00812  -0.00304
  60        5PY         0.00352   0.00438  -0.01581  -0.02781  -0.00774
  61        5PZ        -0.00022   0.00004  -0.00023   0.00063   0.00009
  62        6D 0        0.00014   0.00015  -0.00139   0.00026  -0.00017
  63        6D+1       -0.00018  -0.00010   0.00043   0.00007  -0.00001
  64        6D-1       -0.00012   0.00020  -0.00014  -0.00003  -0.00003
  65        6D+2       -0.00095   0.00005   0.00001   0.00069  -0.00023
  66        6D-2       -0.00049   0.00101  -0.00001  -0.00048   0.00015
  67 4   C  1S         -0.00000  -0.00000   0.00321   0.56295   0.00009
  68        2S          0.00003   0.00003   0.00264   0.46316   0.00009
  69        2PX         0.00009  -0.00003   0.00017   0.00003  -0.00001
  70        2PY         0.00006   0.00011   0.00055   0.00011  -0.00005
  71        2PZ         0.00001  -0.00001   0.00005  -0.00003  -0.00001
  72        3S         -0.00019  -0.00022   0.00050   0.01942  -0.00037
  73        3PX        -0.00037   0.00003  -0.00053  -0.00041   0.00005
  74        3PY        -0.00040  -0.00059  -0.00165  -0.00132   0.00017
  75        3PZ        -0.00004   0.00004  -0.00023   0.00008   0.00007
  76        4S          0.00301   0.00359   0.00225  -0.01269   0.00805
  77        4PX        -0.00093   0.00155   0.00017  -0.00071   0.00081
  78        4PY         0.00147   0.00087   0.00042  -0.00236   0.00273
  79        4PZ        -0.00010   0.00042   0.00022  -0.00016  -0.00007
  80        5S          0.00386   0.00626  -0.02355  -0.05668  -0.00172
  81        5PX         0.00074  -0.00018  -0.00159  -0.00360   0.00017
  82        5PY         0.00032   0.00113  -0.00525  -0.01112   0.00033
  83        5PZ         0.00023   0.00008   0.00017  -0.00051  -0.00029
  84        6D 0        0.00004   0.00006   0.00072   0.00026  -0.00001
  85        6D+1       -0.00000   0.00006  -0.00004   0.00002   0.00001
  86        6D-1       -0.00006   0.00001   0.00004   0.00001  -0.00001
  87        6D+2        0.00010   0.00038   0.00082   0.00042  -0.00000
  88        6D-2       -0.00035  -0.00001  -0.00057  -0.00029  -0.00002
  89 5   C  1S         -0.00001   0.00001   0.00000  -0.00007   0.46467
  90        2S          0.00003   0.00001  -0.00003  -0.00004   0.38247
  91        2PX         0.00012  -0.00033  -0.00002  -0.00001   0.00005
  92        2PY         0.00002  -0.00029   0.00009   0.00001  -0.00012
  93        2PZ         0.00002  -0.00003  -0.00001   0.00000   0.00001
  94        3S          0.00002   0.00034   0.00023  -0.00018   0.01603
  95        3PX        -0.00099   0.00097   0.00003   0.00004  -0.00091
  96        3PY         0.00034   0.00060  -0.00052   0.00001   0.00050
  97        3PZ        -0.00018   0.00012   0.00004  -0.00002  -0.00016
  98        4S         -0.00360   0.00769  -0.00035   0.00055  -0.00768
  99        4PX        -0.00241   0.00026   0.00012  -0.00008  -0.00139
 100        4PY         0.00440  -0.00448  -0.00011  -0.00063   0.00308
 101        4PZ        -0.00071   0.00037   0.00002   0.00009  -0.00048
 102        5S          0.00205  -0.00544   0.00616   0.01049  -0.00036
 103        5PX         0.00025   0.00013  -0.00167   0.00007   0.00064
 104        5PY        -0.00005   0.00128  -0.00085  -0.00259  -0.00123
 105        5PZ        -0.00001  -0.00002  -0.00018   0.00026   0.00017
 106        6D 0       -0.00003   0.00006  -0.00003  -0.00004  -0.00101
 107        6D+1       -0.00009   0.00012  -0.00001   0.00001   0.00017
 108        6D-1       -0.00002  -0.00013  -0.00002  -0.00001  -0.00022
 109        6D+2       -0.00055   0.00036  -0.00014  -0.00003  -0.00088
 110        6D-2        0.00012  -0.00100  -0.00002  -0.00003  -0.00031
 111 6   C  1S          0.00001  -0.00001   0.00000  -0.00005   0.31763
 112        2S          0.00001   0.00003  -0.00003  -0.00003   0.26154
 113        2PX         0.00010  -0.00008   0.00006   0.00001  -0.00041
 114        2PY        -0.00043   0.00005   0.00006   0.00000   0.00008
 115        2PZ         0.00005  -0.00002   0.00001   0.00001  -0.00008
 116        3S          0.00034   0.00005   0.00023  -0.00015   0.01092
 117        3PX        -0.00053   0.00096  -0.00033  -0.00000   0.00219
 118        3PY         0.00107  -0.00019  -0.00040   0.00001  -0.00060
 119        3PZ        -0.00016   0.00018  -0.00002  -0.00003   0.00044
 120        4S          0.00794  -0.00284  -0.00039   0.00046  -0.00430
 121        4PX        -0.00323   0.00431  -0.00008  -0.00036   0.00130
 122        4PY        -0.00372   0.00186  -0.00006  -0.00049   0.00116
 123        4PZ        -0.00028   0.00059  -0.00002   0.00003   0.00011
 124        5S         -0.00532   0.00156   0.00671   0.00660   0.00639
 125        5PX         0.00058  -0.00013   0.00079  -0.00083  -0.00246
 126        5PY         0.00106   0.00016  -0.00176  -0.00170  -0.00115
 127        5PZ         0.00007  -0.00009   0.00028   0.00005  -0.00034
 128        6D 0        0.00005  -0.00003  -0.00003  -0.00004  -0.00035
 129        6D+1        0.00018  -0.00006  -0.00001   0.00001  -0.00009
 130        6D-1        0.00007   0.00007   0.00002   0.00000   0.00009
 131        6D+2        0.00108  -0.00020  -0.00002   0.00002  -0.00074
 132        6D-2       -0.00005   0.00047   0.00014   0.00004   0.00104
 133 7   H  1S          0.00005   0.00006  -0.00012   0.00022  -0.00000
 134        2S         -0.00035  -0.00039  -0.00093  -0.00298  -0.00031
 135        3S          0.00033   0.00041   0.00042   0.00390  -0.00092
 136        4PX         0.00008  -0.00007   0.00001   0.00002   0.00000
 137        4PY        -0.00005  -0.00002  -0.00010  -0.00060  -0.00002
 138        4PZ        -0.00007  -0.00010  -0.00044  -0.00191  -0.00005
 139 8   H  1S         -0.00004  -0.00002  -0.00009   0.00022   0.00002
 140        2S         -0.00007  -0.00063  -0.00067  -0.00308  -0.00050
 141        3S          0.00012  -0.00012  -0.00035   0.00424  -0.00018
 142        4PX         0.00005   0.00009   0.00024   0.00133   0.00007
 143        4PY        -0.00012  -0.00001  -0.00008  -0.00104  -0.00003
 144        4PZ         0.00003   0.00014   0.00017   0.00115   0.00004
 145 9   H  1S         -0.00001  -0.00002  -0.00009   0.00022   0.00001
 146        2S         -0.00056  -0.00020  -0.00072  -0.00304  -0.00044
 147        3S          0.00001   0.00012  -0.00020   0.00418  -0.00038
 148        4PX        -0.00007  -0.00014  -0.00030  -0.00188  -0.00007
 149        4PY         0.00005  -0.00006   0.00006  -0.00004   0.00002
 150        4PZ         0.00013   0.00002   0.00012   0.00078   0.00002
 151 10  H  1S          0.00008  -0.00015  -0.00006  -0.00003   0.00010
 152        2S         -0.00174  -0.00009   0.00038   0.00012  -0.00426
 153        3S         -0.00108   0.00137  -0.00036  -0.00018   0.00088
 154        4PX        -0.00016   0.00016   0.00002   0.00001  -0.00080
 155        4PY         0.00031   0.00037  -0.00008   0.00003   0.00211
 156        4PZ        -0.00004  -0.00000   0.00001  -0.00000  -0.00026
 157 11  H  1S         -0.00016   0.00007  -0.00006  -0.00003   0.00003
 158        2S          0.00009  -0.00177   0.00036   0.00013  -0.00312
 159        3S          0.00144  -0.00093  -0.00036  -0.00021   0.00076
 160        4PX         0.00006   0.00032  -0.00006   0.00000   0.00146
 161        4PY         0.00037   0.00021  -0.00005   0.00002   0.00086
 162        4PZ        -0.00002   0.00005  -0.00001  -0.00000   0.00020
                           6         7         8         9        10
                           O         O         O         O         O
     Eigenvalues --   -10.14133  -0.94066  -0.78869  -0.72921  -0.64535
   1 1   N  1S          0.00003  -0.06163   0.07854   0.00029   0.02425
   2        2S          0.00004  -0.09645   0.12360   0.00049   0.03841
   3        2PX        -0.00017   0.04744  -0.03601  -0.00769  -0.01349
   4        2PY        -0.00007  -0.00364  -0.00780  -0.04522   0.04394
   5        2PZ        -0.00002   0.00808  -0.00536   0.00171  -0.00547
   6        3S         -0.00031   0.26114  -0.34167  -0.00101  -0.10885
   7        3PX         0.00030   0.07172  -0.05389  -0.01168  -0.01963
   8        3PY        -0.00019  -0.00519  -0.01306  -0.06751   0.06476
   9        3PZ         0.00006   0.01218  -0.00791   0.00253  -0.00801
  10        4S         -0.00144   0.16695  -0.24779  -0.00408  -0.08238
  11        4PX        -0.00068   0.02623  -0.01990  -0.00565  -0.00669
  12        4PY         0.00091  -0.00104  -0.00180  -0.02498   0.02736
  13        4PZ        -0.00017   0.00437  -0.00306   0.00077  -0.00292
  14        5S         -0.00594  -0.05435   0.04523   0.00014  -0.00271
  15        5PX        -0.00235  -0.01449   0.00980  -0.00220   0.00054
  16        5PY        -0.00098   0.00441  -0.00085   0.01046  -0.00530
  17        5PZ        -0.00033  -0.00279   0.00148  -0.00054   0.00069
  18        6D 0       -0.00026  -0.00799   0.00600   0.00073   0.00073
  19        6D+1        0.00009   0.00282  -0.00096  -0.00013  -0.00134
  20        6D-1        0.00000  -0.00106   0.00068  -0.00160   0.00170
  21        6D+2        0.00012   0.00215   0.00389  -0.00310  -0.00188
  22        6D-2        0.00016  -0.00128  -0.00203  -0.00906   0.01032
  23 2   N  1S         -0.00004  -0.06164  -0.07855   0.00041   0.02423
  24        2S         -0.00006  -0.09646  -0.12362   0.00067   0.03839
  25        2PX        -0.00011  -0.04083  -0.02487  -0.01987   0.03652
  26        2PY         0.00027   0.02426   0.02697  -0.04144   0.02806
  27        2PZ        -0.00004  -0.00864  -0.00616  -0.00059   0.00401
  28        3S          0.00059   0.26122   0.34175  -0.00151  -0.10880
  29        3PX         0.00041  -0.06154  -0.03641  -0.02950   0.05360
  30        3PY        -0.00032   0.03694   0.04152  -0.06203   0.04144
  31        3PZ         0.00009  -0.01307  -0.00918  -0.00084   0.00588
  32        4S         -0.00032   0.16696   0.24788  -0.00462  -0.08212
  33        4PX        -0.00077  -0.02195  -0.01526  -0.00974   0.02130
  34        4PY        -0.00102   0.01424   0.01284  -0.02369   0.01853
  35        4PZ        -0.00007  -0.00477  -0.00359  -0.00001   0.00239
  36        5S          0.00807  -0.05427  -0.04501  -0.00116  -0.00274
  37        5PX        -0.00146   0.01440   0.00820   0.00827  -0.00346
  38        5PY         0.00303  -0.00441  -0.00539   0.00639  -0.00423
  39        5PZ        -0.00043   0.00266   0.00199   0.00149  -0.00004
  40        6D 0        0.00043  -0.00796  -0.00599   0.00068   0.00081
  41        6D+1       -0.00009   0.00288   0.00104   0.00071  -0.00188
  42        6D-1        0.00011  -0.00114  -0.00046   0.00161  -0.00092
  43        6D+2        0.00034   0.00197  -0.00316   0.00747  -0.01038
  44        6D-2        0.00021  -0.00153   0.00305   0.00594  -0.00165
  45 3   C  1S         -0.00000  -0.06081  -0.00003  -0.05542   0.03182
  46        2S         -0.00001  -0.09330  -0.00004  -0.08594   0.04939
  47        2PX        -0.00001   0.01362   0.08228  -0.01470  -0.01794
  48        2PY         0.00000   0.04250  -0.02605  -0.04667  -0.05683
  49        2PZ        -0.00000  -0.00094   0.01560  -0.00056   0.00016
  50        3S          0.00002   0.24147   0.00013   0.23246  -0.13810
  51        3PX         0.00010   0.02042   0.11664  -0.02271  -0.02620
  52        3PY        -0.00004   0.06363  -0.03693  -0.07213  -0.08299
  53        3PZ         0.00002  -0.00152   0.02212  -0.00081   0.00022
  54        4S          0.00000   0.09686  -0.00025   0.14644  -0.06637
  55        4PX        -0.00112  -0.00226   0.01361  -0.00645  -0.01562
  56        4PY         0.00224  -0.00738  -0.00421  -0.02118  -0.04929
  57        4PZ        -0.00032   0.00010   0.00257  -0.00067  -0.00044
  58        5S         -0.00166   0.04896  -0.00364  -0.16671  -0.09040
  59        5PX         0.00173   0.01692   0.01576   0.03127   0.01899
  60        5PY        -0.00220   0.05206  -0.00282   0.10145   0.06081
  61        5PZ         0.00046  -0.00050   0.00284  -0.00004  -0.00064
  62        6D 0       -0.00003  -0.01458  -0.00015  -0.00685   0.00326
  63        6D+1        0.00001   0.00393   0.00090   0.00197  -0.00355
  64        6D-1        0.00001  -0.00168   0.00450  -0.00027   0.00140
  65        6D+2        0.00001  -0.00199   0.01458  -0.00117  -0.01207
  66        6D-2        0.00011   0.00149   0.02059   0.00072   0.00842
  67 4   C  1S          0.00000  -0.01144  -0.00005  -0.08394  -0.06341
  68        2S          0.00000  -0.01748  -0.00008  -0.12982  -0.09843
  69        2PX        -0.00002   0.00318   0.00697   0.00584  -0.00730
  70        2PY        -0.00000   0.01005  -0.00219   0.01838  -0.02331
  71        2PZ        -0.00001   0.00016   0.00132   0.00046  -0.00020
  72        3S         -0.00006   0.04520   0.00019   0.34093   0.26102
  73        3PX         0.00005   0.00484   0.01225   0.01153  -0.00986
  74        3PY         0.00001   0.01533  -0.00386   0.03655  -0.03146
  75        3PZ         0.00002  -0.00024   0.00232   0.00076  -0.00033
  76        4S          0.00145   0.00592   0.00047   0.18291   0.14808
  77        4PX         0.00018  -0.00029   0.00729  -0.00009  -0.00806
  78        4PY         0.00053  -0.00101  -0.00223  -0.00012  -0.02600
  79        4PZ        -0.00001  -0.00040   0.00141  -0.00003   0.00051
  80        5S         -0.00061   0.04445   0.00417   0.25015   0.13632
  81        5PX        -0.00021   0.00234  -0.00516   0.01708   0.00845
  82        5PY         0.00006   0.00794   0.00260   0.05427   0.02690
  83        5PZ        -0.00010   0.00047  -0.00096   0.00029   0.00106
  84        6D 0       -0.00001  -0.00108   0.00010  -0.00389   0.00215
  85        6D+1       -0.00003  -0.00013   0.00089   0.00011   0.00003
  86        6D-1        0.00002   0.00007   0.00059   0.00018   0.00001
  87        6D+2        0.00005  -0.00219   0.00260  -0.00527   0.00320
  88        6D-2        0.00006   0.00156   0.00379   0.00367  -0.00221
  89 5   C  1S         -0.31774  -0.04184   0.03538   0.04347  -0.05933
  90        2S         -0.26128  -0.06416   0.05456   0.06721  -0.09209
  91        2PX         0.00093   0.00013   0.04002  -0.01526   0.04171
  92        2PY        -0.00018  -0.03921   0.03033   0.01133   0.02201
  93        2PZ         0.00016   0.00287   0.00445  -0.00351   0.00557
  94        3S         -0.01103   0.16256  -0.14263  -0.17744   0.24514
  95        3PX        -0.00359  -0.00029   0.06109  -0.02057   0.05725
  96        3PY         0.00082  -0.05674   0.04620   0.01672   0.02973
  97        3PZ        -0.00066   0.00409   0.00681  -0.00482   0.00767
  98        4S          0.00756   0.06496  -0.07048  -0.09470   0.15401
  99        4PX         0.00262   0.00304   0.00779  -0.00660   0.01921
 100        4PY        -0.00306  -0.00968   0.00557   0.00515   0.00619
 101        4PZ         0.00065   0.00121   0.00090  -0.00165   0.00281
 102        5S          0.01505  -0.01677  -0.07183  -0.03724  -0.01486
 103        5PX         0.00152   0.00066  -0.01060   0.00584  -0.00509
 104        5PY        -0.00277   0.00398   0.01096   0.00568   0.00891
 105        5PZ         0.00047  -0.00019  -0.00233   0.00025  -0.00156
 106        6D 0        0.00164  -0.01062   0.00687   0.00612  -0.00513
 107        6D+1       -0.00081   0.00188   0.00061  -0.00242   0.00358
 108        6D-1        0.00042  -0.00139  -0.00116   0.00096  -0.00102
 109        6D+2       -0.00111  -0.00645   0.00854  -0.00261   0.00912
 110        6D-2        0.00178   0.00254  -0.01567   0.00204  -0.00624
 111 6   C  1S          0.46474  -0.04183  -0.03530   0.04353  -0.05929
 112        2S          0.38230  -0.06413  -0.05444   0.06730  -0.09203
 113        2PX         0.00076  -0.02287   0.01509   0.01906  -0.02137
 114        2PY        -0.00039  -0.03192  -0.04771   0.00056   0.04192
 115        2PZ         0.00016  -0.00151   0.00598   0.00301  -0.00641
 116        3S          0.01610   0.16249   0.14228  -0.17770   0.24493
 117        3PX        -0.00280  -0.03271   0.02307   0.02649  -0.02962
 118        3PY         0.00126  -0.04649  -0.07274   0.00199   0.05715
 119        3PZ        -0.00054  -0.00208   0.00913   0.00412  -0.00884
 120        4S         -0.00979   0.06488   0.07046  -0.09425   0.15398
 121        4PX         0.00470  -0.00813   0.00326   0.00822  -0.01219
 122        4PY         0.00153  -0.00608  -0.00900   0.00025   0.01617
 123        4PZ         0.00068  -0.00091   0.00118   0.00118  -0.00316
 124        5S         -0.01392  -0.01865   0.07124  -0.03018  -0.01345
 125        5PX         0.00215   0.00215  -0.01477  -0.00296   0.00906
 126        5PY         0.00105   0.00381  -0.00282   0.00774   0.00430
 127        5PZ         0.00026   0.00007  -0.00251  -0.00134   0.00112
 128        6D 0       -0.00189  -0.01064  -0.00677   0.00612  -0.00513
 129        6D+1        0.00092   0.00202  -0.00119  -0.00245   0.00358
 130        6D-1       -0.00011  -0.00078  -0.00161   0.00089  -0.00107
 131        6D+2        0.00191  -0.00448  -0.01759  -0.00280   0.00895
 132        6D-2       -0.00007   0.00534   0.00289   0.00171  -0.00648
 133 7   H  1S          0.00000   0.00485  -0.00024   0.05748   0.05716
 134        2S         -0.00007   0.00564  -0.00020   0.07168   0.07112
 135        3S         -0.00010   0.00069  -0.00008  -0.00978   0.00170
 136        4PX         0.00001   0.00009   0.00027   0.00051  -0.00016
 137        4PY        -0.00001   0.00071  -0.00011   0.00569   0.00297
 138        4PZ        -0.00001   0.00096  -0.00000   0.01147   0.00995
 139 8   H  1S         -0.00002   0.00532   0.00371   0.05858   0.05697
 140        2S          0.00008   0.00661   0.00247   0.07193   0.06988
 141        3S         -0.00021   0.00074   0.00050  -0.00775   0.00024
 142        4PX         0.00001  -0.00060  -0.00008  -0.00736  -0.00709
 143        4PY         0.00002   0.00122   0.00028   0.00810   0.00475
 144        4PZ        -0.00001  -0.00082  -0.00028  -0.00678  -0.00576
 145 9   H  1S          0.00002   0.00522  -0.00330   0.05836   0.05704
 146        2S         -0.00024   0.00647  -0.00223   0.07179   0.07016
 147        3S          0.00018   0.00070  -0.00071  -0.00812   0.00047
 148        4PX        -0.00003   0.00128  -0.00026   0.01180   0.00955
 149        4PY        -0.00002   0.00060  -0.00016   0.00213  -0.00037
 150        4PZ         0.00002  -0.00061   0.00027  -0.00461  -0.00388
 151 10  H  1S         -0.00016   0.01013  -0.01852  -0.02500   0.05344
 152        2S          0.00233   0.01046  -0.02057  -0.02868   0.06451
 153        3S         -0.00023   0.00032   0.00190  -0.00162   0.00807
 154        4PX         0.00013  -0.00035   0.00111  -0.00235   0.00595
 155        4PY        -0.00116  -0.00177   0.00486   0.00385  -0.00762
 156        4PZ         0.00009   0.00008  -0.00014  -0.00064   0.00147
 157 11  H  1S          0.00018   0.01012   0.01848  -0.02503   0.05339
 158        2S         -0.00372   0.01045   0.02046  -0.02868   0.06444
 159        3S          0.00055   0.00030  -0.00185  -0.00153   0.00806
 160        4PX         0.00140  -0.00075  -0.00190   0.00415  -0.00924
 161        4PY         0.00128  -0.00165  -0.00460   0.00180  -0.00281
 162        4PZ         0.00016   0.00001  -0.00001   0.00059  -0.00141
                          11        12        13        14        15
                           O         O         O         O         O
     Eigenvalues --    -0.53733  -0.49428  -0.45255  -0.40880  -0.40272
   1 1   N  1S         -0.01933   0.02891  -0.02556   0.00017  -0.01475
   2        2S         -0.03080   0.04618  -0.04078   0.00030  -0.02346
   3        2PX         0.00322   0.00547  -0.06778  -0.01068   0.01739
   4        2PY        -0.10006  -0.08781   0.01963   0.00407   0.06081
   5        2PZ         0.00758   0.00707  -0.01206   0.06570  -0.00194
   6        3S          0.08713  -0.13287   0.11684  -0.00128   0.06835
   7        3PX         0.00555   0.00693  -0.09845  -0.01616   0.02581
   8        3PY        -0.14692  -0.12754   0.02747   0.00659   0.08911
   9        3PZ         0.01124   0.01005  -0.01745   0.09906  -0.00259
  10        4S          0.08687  -0.13222   0.14568   0.00054   0.08525
  11        4PX         0.00284   0.00526  -0.05579  -0.01167   0.02290
  12        4PY        -0.07816  -0.06803   0.02209   0.00113   0.05330
  13        4PZ         0.00596   0.00568  -0.01016   0.07439  -0.00113
  14        5S          0.00809  -0.02764   0.07863  -0.00341   0.06651
  15        5PX         0.00462  -0.00403   0.01285  -0.00460   0.00927
  16        5PY         0.03664   0.01539  -0.00690  -0.00832  -0.02753
  17        5PZ        -0.00147  -0.00191   0.00290  -0.00381   0.00147
  18        6D 0       -0.00036   0.00044   0.00339   0.00325   0.00060
  19        6D+1        0.00122   0.00098  -0.00350   0.01018   0.00009
  20        6D-1       -0.00232  -0.00171  -0.00080  -0.00307   0.00197
  21        6D+2        0.00053   0.00150  -0.01578  -0.00139   0.00542
  22        6D-2       -0.01384  -0.01163  -0.00079   0.00150   0.00889
  23 2   N  1S          0.01939   0.02893  -0.02546   0.00011   0.01480
  24        2S          0.03088   0.04621  -0.04062   0.00019   0.02355
  25        2PX         0.06059  -0.05541   0.06665  -0.01141  -0.02104
  26        2PY         0.07991  -0.06854  -0.02275   0.00454  -0.05929
  27        2PZ         0.00453  -0.00449   0.01342   0.06517   0.00166
  28        3S         -0.08735  -0.13300   0.11644  -0.00101  -0.06882
  29        3PX         0.08961  -0.07962   0.09619  -0.01689  -0.03041
  30        3PY         0.11684  -0.10008  -0.03388   0.00719  -0.08695
  31        3PZ         0.00683  -0.00640   0.01946   0.09843   0.00233
  32        4S         -0.08715  -0.13233   0.14437   0.00148  -0.08484
  33        4PX         0.04775  -0.04391   0.05854  -0.01546  -0.01337
  34        4PY         0.06246  -0.05280  -0.01393   0.00242  -0.05755
  35        4PZ         0.00363  -0.00363   0.01153   0.07305   0.00351
  36        5S         -0.00784  -0.02846   0.07580  -0.00131  -0.06749
  37        5PX        -0.01730   0.01260  -0.01367  -0.00042   0.02285
  38        5PY        -0.03186   0.01019   0.00091  -0.01017   0.01475
  39        5PZ        -0.00096   0.00124  -0.00214  -0.00415   0.00478
  40        6D 0        0.00046   0.00038   0.00321  -0.00360  -0.00078
  41        6D+1       -0.00211   0.00173  -0.00299  -0.01004   0.00066
  42        6D-1       -0.00157   0.00132   0.00273   0.00318   0.00170
  43        6D+2       -0.01322   0.01145  -0.00451   0.00131   0.00641
  44        6D-2       -0.00414   0.00245   0.01507  -0.00152   0.00799
  45 3   C  1S         -0.00003  -0.06042  -0.00399   0.00065   0.00025
  46        2S         -0.00005  -0.09477  -0.00625   0.00100   0.00039
  47        2PX        -0.11156  -0.01039  -0.02083  -0.01622   0.05360
  48        2PY         0.03527  -0.03292  -0.06454   0.00735  -0.01710
  49        2PZ        -0.02115  -0.00005   0.00178   0.09719   0.01047
  50        3S          0.00012   0.26781   0.01993  -0.00239  -0.00103
  51        3PX        -0.15497  -0.01477  -0.03074  -0.02576   0.07737
  52        3PY         0.04901  -0.04676  -0.09506   0.01067  -0.02476
  53        3PZ        -0.02937  -0.00008   0.00299   0.15276   0.01516
  54        4S          0.00055   0.21470   0.01013  -0.01544  -0.00326
  55        4PX        -0.05679  -0.00492  -0.02846  -0.01466   0.05925
  56        4PY         0.01774  -0.01515  -0.09094   0.01187  -0.01807
  57        4PZ        -0.01076   0.00007   0.00223   0.09351   0.01148
  58        5S          0.00199   0.01670  -0.16843  -0.10875  -0.01311
  59        5PX        -0.06350   0.03302   0.00100   0.02328   0.05873
  60        5PY         0.01783   0.10400   0.00481   0.08600  -0.00812
  61        5PZ        -0.01192   0.00021   0.00150   0.01524   0.01051
  62        6D 0        0.00008  -0.00335   0.00471  -0.00136   0.00015
  63        6D+1       -0.00024   0.00196   0.00129  -0.00012  -0.00009
  64        6D-1       -0.00148  -0.00050  -0.00006  -0.00093  -0.00328
  65        6D+2       -0.00478   0.00407   0.01206   0.00006  -0.01019
  66        6D-2       -0.00669  -0.00290  -0.00864   0.00022  -0.01422
  67 4   C  1S         -0.00005   0.02159   0.00685  -0.00027  -0.00005
  68        2S         -0.00008   0.03372   0.01057  -0.00040  -0.00007
  69        2PX        -0.03195   0.02933   0.01655  -0.02950   0.14067
  70        2PY         0.01005   0.09323   0.05282   0.00503  -0.04428
  71        2PZ        -0.00606   0.00200   0.00415   0.16135   0.02705
  72        3S          0.00021  -0.08791  -0.02497   0.00045   0.00009
  73        3PX        -0.04612   0.04280   0.02560  -0.04270   0.20022
  74        3PY         0.01451   0.13607   0.08189   0.00699  -0.06301
  75        3PZ        -0.00874   0.00322   0.00636   0.23297   0.03849
  76        4S          0.00002  -0.08358  -0.07911   0.01055   0.00163
  77        4PX        -0.02534   0.02303   0.00734  -0.02586   0.13389
  78        4PY         0.00773   0.07325   0.02432   0.00922  -0.04150
  79        4PZ        -0.00484   0.00106  -0.00005   0.15204   0.02594
  80        5S         -0.00260   0.12807   0.09977   0.14594   0.01664
  81        5PX         0.00972   0.00940   0.00902   0.00788   0.00208
  82        5PY        -0.00358   0.03041   0.02879   0.02986   0.00305
  83        5PZ         0.00182  -0.00020  -0.00170   0.01129   0.00054
  84        6D 0       -0.00028  -0.00773  -0.00568  -0.01190   0.00160
  85        6D+1       -0.00236   0.00001   0.00029   0.00135   0.01220
  86        6D-1       -0.00017   0.00010  -0.00001  -0.00234  -0.00504
  87        6D+2       -0.00263  -0.01114  -0.00684   0.00649  -0.00441
  88        6D-2       -0.00400   0.00772   0.00467  -0.00405  -0.00490
  89 5   C  1S          0.05341  -0.01629   0.00345  -0.00018   0.01381
  90        2S          0.08357  -0.02551   0.00578  -0.00029   0.02190
  91        2PX         0.05404   0.09158  -0.11212  -0.00372  -0.00428
  92        2PY        -0.03239   0.06498   0.09104   0.00067  -0.08773
  93        2PZ         0.01102   0.01076  -0.02442   0.04077   0.00519
  94        3S         -0.22648   0.06516  -0.01796   0.00079  -0.05649
  95        3PX         0.07491   0.12939  -0.15401  -0.00608  -0.00718
  96        3PY        -0.04167   0.09247   0.12469   0.00155  -0.12029
  97        3PZ         0.01509   0.01515  -0.03348   0.06199   0.00677
  98        4S         -0.18972   0.05536  -0.00575   0.00519  -0.07844
  99        4PX         0.02528   0.05551  -0.07243  -0.00635  -0.00378
 100        4PY        -0.01049   0.04137   0.07031   0.00143  -0.06461
 101        4PZ         0.00477   0.00636  -0.01658   0.03936   0.00451
 102        5S         -0.09079  -0.06541   0.01435  -0.01906  -0.02255
 103        5PX         0.01954   0.00729  -0.01187  -0.00036  -0.02669
 104        5PY         0.03171   0.02105   0.00415   0.00508  -0.02146
 105        5PZ         0.00060  -0.00046  -0.00240   0.00298  -0.00145
 106        6D 0        0.00524   0.00068   0.00320   0.00113   0.00006
 107        6D+1       -0.00101   0.00153  -0.00150   0.00022  -0.00003
 108        6D-1        0.00092  -0.00141   0.00251  -0.00912   0.00347
 109        6D+2        0.00305   0.00487   0.00209   0.00072   0.00730
 110        6D-2        0.00072  -0.01140   0.01158   0.00118   0.01836
 111 6   C  1S         -0.05344  -0.01631   0.00332  -0.00012  -0.01395
 112        2S         -0.08362  -0.02555   0.00557  -0.00019  -0.02211
 113        2PX         0.06266  -0.03708   0.14430  -0.01062   0.04566
 114        2PY        -0.00450   0.10559   0.01021   0.00245   0.07361
 115        2PZ         0.01110  -0.01364   0.02422   0.03938   0.00304
 116        3S          0.22659   0.06523  -0.01744   0.00054   0.05707
 117        3PX         0.08497  -0.05202   0.19796  -0.01546   0.06157
 118        3PY        -0.00891   0.14973   0.01373   0.00397   0.10175
 119        3PZ         0.01522  -0.01925   0.03329   0.06000   0.00411
 120        4S          0.18943   0.05581  -0.00432   0.00429   0.08055
 121        4PX         0.02645  -0.02141   0.09963  -0.00739   0.03388
 122        4PY        -0.00582   0.06533   0.01559   0.00171   0.05392
 123        4PZ         0.00502  -0.00821   0.01611   0.03947   0.00159
 124        5S          0.09162  -0.06316   0.02350  -0.02083   0.01876
 125        5PX        -0.00269   0.00569   0.00997   0.00264  -0.00850
 126        5PY        -0.03721   0.02154  -0.00350   0.00372   0.03332
 127        5PZ         0.00260  -0.00076   0.00183   0.00447  -0.00527
 128        6D 0       -0.00521   0.00060   0.00330  -0.00078  -0.00023
 129        6D+1        0.00138   0.00202  -0.00229  -0.00536   0.00179
 130        6D-1       -0.00013   0.00088  -0.00129  -0.00728   0.00319
 131        6D+2       -0.00034   0.01235  -0.01022   0.00175   0.01493
 132        6D-2        0.00317  -0.00083  -0.00584   0.00077   0.01295
 133 7   H  1S          0.00163  -0.04930  -0.02649  -0.12737  -0.00885
 134        2S          0.00207  -0.06249  -0.03014  -0.17705  -0.01231
 135        3S          0.00020  -0.01665  -0.02328  -0.06748  -0.00483
 136        4PX        -0.00184   0.00156   0.00095  -0.00215   0.00877
 137        4PY         0.00075   0.00245   0.00202  -0.00745  -0.00331
 138        4PZ        -0.00007  -0.00693  -0.00253  -0.00908   0.00040
 139 8   H  1S         -0.02006  -0.04707  -0.02089   0.05709   0.10814
 140        2S         -0.02505  -0.06012  -0.02072   0.07789   0.14830
 141        3S         -0.00582  -0.01293  -0.01382   0.03063   0.06412
 142        4PX         0.00021   0.00611   0.00260  -0.00745  -0.00156
 143        4PY        -0.00216   0.00119   0.00237   0.00542   0.00702
 144        4PZ         0.00170   0.00403   0.00147   0.00534  -0.00749
 145 9   H  1S          0.01844  -0.04761  -0.02168   0.07393  -0.09897
 146        2S          0.02310  -0.06075  -0.02212   0.10120  -0.13604
 147        3S          0.00507  -0.01357  -0.01539   0.04101  -0.05905
 148        4PX         0.00149  -0.00510  -0.00110   0.00899  -0.00559
 149        4PY         0.00148   0.00464   0.00339   0.00134  -0.00433
 150        4PZ        -0.00167   0.00281   0.00110   0.00586   0.00742
 151 10  H  1S         -0.08691   0.03676   0.09020  -0.00201  -0.08644
 152        2S         -0.11195   0.04812   0.12559  -0.00435  -0.12211
 153        3S         -0.03265   0.01280   0.03082   0.00068  -0.04886
 154        4PX        -0.00336   0.00684   0.00135  -0.00048  -0.00494
 155        4PY         0.01187  -0.00249  -0.01396   0.00064   0.00634
 156        4PZ        -0.00130   0.00128   0.00110   0.00307  -0.00125
 157 11  H  1S          0.08686   0.03677   0.09055  -0.00241   0.08528
 158        2S          0.11198   0.04816   0.12608  -0.00497   0.11998
 159        3S          0.03248   0.01284   0.03112   0.00039   0.04873
 160        4PX        -0.00960  -0.00702  -0.00920  -0.00026  -0.00757
 161        4PY        -0.00778   0.00189  -0.01065   0.00060  -0.00219
 162        4PZ        -0.00116  -0.00135  -0.00089   0.00308  -0.00111
                          16        17        18        19        20
                           O         O         O         O         O
     Eigenvalues --    -0.35232  -0.35131  -0.34794  -0.26563  -0.22766
   1 1   N  1S         -0.00195   0.00041  -0.00490  -0.03494   0.02231
   2        2S         -0.00315   0.00066  -0.00783  -0.05596   0.03576
   3        2PX        -0.00540  -0.00899   0.02526  -0.13642   0.18643
   4        2PY        -0.02697  -0.10439  -0.09013  -0.04373  -0.01646
   5        2PZ         0.09503   0.01087  -0.03339  -0.01882   0.02927
   6        3S          0.00981  -0.00142   0.02337   0.15619  -0.09582
   7        3PX        -0.00807  -0.01719   0.03752  -0.19353   0.26964
   8        3PY        -0.03911  -0.15052  -0.13060  -0.06103  -0.02157
   9        3PZ         0.14264   0.01554  -0.05037  -0.02660   0.04204
  10        4S          0.00790  -0.01683   0.02351   0.28002  -0.17013
  11        4PX        -0.00996  -0.01237   0.02421  -0.15253   0.23749
  12        4PY        -0.02094  -0.09687  -0.08632  -0.05970  -0.02454
  13        4PZ         0.11158   0.01005  -0.04299  -0.02092   0.03712
  14        5S          0.00382  -0.00740   0.01199   0.20152  -0.08560
  15        5PX         0.00504   0.00294   0.00346  -0.03237   0.08479
  16        5PY         0.00205  -0.00192  -0.01277  -0.00374  -0.00364
  17        5PZ        -0.00212  -0.00238   0.00194  -0.00499   0.01294
  18        6D 0        0.00386   0.00109  -0.00123   0.00754  -0.00742
  19        6D+1        0.01412   0.00073  -0.00407  -0.00276   0.00328
  20        6D-1        0.00103  -0.00215  -0.00344   0.00089  -0.00024
  21        6D+2        0.00048  -0.00502   0.00673  -0.00346   0.00855
  22        6D-2       -0.00634  -0.01293  -0.01661   0.00073   0.00110
  23 2   N  1S         -0.00189  -0.00025  -0.00484  -0.03508  -0.02221
  24        2S         -0.00306  -0.00040  -0.00774  -0.05619  -0.03561
  25        2PX        -0.04732   0.05676  -0.05294   0.08579   0.16059
  26        2PY        -0.02279   0.09348  -0.05540  -0.11469  -0.09302
  27        2PZ         0.08813   0.00986  -0.04908   0.02319   0.03650
  28        3S          0.00968   0.00043   0.02310   0.15711   0.09541
  29        3PX        -0.06977   0.07861  -0.07711   0.12224   0.23095
  30        3PY        -0.03285   0.13734  -0.07990  -0.16193  -0.13637
  31        3PZ         0.13244   0.01362  -0.07334   0.03308   0.05284
  32        4S          0.00542   0.01696   0.02410   0.27764   0.16928
  33        4PX        -0.04490   0.04830  -0.04711   0.09128   0.20659
  34        4PY        -0.01791   0.08820  -0.05368  -0.13652  -0.11529
  35        4PZ         0.10615   0.01087  -0.05742   0.02506   0.04704
  36        5S          0.00188   0.00645   0.01317   0.19612   0.08509
  37        5PX        -0.00204   0.00315  -0.01034   0.02555   0.07069
  38        5PY         0.00526  -0.00163  -0.00801  -0.02346  -0.04592
  39        5PZ        -0.00266   0.00346  -0.00099   0.00586   0.01643
  40        6D 0       -0.00382  -0.00103   0.00214   0.00753   0.00720
  41        6D+1       -0.00823  -0.00175   0.00708  -0.00286  -0.00330
  42        6D-1        0.00976  -0.00195  -0.00335   0.00143   0.00243
  43        6D+2        0.00948  -0.01154   0.01579  -0.00180  -0.00182
  44        6D-2       -0.00190  -0.00904   0.00043   0.00293   0.00825
  45 3   C  1S         -0.00153   0.00025  -0.00075   0.02962  -0.00006
  46        2S         -0.00232   0.00038  -0.00095   0.04782  -0.00009
  47        2PX         0.01449  -0.08862   0.04716  -0.00591  -0.08074
  48        2PY         0.07059   0.02373   0.14572  -0.01854   0.02551
  49        2PZ         0.06287  -0.01244  -0.02968   0.00070  -0.01530
  50        3S          0.00878  -0.00118   0.00836  -0.14381   0.00023
  51        3PX         0.01987  -0.12700   0.06807  -0.01130  -0.12283
  52        3PY         0.10153   0.03388   0.20874  -0.03533   0.03887
  53        3PZ         0.09548  -0.01746  -0.04509   0.00117  -0.02329
  54        4S          0.01482  -0.00303  -0.00238  -0.20790   0.00102
  55        4PX         0.01106  -0.08811   0.04719  -0.01709  -0.03621
  56        4PY         0.06825   0.02449   0.13832  -0.06168   0.01079
  57        4PZ         0.08182  -0.01121  -0.03802   0.00479  -0.00684
  58        5S          0.10944  -0.01368   0.02756  -0.13498   0.00048
  59        5PX        -0.02146  -0.04051  -0.00694  -0.01098   0.01321
  60        5PY        -0.05757   0.02318  -0.02562  -0.03310  -0.00458
  61        5PZ         0.03622  -0.00616  -0.01587   0.00463   0.00263
  62        6D 0        0.00014   0.00027  -0.00009   0.00420   0.00036
  63        6D+1        0.00926   0.00069   0.00062   0.00534  -0.00059
  64        6D-1        0.02261  -0.00181  -0.01275  -0.00090  -0.00561
  65        6D+2        0.00611  -0.01061   0.02022   0.02955  -0.01782
  66        6D-2       -0.00880  -0.01370  -0.01266  -0.02075  -0.02490
  67 4   C  1S          0.00482  -0.00033   0.01048   0.00933   0.00004
  68        2S          0.00768  -0.00053   0.01670   0.01482   0.00006
  69        2PX        -0.00667   0.13070  -0.04524  -0.01190  -0.01093
  70        2PY        -0.06639  -0.03720  -0.13778  -0.03677   0.00362
  71        2PZ        -0.10614   0.01788   0.04812  -0.00576  -0.00209
  72        3S         -0.02420   0.00155  -0.05357  -0.04472  -0.00004
  73        3PX        -0.01076   0.18660  -0.06587  -0.01623  -0.02131
  74        3PY        -0.09763  -0.05300  -0.20135  -0.04995   0.00697
  75        3PZ        -0.14954   0.02561   0.06776  -0.00780  -0.00406
  76        4S         -0.01156   0.00226  -0.01643  -0.08043  -0.00196
  77        4PX        -0.00376   0.14082  -0.04457  -0.01678  -0.01432
  78        4PY        -0.06371  -0.04003  -0.13249  -0.04849   0.00465
  79        4PZ        -0.12250   0.01905   0.05515  -0.01812  -0.00269
  80        5S         -0.12261   0.01744  -0.04676   0.03623  -0.00151
  81        5PX        -0.00745   0.02555  -0.00774   0.00196  -0.00328
  82        5PY        -0.03237  -0.00373  -0.02283   0.00692   0.00073
  83        5PZ        -0.02397   0.00357   0.01019  -0.00731  -0.00063
  84        6D 0        0.01304   0.00217   0.00225  -0.00097  -0.00025
  85        6D+1        0.00212   0.01263  -0.00041   0.00077  -0.00195
  86        6D-1        0.01376  -0.00610  -0.00695   0.00012  -0.00017
  87        6D+2       -0.00060  -0.01070   0.01302   0.00179  -0.00230
  88        6D-2       -0.00182  -0.01256  -0.00857  -0.00128  -0.00341
  89 5   C  1S          0.00548  -0.00264   0.01112  -0.00160  -0.02115
  90        2S          0.00873  -0.00431   0.01772  -0.00251  -0.03394
  91        2PX        -0.01892   0.02097   0.00243   0.11820  -0.00946
  92        2PY         0.04171   0.08651   0.08352   0.00103  -0.03714
  93        2PZ         0.08025   0.00288  -0.04672   0.01995  -0.00024
  94        3S         -0.02692   0.00723  -0.05590   0.00813   0.10114
  95        3PX        -0.02659   0.03082   0.00806   0.16808  -0.01866
  96        3PY         0.05861   0.11938   0.11612   0.01048  -0.06145
  97        3PZ         0.12333   0.00489  -0.06990   0.02789  -0.00072
  98        4S         -0.02666   0.02330  -0.04488  -0.00924   0.15985
  99        4PX        -0.01676   0.01238   0.00668   0.10988   0.03591
 100        4PY         0.03992   0.07988   0.07704   0.01364  -0.03879
 101        4PZ         0.09149   0.00370  -0.05101   0.01782   0.00668
 102        5S          0.01393  -0.08103   0.00853  -0.00753   0.07830
 103        5PX        -0.00150  -0.00365  -0.00154   0.01911   0.02068
 104        5PY         0.00161   0.03264   0.00790  -0.00311  -0.00981
 105        5PZ         0.00833  -0.00044  -0.00494   0.00299   0.00363
 106        6D 0        0.00262   0.00069  -0.00112   0.00490  -0.00169
 107        6D+1        0.00150  -0.00033  -0.00241   0.00278  -0.00355
 108        6D-1       -0.01448  -0.00480   0.00592   0.00225  -0.00063
 109        6D+2       -0.00279  -0.01069  -0.00880   0.02498  -0.02324
 110        6D-2        0.00297  -0.01983  -0.00335   0.00036   0.00578
 111 6   C  1S          0.00526   0.00197   0.01127  -0.00151   0.02115
 112        2S          0.00837   0.00325   0.01797  -0.00236   0.03394
 113        2PX         0.01363  -0.03700   0.05727  -0.09588   0.01359
 114        2PY         0.03934  -0.08601   0.05764   0.06917   0.03572
 115        2PZ         0.08597   0.00534  -0.03574  -0.02077   0.00109
 116        3S         -0.02631  -0.00394  -0.05611   0.00758  -0.10119
 117        3PX         0.01539  -0.04939   0.07790  -0.13124   0.02003
 118        3PY         0.05629  -0.11982   0.08220   0.10572   0.06088
 119        3PZ         0.13071   0.00876  -0.05586  -0.02906   0.00107
 120        4S         -0.02441  -0.01924  -0.04725  -0.00827  -0.15983
 121        4PX         0.00699  -0.03874   0.05168  -0.08245   0.05112
 122        4PY         0.03949  -0.07604   0.05566   0.07424   0.01096
 123        4PZ         0.09539   0.00394  -0.04195  -0.01873   0.00996
 124        5S          0.00350   0.07695   0.01177   0.00615  -0.07755
 125        5PX         0.00172  -0.02124   0.00618  -0.02048   0.02226
 126        5PY         0.00394  -0.02436   0.00292   0.00792  -0.00407
 127        5PZ         0.00812  -0.00327  -0.00310  -0.00426   0.00456
 128        6D 0       -0.00156  -0.00043   0.00083   0.00501   0.00192
 129        6D+1       -0.01057  -0.00190   0.00398   0.00156   0.00332
 130        6D-1       -0.00975  -0.00482   0.00604  -0.00291  -0.00258
 131        6D+2        0.00221  -0.01487  -0.00338   0.00808   0.01318
 132        6D-2        0.00552  -0.01720   0.00671  -0.02360  -0.01977
 133 7   H  1S          0.11009  -0.00380  -0.00620   0.00821   0.00048
 134        2S          0.15415  -0.00565  -0.01027   0.01318   0.00073
 135        3S          0.08119  -0.00262  -0.00520  -0.00550   0.00091
 136        4PX        -0.00037   0.00829  -0.00283  -0.00089  -0.00052
 137        4PY         0.00091  -0.00252  -0.00879  -0.00189   0.00010
 138        4PZ         0.00722   0.00060   0.00237   0.00144   0.00002
 139 8   H  1S         -0.02797   0.10522   0.06054   0.00417  -0.00585
 140        2S         -0.03900   0.14938   0.08527   0.01553  -0.00419
 141        3S         -0.01731   0.07963   0.04459   0.00835  -0.00662
 142        4PX         0.00213  -0.00138  -0.00760   0.00034   0.00151
 143        4PY        -0.00601   0.00500  -0.00419  -0.00070   0.00136
 144        4PZ        -0.00423  -0.00693  -0.00149  -0.00070   0.00045
 145 9   H  1S         -0.03111  -0.10398   0.05581   0.00500   0.00541
 146        2S         -0.04343  -0.14789   0.07815   0.01521   0.00448
 147        3S         -0.02038  -0.07917   0.04102   0.00602   0.00670
 148        4PX        -0.00437  -0.00507   0.00384  -0.00040   0.00050
 149        4PY        -0.00418  -0.00258  -0.00794  -0.00070  -0.00171
 150        4PZ        -0.00485   0.00654   0.00010  -0.00101  -0.00020
 151 10  H  1S          0.02556   0.07369   0.06170  -0.05088   0.00185
 152        2S          0.03929   0.10543   0.09210  -0.08559   0.00282
 153        3S          0.01645   0.05544   0.04480  -0.07435   0.01116
 154        4PX         0.00015   0.00446   0.00374   0.00622  -0.00166
 155        4PY        -0.00201  -0.00305  -0.00501   0.00467  -0.00008
 156        4PZ         0.00692   0.00128  -0.00235   0.00077  -0.00037
 157 11  H  1S          0.03187  -0.07759   0.05500  -0.05062  -0.00173
 158        2S          0.04840  -0.11163   0.08245  -0.08510  -0.00257
 159        3S          0.02127  -0.05789   0.03961  -0.07362  -0.01072
 160        4PX        -0.00402   0.00572  -0.00435  -0.00240  -0.00133
 161        4PY        -0.00087   0.00019  -0.00232   0.00739   0.00101
 162        4PZ         0.00615   0.00149  -0.00389  -0.00087  -0.00020
                          21        22        23        24        25
                           O         O         V         V         V
     Eigenvalues --    -0.22467  -0.18062   0.01577   0.02912   0.04320
   1 1   N  1S          0.00011   0.00020   0.01421  -0.00476  -0.00719
   2        2S          0.00014   0.00032   0.02325  -0.00780  -0.01200
   3        2PX        -0.02565  -0.01099   0.01273  -0.00455  -0.04243
   4        2PY         0.01150   0.00555   0.00676   0.00014  -0.00074
   5        2PZ         0.17407   0.06261  -0.00141   0.00279  -0.00713
   6        3S          0.00053  -0.00082  -0.07385   0.02502   0.04244
   7        3PX        -0.03829  -0.01636   0.01890  -0.00559  -0.06890
   8        3PY         0.01716   0.00804   0.01016  -0.00308   0.00026
   9        3PZ         0.25961   0.09294  -0.00172   0.00378  -0.01220
  10        4S         -0.01211  -0.00198  -0.19481   0.02830   0.01376
  11        4PX        -0.04117  -0.01633  -0.05043  -0.01472  -0.03567
  12        4PY         0.02071   0.00990   0.01151   0.00452  -0.01689
  13        4PZ         0.25375   0.09642  -0.01611   0.00782  -0.00243
  14        5S         -0.02240  -0.00059  -1.73479  -0.17346   0.87022
  15        5PX        -0.01585  -0.00459  -0.25882  -0.10012  -0.33494
  16        5PY         0.00745   0.00420  -0.11823  -0.49328  -0.19343
  17        5PZ         0.07646   0.03716  -0.01196  -0.01281  -0.05941
  18        6D 0        0.00344   0.00371   0.00322   0.00113   0.00016
  19        6D+1        0.01401   0.00422  -0.00053   0.00036  -0.00096
  20        6D-1        0.00521  -0.01828   0.00074   0.00046  -0.00034
  21        6D+2       -0.00249   0.00032   0.00317   0.00409  -0.00488
  22        6D-2        0.00012   0.00340   0.00119  -0.00095   0.00060
  23 2   N  1S         -0.00009   0.00020   0.01429  -0.00475   0.00733
  24        2S         -0.00011   0.00031   0.02340  -0.00777   0.01223
[...]
    Y5        2.04267   0.00000   0.00000   0.00005   0.00007   2.04274
    Z5       -0.24327   0.00000   0.00000   0.00070   0.00110  -0.24217
    X6        1.78934  -0.00000   0.00000   0.00011   0.00017   1.78950
    Y6        1.26624   0.00000   0.00000  -0.00005  -0.00007   1.26617
    Z6        0.22323   0.00001   0.00000  -0.00077  -0.00116   0.22207
    X7       -1.48788   0.00001   0.00000   0.00443   0.00387  -1.48401
    Y7       -5.49047  -0.00000   0.00000  -0.00135  -0.00117  -5.49164
    Z7       -1.89727  -0.00001   0.00000   0.00044   0.00039  -1.89688
    X8       -0.18601   0.00000   0.00000  -0.00260  -0.00227  -0.18828
    Y8       -5.88781  -0.00000   0.00000   0.00060   0.00049  -5.88732
    Z8        1.14638   0.00000   0.00000   0.00368   0.00322   1.14960
    X9       -3.36752  -0.00001   0.00000  -0.00174  -0.00152  -3.36903
    Y9       -4.89725  -0.00000   0.00000   0.00076   0.00069  -4.89656
    Z9        0.78896  -0.00000   0.00000  -0.00423  -0.00367   0.78529
   X10       -1.40484  -0.00000   0.00000  -0.00026  -0.00041  -1.40526
   Y10        3.93590  -0.00000   0.00000   0.00010   0.00014   3.93604
   Z10       -0.48635   0.00000   0.00000   0.00146   0.00225  -0.48410
   X11        3.48473  -0.00000   0.00000   0.00024   0.00036   3.48509
   Y11        2.39075   0.00000   0.00000  -0.00010  -0.00014   2.39061
   Z11        0.44131   0.00001   0.00000  -0.00153  -0.00231   0.43900
         Item               Value     Threshold  Converged?
 Maximum Force            0.000012     0.000450     YES
 RMS     Force            0.000005     0.000300     YES
 Maximum Displacement     0.003866     0.001800     NO 
 RMS     Displacement     0.001446     0.001200     NO 
 Predicted change in Energy=-1.861187D-08
 GradGradGradGradGradGradGradGradGradGradGradGradGradGradGradGradGradGrad

 Leave Link  103 at Fri Jun  2 11:30:27 2023, MaxMem=  7381975040 cpu:               1.7 elap:               3.0
 (Enter /software/commercial/gaussian/g16/AVX/g16/l9999.exe)

 ----------------------------------------------------------------------

 Electric dipole moment (input orientation):
 (Debye = 10**-18 statcoulomb cm , SI units = C m)
                  (au)            (Debye)         (10**-30 SI)
   Tot        0.548590D+00      0.139438D+01      0.465114D+01
   x          0.137096D+00      0.348462D+00      0.116234D+01
   y          0.530136D+00      0.134747D+01      0.449468D+01
   z         -0.333492D-01     -0.847651D-01     -0.282746D+00

 Dipole polarizability, Alpha (input orientation).
 (esu units = cm**3 , SI units = C**2 m**2 J**-1)
 Alpha(0;0):
               (au)            (10**-24 esu)      (10**-40 SI)
   iso        0.921729D+02      0.136586D+02      0.151973D+02
   aniso      0.364221D+02      0.539720D+01      0.600519D+01
   xx         0.102136D+03      0.151349D+02      0.168399D+02
   yx         0.138616D+01      0.205407D+00      0.228547D+00
   yy         0.105319D+03      0.156067D+02      0.173648D+02
   zx         0.591686D+01      0.876788D+00      0.975558D+00
   zy        -0.148558D+01     -0.220141D+00     -0.244940D+00
   zz         0.690639D+02      0.102342D+02      0.113871D+02

 First dipole hyperpolarizability, Beta (input orientation).
 ||, _|_  parallel and perpendicular components, (z) with respect to z axis,
 vector components x,y,z.  Values do not include the 1/n! factor of 1/2.
 (esu units = statvolt**-1 cm**4 , SI units = C**3 m**3 J**-2)
 Beta(0;0,0):
               (au)            (10**-30 esu)      (10**-50 SI)
   || (z)    -0.202428D+02     -0.174882D+00     -0.649058D-01
   _|_(z)    -0.674761D+01     -0.582941D-01     -0.216353D-01
   x          0.375105D+03      0.324062D+01      0.120272D+01
   y          0.113658D+04      0.981913D+01      0.364427D+01
   z         -0.101214D+03     -0.874412D+00     -0.324529D+00
   ||         0.240229D+03      0.207539D+01      0.770262D+00
   xxx        0.994185D+02      0.858899D+00      0.318772D+00
   xxy        0.846730D+02      0.731508D+00      0.271492D+00
   yxy       -0.808770D+02     -0.698714D+00     -0.259321D+00
   yyy       -0.917968D+01     -0.793053D-01     -0.294334D-01
   xxz       -0.829391D+01     -0.716529D-01     -0.265933D-01
   yxz       -0.369351D+02     -0.319091D+00     -0.118427D+00
   yyz        0.138372D+02      0.119542D+00      0.443670D-01
   zxz        0.106493D+03      0.920020D+00      0.341456D+00
   zyz        0.303365D+03      0.262084D+01      0.972698D+00
   zzz       -0.392813D+02     -0.339360D+00     -0.125950D+00

 ----------------------------------------------------------------------

 Dipole orientation:
     7         -1.95868337          0.90384129         -0.58229569
     7          1.94465878         -0.87993222         -0.85310959
     6         -0.06619206          0.09146015         -2.09248519
     6         -0.15541745          0.32465058         -4.91796886
     6         -1.08788738          0.41846476          1.82183669
     6          1.28898038         -0.66859025          1.65723677
     1          0.49695319          2.18470106         -5.56226283
     1          1.05380483         -1.09357108         -5.80591875
     1         -2.08153280          0.07553743         -5.62202561
     1         -2.20192288          0.85366785          3.48198554
     1          2.52799358         -1.30885812          3.15434911

 Electric dipole moment (dipole orientation):
 (Debye = 10**-18 statcoulomb cm , SI units = C m)
                  (au)            (Debye)         (10**-30 SI)
   Tot        0.548590D+00      0.139438D+01      0.465114D+01
   x          0.000000D+00      0.000000D+00      0.000000D+00
   y          0.000000D+00      0.000000D+00      0.000000D+00
   z          0.548590D+00      0.139438D+01      0.465114D+01

 Dipole polarizability, Alpha (dipole orientation).
 (esu units = cm**3 , SI units = C**2 m**2 J**-1)
 Alpha(0;0):
               (au)            (10**-24 esu)      (10**-40 SI)
   iso        0.921729D+02      0.136586D+02      0.151973D+02
   aniso      0.364221D+02      0.539720D+01      0.600519D+01
   xx         0.966637D+02      0.143241D+02      0.159377D+02
   yx        -0.132168D+02     -0.195853D+01     -0.217916D+01
   yy         0.742044D+02      0.109960D+02      0.122347D+02
   zx        -0.501809D+00     -0.743604D-01     -0.827371D-01
   zy        -0.221633D+01     -0.328426D+00     -0.365423D+00
   zz         0.105651D+03      0.156558D+02      0.174194D+02

 First dipole hyperpolarizability, Beta (dipole orientation).
 ||, _|_  parallel and perpendicular components, (z) with respect to z axis,
 vector components x,y,z.  Values do not include the 1/n! factor of 1/2.
 (esu units = statvolt**-1 cm**4 , SI units = C**3 m**3 J**-2)
 Beta(0;0,0):
               (au)            (10**-30 esu)      (10**-50 SI)
   || (z)     0.239647D+03      0.207036D+01      0.768395D+00
   _|_(z)     0.798823D+02      0.690121D+00      0.256132D+00
   x          0.832093D+02      0.718864D+00      0.266799D+00
   y          0.784206D+01      0.677492D-01      0.251445D-01
   z          0.119823D+04      0.103518D+02      0.384197D+01
   ||         0.240229D+03      0.207539D+01      0.770262D+00
   xxx        0.520187D+01      0.449401D-01      0.166791D-01
   xxy       -0.940280D+01     -0.812329D-01     -0.301488D-01
   yxy        0.225718D+02      0.195003D+00      0.723734D-01
   yyy       -0.367350D+02     -0.317361D+00     -0.117786D+00
   xxz        0.156623D+03      0.135310D+01      0.502190D+00
   yxz        0.817413D+02      0.706181D+00      0.262092D+00
   yyz        0.286269D+03      0.247314D+01      0.917882D+00
   zxz       -0.372247D-01     -0.321592D-03     -0.119356D-03
   zyz        0.487518D+02      0.421177D+00      0.156316D+00
   zzz       -0.434805D+02     -0.375638D+00     -0.139414D+00

 ----------------------------------------------------------------------
 Unable to Open any file for archive entry.
 1\1\GINC-NODE1933\Freq\RB3LYP\6-311+G(d,p)\C4H5N2(1-)\SVICCHI\02-Jun-2
 023\0\\#p freq=raman scale=0.967 pop=(nbo,full,hirshfeld) guess=read g
 eom=allcheck b3lyp/6-311+G(d,p) int=grid=ultrafine EmpiricalDispersion
 =GD3BJ SCRF=(Solvent=ethanol) scf=(xqc,intrep,maxconventionalcycle=350
 ) nosymm\\2methylimidazolide-isolated.gjf\\-1,1\N,-1.167557515,-0.0285
 312902,-0.1844462259\N,0.9675523341,-0.7035197099,0.2202499713\C,-0.32
 18618222,-1.0607635508,0.0292962294\C,-0.7713214525,-2.4928028563,0.01
 27409058\C,-0.3534171303,1.0809319161,-0.1287327133\C,0.9468759226,0.6
 700647395,0.1181290341\H,-0.7873528528,-2.9054306838,-1.0039896923\H,-
 0.0984310857,-3.1156952065,0.6066369912\H,-1.7820137526,-2.5915114856,
 0.4174976301\H,-0.7434109634,2.0827890176,-0.2573657305\H,1.8440393179
 ,1.26513011,0.2335336002\\Version=ES64L-G16RevC.01\HF=-265.1493186\RMS
 D=3.537e-09\RMSF=4.846e-06\ZeroPoint=0.0819252\Thermal=0.087314\ETot=-
 265.0620046\HTot=-265.0610604\GTot=-265.0965143\Dipole=-0.1250733,-0.4
 017407,-0.0142084\DipoleDeriv=-1.0603338,0.124662,-0.1074565,-0.112434
 5,-0.6039362,-0.0181153,-0.0984682,0.0257598,-0.4381371,-0.9095191,0.1
 052506,-0.1025344,0.3388752,-0.7379233,0.0735843,-0.1077176,0.0329048,
 -0.4476597,0.6153122,-0.0657531,0.1253336,-0.0494738,0.4968165,-0.0268
 191,0.162334,0.08516,-0.0464344,0.1646301,-0.0333221,-0.0000152,-0.036
 0864,0.053829,0.0334256,-0.0352614,-0.0667539,0.231035,0.3156044,0.076
 9747,0.086404,0.2506069,-0.0138523,0.0201669,0.075429,-0.0103208,-0.33
 21963,0.0449925,-0.1117729,0.0890758,-0.2920393,0.2394804,-0.0995821,0
 .096119,-0.073132,-0.3167916,0.0774441,-0.0507227,0.0075004,-0.0653539
 ,-0.1382344,-0.0762272,-0.0284937,-0.1873518,-0.1789661,-0.0163706,0.1
 173956,-0.1033386,0.0388533,-0.0741464,0.0635838,-0.0826499,0.120295,0
 .006859,-0.1651059,-0.1034513,0.0949624,-0.0135928,0.0055779,-0.008166
 4,0.1088417,0.0354102,0.0514635,0.04966,0.1104641,-0.0384011,0.0696934
 ,-0.1971915,0.0408709,-0.0298897,0.0457359,0.2363787,-0.1163138,-0.169
 7249,-0.0515305,-0.1290481,-0.0304197,-0.0027215,-0.0602431,-0.0077071
 ,0.2344491\Polar=102.1356961,1.3861583,105.3191339,5.916859,-1.4855828
 ,69.0639388\PolarDeriv=-8.8616478,1.0641465,-2.1289064,-0.4802791,0.02
 43473,-1.7766233,2.1400872,10.7987947,8.1213302,-1.0453615,1.2338324,-
 1.0642821,-0.1043311,-1.7319309,-0.2555889,-4.9280757,0.7116165,-2.012
 0416,2.5943695,-2.7058015,12.4958922,-0.193843,-1.0076542,1.0724363,-9
 .5108675,1.3060833,11.5834394,-0.7671594,-1.1299431,-1.6119734,0.07174
 1,0.6895849,0.5622394,4.6504623,-2.1573441,2.0769132,0.7313751,6.54545
 2,-13.9687716,0.6552354,2.6732897,-1.4091423,-16.3302463,-5.7162092,-2
 1.2744067,-2.4577374,-1.1586199,-3.6286891,2.7803671,4.2346046,3.94203
 59,-2.0948688,-6.5550103,0.7537523,7.1757111,6.1976178,0.1188296,-4.89
 70334,1.8689903,-0.3499693,2.8822681,0.7723195,11.8677829,2.3907209,2.
 0854903,4.412124,-4.9092775,1.4818244,1.2666213,1.2582645,10.2964066,5
 .7264018,-5.1829937,-9.6152342,-12.5202836,2.7223159,-3.4015176,-11.60
 72077,7.223547,-5.1245646,-0.3778781,0.1087698,0.290389,6.9337813,0.04
 20551,-3.2951503,-2.2256845,-4.4625078,9.3637743,-5.7170368,4.404974,-
 0.7535759,14.4473624,-3.3354634,-0.9077339,13.63287,8.5051429,-1.88940
 96,-13.3834155,2.3856361,0.7821299,-0.9788065,-3.8815596,-0.6737579,3.
 0461436,8.9361885,4.9917918,5.0145301,-1.3368542,-2.8338087,-0.3296169
 ,-1.0743896,-0.599858,0.1380646,0.1998261,-1.8048474,-9.4561168,-0.783
 4353,-4.5294213,-2.3646442,-1.0176535,-2.3829053,-9.3856883,-1.268837,
 -7.1310632,-9.9301256,3.3395166,-2.3808661,5.7797605,2.2164863,-1.7520
 918,2.0057581,-0.8704902,2.7503796,-6.7063103,-1.1663659,2.964319,-1.7
 895479,1.843502,-1.5780342,3.6727052,1.572447,-3.6673047,2.7290765,-10
 .9180042,-4.4960867,-4.1887702,3.2663403,0.8670625,-1.7520757,-0.72357
 28,-2.3102729,-0.5266142,0.4135722,0.8531997,-0.0564157,3.380761,1.058
 5415,0.6320636,-2.4460467,-1.8364138,1.2624367,-2.3063036,3.0285841,-3
 .9440691,-0.792911,1.243601,0.2564894,1.5496304,-4.1125758,14.9858526,
 0.6075019,-1.8551125,0.0213582,-0.6638535,1.2830667,-1.6480816,0.66010
 45,-2.4393545,0.6820116,10.359857,5.9495728,4.2385732,1.9135417,0.9915
 647,-0.2106003,4.9346753,5.3303024,5.1663365,0.3138586,0.4637365,0.127
 0953,2.458249,0.9141566,0.3932341,-1.8771308,-1.5770986,-0.5859183\Hyp
 erPolar=99.4185485,84.6729666,-80.876963,-9.1796835,-8.2939069,-36.935
 1018,13.837177,106.493421,303.3651825,-39.2813274\Quadrupole=-4.393044
 8,2.928141,1.4649038,2.5805096,-1.1915766,0.3722433\PG=C01 [X(C4H5N2)]
 \NImag=0\\0.48202078,-0.00853755,0.47326632,0.06395288,-0.02643774,0.1
 1360094,-0.08953888,0.06593501,-0.02491743,0.48817344,-0.00663865,-0.0
 0474809,0.00136437,0.00026526,0.46711343,-0.01962378,0.01345666,0.0267
 7116,0.06497861,-0.02502490,0.11241549,-0.17824246,0.10043408,-0.02206
 640,-0.27720735,-0.05311521,-0.02897880,0.58488952,0.08741099,-0.20991
 996,0.02366903,-0.04099273,-0.11130431,-0.00437578,0.05649506,0.744742
 28,-0.02172258,0.02152228,-0.08779641,-0.03183926,-0.01019278,-0.08506
 235,0.06564552,-0.01940170,0.19519890,0.00969085,0.02085974,0.00066526
 ,-0.00949122,-0.03489245,0.00061570,-0.09617489,-0.03827202,-0.0051204
 1,0.56180358,-0.00708820,-0.02923195,-0.00034220,-0.00676216,-0.009797
 42,-0.00139997,-0.03847182,-0.20681931,-0.00284737,-0.02327698,0.49270
 045,0.00349801,0.00879710,-0.00244409,0.00042991,-0.00195643,-0.002521
 23,-0.00459530,-0.00139207,-0.06261524,0.00617039,-0.00899666,0.521726
 58,-0.16079407,-0.09688647,-0.00898811,-0.02152072,0.06924784,-0.01175
 651,0.01133216,-0.01787484,0.00411400,-0.00219736,0.00491069,-0.002929
 27,0.59060369,-0.07501319,-0.19735978,-0.00361307,0.00502403,-0.062977
 30,0.00702091,0.03033496,-0.10961874,0.01557599,0.00378507,-0.00004154
 ,0.00024329,-0.12419455,0.75795935,-0.01087535,-0.00721916,-0.06862577
 ,-0.00652396,0.01809597,0.01627703,-0.00324157,0.00499383,0.01264117,-
 0.00009749,0.00170820,0.00427335,0.08684713,-0.06408438,0.13808929,-0.
 07083420,-0.06466346,-0.01010873,-0.09244606,0.02237504,-0.00602775,-0
 .03526430,-0.03475986,-0.00714115,-0.00515366,-0.00160919,-0.00088828,
 -0.31135316,0.08058186,-0.04692869,0.76518881,-0.00021382,-0.01419657,
 0.00256887,0.00055293,-0.26564254,0.01381373,-0.08373644,-0.06317936,-
 0.00535396,-0.00033296,0.00331346,-0.00138460,0.06332783,-0.10668597,0
 .01251065,0.12269518,0.58468917,-0.01503297,-0.00755921,0.01694977,-0.
 00413215,0.01728335,-0.06957216,-0.00194779,-0.00140804,0.01256571,-0.
 00243490,0.00104793,0.00492664,-0.04704349,0.01580897,-0.07312865,0.10
 180284,-0.01156532,0.13694037,0.00038338,0.00177063,-0.00039566,0.0001
 7704,-0.00076044,-0.00029743,-0.00112698,-0.00460193,-0.00964806,-0.04
 454916,-0.00019842,-0.00232172,-0.00075392,-0.00109335,-0.00006922,0.0
 0030086,-0.00030917,0.00091406,0.04469274,-0.00013670,0.00254535,-0.00
 085248,0.00198430,0.00192357,-0.00089651,-0.00198881,-0.01574193,-0.02
 746037,0.00031542,-0.07445884,-0.08457006,-0.00286109,-0.00188511,0.00
 070665,0.00063817,-0.00344657,0.00124580,0.00273485,0.08467878,-0.0000
 7611,0.00071739,-0.00011024,0.00049828,0.00011413,-0.00018869,-0.00146
 841,-0.00141649,0.00560804,-0.00117843,-0.08059404,-0.26154728,-0.0011
 8169,-0.00094428,-0.00010617,0.00055044,-0.00119215,0.00029643,0.00208
 241,0.09226582,0.28486802,0.00002257,-0.00071923,-0.00042914,0.0004169
 6,-0.00008293,-0.00024898,0.00557772,-0.00548675,0.00656269,-0.1478735
 3,0.09204983,-0.08874725,0.00029642,-0.00063504,0.00010205,0.00028440,
 0.00041727,0.00062395,0.00015539,-0.00106399,0.00029812,0.15716324,-0.
 00335151,-0.00521454,0.00140755,0.00141777,0.00369115,-0.00045357,0.02
 266897,-0.01662721,0.01640440,0.08904336,-0.12765123,0.08023195,0.0005
 3695,-0.00126469,-0.00053563,0.00002938,-0.00101554,-0.00002698,-0.007
 71925,0.00646107,-0.00538045,-0.10022620,0.14073770,0.00005087,-0.0006
 6987,0.00039394,0.00030995,-0.00063947,0.00057888,0.00060094,-0.001620
 80,0.00008514,-0.08845414,0.08238347,-0.12345178,0.00018270,-0.0002467
 5,0.00037116,0.00024946,0.00075060,-0.00003586,-0.01929254,0.01693829,
 -0.01685280,0.09893082,-0.08834234,0.13136731,0.00107725,0.00214020,0.
 00009480,-0.00015059,-0.00259570,0.00157982,-0.00954806,0.00038692,0.0
 0137605,-0.26745094,-0.01903767,0.08950368,-0.00039718,-0.00116726,-0.
 00059165,0.00017942,-0.00033858,-0.00061131,0.00077914,0.00058394,0.00
 048831,-0.01610020,-0.00196510,0.00736381,0.29152031,0.00088699,0.0032
 8563,-0.00106627,-0.00061416,-0.00444344,0.00155912,-0.03044549,-0.001
 29957,0.01092732,-0.01661438,-0.04763694,0.00858997,-0.00088733,-0.000
 42315,0.00010952,-0.00090961,-0.00127867,-0.00074618,0.01027161,0.0002
 3939,-0.00342243,0.01585045,0.00130266,-0.00852994,0.02228341,0.050797
 84,-0.00033839,-0.00035693,0.00040761,-0.00060039,-0.00101684,0.000375
 48,-0.00195998,-0.00060872,0.00015390,0.09020069,0.00936688,-0.0811983
 0,0.00033319,0.00054867,-0.00018590,-0.00030411,0.00005984,-0.00001895
 ,0.02883966,0.00193040,-0.01181769,-0.01678959,-0.00296421,0.00765020,
 -0.09937575,-0.00693737,0.08464451,0.01148548,-0.01960233,0.00421482,-
 0.00443811,0.00420359,-0.00230134,-0.00385861,-0.00390338,-0.00123215,
 0.00103823,-0.00053906,0.00000790,-0.09872321,0.10054770,-0.01899170,0
 .00412708,0.02248663,-0.00032811,0.00000297,-0.00008159,0.00001471,-0.
 00000104,-0.00034356,0.00004682,0.00003601,0.00011552,0.00002891,0.090
 66704,0.00961298,-0.01889742,0.00238461,0.00037296,-0.00029951,0.00053
 827,-0.00327122,-0.00337106,-0.00006622,0.00101755,-0.00055658,0.00046
 515,0.09707765,-0.28793469,0.03325070,-0.00320222,-0.00026414,-0.00072
 316,-0.00001007,-0.00015319,-0.00007498,-0.00015413,-0.00049602,-0.000
 02862,-0.00005265,0.00002239,-0.00000828,-0.10213533,0.31230043,0.0024
 0880,-0.00233167,-0.00596353,-0.00219429,0.00104935,0.00680699,-0.0010
 9376,0.00018325,0.00470073,-0.00007485,-0.00022597,0.00137583,-0.01861
 476,0.03350782,-0.02746603,0.00109921,0.00388796,-0.00222582,0.0000235
 5,0.00034145,-0.00008651,-0.00018261,-0.00030689,-0.00000674,0.0001560
 0,-0.00010515,-0.00002856,0.01824083,-0.03577245,0.02474758,-0.0052707
 2,-0.00073063,-0.00202229,0.00602549,0.00199366,0.00206047,-0.00037676
 ,0.00159853,-0.00099463,0.00035809,0.00002298,-0.00012808,-0.00649266,
 -0.01817024,0.00037046,-0.25502920,-0.12454886,-0.03181014,-0.00006146
 ,-0.00012448,-0.00002763,0.00005806,-0.00009081,0.00001131,0.00005485,
 0.00006299,-0.00003425,-0.00033585,0.00074447,0.00023188,0.26107014,0.
 00306866,0.00047100,0.00091732,-0.02718321,-0.01351554,-0.00423796,0.0
 0109592,-0.00686083,0.00089241,-0.00163234,0.00017989,-0.00002764,0.00
 760332,0.01023162,0.00046365,-0.12117529,-0.13229326,-0.01335716,-0.00
 008446,-0.00016252,-0.00007252,0.00005072,0.00007664,0.00000543,-0.000
 23751,-0.00056612,-0.00001344,-0.00074819,-0.00035022,-0.00022769,0.13
 924239,0.14278936,-0.00224138,0.00008115,0.00681664,0.00399074,0.00092
 323,-0.00588059,-0.00089445,0.00137749,0.00452040,-0.00029182,-0.00010
 027,0.00147554,-0.00096319,-0.00381717,-0.00213949,-0.03230325,-0.0140
 9559,-0.02669748,0.00016495,0.00035100,-0.00006311,-0.00012006,-0.0000
 3384,-0.00009944,0.00001625,-0.00037859,0.00001771,0.00029931,0.000034
 98,-0.00185393,0.03234290,0.01565760,0.02390376\\-0.00000190,0.0000013
 1,0.00000591,0.00000260,-0.00000062,-0.00000800,-0.00000016,-0.0000002
 2,0.00000193,-0.00000413,-0.00000533,0.00000968,0.00000032,-0.00000031
 ,-0.00000324,0.00000267,-0.00000168,-0.00001119,-0.00000514,0.00000180
 ,0.00001212,-0.00000444,0.00000438,-0.00000251,0.00000803,0.00000100,0
 .00000467,0.00000031,0.00000026,-0.00000169,0.00000184,-0.00000059,-0.
 00000768\\\@
 The archive entry for this job was punched.


 MOM AND DAD WENT TO ALPHA CENTAURI AND ALL
 I GOT WAS THIS DUMB T-SHIRT.
 Job cpu time:       0 days  0 hours 12 minutes 36.8 seconds.
 Elapsed time:       0 days  0 hours  7 minutes  3.3 seconds.
 File lengths (MBytes):  RWF=     70 Int=      0 D2E=      0 Chk=     11 Scr=      1
 Normal termination of Gaussian 16 at Fri Jun  2 11:30:33 2023.
