 Entering Gaussian System, Link 0=g16
 Input=indazolide-H_dissociation-site_index-0-freq.gjf
 Output=indazolide-H_dissociation-site_index-0-freq.log
 Initial command:
 /software/commercial/gaussian/g16/AVX/g16/l1.exe "/scratch1/svicchi/G09-659834.pbs02/Gau-1181944.inp" -scrdir="/scratch1/svicchi/G09-659834.pbs02/"
 Entering Link 1 = /software/commercial/gaussian/g16/AVX/g16/l1.exe PID=   1181946.
  
 Copyright (c) 1988-2019, Gaussian, Inc.  All Rights Reserved.
  
 This is part of the Gaussian(R) 16 program.  It is based on
 the Gaussian(R) 09 system (copyright 2009, Gaussian, Inc.),
 the Gaussian(R) 03 system (copyright 2003, Gaussian, Inc.),
 the Gaussian(R) 98 system (copyright 1998, Gaussian, Inc.),
 the Gaussian(R) 94 system (copyright 1995, Gaussian, Inc.),
 the Gaussian 92(TM) system (copyright 1992, Gaussian, Inc.),
 the Gaussian 90(TM) system (copyright 1990, Gaussian, Inc.),
 the Gaussian 88(TM) system (copyright 1988, Gaussian, Inc.),
 the Gaussian 86(TM) system (copyright 1986, Carnegie Mellon
 University), and the Gaussian 82(TM) system (copyright 1983,
 Carnegie Mellon University). Gaussian is a federally registered
 trademark of Gaussian, Inc.
  
 This software contains proprietary and confidential information,
 including trade secrets, belonging to Gaussian, Inc.
  
 This software is provided under written license and may be
 used, copied, transmitted, or stored only in accord with that
 written license.
  
 The following legend is applicable only to US Government
 contracts under FAR:
  
                    RESTRICTED RIGHTS LEGEND
  
 Use, reproduction and disclosure by the US Government is
 subject to restrictions as set forth in subparagraphs (a)
 and (c) of the Commercial Computer Software - Restricted
 Rights clause in FAR 52.227-19.
  
 Gaussian, Inc.
 340 Quinnipiac St., Bldg. 40, Wallingford CT 06492
  
  
 ---------------------------------------------------------------
 Warning -- This program may not be used in any manner that
 competes with the business of Gaussian, Inc. or will provide
 assistance to any competitor of Gaussian, Inc.  The licensee
 of this program is prohibited from giving any competitor of
 Gaussian, Inc. access to this program.  By using this program,
 the user acknowledges that Gaussian, Inc. is engaged in the
 business of creating and licensing software in the field of
 computational chemistry and represents and warrants to the
 licensee that it is not a competitor of Gaussian, Inc. and that
 it will not use this program in any manner prohibited above.
 ---------------------------------------------------------------
  

 Cite this work as:
 Gaussian 16, Revision C.01,
 M. J. Frisch, G. W. Trucks, H. B. Schlegel, G. E. Scuseria, 
 M. A. Robb, J. R. Cheeseman, G. Scalmani, V. Barone, 
 G. A. Petersson, H. Nakatsuji, X. Li, M. Caricato, A. V. Marenich, 
 J. Bloino, B. G. Janesko, R. Gomperts, B. Mennucci, H. P. Hratchian, 
 J. V. Ortiz, A. F. Izmaylov, J. L. Sonnenberg, D. Williams-Young, 
 F. Ding, F. Lipparini, F. Egidi, J. Goings, B. Peng, A. Petrone, 
 T. Henderson, D. Ranasinghe, V. G. Zakrzewski, J. Gao, N. Rega, 
 G. Zheng, W. Liang, M. Hada, M. Ehara, K. Toyota, R. Fukuda, 
 J. Hasegawa, M. Ishida, T. Nakajima, Y. Honda, O. Kitao, H. Nakai, 
 T. Vreven, K. Throssell, J. A. Montgomery, Jr., J. E. Peralta, 
 F. Ogliaro, M. J. Bearpark, J. J. Heyd, E. N. Brothers, K. N. Kudin, 
 V. N. Staroverov, T. A. Keith, R. Kobayashi, J. Normand, 
 K. Raghavachari, A. P. Rendell, J. C. Burant, S. S. Iyengar, 
 J. Tomasi, M. Cossi, J. M. Millam, M. Klene, C. Adamo, R. Cammi, 
 J. W. Ochterski, R. L. Martin, K. Morokuma, O. Farkas, 
 J. B. Foresman, and D. J. Fox, Gaussian, Inc., Wallingford CT, 2019.
 
 ******************************************
 Gaussian 16:  ES64L-G16RevC.01  3-Jul-2019
                 2-Jun-2023 
 ******************************************
 %NProcShared=2
 Will use up to    2 processors via shared memory.
 %mem=55gb
 %chk=/scratch1/svicchi/G09-659834.pbs02/02-freq/indazolide-H_dissociation-site_i
 ndex-0-freq.chk
 ----------------------------------------------------------------------
 #p freq=raman scale=0.967 pop=(nbo,full,hirshfeld) guess=read geom=all
 check b3lyp/6-311+G(d,p) int=grid=ultrafine EmpiricalDispersion=GD3BJ 
 SCRF=(Solvent=ethanol) scf=(xqc,intrep,maxconventionalcycle=350) nosym
 m
 ----------------------------------------------------------------------
 1/10=4,29=7,30=1,38=1,114=967000/1,3;
 2/12=2,15=1,40=1/2;
 3/5=4,6=6,7=111,11=2,14=-4,25=1,30=1,70=2201,71=2,72=4,74=-5,75=-5,116=-2,124=41,140=1/1,2,3;
 4/5=1/1;
 5/5=2,8=3,13=1,17=20,38=6,53=4,85=350,98=1/2,8;
 8/6=4,10=90,11=11/1;
 10/13=10,15=4,31=1/2;
 11/6=3,8=1,9=11,15=111,16=1,31=1/1,2,10;
 10/6=1,31=1/2;
 6/7=3,28=1,40=1,79=1/1,7;
 7/8=1,10=1,25=1,30=1/1,2,3,16;
 1/10=4,30=1/3;
 99//99;
 Leave Link    1 at Fri Jun  2 11:28:18 2023, MaxMem=  7381975040 cpu:               1.1 elap:               1.1
 (Enter /software/commercial/gaussian/g16/AVX/g16/l101.exe)
 Structure from the checkpoint file:  "/scratch1/svicchi/G09-659834.pbs02/02-freq/indazolide-H_dissociation-site_index-0-freq.chk"
 ------------------------------------------
 indazolide-H_dissociation-site_index-0.gjf
 ------------------------------------------
 Charge =  0 Multiplicity = 1
 No Z-Matrix found in chk file; cartesian coordinates used.
  N                                                -1.530003061812     -1.069876113989      0.168972228135
  N                                                -2.370415232765     -0.003578057401      0.230671245483
  C                                                -0.220918972349     -0.693155042812      0.074781808945
  C                                                -0.226662491943      0.724679530599      0.076487700011
  C                                                 0.966411960478     -1.434717398496     -0.011977885094
  C                                                 0.989479182809      1.426058545826     -0.010964564571
  C                                                -1.607225755510      1.074166723007      0.176540715079
  C                                                 2.147065822337     -0.717615097681     -0.096961001672
  C                                                 2.162204918087      0.697830313296     -0.096716528054
  H                                                 0.959287705183     -2.517557541426     -0.012440138937
  H                                                 1.004430233885      2.509504115421     -0.011029267165
  H                                                -2.053548751500      2.056705865529      0.209628777808
  H                                                 3.086896175398     -1.252805159918     -0.165660066855
  H                                                 3.112739241492      1.213090097124     -0.165165647334
  H                                                -1.910098973790     -2.002607779079      0.196187624222
 Recover connectivity data from disk.
 ITRead=  0  0  0  0  0  0  0  0  0  0  0  0  0  0  0
 MicOpt= -1 -1 -1 -1 -1 -1 -1 -1 -1 -1 -1 -1 -1 -1 -1
 NAtoms=     15 NQM=       15 NQMF=       0 NMMI=      0 NMMIF=      0
                NMic=       0 NMicF=      0.
                    Isotopes and Nuclear Properties:
 (Nuclear quadrupole moments (NQMom) in fm**2, nuclear magnetic moments (NMagM)
  in nuclear magnetons)

  Atom         1           2           3           4           5           6           7           8           9          10
 IAtWgt=          14          14          12          12          12          12          12          12          12           1
 AtmWgt=  14.0030740  14.0030740  12.0000000  12.0000000  12.0000000  12.0000000  12.0000000  12.0000000  12.0000000   1.0078250
 NucSpn=           2           2           0           0           0           0           0           0           0           1
 AtZEff=   4.5500000   4.5500000   3.6000000   3.6000000   3.6000000   3.6000000   3.6000000   3.6000000   3.6000000   1.0000000
 NQMom=    2.0440000   2.0440000   0.0000000   0.0000000   0.0000000   0.0000000   0.0000000   0.0000000   0.0000000   0.0000000
 NMagM=    0.4037610   0.4037610   0.0000000   0.0000000   0.0000000   0.0000000   0.0000000   0.0000000   0.0000000   2.7928460
 AtZNuc=   7.0000000   7.0000000   6.0000000   6.0000000   6.0000000   6.0000000   6.0000000   6.0000000   6.0000000   1.0000000

  Atom        11          12          13          14          15
 IAtWgt=           1           1           1           1           1
 AtmWgt=   1.0078250   1.0078250   1.0078250   1.0078250   1.0078250
 NucSpn=           1           1           1           1           1
 AtZEff=   1.0000000   1.0000000   1.0000000   1.0000000   1.0000000
 NQMom=    0.0000000   0.0000000   0.0000000   0.0000000   0.0000000
 NMagM=    2.7928460   2.7928460   2.7928460   2.7928460   2.7928460
 AtZNuc=   1.0000000   1.0000000   1.0000000   1.0000000   1.0000000
 Leave Link  101 at Fri Jun  2 11:28:21 2023, MaxMem=  7381975040 cpu:               0.6 elap:               1.9
 (Enter /software/commercial/gaussian/g16/AVX/g16/l103.exe)

 GradGradGradGradGradGradGradGradGradGradGradGradGradGradGradGradGradGrad
 Berny optimization.
 Initialization pass.
 Trust Radius=3.00D-01 FncErr=1.00D-07 GrdErr=1.00D-07 EigMax=2.50D+02 EigMin=1.00D-04
 Number of steps in this run=      2 maximum allowed number of steps=      2.
 GradGradGradGradGradGradGradGradGradGradGradGradGradGradGradGradGradGrad

 Leave Link  103 at Fri Jun  2 11:28:24 2023, MaxMem=  7381975040 cpu:               0.0 elap:               1.2
 (Enter /software/commercial/gaussian/g16/AVX/g16/l202.exe)
                          Input orientation:                          
 ---------------------------------------------------------------------
 Center     Atomic      Atomic             Coordinates (Angstroms)
 Number     Number       Type             X           Y           Z
 ---------------------------------------------------------------------
      1          7           0       -1.530003   -1.069876    0.168972
      2          7           0       -2.370415   -0.003578    0.230671
      3          6           0       -0.220919   -0.693155    0.074782
      4          6           0       -0.226662    0.724680    0.076488
      5          6           0        0.966412   -1.434717   -0.011978
      6          6           0        0.989479    1.426059   -0.010965
      7          6           0       -1.607226    1.074167    0.176541
      8          6           0        2.147066   -0.717615   -0.096961
      9          6           0        2.162205    0.697830   -0.096717
     10          1           0        0.959288   -2.517558   -0.012440
     11          1           0        1.004430    2.509504   -0.011029
     12          1           0       -2.053549    2.056706    0.209629
     13          1           0        3.086896   -1.252805   -0.165660
     14          1           0        3.112739    1.213090   -0.165166
     15          1           0       -1.910099   -2.002608    0.196188
 ---------------------------------------------------------------------
                    Distance matrix (angstroms):
                    1          2          3          4          5
     1  N    0.000000
     2  N    1.359077   0.000000
     3  C    1.365464   2.262775   0.000000
     4  C    2.219838   2.269319   1.417847   0.000000
     5  C    2.529415   3.638881   1.402568   2.468653   0.000000
     6  C    3.551036   3.659391   2.442024   1.406620   2.860869
     7  C    2.145446   1.321712   2.248472   1.427623   3.599118
     8  C    3.703464   4.585284   2.374331   2.782963   1.383980
     9  C    4.102167   4.598239   2.764694   2.395289   2.446398
    10  H    2.885353   4.179248   2.174613   3.453475   1.082864
    11  H    4.389501   4.214687   3.430141   2.169988   3.944405
    12  H    3.170373   2.084614   3.307333   2.264847   4.621613
    13  H    4.632623   5.612477   3.363430   3.866362   2.133814
    14  H    5.184461   5.630449   3.847678   3.383570   3.411901
    15  H    1.007572   2.051633   2.140732   3.207239   2.939413
                    6          7          8          9         10
     6  C    0.000000
     7  C    2.627140   0.000000
     8  C    2.437773   4.168932   0.000000
     9  C    1.383096   3.798013   1.415526   0.000000
    10  H    3.943732   4.418505   2.158183   3.434069   0.000000
    11  H    1.083549   2.985988   3.424514   2.151731   5.027265
    12  H    3.115509   1.079668   5.043413   4.439929   5.481823
    13  H    3.405789   5.250398   1.083711   2.159812   2.479878
    14  H    2.139478   4.734357   2.159815   1.083371   4.310268
    15  H    4.495133   3.091708   4.265880   4.895081   2.922683
                   11         12         13         14         15
    11  H    0.000000
    12  H    3.099186   0.000000
    13  H    4.302969   6.125184   0.000000
    14  H    2.479801   5.248113   2.466031   0.000000
    15  H    5.375553   4.061870   5.065876   5.974964   0.000000
 Symmetry turned off by external request.
 Stoichiometry    C7H6N2
 Framework group  C1[X(C7H6N2)]
 Deg. of freedom    39
 Full point group                 C1      NOp   1
 Rotational constants (GHZ):           3.9755696           1.6360405           1.1590600
 Leave Link  202 at Fri Jun  2 11:28:26 2023, MaxMem=  7381975040 cpu:               0.1 elap:               0.8
 (Enter /software/commercial/gaussian/g16/AVX/g16/l301.exe)
 Standard basis: 6-311+G(d,p) (5D, 7F)
 Ernie: Thresh=  0.10000D-02 Tol=  0.10000D-05 Strict=F.
   234 basis functions,   372 primitive gaussians,   243 cartesian basis functions
    31 alpha electrons       31 beta electrons
       nuclear repulsion energy       402.9781442766 Hartrees.
 IExCor=  402 DFT=T Ex+Corr=B3LYP ExCW=0 ScaHFX=  0.200000
 ScaDFX=  0.800000  0.720000  1.000000  0.810000 ScalE2=  1.000000  1.000000
 IRadAn=      5 IRanWt=     -1 IRanGd=            0 ICorTp=0 IEmpDi=141
 NAtoms=   15 NActive=   15 NUniq=   15 SFac= 1.00D+00 NAtFMM=   60 NAOKFM=F Big=F
 Integral buffers will be    131072 words long.
 Raffenetti 2 integral format.
 Two-electron integral symmetry is turned off.
 R6Disp:  Grimme-D3(BJ) Dispersion energy=       -0.0281547709 Hartrees.
 Nuclear repulsion after empirical dispersion term =      402.9499895057 Hartrees.
 Force inversion solution in PCM.
 ------------------------------------------------------------------------------
 Polarizable Continuum Model (PCM)
 =================================
 Model                : PCM.
 Atomic radii         : UFF (Universal Force Field).
 Polarization charges : Total charges.
 Charge compensation  : None.
 Solution method      : Matrix inversion.
 Cavity type          : Scaled VdW (van der Waals Surface) (Alpha=1.100).
 Cavity algorithm     : GePol (No added spheres)
                        Default sphere list used, NSphG=   15.
                        Lebedev-Laikov grids with approx.  5.0 points / Ang**2.
                        Smoothing algorithm: York/Karplus (Gamma=1.0000).
                        Polarization charges: spherical gaussians, with
                                              point-specific exponents (IZeta= 3).
                        Self-potential: point-specific (ISelfS= 7).
                        Self-field    : sphere-specific E.n sum rule (ISelfD= 2).
 1st derivatives      : Analytical E(r).r(x)/FMM algorithm (CHGder, D1EAlg=3).
                        Cavity 1st derivative terms included.
 2nd derivatives      : Analytical E(r).r(xy)/FMM algorithm (CHGder, D2EAlg=3).
                        Cavity 2nd derivative terms included.
 Solvent              : Ethanol, Eps=  24.852000 Eps(inf)=   1.852593
 ------------------------------------------------------------------------------
 Spheres list:
 ISph  on   Nord     Re0    Alpha      Xe            Ye            Ze
    1   N      1    1.8300  1.100     -1.530003     -1.069876      0.168972
    2   N      2    1.8300  1.100     -2.370415     -0.003578      0.230671
    3   C      3    1.9255  1.100     -0.220919     -0.693155      0.074782
    4   C      4    1.9255  1.100     -0.226662      0.724680      0.076488
    5   C      5    1.9255  1.100      0.966412     -1.434717     -0.011978
    6   C      6    1.9255  1.100      0.989479      1.426059     -0.010965
    7   C      7    1.9255  1.100     -1.607226      1.074167      0.176541
    8   C      8    1.9255  1.100      2.147066     -0.717615     -0.096961
    9   C      9    1.9255  1.100      2.162205      0.697830     -0.096717
   10   H     10    1.4430  1.100      0.959288     -2.517558     -0.012440
   11   H     11    1.4430  1.100      1.004430      2.509504     -0.011029
   12   H     12    1.4430  1.100     -2.053549      2.056706      0.209629
   13   H     13    1.4430  1.100      3.086896     -1.252805     -0.165660
   14   H     14    1.4430  1.100      3.112739      1.213090     -0.165166
   15   H     15    1.4430  1.100     -1.910099     -2.002608      0.196188
 ------------------------------------------------------------------------------
 GePol: Number of generator spheres                  =      15
 GePol: Total number of spheres                      =      15
 GePol: Number of exposed spheres                    =      15 (100.00%)
 GePol: Number of points                             =    1332
 GePol: Average weight of points                     =       0.13
 GePol: Minimum weight of points                     =   0.35D-08
 GePol: Maximum weight of points                     =    0.20577
 GePol: Number of points with low weight             =      72
 GePol: Fraction of low-weight points (<1% of avg)   =       5.41%
 GePol: Cavity surface area                          =    173.439 Ang**2
 GePol: Cavity volume                                =    170.821 Ang**3
 Leave Link  301 at Fri Jun  2 11:28:28 2023, MaxMem=  7381975040 cpu:               0.3 elap:               1.2
 (Enter /software/commercial/gaussian/g16/AVX/g16/l302.exe)
 NPDir=0 NMtPBC=     1 NCelOv=     1 NCel=       1 NClECP=     1 NCelD=      1
         NCelK=      1 NCelE2=     1 NClLst=     1 CellRange=     0.0.
 One-electron integrals computed using PRISM.
 NBasis=   234 RedAO= T EigKep=  2.05D-06  NBF=   234
 NBsUse=   234 1.00D-06 EigRej= -1.00D+00 NBFU=   234
 Precomputing XC quadrature grid using
 IXCGrd= 4 IRadAn=           5 IRanWt=          -1 IRanGd=           0 AccXCQ= 0.00D+00.
 Generated NRdTot=       0 NPtTot=           0 NUsed=           0 NTot=          32
 NSgBfM=   243   243   243   243   243 MxSgAt=    15 MxSgA2=    15.
 Leave Link  302 at Fri Jun  2 11:28:31 2023, MaxMem=  7381975040 cpu:               0.9 elap:               1.5
 (Enter /software/commercial/gaussian/g16/AVX/g16/l303.exe)
 DipDrv:  MaxL=1.
 Leave Link  303 at Fri Jun  2 11:28:33 2023, MaxMem=  7381975040 cpu:               0.1 elap:               0.7
 (Enter /software/commercial/gaussian/g16/AVX/g16/l401.exe)
 Initial guess from the checkpoint file:  "/scratch1/svicchi/G09-659834.pbs02/02-freq/indazolide-H_dissociation-site_index-0-freq.chk"
 B after Tr=     0.000000    0.000000    0.000000
         Rot=    1.000000    0.000000    0.000000    0.000000 Ang=   0.00 deg.
 Guess basis will be translated and rotated to current coordinates.
 JPrj=2 DoOrth=T DoCkMO=T.
 Leave Link  401 at Fri Jun  2 11:28:36 2023, MaxMem=  7381975040 cpu:               1.4 elap:               2.1
 (Enter /software/commercial/gaussian/g16/AVX/g16/l502.exe)
 Keep R1 ints in memory in canonical form, NReq=385265625.
 FoFCou: FMM=F IPFlag=           0 FMFlag=           0 FMFlg1=           0
         NFxFlg=           0 DoJE=F BraDBF=F KetDBF=F FulRan=T
         wScrn=  0.000000 ICntrl=       600 IOpCl=  0 I1Cent=           0 NGrid=           0
         NMat0=    1 NMatS0=  27495 NMatT0=    0 NMatD0=    1 NMtDS0=    0 NMtDT0=    0
 Symmetry not used in FoFCou.
 Two-electron integral symmetry not used.
 Closed shell SCF:
 Using DIIS extrapolation, IDIIS=  1040.
 NGot=  7381975040 LenX=  7003852063 LenY=  7003792573
 Requested convergence on RMS density matrix=1.00D-08 within 350 cycles.
 Requested convergence on MAX density matrix=1.00D-06.
 Requested convergence on             energy=1.00D-06.
 No special actions if energy rises.

 Cycle   1  Pass 1  IDiag  1:
 Inv3:  Mode=1 IEnd=     5322672.
 Iteration    1 A*A^-1 deviation from unit magnitude is 3.11D-15 for   1318.
 Iteration    1 A*A^-1 deviation from orthogonality  is 1.58D-15 for    768    325.
 Iteration    1 A^-1*A deviation from unit magnitude is 3.11D-15 for   1318.
 Iteration    1 A^-1*A deviation from orthogonality  is 1.39D-15 for   1249    188.
 E= -379.980145665022    
 DIIS: error= 3.58D-08 at cycle   1 NSaved=   1.
 NSaved= 1 IEnMin= 1 EnMin= -379.980145665022     IErMin= 1 ErrMin= 3.58D-08
 ErrMax= 3.58D-08  0.00D+00 EMaxC= 1.00D-01 BMatC= 8.09D-14 BMatP= 8.09D-14
 IDIUse=1 WtCom= 1.00D+00 WtEn= 0.00D+00
 Coeff-Com:  0.100D+01
 Coeff:      0.100D+01
 Gap=     0.189 Goal=   None    Shift=    0.000
 RMSDP=6.13D-09 MaxDP=2.38D-07              OVMax= 3.08D-07

 Error on total polarization charges =  0.01483
 SCF Done:  E(RB3LYP) =  -379.980145665     A.U. after    1 cycles
            NFock=  1  Conv=0.61D-08     -V/T= 2.0044
 KE= 3.783328065399D+02 PE=-1.689286510706D+03 EE= 5.280235689955D+02
 Leave Link  502 at Fri Jun  2 11:28:57 2023, MaxMem=  7381975040 cpu:              35.3 elap:              19.7
 (Enter /software/commercial/gaussian/g16/AVX/g16/l508.exe)
 QCSCF skips out because SCF is already converged.
 Leave Link  508 at Fri Jun  2 11:28:58 2023, MaxMem=  7381975040 cpu:               0.0 elap:               0.7
 (Enter /software/commercial/gaussian/g16/AVX/g16/l801.exe)
 DoSCS=F DFT=T ScalE2(SS,OS)=  1.000000  1.000000
 Range of M.O.s used for correlation:     1   234
 NBasis=   234 NAE=    31 NBE=    31 NFC=     0 NFV=     0
 NROrb=    234 NOA=    31 NOB=    31 NVA=   203 NVB=   203

 **** Warning!!: The largest alpha MO coefficient is  0.15934985D+03

 Leave Link  801 at Fri Jun  2 11:29:00 2023, MaxMem=  7381975040 cpu:               0.1 elap:               0.8
 (Enter /software/commercial/gaussian/g16/AVX/g16/l1002.exe)
 Minotr:  Closed shell wavefunction.
 NEqPCM:  Using equilibrium solvation (IEInf=0, Eps=  24.8520, EpsInf=   1.8526)
          Direct CPHF calculation.
          Differentiating once with respect to electric field.
                with respect to dipole field.
          Electric field/nuclear overlap derivatives assumed to be zero.
          Requested convergence is 1.0D-08 RMS, and 1.0D-07 maximum.
          Secondary convergence is 1.0D-12 RMS, and 1.0D-12 maximum.
          NewPWx=F KeepS1=T KeepF1=T KeepIn=T MapXYZ=F SortEE=F KeepMc=T.
         4604 words used for storage of precomputed grid.
 Keep R1 ints in memory in canonical form, NReq=385272050.
 FoFCou: FMM=F IPFlag=           0 FMFlag=           0 FMFlg1=           0
         NFxFlg=           0 DoJE=F BraDBF=F KetDBF=F FulRan=T
         wScrn=  0.000000 ICntrl=       600 IOpCl=  0 I1Cent=           0 NGrid=           0
         NMat0=    1 NMatS0=  27495 NMatT0=    0 NMatD0=    1 NMtDS0=    0 NMtDT0=    0
 Symmetry not used in FoFCou.
 Two-electron integral symmetry not used.
          MDV=    7381975040 using IRadAn=       1.
          Solving linear equations simultaneously, MaxMat=       0.
          There are     3 degrees of freedom in the 1st order CPHF.  IDoFFX=0 NUNeed=     3.
      3 vectors produced by pass  0 Test12= 2.10D-13 3.33D-08 XBig12= 1.80D+02 9.47D+00.
 AX will form     3 AO Fock derivatives at one time.
      3 vectors produced by pass  1 Test12= 2.10D-13 3.33D-08 XBig12= 6.44D+01 1.72D+00.
      3 vectors produced by pass  2 Test12= 2.10D-13 3.33D-08 XBig12= 7.49D+00 7.05D-01.
      3 vectors produced by pass  3 Test12= 2.10D-13 3.33D-08 XBig12= 3.74D+00 6.12D-01.
      3 vectors produced by pass  4 Test12= 2.10D-13 3.33D-08 XBig12= 4.31D-01 1.61D-01.
      3 vectors produced by pass  5 Test12= 2.10D-13 3.33D-08 XBig12= 1.66D-01 8.49D-02.
      3 vectors produced by pass  6 Test12= 2.10D-13 3.33D-08 XBig12= 1.98D-02 4.05D-02.
      3 vectors produced by pass  7 Test12= 2.10D-13 3.33D-08 XBig12= 2.84D-03 1.69D-02.
      3 vectors produced by pass  8 Test12= 2.10D-13 3.33D-08 XBig12= 7.10D-04 5.99D-03.
      3 vectors produced by pass  9 Test12= 2.10D-13 3.33D-08 XBig12= 3.13D-05 1.83D-03.
      3 vectors produced by pass 10 Test12= 2.10D-13 3.33D-08 XBig12= 7.49D-07 1.57D-04.
      3 vectors produced by pass 11 Test12= 2.10D-13 3.33D-08 XBig12= 1.78D-08 1.82D-05.
      2 vectors produced by pass 12 Test12= 2.10D-13 3.33D-08 XBig12= 4.17D-10 4.12D-06.
      2 vectors produced by pass 13 Test12= 2.10D-13 3.33D-08 XBig12= 9.09D-12 5.14D-07.
      1 vectors produced by pass 14 Test12= 2.10D-13 3.33D-08 XBig12= 2.27D-13 7.45D-08.
 InvSVY:  IOpt=1 It=  1 EMax= 4.11D-15
 Solved reduced A of dimension    41 with     3 vectors.
 End of Minotr F.D. properties file   721 does not exist.
 End of Minotr F.D. properties file   722 does not exist.
 End of Minotr F.D. properties file   788 does not exist.
 Leave Link 1002 at Fri Jun  2 11:30:56 2023, MaxMem=  7381975040 cpu:             216.2 elap:             114.4
 (Enter /software/commercial/gaussian/g16/AVX/g16/l1101.exe)
 Using compressed storage, NAtomX=    15.
 Will process     16 centers per pass.
 R6Disp: Adding Grimme-D3(BJ) dispersion energy 1st derivatives to the gradient.
 Leave Link 1101 at Fri Jun  2 11:30:59 2023, MaxMem=  7381975040 cpu:               1.2 elap:               2.0
 (Enter /software/commercial/gaussian/g16/AVX/g16/l1102.exe)
 Symmetrizing basis deriv contribution to polar:
 IMax=3 JMax=2 DiffMx= 0.00D+00
 Leave Link 1102 at Fri Jun  2 11:31:02 2023, MaxMem=  7381975040 cpu:               0.2 elap:               1.0
 (Enter /software/commercial/gaussian/g16/AVX/g16/l1110.exe)
 Forming Gx(P) for the SCF density, NAtomX=    15.
 Integral derivatives from FoFJK, PRISM(SPDF).
 Do as many integral derivatives as possible in FoFJK.
 G2DrvN: MDV=    7381973389.
 G2DrvN: will do    16 centers at a time, making    1 passes.
 PxScal for G2LodP:  IOpCl= 0 ISclPx=1 IMOff=     1 NMtTot=     4 NTT=   27495 ScalPx= 4.01D+01
 Calling FoFCou, ICntrl=  3107 FMM=F I1Cent=   0 AccDes= 0.00D+00.
 FoFJK:  IHMeth= 1 ICntrl=    3107 DoSepK=F KAlg= 0 I1Cent=           0 FoldK=F
 IRaf=         0 NMat=       1 IRICut=       1 DoRegI=T DoRafI=F ISym2E= 0 IDoP0=0 IntGTp=1.
 FoFCou: FMM=F IPFlag=           0 FMFlag=      100000 FMFlg1=           0
         NFxFlg=           0 DoJE=F BraDBF=F KetDBF=F FulRan=T
         wScrn=  0.000000 ICntrl=      3107 IOpCl=  0 I1Cent=           0 NGrid=           0
         NMat0=    1 NMatS0=      1 NMatT0=    0 NMatD0=    4 NMtDS0=    3 NMtDT0=    0
 Symmetry not used in FoFCou.
 PxScal for G2LodP:  IOpCl= 0 ISclPx=0 IMOff=     1 NMtTot=     4 NTT=   27495 ScalPx= 1.00D+00
 NEqPCM:  Using equilibrium solvation (IEInf=0, Eps=  24.8520, EpsInf=   1.8526)
 G2PCM: DoFxE=T DoFxN=T DoGrad=T DoDP/DQ/DG/TGxP=TFFF NFrqRd=   0 IEInf=0 SqF1=F DoCFld=F IF1Alg=4.
 GePol: Maximum number of non-zero 1st derivatives   =     206
 End of G2Drv F.D. properties file   721 does not exist.
 End of G2Drv F.D. properties file   722 does not exist.
 End of G2Drv F.D. properties file   788 does not exist.
 Leave Link 1110 at Fri Jun  2 11:35:37 2023, MaxMem=  7381975040 cpu:             540.5 elap:             273.8
 (Enter /software/commercial/gaussian/g16/AVX/g16/l1002.exe)
 Minotr:  Closed shell wavefunction.
          IDoAtm=111111111111111
 NEqPCM:  Using equilibrium solvation (IEInf=0, Eps=  24.8520, EpsInf=   1.8526)
          Direct CPHF calculation.
          Differentiating once with respect to electric field.
                with respect to dipole field.
          Differentiating once with respect to nuclear coordinates.
          Requested convergence is 1.0D-08 RMS, and 1.0D-07 maximum.
          Secondary convergence is 1.0D-12 RMS, and 1.0D-12 maximum.
          NewPWx=T KeepS1=F KeepF1=F KeepIn=T MapXYZ=F SortEE=F KeepMc=T.
         4604 words used for storage of precomputed grid.
 Keep R1 ints in memory in canonical form, NReq=385272395.
 FoFCou: FMM=F IPFlag=           0 FMFlag=           0 FMFlg1=           0
         NFxFlg=           0 DoJE=F BraDBF=F KetDBF=F FulRan=T
         wScrn=  0.000000 ICntrl=       600 IOpCl=  0 I1Cent=           0 NGrid=           0
         NMat0=    1 NMatS0=  27495 NMatT0=    0 NMatD0=    1 NMtDS0=    0 NMtDT0=    0
 Symmetry not used in FoFCou.
 Two-electron integral symmetry not used.
          MDV=    7381975040 using IRadAn=       1.
          Solving linear equations simultaneously, MaxMat=       0.
          There are    48 degrees of freedom in the 1st order CPHF.  IDoFFX=5 NUNeed=    48.
 Will reuse    3 saved solutions.
     42 vectors produced by pass  0 Test12= 1.31D-14 2.08D-09 XBig12= 2.44D-01 1.24D-01.
 AX will form    42 AO Fock derivatives at one time.
     42 vectors produced by pass  1 Test12= 1.31D-14 2.08D-09 XBig12= 2.53D-02 4.82D-02.
     42 vectors produced by pass  2 Test12= 1.31D-14 2.08D-09 XBig12= 3.49D-04 3.98D-03.
     42 vectors produced by pass  3 Test12= 1.31D-14 2.08D-09 XBig12= 1.08D-06 1.78D-04.
     42 vectors produced by pass  4 Test12= 1.31D-14 2.08D-09 XBig12= 3.94D-09 7.58D-06.
     41 vectors produced by pass  5 Test12= 1.31D-14 2.08D-09 XBig12= 8.84D-12 2.95D-07.
     17 vectors produced by pass  6 Test12= 1.31D-14 2.08D-09 XBig12= 1.00D-14 1.40D-08.
 InvSVY:  IOpt=1 It=  1 EMax= 1.33D-15
 Solved reduced A of dimension   268 with    42 vectors.
 FullF1:  Do perturbations      1 to       3.
 Isotropic polarizability for W=    0.000000      126.79 Bohr**3.
 FullF1:  Do perturbations      1 to       6.
 End of Minotr F.D. properties file   721 does not exist.
 End of Minotr F.D. properties file   722 does not exist.
 End of Minotr F.D. properties file   788 does not exist.
 Leave Link 1002 at Fri Jun  2 11:40:34 2023, MaxMem=  7381975040 cpu:             576.2 elap:             296.5
 (Enter /software/commercial/gaussian/g16/AVX/g16/l601.exe)
 Copying SCF densities to generalized density rwf, IOpCl= 0 IROHF=0.

 **********************************************************************

            Population analysis using the SCF Density.

 **********************************************************************

 Alpha  occ. eigenvalues --  -14.38879 -14.35286 -10.22357 -10.20476 -10.18898
 Alpha  occ. eigenvalues --  -10.18846 -10.18713 -10.18635 -10.18004  -1.05661
 Alpha  occ. eigenvalues --   -0.86771  -0.83757  -0.77071  -0.75449  -0.64554
 Alpha  occ. eigenvalues --   -0.62299  -0.61372  -0.55410  -0.51019  -0.47156
 Alpha  occ. eigenvalues --   -0.46322  -0.45832  -0.44887  -0.42864  -0.38035
 Alpha  occ. eigenvalues --   -0.36290  -0.35689  -0.31303  -0.30689  -0.25694
 Alpha  occ. eigenvalues --   -0.23576
 Alpha virt. eigenvalues --   -0.04669  -0.00244   0.00528   0.01877   0.02192
 Alpha virt. eigenvalues --    0.02327   0.04041   0.04451   0.05039   0.05578
 Alpha virt. eigenvalues --    0.06998   0.07416   0.07630   0.08503   0.09671
 Alpha virt. eigenvalues --    0.11802   0.11925   0.12628   0.13090   0.13215
 Alpha virt. eigenvalues --    0.14642   0.15462   0.15860   0.16586   0.17120
 Alpha virt. eigenvalues --    0.17312   0.18186   0.18332   0.18471   0.19118
 Alpha virt. eigenvalues --    0.20141   0.20667   0.20862   0.21365   0.21659
 Alpha virt. eigenvalues --    0.22741   0.22919   0.23527   0.24721   0.25513
 Alpha virt. eigenvalues --    0.25940   0.26424   0.27192   0.27515   0.28715
 Alpha virt. eigenvalues --    0.29414   0.31106   0.33204   0.33680   0.34514
 Alpha virt. eigenvalues --    0.37763   0.40493   0.42013   0.44629   0.47865
 Alpha virt. eigenvalues --    0.50536   0.52015   0.52660   0.53080   0.54543
 Alpha virt. eigenvalues --    0.55740   0.55992   0.56773   0.59586   0.61314
 Alpha virt. eigenvalues --    0.62193   0.63152   0.63347   0.65807   0.68464
 Alpha virt. eigenvalues --    0.68735   0.69395   0.70170   0.72022   0.74471
 Alpha virt. eigenvalues --    0.76581   0.77958   0.80396   0.81793   0.82193
 Alpha virt. eigenvalues --    0.83646   0.83927   0.85513   0.85701   0.86411
 Alpha virt. eigenvalues --    0.88656   0.89957   0.92045   0.95330   0.95408
 Alpha virt. eigenvalues --    0.97816   0.99580   0.99906   1.01197   1.05084
 Alpha virt. eigenvalues --    1.05523   1.06159   1.07857   1.12842   1.15260
 Alpha virt. eigenvalues --    1.15792   1.22158   1.23750   1.31270   1.34804
 Alpha virt. eigenvalues --    1.37716   1.44463   1.46588   1.49063   1.52191
 Alpha virt. eigenvalues --    1.52303   1.55780   1.56363   1.58160   1.61296
 Alpha virt. eigenvalues --    1.65139   1.69517   1.70738   1.70957   1.73916
 Alpha virt. eigenvalues --    1.74082   1.78161   1.80131   1.82762   1.84889
 Alpha virt. eigenvalues --    1.86332   1.88222   1.88881   1.92029   1.93952
 Alpha virt. eigenvalues --    1.95567   1.96561   1.98104   2.02412   2.03047
 Alpha virt. eigenvalues --    2.08338   2.11112   2.17690   2.19306   2.22507
 Alpha virt. eigenvalues --    2.23412   2.26812   2.36466   2.39354   2.40311
 Alpha virt. eigenvalues --    2.41720   2.45929   2.51223   2.54483   2.54762
 Alpha virt. eigenvalues --    2.63139   2.63198   2.66076   2.68955   2.69915
 Alpha virt. eigenvalues --    2.72260   2.73009   2.75045   2.75689   2.76982
 Alpha virt. eigenvalues --    2.77076   2.81270   2.81357   2.84090   2.86868
 Alpha virt. eigenvalues --    2.89029   2.93929   2.95648   2.96834   3.06359
 Alpha virt. eigenvalues --    3.06853   3.08166   3.17160   3.24299   3.33715
 Alpha virt. eigenvalues --    3.37039   3.41665   3.43021   3.51237   3.58762
 Alpha virt. eigenvalues --    3.63906   3.67485   3.78395   3.85453   3.95126
 Alpha virt. eigenvalues --    4.02179   4.04580   4.13540   4.17711   4.27548
 Alpha virt. eigenvalues --    4.60826   4.81080   4.95766   5.43765  23.59857
 Alpha virt. eigenvalues --   23.91257  23.91512  23.99289  24.06328  24.10422
 Alpha virt. eigenvalues --   24.18278  35.53971  35.60237
     Molecular Orbital Coefficients:
                           1         2         3         4         5
                           O         O         O         O         O
     Eigenvalues --   -14.38879 -14.35286 -10.22357 -10.20476 -10.18898
   1 1   N  1S          0.55738  -0.00166  -0.00005   0.00000   0.00000
   2        2S          0.46559  -0.00138  -0.00009   0.00002   0.00003
   3        2PX        -0.00022  -0.00017   0.00042   0.00003   0.00008
   4        2PY         0.00024   0.00021   0.00021  -0.00004  -0.00000
   5        2PZ         0.00002   0.00001  -0.00003  -0.00000  -0.00001
   6        3S          0.01713  -0.00011   0.00125  -0.00019  -0.00030
   7        3PX         0.00054   0.00023  -0.00100  -0.00020  -0.00037
   8        3PY        -0.00033  -0.00035  -0.00059   0.00014  -0.00004
   9        3PZ        -0.00004  -0.00002   0.00007   0.00001   0.00003
  10        4S         -0.02138   0.00317  -0.00748   0.00017   0.00453
  11        4PX        -0.00584  -0.00129  -0.00279   0.00152   0.00158
  12        4PY        -0.00753   0.00153  -0.00138   0.00082   0.00061
  13        4PZ         0.00042   0.00009   0.00020  -0.00011  -0.00011
  14        5S          0.00690  -0.02829   0.01974  -0.02248   0.01287
  15        5PX        -0.00180   0.00363   0.00144   0.00389  -0.00018
  16        5PY         0.00769  -0.00387   0.00844  -0.00274   0.00227
  17        5PZ         0.00013  -0.00027  -0.00010  -0.00029   0.00002
  18        6D 0       -0.00065   0.00004   0.00061  -0.00002  -0.00001
  19        6D+1       -0.00006   0.00000   0.00012   0.00001   0.00001
  20        6D-1       -0.00004  -0.00003   0.00004   0.00000  -0.00000
  21        6D+2       -0.00031   0.00007  -0.00059  -0.00012  -0.00022
  22        6D-2        0.00062   0.00044  -0.00060  -0.00000   0.00006
  23 2   N  1S          0.00165   0.55738   0.00000  -0.00008   0.00000
  24        2S          0.00139   0.46583   0.00002  -0.00004   0.00001
  25        2PX         0.00011   0.00170  -0.00004   0.00037   0.00003
  26        2PY        -0.00021  -0.00040   0.00004   0.00040   0.00001
  27        2PZ        -0.00001  -0.00012   0.00000  -0.00003  -0.00000
  28        3S          0.00003   0.01590  -0.00025   0.00074  -0.00002
  29        3PX         0.00002   0.00067   0.00009  -0.00108  -0.00012
  30        3PY         0.00022   0.00107  -0.00024  -0.00112  -0.00007
  31        3PZ        -0.00000  -0.00005  -0.00001   0.00008   0.00001
  32        4S          0.00403  -0.01754   0.00154  -0.00279  -0.00116
  33        4PX         0.00198  -0.00379   0.00055   0.00006  -0.00033
  34        4PY        -0.00024  -0.00062   0.00108  -0.00126  -0.00005
  35        4PZ        -0.00014   0.00027  -0.00004  -0.00001   0.00002
  36        5S         -0.01157   0.03048  -0.01478   0.03018  -0.00724
  37        5PX        -0.00348   0.00821  -0.00467   0.00849  -0.00104
  38        5PY         0.00276  -0.00512   0.00103  -0.00386   0.00028
  39        5PZ         0.00025  -0.00060   0.00034  -0.00062   0.00007
  40        6D 0        0.00014  -0.00028  -0.00006   0.00076   0.00001
  41        6D+1        0.00001  -0.00002  -0.00002   0.00008   0.00000
  42        6D-1       -0.00003  -0.00003   0.00000   0.00006   0.00000
  43        6D+2        0.00013  -0.00025   0.00011   0.00019  -0.00000
  44        6D-2        0.00035   0.00038  -0.00003  -0.00086  -0.00000
  45 3   C  1S          0.00001  -0.00001   0.56286   0.00001  -0.00411
  46        2S          0.00001   0.00004   0.46319   0.00005  -0.00322
  47        2PX        -0.00047  -0.00005  -0.00072  -0.00000   0.00067
  48        2PY        -0.00021  -0.00000  -0.00037   0.00007  -0.00043
  49        2PZ         0.00003   0.00000   0.00005   0.00000  -0.00005
  50        3S          0.00082  -0.00040   0.01923  -0.00034  -0.00051
  51        3PX         0.00124   0.00054   0.00102   0.00020  -0.00253
  52        3PY         0.00066  -0.00015   0.00068  -0.00055   0.00167
  53        3PZ        -0.00009  -0.00004  -0.00007  -0.00002   0.00018
  54        4S          0.00299   0.00394  -0.01790  -0.00345   0.00988
  55        4PX        -0.02171  -0.00247  -0.01053  -0.00097   0.01239
  56        4PY         0.00305   0.00340  -0.00246   0.00124   0.00191
  57        4PZ         0.00157   0.00018   0.00076   0.00007  -0.00090
  58        5S         -0.03143   0.10316  -0.07512  -0.01342   0.02868
  59        5PX        -0.00261   0.00500   0.00654  -0.00693   0.01739
  60        5PY        -0.01873   0.00735  -0.04419  -0.01168  -0.01076
  61        5PZ         0.00017  -0.00036  -0.00051   0.00049  -0.00127
  62        6D 0        0.00022  -0.00012  -0.00172  -0.00006   0.00066
  63        6D+1        0.00009  -0.00001  -0.00025  -0.00003   0.00014
  64        6D-1        0.00003   0.00002   0.00007   0.00002  -0.00008
  65        6D+2       -0.00083  -0.00005   0.00038   0.00035  -0.00082
  66        6D-2       -0.00048  -0.00025  -0.00093  -0.00025   0.00116
  67 4   C  1S         -0.00001  -0.00001   0.00357   0.00681  -0.00265
  68        2S          0.00005   0.00006   0.00307   0.00573  -0.00213
  69        2PX         0.00003  -0.00009  -0.00004  -0.00070   0.00002
  70        2PY        -0.00006   0.00007  -0.00079   0.00015  -0.00010
  71        2PZ        -0.00000   0.00001   0.00000   0.00005  -0.00000
  72        3S         -0.00045  -0.00009   0.00004   0.00040  -0.00006
  73        3PX        -0.00002   0.00080   0.00016   0.00254  -0.00018
  74        3PY         0.00069  -0.00031   0.00296  -0.00055   0.00069
  75        3PZ         0.00000  -0.00006  -0.00001  -0.00018   0.00001
  76        4S         -0.00155  -0.00519   0.00364   0.00418  -0.00779
  77        4PX         0.01108   0.00667   0.00824  -0.00445  -0.00317
  78        4PY         0.00234   0.00545  -0.00462   0.00015   0.00275
  79        4PZ        -0.00080  -0.00048  -0.00060   0.00032   0.00023
  80        5S          0.01266   0.01295   0.07386   0.13615  -0.01767
  81        5PX         0.01079   0.01785   0.02753   0.00555   0.00854
  82        5PY        -0.01331   0.04389  -0.03874   0.01975   0.00025
  83        5PZ        -0.00079  -0.00125  -0.00203  -0.00039  -0.00062
  84        6D 0       -0.00015   0.00006   0.00059   0.00069   0.00010
  85        6D+1       -0.00004   0.00004  -0.00004   0.00018  -0.00002
  86        6D-1       -0.00001  -0.00002   0.00000  -0.00003  -0.00001
  87        6D+2        0.00037  -0.00037   0.00151  -0.00133   0.00042
  88        6D-2        0.00011   0.00030  -0.00009   0.00047   0.00008
  89 5   C  1S         -0.00001  -0.00000   0.00405  -0.00009   0.55929
  90        2S          0.00004   0.00002   0.00353  -0.00003   0.46019
  91        2PX        -0.00001  -0.00005  -0.00069  -0.00004  -0.00020
  92        2PY        -0.00007   0.00001   0.00038   0.00001   0.00003
  93        2PZ         0.00000   0.00000   0.00005   0.00000   0.00001
  94        3S         -0.00052  -0.00006  -0.00039  -0.00038   0.01995
  95        3PX         0.00003   0.00037   0.00308   0.00033   0.00020
  96        3PY         0.00028  -0.00013  -0.00160  -0.00017   0.00004
  97        3PZ        -0.00000  -0.00003  -0.00022  -0.00002  -0.00001
  98        4S          0.01662   0.00104   0.01012   0.00283  -0.02399
  99        4PX        -0.00252  -0.00213  -0.00215  -0.00162   0.00093
 100        4PY         0.00803  -0.00029   0.00664   0.00164  -0.01214
 101        4PZ         0.00019   0.00015   0.00016   0.00012  -0.00008
 102        5S          0.00153  -0.03788   0.01300   0.04132  -0.03601
 103        5PX         0.00609   0.00833   0.02557   0.01291   0.00973
 104        5PY         0.00369  -0.00604   0.00683   0.00925  -0.00409
 105        5PZ        -0.00044  -0.00061  -0.00185  -0.00093  -0.00071
 106        6D 0       -0.00015   0.00000   0.00055  -0.00004  -0.00173
 107        6D+1        0.00000   0.00001   0.00012  -0.00000  -0.00019
 108        6D-1       -0.00000  -0.00001  -0.00013  -0.00001   0.00000
 109        6D+2       -0.00029  -0.00011  -0.00065  -0.00005  -0.00040
 110        6D-2        0.00005   0.00015   0.00181   0.00016   0.00003
 111 6   C  1S         -0.00001  -0.00000  -0.00001   0.00004  -0.00648
 112        2S          0.00004   0.00001   0.00002   0.00003  -0.00527
 113        2PX        -0.00007  -0.00007  -0.00009  -0.00004   0.00003
 114        2PY        -0.00006  -0.00002  -0.00007  -0.00001  -0.00002
 115        2PZ         0.00001   0.00001   0.00001   0.00000  -0.00000
 116        3S         -0.00016   0.00006   0.00005   0.00011  -0.00068
 117        3PX         0.00046   0.00036   0.00062   0.00013  -0.00019
 118        3PY         0.00044   0.00017   0.00065   0.00012   0.00030
 119        3PZ        -0.00003  -0.00003  -0.00004  -0.00001   0.00001
 120        4S         -0.00832  -0.00567  -0.00808   0.00065   0.00626
 121        4PX         0.00200   0.00198  -0.00068   0.00073   0.00055
 122        4PY         0.00222   0.00125   0.00507   0.00050  -0.00354
 123        4PZ        -0.00014  -0.00014   0.00005  -0.00005  -0.00004
 124        5S          0.00298  -0.04387  -0.05580  -0.09770   0.00039
 125        5PX        -0.00235   0.02324  -0.01452   0.01452  -0.00025
 126        5PY         0.00027   0.00076   0.01285   0.01351  -0.00072
 127        5PZ         0.00017  -0.00169   0.00106  -0.00104   0.00002
 128        6D 0        0.00001   0.00005  -0.00000  -0.00002  -0.00001
 129        6D+1        0.00001   0.00002   0.00002   0.00003   0.00001
 130        6D-1        0.00001   0.00000   0.00003   0.00001  -0.00001
 131        6D+2       -0.00011  -0.00018  -0.00024  -0.00040  -0.00009
 132        6D-2       -0.00012  -0.00003  -0.00036  -0.00007   0.00010
 133 7   C  1S         -0.00001  -0.00000  -0.00007   0.56285   0.00012
 134        2S          0.00004   0.00008  -0.00002   0.46316   0.00014
 135        2PX        -0.00010  -0.00040   0.00001  -0.00018   0.00002
 136        2PY         0.00001  -0.00037   0.00003  -0.00020   0.00003
 137        2PZ         0.00001   0.00003  -0.00000   0.00001  -0.00000
 138        3S         -0.00046   0.00030  -0.00041   0.01965  -0.00043
 139        3PX         0.00041   0.00144  -0.00026  -0.00010  -0.00021
 140        3PY         0.00039   0.00112   0.00015  -0.00006  -0.00009
 141        3PZ        -0.00003  -0.00010   0.00002   0.00001   0.00002
 142        4S          0.00531   0.00857   0.00515  -0.01490   0.00115
 143        4PX         0.00263   0.00036   0.00289  -0.00477   0.00039
 144        4PY        -0.00053  -0.00701   0.00102   0.00438  -0.00216
 145        4PZ        -0.00019  -0.00003  -0.00021   0.00035  -0.00003
 146        5S          0.02459  -0.01753   0.05069  -0.05709   0.03000
 147        5PX         0.00645  -0.00734   0.01039  -0.01461   0.00492
 148        5PY        -0.00072  -0.00202  -0.00208   0.00182  -0.00481
 149        5PZ        -0.00047   0.00053  -0.00075   0.00106  -0.00036
 150        6D 0       -0.00014   0.00020  -0.00012  -0.00179  -0.00007
 151        6D+1       -0.00000  -0.00001   0.00002  -0.00019   0.00000
 152        6D-1        0.00002   0.00010   0.00001   0.00005  -0.00000
 153        6D+2       -0.00020   0.00049  -0.00046  -0.00049  -0.00013
 154        6D-2       -0.00028  -0.00135  -0.00011  -0.00064   0.00001
 155 8   C  1S         -0.00000  -0.00000  -0.00004  -0.00005   0.06298
 156        2S          0.00002   0.00001   0.00003  -0.00002   0.05202
 157        2PX        -0.00007  -0.00001  -0.00012  -0.00004  -0.00063
 158        2PY        -0.00002  -0.00001  -0.00011   0.00000  -0.00043
 159        2PZ         0.00000   0.00000   0.00001   0.00000   0.00005
 160        3S         -0.00015  -0.00001  -0.00026  -0.00013   0.00170
 161        3PX         0.00041   0.00010   0.00112   0.00027   0.00258
 162        3PY         0.00015   0.00006   0.00063  -0.00003   0.00176
 163        3PZ        -0.00003  -0.00001  -0.00008  -0.00002  -0.00019
 164        4S         -0.00639   0.00040  -0.00616  -0.00147   0.00921
 165        4PX         0.00189  -0.00038   0.00264   0.00040  -0.00669
 166        4PY        -0.00101  -0.00136  -0.00219  -0.00126   0.00241
 167        4PZ        -0.00014   0.00003  -0.00019  -0.00003   0.00049
 168        5S         -0.00626   0.00121  -0.03412  -0.05737   0.01619
 169        5PX         0.00114  -0.00221   0.01275   0.01021  -0.00126
 170        5PY         0.00159   0.00122   0.01349   0.00216   0.00775
 171        5PZ        -0.00008   0.00016  -0.00091  -0.00074   0.00010
 172        6D 0       -0.00004   0.00000  -0.00001  -0.00002   0.00046
 173        6D+1        0.00000   0.00000   0.00002  -0.00000   0.00012
 174        6D-1        0.00000   0.00000   0.00004   0.00001   0.00010
 175        6D+2       -0.00012  -0.00002  -0.00023   0.00000  -0.00091
 176        6D-2       -0.00004  -0.00005  -0.00061  -0.00009  -0.00137
 177 9   C  1S         -0.00001  -0.00000  -0.00009  -0.00005   0.00126
 178        2S          0.00004   0.00001  -0.00001  -0.00001   0.00108
 179        2PX        -0.00002  -0.00001   0.00001  -0.00002   0.00002
 180        2PY        -0.00002  -0.00001  -0.00003   0.00000  -0.00024
 181        2PZ         0.00000   0.00000  -0.00000   0.00000  -0.00000
 182        3S         -0.00033  -0.00007  -0.00058  -0.00028   0.00016
 183        3PX         0.00014   0.00004   0.00015   0.00009   0.00002
 184        3PY         0.00015   0.00005   0.00028  -0.00000   0.00139
 185        3PZ        -0.00001  -0.00000  -0.00001  -0.00001   0.00000
 186        4S          0.00329   0.00130   0.00721   0.00153  -0.00769
 187        4PX        -0.00185  -0.00038  -0.00347  -0.00144   0.00397
 188        4PY        -0.00185  -0.00078  -0.00162  -0.00148   0.00169
 189        4PZ         0.00013   0.00003   0.00025   0.00010  -0.00029
 190        5S         -0.00365  -0.02049   0.02428   0.04367  -0.02461
 191        5PX         0.00054   0.00380  -0.01075  -0.01042   0.00229
 192        5PY         0.00090  -0.00616   0.01156  -0.00535   0.00518
 193        5PZ        -0.00004  -0.00028   0.00079   0.00075  -0.00016
 194        6D 0       -0.00005  -0.00001  -0.00009  -0.00004   0.00010
 195        6D+1       -0.00001  -0.00000  -0.00002  -0.00000  -0.00004
 196        6D-1       -0.00000   0.00000  -0.00000   0.00000   0.00000
 197        6D+2        0.00002  -0.00001   0.00014  -0.00006   0.00073
 198        6D-2        0.00004  -0.00001   0.00005  -0.00006  -0.00003
 199 10  H  1S         -0.00015   0.00002  -0.00022  -0.00005   0.00038
 200        2S          0.00074  -0.00044   0.00006   0.00015  -0.00572
 201        3S          0.00239   0.00042   0.00238   0.00008   0.00021
 202        4PX         0.00002   0.00008   0.00019   0.00007  -0.00006
 203        4PY        -0.00003  -0.00008  -0.00042  -0.00004  -0.00244
 204        4PZ        -0.00000  -0.00001  -0.00001  -0.00000   0.00000
 205 11  H  1S         -0.00005  -0.00001   0.00001  -0.00004  -0.00007
 206        2S         -0.00001  -0.00009  -0.00110  -0.00046   0.00023
 207        3S         -0.00032  -0.00031  -0.00019   0.00015   0.00103
 208        4PX        -0.00002  -0.00000   0.00005  -0.00002  -0.00003
 209        4PY         0.00007   0.00008   0.00020   0.00018   0.00007
 210        4PZ         0.00000   0.00000  -0.00000   0.00000   0.00000
 211 12  H  1S         -0.00011  -0.00031  -0.00004   0.00019  -0.00007
 212        2S         -0.00015   0.00052  -0.00076  -0.00498   0.00045
 213        3S         -0.00004   0.00195   0.00023   0.00210   0.00054
 214        4PX        -0.00018   0.00016  -0.00022  -0.00088  -0.00002
 215        4PY         0.00010   0.00039   0.00015   0.00236   0.00000
 216        4PZ         0.00001  -0.00001   0.00002   0.00007   0.00000
 217 13  H  1S         -0.00004   0.00001  -0.00007  -0.00001  -0.00018
 218        2S          0.00009  -0.00017  -0.00069  -0.00026  -0.00006
 219        3S         -0.00015  -0.00002  -0.00006   0.00022   0.00270
 220        4PX        -0.00003   0.00005   0.00019   0.00007   0.00055
 221        4PY         0.00000   0.00003  -0.00008  -0.00001  -0.00020
 222        4PZ         0.00000  -0.00000  -0.00001  -0.00000  -0.00004
 223 14  H  1S         -0.00007  -0.00000  -0.00008  -0.00006  -0.00003
 224        2S          0.00027  -0.00000   0.00019   0.00053  -0.00088
 225        3S          0.00091   0.00033   0.00138   0.00017  -0.00021
 226        4PX         0.00002   0.00002   0.00007  -0.00004   0.00018
 227        4PY         0.00003   0.00000   0.00004  -0.00002   0.00012
 228        4PZ        -0.00000  -0.00000  -0.00001   0.00000  -0.00001
 229 15  H  1S          0.00017  -0.00010   0.00006  -0.00006  -0.00004
 230        2S         -0.00448  -0.00042  -0.00065   0.00065  -0.00017
 231        3S          0.00346   0.00233   0.00082   0.00185  -0.00060
 232        4PX        -0.00063   0.00010   0.00002  -0.00003  -0.00007
 233        4PY        -0.00183  -0.00026  -0.00008   0.00011  -0.00012
 234        4PZ         0.00005  -0.00001  -0.00000   0.00000   0.00000
                           6         7         8         9        10
                           O         O         O         O         O
     Eigenvalues --   -10.18846 -10.18713 -10.18635 -10.18004  -1.05661
   1 1   N  1S         -0.00000   0.00000   0.00000   0.00000   0.08295
   2        2S          0.00004   0.00002   0.00002   0.00003   0.13009
   3        2PX         0.00004   0.00004   0.00005   0.00004   0.00494
   4        2PY         0.00000  -0.00003  -0.00001   0.00001  -0.04018
   5        2PZ        -0.00000  -0.00000  -0.00000  -0.00000  -0.00040
   6        3S         -0.00032  -0.00015  -0.00013  -0.00030  -0.35453
   7        3PX        -0.00026  -0.00028  -0.00022  -0.00020   0.00995
   8        3PY        -0.00008   0.00005   0.00000  -0.00006  -0.06562
   9        3PZ         0.00002   0.00002   0.00002   0.00001  -0.00080
  10        4S          0.00116   0.00123  -0.00015   0.00353  -0.26535
  11        4PX         0.00117   0.00091   0.00037   0.00166  -0.02210
  12        4PY         0.00214  -0.00052   0.00030   0.00078  -0.04623
  13        4PZ        -0.00008  -0.00007  -0.00003  -0.00012   0.00155
  14        5S          0.01566   0.00601   0.00384   0.01302   0.01069
  15        5PX         0.00248   0.00296   0.00014   0.00105   0.01212
  16        5PY         0.01023   0.00438   0.00013   0.00641   0.06724
  17        5PZ        -0.00017  -0.00021  -0.00001  -0.00007  -0.00084
  18        6D 0       -0.00003  -0.00002  -0.00002  -0.00001   0.01347
  19        6D+1        0.00001   0.00001   0.00000   0.00000   0.00144
  20        6D-1        0.00000  -0.00000  -0.00000   0.00000  -0.00033
  21        6D+2       -0.00011  -0.00023  -0.00007  -0.00005   0.00363
  22        6D-2       -0.00004   0.00007   0.00002  -0.00002   0.00419
  23 2   N  1S          0.00000   0.00000   0.00000   0.00000   0.06922
  24        2S          0.00002   0.00004   0.00000   0.00001   0.10841
  25        2PX         0.00003  -0.00001   0.00001   0.00002  -0.05498
  26        2PY         0.00002   0.00008   0.00000   0.00000   0.01660
  27        2PZ        -0.00000   0.00000  -0.00000  -0.00000   0.00399
  28        3S         -0.00001  -0.00014   0.00005   0.00001  -0.29644
  29        3PX        -0.00017  -0.00015  -0.00003  -0.00007  -0.08649
  30        3PY        -0.00011  -0.00051  -0.00004  -0.00001   0.02901
  31        3PZ         0.00001   0.00001   0.00000   0.00000   0.00627
  32        4S         -0.00202  -0.00053  -0.00103  -0.00051  -0.17846
  33        4PX        -0.00088  -0.00012  -0.00059  -0.00037  -0.02550
  34        4PY        -0.00013  -0.00006  -0.00022  -0.00008   0.00263
  35        4PZ         0.00006   0.00001   0.00004   0.00003   0.00184
  36        5S         -0.01335  -0.00056  -0.00227  -0.01079   0.03296
  37        5PX        -0.00321  -0.00084  -0.00006  -0.00217   0.01625
  38        5PY         0.00110  -0.00013   0.00045   0.00093  -0.00771
  39        5PZ         0.00023   0.00006   0.00000   0.00016  -0.00117
  40        6D 0        0.00004   0.00005   0.00002   0.00003   0.01187
  41        6D+1        0.00000  -0.00001   0.00000   0.00001   0.00158
  42        6D-1        0.00001   0.00002   0.00000   0.00000  -0.00053
  43        6D+2        0.00001   0.00019  -0.00001  -0.00002  -0.00116
  44        6D-2       -0.00007  -0.00022  -0.00002  -0.00000   0.00705
  45 3   C  1S         -0.00073  -0.00361   0.00046   0.00006   0.03773
  46        2S         -0.00055  -0.00285   0.00042   0.00011   0.05770
  47        2PX         0.00003  -0.00005   0.00003   0.00003   0.03741
  48        2PY         0.00021   0.00072  -0.00003   0.00002  -0.00290
  49        2PZ        -0.00000   0.00000  -0.00000  -0.00000  -0.00270
  50        3S          0.00006  -0.00015  -0.00010  -0.00055  -0.14542
  51        3PX        -0.00019   0.00034  -0.00059  -0.00030   0.05380
  52        3PY        -0.00104  -0.00247   0.00033  -0.00020  -0.00301
  53        3PZ         0.00001  -0.00003   0.00004   0.00002  -0.00389
  54        4S         -0.00835   0.00403  -0.00808   0.00631  -0.02260
  55        4PX         0.00038   0.00381  -0.00393   0.00943  -0.07797
  56        4PY        -0.00194   0.00504  -0.00061   0.00155   0.03351
  57        4PZ        -0.00003  -0.00027   0.00028  -0.00068   0.00567
  58        5S         -0.13283  -0.08851  -0.00317  -0.02765  -0.15149
  59        5PX        -0.02613  -0.01591  -0.00094  -0.00442   0.04058
  60        5PY        -0.02866  -0.01974   0.00061  -0.01295  -0.27425
  61        5PZ         0.00187   0.00114   0.00007   0.00031  -0.00317
  62        6D 0        0.00021   0.00059  -0.00000  -0.00004   0.01056
  63        6D+1       -0.00002  -0.00002   0.00001  -0.00001   0.00204
  64        6D-1       -0.00000  -0.00001  -0.00002  -0.00000  -0.00002
  65        6D+2        0.00064   0.00127  -0.00013   0.00011  -0.00972
  66        6D-2       -0.00001   0.00010   0.00030   0.00000   0.00018
  67 4   C  1S          0.10654   0.55260   0.00486   0.00099   0.02174
  68        2S          0.08780   0.45471   0.00406   0.00086   0.03320
  69        2PX         0.00067  -0.00015   0.00006   0.00007   0.01565
  70        2PY         0.00039  -0.00009  -0.00002   0.00008   0.01413
  71        2PZ        -0.00005   0.00001  -0.00000  -0.00001  -0.00112
  72        3S          0.00363   0.01910  -0.00035   0.00008  -0.08152
  73        3PX        -0.00261   0.00060  -0.00051  -0.00073   0.02078
  74        3PY        -0.00159  -0.00011   0.00014  -0.00051   0.01957
  75        3PZ         0.00019  -0.00004   0.00004   0.00005  -0.00148
  76        4S          0.00510  -0.01973   0.00538  -0.00904  -0.06528
  77        4PX         0.01129  -0.00507   0.00879  -0.00552   0.06708
  78        4PY        -0.00151   0.00242  -0.00105   0.00134   0.04422
  79        4PZ        -0.00082   0.00037  -0.00064   0.00040  -0.00481
  80        5S          0.09985   0.12482  -0.00041   0.00924   0.71209
  81        5PX         0.06743   0.03331   0.01470   0.03494   0.21781
  82        5PY        -0.02556  -0.01162   0.00325  -0.00659  -0.02338
  83        5PZ        -0.00490  -0.00242  -0.00106  -0.00253  -0.01578
  84        6D 0        0.00030  -0.00183  -0.00008   0.00008   0.00613
  85        6D+1        0.00008  -0.00030  -0.00001   0.00003   0.00080
  86        6D-1        0.00007  -0.00007   0.00000   0.00003   0.00022
  87        6D+2       -0.00061   0.00093   0.00006  -0.00026  -0.00048
  88        6D-2       -0.00096   0.00102  -0.00002  -0.00037  -0.00321
  89 5   C  1S          0.00661   0.00193  -0.06312   0.00085   0.00611
  90        2S          0.00551   0.00161  -0.05173   0.00072   0.00918
  91        2PX        -0.00002  -0.00009   0.00076   0.00007   0.00563
  92        2PY         0.00004   0.00007   0.00037   0.00009  -0.00324
  93        2PZ         0.00000   0.00001  -0.00005  -0.00000  -0.00041
  94        3S         -0.00018   0.00008  -0.00268   0.00027  -0.02425
  95        3PX         0.00008   0.00056  -0.00315  -0.00056   0.00608
  96        3PY        -0.00042  -0.00052  -0.00157  -0.00078  -0.00279
  97        3PZ        -0.00001  -0.00004   0.00023   0.00004  -0.00044
  98        4S          0.00306  -0.00479   0.01073  -0.01307   0.05521
  99        4PX        -0.00015  -0.00220   0.00035   0.00032  -0.01821
 100        4PY         0.00178  -0.00412   0.00709  -0.00771   0.02284
 101        4PZ         0.00001   0.00016  -0.00002  -0.00003   0.00135
 102        5S          0.08710   0.05838  -0.00079   0.00524  -0.06392
 103        5PX         0.00928   0.00869  -0.00115   0.00559   0.15982
 104        5PY         0.01668   0.01072   0.00029   0.00117   0.02835
 105        5PZ        -0.00066  -0.00062   0.00008  -0.00040  -0.01158
 106        6D 0       -0.00004  -0.00002   0.00086   0.00004   0.00024
 107        6D+1        0.00000   0.00000   0.00016   0.00002   0.00016
 108        6D-1        0.00000  -0.00003   0.00012   0.00003   0.00001
 109        6D+2       -0.00009  -0.00009  -0.00074  -0.00022  -0.00177
 110        6D-2       -0.00002   0.00035  -0.00162  -0.00037  -0.00013
 111 6   C  1S          0.55232  -0.10656  -0.00298  -0.01999   0.00336
 112        2S          0.45447  -0.08752  -0.00242  -0.01625   0.00501
 113        2PX        -0.00031  -0.00064   0.00012   0.00073   0.00233
 114        2PY        -0.00002  -0.00037  -0.00011  -0.00037   0.00231
 115        2PZ         0.00002   0.00005  -0.00001  -0.00005  -0.00017
 116        3S          0.01972  -0.00395   0.00008  -0.00114  -0.01177
 117        3PX         0.00101   0.00290  -0.00078  -0.00310   0.00301
 118        3PY         0.00006   0.00155   0.00084   0.00150   0.00374
 119        3PZ        -0.00007  -0.00021   0.00006   0.00023  -0.00021
 120        4S         -0.02329   0.00862  -0.01188   0.01123  -0.05638
 121        4PX         0.00061  -0.00200   0.00095   0.00008   0.02362
 122        4PY         0.01128  -0.00538   0.00653  -0.00757   0.01124
 123        4PZ        -0.00003   0.00014  -0.00006  -0.00001  -0.00170
 124        5S         -0.11039  -0.09533  -0.02557  -0.04373  -0.55664
 125        5PX        -0.00060   0.00578   0.00274   0.00017   0.03113
 126        5PY         0.01785   0.01552   0.00422   0.00582   0.07995
 127        5PZ         0.00006  -0.00040  -0.00019  -0.00001  -0.00219
 128        6D 0       -0.00162   0.00091   0.00011   0.00072   0.00059
 129        6D+1       -0.00018   0.00016   0.00003   0.00014   0.00008
 130        6D-1        0.00004   0.00012  -0.00004  -0.00012   0.00001
 131        6D+2       -0.00039  -0.00064  -0.00028  -0.00070  -0.00003
 132        6D-2       -0.00047  -0.00170   0.00049   0.00162  -0.00018
 133 7   C  1S         -0.00134  -0.00676  -0.00002   0.00003   0.03517
 134        2S         -0.00107  -0.00543   0.00000   0.00005   0.05367
 135        2PX         0.00020   0.00068   0.00002   0.00005   0.00718
 136        2PY         0.00001  -0.00018   0.00001   0.00003   0.03831
 137        2PZ        -0.00001  -0.00005  -0.00000  -0.00000  -0.00048
 138        3S         -0.00008  -0.00019  -0.00018  -0.00026  -0.13516
 139        3PX        -0.00085  -0.00255  -0.00012  -0.00030   0.01103
 140        3PY        -0.00001   0.00070  -0.00005  -0.00008   0.05410
 141        3PZ         0.00006   0.00018   0.00001   0.00002  -0.00075
 142        4S          0.00785  -0.00171   0.00595  -0.00014  -0.01300
 143        4PX         0.00218   0.00027   0.00211  -0.00009   0.00806
 144        4PY        -0.00099  -0.00019  -0.00144  -0.00021  -0.01512
 145        4PZ        -0.00016  -0.00002  -0.00015   0.00001  -0.00059
 146        5S          0.07303   0.00893   0.02048   0.05353   0.11974
 147        5PX         0.01334   0.00080   0.00340   0.01007   0.00432
 148        5PY        -0.00276   0.00092  -0.00269  -0.00407  -0.01842
 149        5PZ        -0.00096  -0.00006  -0.00025  -0.00073  -0.00033
 150        6D 0        0.00003   0.00061  -0.00003  -0.00007   0.01000
 151        6D+1        0.00005   0.00016   0.00000  -0.00000   0.00064
 152        6D-1       -0.00001  -0.00008  -0.00000   0.00001   0.00027
 153        6D+2       -0.00062  -0.00112  -0.00010  -0.00012   0.00841
 154        6D-2        0.00015   0.00111   0.00006  -0.00007  -0.00413
 155 8   C  1S          0.00203  -0.00498   0.55895  -0.02088   0.00180
 156        2S          0.00172  -0.00404   0.45992  -0.01706   0.00275
 157        2PX         0.00002  -0.00001   0.00017   0.00008   0.00165
 158        2PY         0.00018  -0.00001   0.00009   0.00072  -0.00018
 159        2PZ        -0.00000   0.00000  -0.00001  -0.00001  -0.00012
 160        3S          0.00000  -0.00071   0.01955  -0.00097  -0.00715
 161        3PX         0.00005   0.00020  -0.00079  -0.00043   0.00317
 162        3PY        -0.00119  -0.00000  -0.00073  -0.00264  -0.00016
 163        3PZ        -0.00000  -0.00001   0.00006   0.00003  -0.00023
 164        4S         -0.00491   0.00781  -0.01901   0.01266  -0.02031
 165        4PX         0.00294  -0.00342   0.00829  -0.00697   0.00316
 166        4PY        -0.00153   0.00132  -0.00482   0.00470  -0.00781
 167        4PZ        -0.00021   0.00025  -0.00061   0.00051  -0.00024
 168        5S         -0.06349  -0.04371   0.00509  -0.01022  -0.20349
 169        5PX         0.01481   0.00958  -0.00179   0.00199   0.05349
 170        5PY         0.00388   0.00429   0.00073   0.00279   0.05858
 171        5PZ        -0.00107  -0.00069   0.00013  -0.00014  -0.00382
 172        6D 0        0.00002  -0.00007  -0.00188   0.00058   0.00027
 173        6D+1       -0.00004  -0.00001  -0.00026  -0.00003   0.00008
 174        6D-1        0.00000   0.00001  -0.00002  -0.00001  -0.00002
 175        6D+2        0.00061   0.00001   0.00038   0.00141  -0.00061
 176        6D-2       -0.00006  -0.00007   0.00030   0.00009   0.00030
 177 9   C  1S          0.01939  -0.00494   0.02066   0.56216   0.00147
 178        2S          0.01616  -0.00404   0.01712   0.46255   0.00227
 179        2PX        -0.00063   0.00003   0.00007   0.00014   0.00137
 180        2PY         0.00045   0.00001  -0.00072  -0.00005   0.00034
 181        2PZ         0.00005  -0.00000  -0.00001  -0.00001  -0.00010
 182        3S          0.00022  -0.00026   0.00049   0.01978  -0.00644
 183        3PX         0.00268   0.00046  -0.00042  -0.00059   0.00186
 184        3PY        -0.00187  -0.00023   0.00263   0.00044   0.00114
 185        3PZ        -0.00020  -0.00003   0.00003   0.00004  -0.00013
 186        4S          0.00874  -0.00526   0.01036  -0.02025   0.00634
 187        4PX        -0.00628   0.00316  -0.00621   0.00910  -0.00574
 188        4PY        -0.00173   0.00258  -0.00427   0.00519  -0.01130
 189        4PZ         0.00045  -0.00023   0.00045  -0.00066   0.00041
 190        5S          0.04498   0.03238   0.00308   0.01205   0.11059
 191        5PX        -0.01090  -0.00798  -0.00178  -0.00409  -0.04690
 192        5PY         0.00179   0.00079  -0.00028   0.00123   0.02368
 193        5PZ         0.00079   0.00058   0.00013   0.00030   0.00343
 194        6D 0        0.00060  -0.00010   0.00045  -0.00187   0.00018
 195        6D+1        0.00014  -0.00001  -0.00005  -0.00026   0.00002
 196        6D-1       -0.00011  -0.00002   0.00001   0.00002   0.00001
 197        6D+2       -0.00087  -0.00005   0.00141   0.00026   0.00001
 198        6D-2        0.00153   0.00028  -0.00015  -0.00017  -0.00015
 199 10  H  1S         -0.00005   0.00002  -0.00026   0.00005  -0.00241
 200        2S         -0.00009  -0.00091   0.00072  -0.00134  -0.00190
 201        3S          0.00033  -0.00125   0.00210  -0.00141   0.00858
 202        4PX         0.00001   0.00010  -0.00009  -0.00003   0.00031
 203        4PY        -0.00016  -0.00017  -0.00011  -0.00022  -0.00075
 204        4PZ        -0.00000  -0.00001   0.00001   0.00000  -0.00002
 205 11  H  1S          0.00040  -0.00021   0.00002  -0.00024  -0.00091
 206        2S         -0.00569   0.00053  -0.00114   0.00045  -0.00007
 207        3S          0.00130   0.00231  -0.00097   0.00276   0.00065
 208        4PX         0.00004   0.00019  -0.00004  -0.00008  -0.00019
 209        4PY         0.00240  -0.00005   0.00022   0.00026   0.00009
 210        4PZ        -0.00000  -0.00001   0.00000   0.00001   0.00001
 211 12  H  1S         -0.00004  -0.00000  -0.00003  -0.00001  -0.00742
 212        2S         -0.00060  -0.00044   0.00006  -0.00018  -0.00284
 213        3S          0.00035   0.00093   0.00027  -0.00005   0.00909
 214        4PX        -0.00019  -0.00033  -0.00005  -0.00007   0.00096
 215        4PY         0.00019   0.00009   0.00000   0.00008   0.00095
 216        4PZ         0.00001   0.00002   0.00000   0.00001  -0.00007
 217 13  H  1S         -0.00003  -0.00006   0.00042  -0.00023  -0.00038
 218        2S         -0.00089   0.00016  -0.00518   0.00075   0.00006
 219        3S          0.00008   0.00124   0.00070   0.00259   0.00095
 220        4PX         0.00019   0.00004   0.00196   0.00013  -0.00007
 221        4PY        -0.00012  -0.00003  -0.00112  -0.00014   0.00019
 222        4PZ        -0.00001  -0.00000  -0.00014  -0.00001   0.00001
 223 14  H  1S         -0.00021  -0.00000  -0.00020   0.00043  -0.00044
 224        2S          0.00003  -0.00077   0.00040  -0.00538   0.00155
 225        3S          0.00253  -0.00083   0.00264   0.00061   0.00414
 226        4PX         0.00045   0.00012   0.00026   0.00201  -0.00003
 227        4PY         0.00011   0.00003   0.00021   0.00109   0.00007
 228        4PZ        -0.00003  -0.00001  -0.00002  -0.00014   0.00000
 229 15  H  1S         -0.00005  -0.00003  -0.00001  -0.00001  -0.03904
 230        2S          0.00062  -0.00038   0.00002  -0.00001  -0.04742
 231        3S          0.00296   0.00168  -0.00036   0.00150   0.03284
 232        4PX        -0.00001  -0.00002  -0.00006  -0.00004  -0.00335
 233        4PY         0.00009  -0.00005  -0.00001  -0.00001  -0.01065
 234        4PZ         0.00000   0.00000   0.00000   0.00000   0.00024
                          11        12        13        14        15
                           O         O         O         O         O
     Eigenvalues --    -0.86771  -0.83757  -0.77071  -0.75449  -0.64554
   1 1   N  1S          0.00214   0.06759  -0.00941  -0.02874   0.00202
   2        2S          0.00355   0.10686  -0.01503  -0.04567   0.00317
   3        2PX         0.04146  -0.03010  -0.07135  -0.02653  -0.09192
   4        2PY        -0.01462   0.04533  -0.00097  -0.01914  -0.03244
   5        2PZ        -0.00301   0.00219   0.00516   0.00192   0.00662
   6        3S         -0.01179  -0.30239   0.04583   0.13118  -0.00664
   7        3PX         0.06190  -0.04342  -0.10794  -0.03891  -0.13628
   8        3PY        -0.02360   0.06673   0.00020  -0.02679  -0.04660
   9        3PZ        -0.00450   0.00316   0.00781   0.00281   0.00982
  10        4S         -0.00160  -0.23766   0.02080   0.11427  -0.02919
  11        4PX         0.02340  -0.01927  -0.05327  -0.02294  -0.08430
  12        4PY        -0.01537   0.02384  -0.00350  -0.00748  -0.04275
  13        4PZ        -0.00170   0.00140   0.00385   0.00166   0.00606
  14        5S         -0.11139   0.14417  -0.00779  -0.05613  -0.04445
  15        5PX        -0.02543  -0.01184   0.02293   0.00740   0.01202
  16        5PY        -0.02646   0.04396  -0.02647  -0.06660  -0.02934
  17        5PZ         0.00181   0.00089  -0.00168  -0.00057  -0.00089
  18        6D 0        0.00083   0.00440  -0.00032  -0.00177   0.00071
  19        6D+1       -0.00021   0.00105   0.00023  -0.00015   0.00021
  20        6D-1       -0.00049   0.00045   0.00081  -0.00012   0.00073
  21        6D+2        0.00440  -0.00687  -0.00386  -0.00101  -0.00191
  22        6D-2        0.00670  -0.00620  -0.01123   0.00161  -0.01009
  23 2   N  1S          0.03660  -0.04834  -0.03902   0.01104  -0.02747
  24        2S          0.05776  -0.07619  -0.06187   0.01744  -0.04378
  25        2PX        -0.01708   0.02595   0.00514  -0.00687  -0.01768
  26        2PY        -0.00011   0.06451  -0.02245  -0.04235  -0.02821
  27        2PZ         0.00123  -0.00182  -0.00039   0.00046   0.00125
  28        3S         -0.16316   0.21387   0.17820  -0.04858   0.12855
  29        3PX        -0.02683   0.04011   0.00897  -0.01046  -0.02510
  30        3PY         0.00286   0.09418  -0.03735  -0.06383  -0.04471
  31        3PZ         0.00194  -0.00282  -0.00068   0.00070   0.00177
  32        4S         -0.11240   0.16026   0.13527  -0.04682   0.11401
  33        4PX        -0.01020   0.01762   0.00487  -0.00716  -0.01117
  34        4PY        -0.00300   0.03137  -0.01011  -0.02055  -0.02045
  35        4PZ         0.00073  -0.00125  -0.00036   0.00050   0.00079
  36        5S          0.06998  -0.18460   0.04495   0.10078   0.05568
  37        5PX         0.01745  -0.04989   0.00496   0.02432   0.00944
  38        5PY        -0.00126   0.01311  -0.00168  -0.00784   0.00070
  39        5PZ        -0.00126   0.00362  -0.00036  -0.00177  -0.00068
  40        6D 0        0.00338  -0.00344  -0.00197   0.00049   0.00069
  41        6D+1        0.00022  -0.00047   0.00024   0.00016   0.00077
  42        6D-1       -0.00005  -0.00110   0.00041   0.00063   0.00030
  43        6D+2        0.00278   0.00064  -0.00679  -0.00146  -0.00946
  44        6D-2        0.00064   0.01524  -0.00550  -0.00866  -0.00409
  45 3   C  1S         -0.05473   0.02844   0.04629   0.03191   0.01328
  46        2S         -0.08455   0.04387   0.07189   0.04964   0.02083
  47        2PX         0.02327   0.03361   0.02778  -0.03945   0.09155
  48        2PY         0.00692   0.04195  -0.03391   0.01808  -0.03033
  49        2PZ        -0.00168  -0.00239  -0.00204   0.00288  -0.00665
  50        3S          0.22220  -0.11746  -0.19434  -0.13438  -0.05950
  51        3PX         0.03237   0.05030   0.04121  -0.05462   0.12853
  52        3PY         0.01011   0.06463  -0.05079   0.02839  -0.04116
  53        3PZ        -0.00234  -0.00358  -0.00302   0.00399  -0.00933
  54        4S          0.12196  -0.05045  -0.10055  -0.05466  -0.00294
  55        4PX        -0.00175  -0.00003  -0.00453  -0.00901   0.00430
  56        4PY         0.01609   0.01131  -0.02488   0.01084  -0.01187
  57        4PZ         0.00014   0.00001   0.00031   0.00066  -0.00033
  58        5S          0.59883   0.08775  -0.54230   0.34774  -0.23143
  59        5PX         0.12218   0.10842  -0.17158   0.05474  -0.11534
  60        5PY         0.08057  -0.02882   0.07574   0.13293   0.07199
  61        5PZ        -0.00877  -0.00788   0.01251  -0.00386   0.00842
  62        6D 0       -0.01008   0.00437   0.00709   0.00407   0.00378
  63        6D+1       -0.00130   0.00141   0.00032   0.00082   0.00083
  64        6D-1        0.00007   0.00070  -0.00011  -0.00088   0.00004
  65        6D+2        0.00041  -0.01200   0.00787  -0.00404  -0.00490
  66        6D-2       -0.00075  -0.00964   0.00128   0.01206  -0.00057
  67 4   C  1S         -0.04509  -0.03742   0.06117  -0.01641  -0.00535
  68        2S         -0.06950  -0.05775   0.09473  -0.02549  -0.00831
  69        2PX         0.02610  -0.01246   0.01893   0.03942   0.06993
  70        2PY        -0.01532   0.01402   0.01950   0.03088   0.04466
  71        2PZ        -0.00191   0.00091  -0.00135  -0.00283  -0.00502
  72        3S          0.17941   0.14947  -0.24957   0.06757   0.02301
  73        3PX         0.03765  -0.01777   0.02585   0.05481   0.09515
  74        3PY        -0.02343   0.02487   0.02811   0.04643   0.06245
  75        3PZ        -0.00275   0.00130  -0.00184  -0.00393  -0.00683
  76        4S          0.07899   0.07018  -0.12210   0.03796   0.01420
  77        4PX         0.01561  -0.00039   0.01766   0.00970   0.06823
  78        4PY         0.00761   0.00283  -0.00002   0.02217   0.03965
  79        4PZ        -0.00112   0.00003  -0.00128  -0.00068  -0.00490
  80        5S         -0.42717  -0.61688   0.60215  -0.20107   0.29724
  81        5PX        -0.49691  -0.14281   0.05419  -0.15222  -0.05698
  82        5PY         0.08559  -0.12041   0.00622   0.10718   0.01922
  83        5PZ         0.03603   0.01025  -0.00395   0.01110   0.00413
  84        6D 0       -0.00823  -0.00653   0.00837  -0.00197   0.00077
  85        6D+1       -0.00092  -0.00169   0.00080  -0.00075  -0.00013
  86        6D-1       -0.00005  -0.00003   0.00020  -0.00053   0.00005
  87        6D+2       -0.00163   0.01200   0.00350   0.00692   0.00315
  88        6D-2        0.00090   0.00043  -0.00305   0.00727  -0.00080
  89 5   C  1S         -0.05278   0.00994  -0.02417   0.06730  -0.04990
  90        2S         -0.08125   0.01534  -0.03746   0.10415  -0.07813
  91        2PX        -0.00234   0.01562   0.04170  -0.00018  -0.01850
  92        2PY         0.02995   0.00266   0.00762  -0.01493  -0.00459
  93        2PZ         0.00020  -0.00113  -0.00302   0.00000   0.00134
  94        3S          0.20955  -0.04029   0.09790  -0.27361   0.20925
  95        3PX        -0.00443   0.02381   0.05951   0.00115  -0.03087
  96        3PY         0.04332   0.00260   0.01163  -0.02121  -0.00435
  97        3PZ         0.00036  -0.00172  -0.00430  -0.00010   0.00224
  98        4S          0.10553  -0.01426   0.06128  -0.15901   0.15417
  99        4PX        -0.00677   0.00930   0.02120   0.00308  -0.01323
 100        4PY         0.01186   0.00282   0.00941  -0.01075   0.00775
 101        4PZ         0.00050  -0.00067  -0.00153  -0.00023   0.00097
 102        5S         -0.43047  -0.30589   0.61461  -0.10559   0.32846
 103        5PX        -0.03199  -0.01325  -0.05781  -0.03144  -0.02794
 104        5PY        -0.07376  -0.04581   0.08616  -0.02238   0.03044
 105        5PZ         0.00225   0.00092   0.00427   0.00227   0.00206
 106        6D 0       -0.00918   0.00121  -0.00335   0.00838  -0.00599
 107        6D+1       -0.00123   0.00054  -0.00050   0.00125  -0.00076
 108        6D-1        0.00006  -0.00015  -0.00073  -0.00010   0.00048
 109        6D+2        0.00094  -0.00531   0.00116  -0.00261   0.00000
 110        6D-2       -0.00061   0.00214   0.01009   0.00128  -0.00646
 111 6   C  1S         -0.04634  -0.02860   0.00220  -0.07003  -0.04626
 112        2S         -0.07132  -0.04395   0.00331  -0.10843  -0.07241
 113        2PX         0.00033  -0.00579   0.04255   0.01375  -0.03861
 114        2PY        -0.02744  -0.01088  -0.00281  -0.01432   0.00638
 115        2PZ        -0.00005   0.00041  -0.00309  -0.00101   0.00280
 116        3S          0.18350   0.11342  -0.00839   0.28543   0.19505
 117        3PX        -0.00027  -0.00663   0.06135   0.01707  -0.05766
 118        3PY        -0.03969  -0.01458  -0.00410  -0.02164   0.00831
 119        3PZ        -0.00002   0.00046  -0.00445  -0.00126   0.00419
 120        4S          0.08552   0.05711  -0.01450   0.15982   0.09608
 121        4PX         0.00621  -0.00486   0.01773   0.01140  -0.00550
 122        4PY        -0.01199  -0.00738   0.00665  -0.01001   0.00833
 123        4PZ        -0.00046   0.00034  -0.00128  -0.00084   0.00041
 124        5S          0.84134   0.61789  -0.48986   0.15268  -0.22822
 125        5PX        -0.02745  -0.09023   0.01928   0.01930   0.00419
 126        5PY        -0.13478  -0.08068   0.08053  -0.01821   0.05117
 127        5PZ         0.00187   0.00646  -0.00131  -0.00141  -0.00025
 128        6D 0       -0.00817  -0.00417   0.00006  -0.00871  -0.00527
 129        6D+1       -0.00106  -0.00075   0.00010  -0.00137  -0.00077
 130        6D-1       -0.00000   0.00007   0.00073   0.00016  -0.00055
 131        6D+2        0.00041   0.00300  -0.00143   0.00369   0.00157
 132        6D-2        0.00020  -0.00092  -0.01003  -0.00209   0.00770
 133 7   C  1S          0.00820  -0.06565   0.02007   0.02183   0.01401
 134        2S          0.01260  -0.10103   0.03123   0.03389   0.02204
 135        2PX         0.02717  -0.01446  -0.04793   0.01833  -0.02356
 136        2PY         0.01577  -0.03773  -0.00729   0.01750   0.01097
 137        2PZ        -0.00195   0.00101   0.00346  -0.00131   0.00171
 138        3S         -0.03292   0.26563  -0.08238  -0.09100  -0.05957
 139        3PX         0.03901  -0.01803  -0.07037   0.02318  -0.03356
 140        3PY         0.02192  -0.05267  -0.00864   0.02457   0.01612
 141        3PZ        -0.00280   0.00125   0.00508  -0.00165   0.00244
 142        4S         -0.01014   0.13707  -0.05317  -0.05689  -0.02831
 143        4PX         0.00627   0.00478  -0.01486   0.00338  -0.00641
 144        4PY        -0.00545  -0.01348   0.00590   0.00208   0.00064
 145        4PZ        -0.00046  -0.00036   0.00108  -0.00024   0.00046
 146        5S         -0.59712   0.20533  -0.22476  -0.23691  -0.25707
 147        5PX        -0.10559   0.05447  -0.04988  -0.04797  -0.04992
 148        5PY         0.04021  -0.01764   0.02296   0.00601   0.02306
 149        5PZ         0.00765  -0.00396   0.00363   0.00347   0.00362
 150        6D 0        0.00186  -0.01104   0.00361   0.00400   0.00352
 151        6D+1       -0.00019  -0.00126   0.00099   0.00034   0.00033
 152        6D-1        0.00053  -0.00051  -0.00089  -0.00003  -0.00078
 153        6D+2        0.00572  -0.00164  -0.00728   0.00225   0.00163
 154        6D-2       -0.00741   0.00727   0.01233   0.00032   0.01076
 155 8   C  1S         -0.04884  -0.00794  -0.06371   0.02770   0.03407
 156        2S         -0.07519  -0.01228  -0.09853   0.04289   0.05312
 157        2PX        -0.02536   0.00014  -0.00805   0.02881  -0.05037
 158        2PY         0.01022   0.00923   0.01360   0.04102  -0.05346
 159        2PZ         0.00185  -0.00000   0.00060  -0.00205   0.00360
 160        3S          0.19416   0.03186   0.25862  -0.11283  -0.14297
[...]
   xxy        0.255393D+02      0.220640D+00      0.818882D-01
   yxy       -0.407754D+01     -0.352268D-01     -0.130741D-01
   yyy        0.158421D+03      0.136863D+01      0.507955D+00
   xxz        0.766482D+02      0.662181D+00      0.245762D+00
   yxz        0.245734D+02      0.212295D+00      0.787912D-01
   yyz        0.869759D+02      0.751404D+00      0.278876D+00
   zxz        0.449518D+02      0.388349D+00      0.144132D+00
   zyz        0.558369D+02      0.482387D+00      0.179033D+00
   zzz       -0.750618D+02     -0.648476D+00     -0.240675D+00

 ----------------------------------------------------------------------
 Unable to Open any file for archive entry.
 1\1\GINC-NODE1744\Freq\RB3LYP\6-311+G(d,p)\C7H6N2\SVICCHI\02-Jun-2023\
 0\\#p freq=raman scale=0.967 pop=(nbo,full,hirshfeld) guess=read geom=
 allcheck b3lyp/6-311+G(d,p) int=grid=ultrafine EmpiricalDispersion=GD3
 BJ SCRF=(Solvent=ethanol) scf=(xqc,intrep,maxconventionalcycle=350) no
 symm\\indazolide-H_dissociation-site_index-0.gjf\\0,1\N,-1.5300030618,
 -1.069876114,0.1689722281\N,-2.3704152328,-0.0035780574,0.2306712455\C
 ,-0.2209189723,-0.6931550428,0.0747818089\C,-0.2266624919,0.7246795306
 ,0.0764877\C,0.9664119605,-1.4347173985,-0.0119778851\C,0.9894791828,1
 .4260585458,-0.0109645646\C,-1.6072257555,1.074166723,0.1765407151\C,2
 .1470658223,-0.7176150977,-0.0969610017\C,2.1622049181,0.6978303133,-0
 .0967165281\H,0.9592877052,-2.5175575414,-0.0124401389\H,1.0044302339,
 2.5095041154,-0.0110292672\H,-2.0535487515,2.0567058655,0.2096287778\H
 ,3.0868961754,-1.2528051599,-0.1656600669\H,3.1127392415,1.2130900971,
 -0.1651656473\H,-1.9100989738,-2.0026077791,0.1961876242\\Version=ES64
 L-G16RevC.01\HF=-379.9801457\RMSD=6.131e-09\RMSF=1.394e-05\ZeroPoint=0
 .1139953\Thermal=0.1203114\ETot=-379.8598342\HTot=-379.85889\GTot=-379
 .8965096\Dipole=0.7777083,-0.5741756,-0.056259\DipoleDeriv=-0.4287789,
 0.2071736,0.0126371,-0.4377732,-0.7638577,0.0313347,0.0118313,-0.01518
 58,-0.2598058,-1.0170443,-0.283417,0.0506709,-0.1456424,0.5406241,0.01
 16986,0.0496409,0.0218323,-0.3134269,0.6377997,0.266499,-0.0381733,0.4
 154357,-0.0100044,-0.030406,-0.037967,-0.019441,0.1107406,-0.1711477,0
 .2007138,0.0103423,-0.1975629,-0.292048,0.0141538,0.0101933,-0.0144794
 ,-0.0287556,-0.0261108,-0.2111131,-0.0116394,0.0058525,0.0465593,-0.00
 02278,-0.0114716,0.0155073,-0.185214,0.3615601,-0.1202961,-0.0367288,0
 .0537736,0.1298159,-0.0036646,-0.036594,0.0088198,-0.1426395,0.57452,-
 0.4185084,-0.0482284,0.0265484,0.0497598,-0.0019848,-0.0466652,0.02956
 47,-0.0813465,-0.0630528,0.055746,-0.0087319,-0.0971181,0.255124,0.007
 5271,-0.0084912,-0.0036318,-0.1817851,-0.1686772,0.1647534,-0.00358,0.
 216931,-0.156059,-0.01567,-0.0031459,-0.0117789,-0.218339,0.0873267,-0
 .0150257,0.007547,0.0081895,-0.0912825,-0.0009102,0.0075632,0.0006548,
 0.1912495,0.0920625,0.0043537,0.0061465,-0.0214758,-0.1081047,0.001318
 5,0.0061068,-0.0004508,0.1763998,0.0408314,0.0701589,0.0105797,0.06082
 51,-0.0077131,-0.0045445,0.0103578,-0.0051158,0.1853295,-0.0749715,0.1
 021929,0.0182234,0.0986503,0.042166,-0.0072755,0.0180911,-0.007345,0.1
 734719,-0.089559,-0.0970893,0.0198904,-0.0992584,0.0383886,0.0070046,0
 .0196124,0.0066077,0.184105,0.2452417,0.0738585,0.0110446,0.1126248,0.
 3266318,-0.0083538,0.0109382,-0.0055581,0.3900163\Polar=173.6761926,-0
 .5904742,136.6168852,-7.5563063,0.1060528,70.0740518\PolarDeriv=10.244
 6517,-2.4603097,-0.7776531,-1.0305888,0.0002392,-1.016784,2.5970293,-3
 .8619342,2.7217355,-0.1890937,0.2589578,0.2734214,-1.1519139,-0.010577
 ,0.0081783,-3.2157308,-2.8118271,0.546191,-37.9612183,0.6317904,-3.625
 0633,2.2365425,-0.1989181,-1.6422946,-18.9494161,-0.3432657,-4.2295043
 ,1.1025523,0.02686,-3.9915533,1.8993407,-0.176579,0.2472469,-5.2353973
 ,-1.8692829,0.8423962,2.1985452,1.7216121,1.7957798,-0.4482581,-0.2990
 354,-2.3633374,-40.08214,1.7784413,-1.7570199,2.8777685,-0.1106818,-0.
 9854355,-0.4780027,-0.2992129,-0.1108667,-1.6390511,-2.3347,0.4270578,
 -17.6916003,0.911379,2.6810249,1.1717573,0.0640091,-0.3476184,36.56514
 64,-2.9237823,2.4383682,-2.6382205,0.2088098,0.3816717,1.1445214,0.052
 7528,-0.1907795,-1.3259255,1.6334374,0.2445143,-16.8015741,-4.1035812,
 -11.2234675,1.0854423,-0.2603239,-1.6783193,-0.5715426,1.7512203,-4.20
 61194,-0.3006511,-0.117516,-4.7575331,1.1860738,-0.2372971,0.8310742,-
 0.2595429,-7.5623984,0.14139,-5.046804,-0.2354811,-11.944878,0.278089,
 0.5310697,-1.806967,2.8630332,1.3799308,4.9662138,0.134537,-0.0940574,
 4.7777827,0.4226524,0.5290405,0.8887044,0.4027652,7.2140994,0.0962691,
 31.6547959,0.009583,-0.659613,-2.6542395,0.4342431,-1.053115,16.225101
 ,-0.2037254,1.861392,-0.8325496,0.0168057,4.9054079,-2.7762224,0.40903
 48,0.051876,-3.601751,6.1827446,0.6717649,7.8991102,1.7472107,12.66164
 07,0.3678218,-0.2628412,4.5993644,-8.3150541,3.6665041,17.0404725,0.50
 59164,-0.270692,-1.5862137,0.610779,-0.2541693,-0.9184978,8.2519087,-1
 .9232836,-1.5864821,4.2086472,1.5214539,10.9388365,0.6519084,0.0426219
 ,4.7256944,11.1570836,-2.3854627,-18.6987496,-0.7394999,0.1201897,1.40
 70671,0.8540873,-0.005358,-0.8464157,8.2753594,1.9684449,-1.6117961,-0
 .0757511,-1.9957547,-0.0354167,0.0046571,0.1810319,0.0302678,-1.453974
 1,1.0221313,-17.637367,0.0440347,-0.0872683,-0.8958886,0.00685,0.17913
 65,-0.0089158,0.0031924,0.4571675,-0.002112,-0.0970874,1.9400901,0.203
 7605,0.000751,-0.1653943,0.0119778,1.2902789,1.5359761,17.394311,-0.03
 30885,-0.0933007,0.8412187,-0.0036768,-0.1625972,0.007449,-0.0988791,-
 0.3471296,0.0127721,-3.6052432,3.8780144,-3.7140443,0.2354886,-0.28424
 79,-0.2506,4.4575064,-5.7907285,12.1812995,-0.2668011,0.4327672,0.8928
 023,0.23079,-0.2667982,0.2466176,-0.131633,-0.0596533,0.0256554,14.467
 0552,-5.7269163,3.7437378,-1.0714928,0.4050611,0.6657825,-6.0710057,4.
 768207,-3.263298,0.3953205,-0.3336233,-0.3859997,-1.1323395,0.3776599,
 -0.2554442,-0.6599251,-0.2226817,0.0649808,14.8124675,5.5105897,3.5460
 9,-1.0978672,-0.3916491,0.6299665,5.8281175,4.5417728,3.1616194,-0.370
 5144,-0.3108144,0.3684934,-1.1331669,-0.3515658,-0.232811,-0.8197739,0
 .120402,0.0967226,-4.2059945,-3.3496801,-3.5907343,0.2699883,0.2041337
 ,-0.5040178,-5.5401638,-4.9352848,-11.9733538,0.3102895,0.3535638,-1.2
 452414,0.3202276,0.21653,0.2825845,0.054384,-0.4453392,0.030676\HyperP
 olar=162.0608432,122.4004911,-15.6129846,21.7708981,3.6748349,-5.36386
 28,1.1355567,106.8979192,51.4183308,-23.1491979\Quadrupole=-3.6041752,
 8.1107397,-4.5065645,1.5231683,0.0211665,-0.1652002\PG=C01 [X(C7H6N2)]
 \NImag=0\\0.64228549,0.16542519,0.90123396,-0.04172151,-0.01152052,0.0
 6854792,-0.16699272,0.03590942,0.00834517,0.50919013,0.09979748,-0.187
 77705,-0.00728294,0.08151936,0.52983496,0.00843483,-0.00270356,-0.0525
 4734,-0.02988610,-0.00553295,0.09637165,-0.27485949,-0.04300568,0.0163
 9926,-0.08687680,0.03307858,0.00722951,0.76998736,-0.06475102,-0.14977
 515,0.00471210,0.02134337,-0.00896041,-0.00155246,-0.08945909,0.654723
 39,0.01635153,0.00307023,-0.04912664,0.00723017,-0.00240173,0.01229460
 ,-0.04534507,0.00684926,0.14844651,-0.01938576,-0.01422473,0.00192001,
 -0.07074949,-0.07598173,0.00660213,-0.12413789,0.02277944,0.00346566,0
 .74566521,-0.05721435,-0.04670869,0.00406213,-0.02072993,0.00024596,0.
 00147613,-0.01099383,-0.25825680,0.00064373,0.09280899,0.62424458,0.00
 186541,0.00097783,0.00710687,0.00664961,0.00545968,0.02103253,0.003434
 85,-0.00182056,-0.07712996,-0.04357277,-0.00626104,0.14633539,-0.04605
 433,0.00608674,0.00329798,0.00796413,0.00413354,-0.00017686,-0.2326846
 9,0.07947931,0.01295569,0.03364129,0.04759477,-0.00207964,0.64543584,-
 0.00600239,0.02116318,0.00045056,-0.00775064,-0.00014968,0.00055400,0.
 11405737,-0.19539815,-0.00840395,0.02520618,-0.01926305,-0.00184098,0.
 01932028,0.74859558,0.00327568,-0.00036941,-0.00167282,-0.00018969,-0.
 00030951,0.00544114,0.01299442,-0.00594021,-0.05614394,-0.00210102,-0.
 00347340,0.00446240,-0.03801540,-0.00088051,0.12624563,-0.00175141,-0.
 00648796,0.00029343,0.00614144,0.02177394,0.00006332,0.03311482,-0.055
 54548,-0.00228253,-0.24336184,-0.08107138,0.01341573,-0.05405291,-0.00
 251056,0.00381864,0.64574519,0.00167200,-0.00614546,-0.00012345,0.0079
 5466,0.00315662,-0.00057381,-0.03151327,-0.02221350,0.00225038,-0.1039
 3839,-0.17897289,0.00741603,0.00491718,0.00069408,-0.00035473,-0.01644
 131,0.74204670,0.00030347,0.00046046,0.00235516,0.00004199,-0.00157806
 ,0.00669504,-0.00224823,0.00400679,0.00257922,0.01339940,0.00575573,-0
 .05885757,0.00382436,0.00018432,-0.00170420,-0.03720819,0.00181846,0.1
 3743574,-0.00745403,-0.00177475,0.00153618,-0.21191841,-0.15531879,0.0
 1033230,0.00426982,0.05713846,0.00029905,-0.22848213,0.05511195,0.0119
 6302,-0.01182123,0.00077733,0.00103427,-0.04704065,0.00100591,0.003176
 65,0.59679040,0.00382320,-0.12849984,-0.00041307,-0.12176175,-0.290655
 96,0.00859492,0.02632628,-0.02706695,-0.00194252,0.05850241,-0.1266848
 5,-0.00427963,-0.00142791,-0.00617297,0.00009899,-0.01866352,0.0139574
 0,0.00134680,-0.07144521,0.85895697,0.00155522,-0.00000526,0.01397075,
 0.01035777,0.01104531,-0.06717120,0.00026706,-0.00417938,0.00770545,0.
 01194324,-0.00404345,-0.06449025,0.00103618,-0.00006526,0.00237447,0.0
 0317816,-0.00007489,-0.00333195,-0.03365371,0.00580716,0.13336506,0.01
 120126,0.00886487,-0.00045541,-0.00812415,-0.00153867,0.00065620,-0.06
 910181,0.01116769,0.00530368,-0.01618126,-0.01636656,0.00079764,-0.293
 28010,-0.13207194,0.01695029,0.02774265,0.02706583,-0.00148919,0.00596
 170,-0.00156516,-0.00051414,0.72911517,0.01054466,0.00614871,-0.000761
 62,-0.00545956,-0.01367724,0.00037974,-0.02360476,0.05387266,0.0017630
 5,-0.03557630,-0.03403399,0.00254718,-0.07669707,-0.18958909,0.0054683
 2,0.07042714,-0.03097435,-0.00514015,0.01751251,0.00114775,-0.00126790
 ,-0.02005696,0.63988551,-0.00046033,-0.00063761,0.00481726,0.00066385,
 0.00009742,0.00099284,0.00526986,-0.00077012,0.00358292,0.00078088,0.0
 0115610,-0.00495642,0.01701641,0.00948725,-0.06005760,-0.00145179,-0.0
 0199610,0.00691226,-0.00050029,0.00011619,-0.00109559,-0.04316926,0.00
 188625,0.13865335,-0.00354020,0.00479069,0.00019430,-0.00556598,-0.012
 60691,0.00032601,-0.01324741,0.02103601,0.00060455,-0.06789737,-0.0084
 5282,0.00544262,0.02534422,-0.02833129,-0.00131620,-0.29134581,0.13187
 869,0.01685879,0.01544471,-0.00167101,-0.00067408,-0.12391581,-0.03266
 817,0.00434333,0.73245130,-0.01031899,-0.00849144,0.00073929,0.0079027
 3,0.00998486,-0.00055945,0.03445109,-0.03814253,-0.00252649,0.02705034
 ,0.04636196,-0.00193166,-0.06928625,-0.02720701,0.00499241,0.07623785,
 -0.19061021,-0.00568662,-0.02133086,-0.00280766,0.00153827,0.02810646,
 -0.28467359,-0.00224250,0.02047148,0.63683508,0.00018364,-0.00035338,-
 0.00092905,0.00035391,0.00092696,-0.00086750,0.00060815,-0.00155202,-0
 .00521137,0.00547150,0.00064826,0.00692893,-0.00135789,0.00201768,0.00
 759170,0.01682101,-0.00972034,-0.06287640,-0.00070128,0.00011186,0.006
 19889,0.00440308,0.00215566,-0.06405999,-0.04370703,-0.00095065,0.1339
 8833,0.00217780,-0.00097211,-0.00039350,-0.00012755,0.00050244,-0.0000
 0455,0.00486924,0.02773515,-0.00009132,-0.00389998,0.00123801,0.000678
 75,-0.05825356,0.00037013,0.00182354,-0.00123987,-0.00019592,0.0000217
 7,-0.00012284,0.00157140,-0.00000840,0.00486718,-0.02780063,-0.0001429
 6,-0.00401771,-0.00182438,0.00088268,0.05546653,-0.00076499,0.00109568
 ,0.00005960,0.00077417,-0.00045079,-0.00005559,-0.00246613,-0.01132092
 ,0.00016528,0.00225623,0.00116858,-0.00016698,-0.00044286,-0.33953490,
 -0.00025697,0.00028392,0.00036238,-0.00001976,-0.00034718,-0.00069072,
 0.00002417,0.00227900,-0.01080978,-0.00017705,-0.00277142,0.00129068,0
 .00019547,0.00007285,0.35930592,-0.00037286,0.00009296,-0.00231326,-0.
 00000478,-0.00003565,-0.00020172,-0.00011193,-0.00201418,0.00327233,0.
 00068040,-0.00009333,0.00540092,0.00177762,-0.00030735,-0.03389965,0.0
 0002155,0.00001529,-0.00093896,-0.00001037,-0.00011534,-0.00026221,-0.
 00011214,0.00200317,0.00325571,0.00088212,0.00012428,0.00810926,-0.002
 31403,0.00029621,0.02350820,-0.00015865,-0.00190307,-0.00000341,0.0002
 4579,-0.00008813,-0.00000316,-0.00409135,-0.00126110,0.00074487,0.0049
 5263,-0.02779344,-0.00016946,-0.00098939,0.00003703,-0.00000884,-0.058
 89404,-0.00556684,0.00163828,0.00114916,0.00079188,-0.00030313,-0.0040
 8911,0.00205938,0.00090548,0.00522296,0.02748292,-0.00004680,0.0001832
 1,-0.00001063,-0.00011054,0.05602602,-0.00001529,-0.00091028,0.0000012
 7,-0.00055337,-0.00045492,0.00003898,-0.00199391,0.00132236,0.00014035
 ,0.00151079,-0.01085137,-0.00012117,-0.00023603,0.00031557,0.00001861,
 -0.00425517,-0.33706690,0.00003394,0.00086651,0.00092552,-0.00004835,0
 .00302207,0.00098359,-0.00022675,-0.00282546,-0.01149208,0.00018829,0.
 00000646,-0.00011159,0.00000057,0.00524865,0.35716067,-0.00000275,0.00
 013776,-0.00019009,-0.00000351,0.00000548,0.00019782,0.00074507,0.0000
 8523,0.00615156,-0.00013739,0.00200547,0.00299076,-0.00001079,-0.00000
 063,-0.00111190,0.00162073,0.00013153,-0.03648184,-0.00028693,-0.00004
 695,-0.00292160,0.00090780,-0.00015428,0.00830508,-0.00007280,-0.00201
 146,0.00421838,-0.00011059,0.00000193,-0.00133266,-0.00228288,-0.00008
 348,0.02472781,-0.00104091,-0.00611093,0.00061359,0.01220447,-0.019071
 00,-0.00147286,-0.00617925,0.00018821,0.00074151,-0.00055124,0.0226989
 8,0.00010546,0.00100739,0.00158179,-0.00004237,0.00124872,-0.00005322,
 -0.00017235,-0.11352631,0.11976233,0.00622339,-0.00001569,-0.00016085,
 -0.00002499,-0.00019384,-0.00002473,0.00001166,-0.00042856,0.00023199,
 0.00005240,-0.00025461,-0.00053577,0.00002136,0.10677371,-0.00285518,-
 0.00267677,0.00019986,0.01020635,-0.02097969,-0.00074474,-0.00103948,-
 0.00021863,0.00007160,-0.00212053,0.00256853,0.00015461,-0.00000367,0.
 00007732,0.00000008,0.00031166,0.00014766,-0.00002256,0.11158129,-0.29
 235063,-0.00828025,0.00013829,0.00016508,-0.00000971,0.00026088,-0.000
 21768,-0.00001930,-0.00001440,0.00005474,0.00000071,0.00027650,-0.0001
 7723,-0.00001949,-0.11779057,0.31397155,0.00061373,0.00043426,0.007486
 56,-0.00145083,0.00136046,-0.00785116,0.00074241,-0.00001585,0.0040191
 3,0.00009130,-0.00164353,0.00069784,-0.00004391,-0.00011494,0.00040514
 ,-0.00016873,0.00000530,-0.00110231,0.00621047,-0.00885716,-0.02912626
 ,-0.00002513,0.00001246,-0.00036304,0.00001077,0.00000104,-0.00004782,
 0.00005193,-0.00001689,0.00028795,0.00002212,0.00003697,0.00005264,-0.
 00612847,0.00874840,0.02357927,-0.00063473,0.00128481,0.00013984,-0.00
 070034,-0.00045355,-0.00003099,-0.00252156,-0.00372016,0.00074442,-0.0
 0009171,-0.00046928,-0.00004990,-0.01897532,0.01470236,0.00167280,0.00
 151632,-0.00061259,0.00028487,0.00038509,0.00015504,-0.00004017,-0.267
 41776,0.11908192,0.01685700,0.00379854,-0.00267890,-0.00005715,0.00111
 865,-0.00005616,-0.00044458,0.00005663,-0.00016221,0.00000053,-0.00004
 250,0.00002122,0.00000477,0.28284561,-0.00024402,0.00100074,0.00001788
 ,-0.00024690,-0.00008265,0.00001880,-0.00364014,-0.00129454,0.00025453
 ,-0.00097215,-0.00045580,0.00007056,-0.01567419,0.01093385,0.00114470,
 -0.00123668,-0.00544444,0.00007891,0.00015018,0.00012248,-0.00001085,0
 .11983987,-0.12634823,-0.00876235,0.02801815,-0.01073078,-0.00204073,0
 .00060450,0.00088789,-0.00003419,0.00131538,-0.00067938,-0.00009599,-0
 .00000148,0.00000415,0.00000010,-0.12752312,0.13091347,0.00013736,-0.0
 0009453,0.00124382,-0.00003036,0.00003422,-0.00110730,0.00074265,0.000
 26304,0.00771862,-0.00005044,0.00003567,-0.00077235,0.00163478,-0.0010
 5521,0.00377660,0.00028228,0.00003416,0.00542110,-0.00004032,-0.000010
 91,-0.00017410,0.01686282,-0.00870918,-0.03801389,-0.00002867,0.000180
 13,0.00306011,-0.00043647,0.00000929,-0.00498804,0.00000183,0.00001113
 ,0.00006604,0.00000470,-0.00000152,0.00002426,-0.01880050,0.00932927,0
 .02689746,0.00023000,-0.00023807,-0.00002621,-0.00103342,0.00010094,-0
 .00001353,0.00019500,0.00058964,-0.00005511,-0.00271512,0.00395418,0.0
 0078292,0.00137832,0.00052186,0.00027713,-0.01903955,-0.01451901,0.001
 57919,0.00016084,-0.00107172,0.00007639,0.00336682,0.00274029,-0.00010
 116,-0.27248412,-0.11659318,0.01715634,0.00004174,0.00015231,0.0000199
 5,0.00107923,0.00009375,-0.00043918,-0.00010570,0.00003349,0.00000815,
 0.00068376,-0.00038743,-0.00028647,0.28825446,-0.00011929,0.00005028,0
 .00000967,0.00025795,0.00025198,-0.00001715,0.00102857,-0.00063664,-0.
 00007437,0.00344297,-0.00137369,-0.00025780,0.00120590,-0.00523241,-0.
 00009692,0.01645529,0.01117540,-0.00118582,0.00007046,0.00059960,-0.00
 000576,-0.02841925,-0.01094327,0.00204813,-0.11698120,-0.12109485,0.00
 838102,-0.00132188,-0.00062265,0.00009487,-0.00062657,0.00088954,0.000
 04773,0.00001504,-0.00000522,-0.00000111,0.00037202,0.00119067,-0.0000
 2138,0.12457955,0.12573668,-0.00002849,0.00001625,-0.00013507,-0.00001
 237,-0.00000673,-0.00120443,-0.00005347,-0.00004379,-0.00057719,0.0007
 8273,-0.00029662,0.00796376,0.00027512,-0.00004900,0.00516675,0.001603
 99,0.00105638,0.00279601,0.00007684,0.00007782,0.00121037,-0.00012909,
 -0.00020499,0.00198359,0.01715873,0.00835793,-0.03574941,0.00001830,-0
 .00001216,0.00031453,-0.00043544,-0.00000202,-0.00494300,0.00000812,-0
 .00000243,0.00000733,-0.00028667,0.00002967,-0.00322334,-0.01898049,-0
 .00891762,0.02637092,-0.13402232,-0.14764444,0.00986027,0.01634290,0.0
 2415251,-0.00205624,0.00126400,-0.02672044,-0.00066710,-0.00680533,-0.
 00031529,0.00073576,0.00134036,0.00009249,-0.00017327,0.00121695,-0.00
 165372,-0.00001080,-0.00379612,0.00667375,0.00055622,-0.00012909,-0.00
 034159,0.00001395,-0.00005346,0.00035443,-0.00002180,-0.00063428,0.000
 80889,0.00004716,-0.00043849,-0.00017102,0.00005133,0.00110432,0.00099
 417,0.00006144,-0.00002068,-0.00000198,0.00000681,-0.00001225,0.000040
 46,0.00000220,0.12464350,-0.13897702,-0.39970786,0.00984925,-0.0093658
 6,-0.02028600,0.00067715,-0.00122560,0.00336581,0.00014067,-0.00074351
 ,0.00201152,0.00005391,0.00103028,0.00076767,-0.00004146,0.00072225,-0
 .00011248,-0.00005244,0.00600219,-0.00078015,-0.00043355,-0.00046554,-
 0.00115376,0.00003085,-0.00014762,0.00099526,0.00001123,0.00002838,-0.
 00062454,-0.00002801,0.00003805,0.00014650,-0.00000286,-0.00072981,-0.
 00036317,0.00005050,0.00005860,-0.00001742,-0.00000417,0.00004341,0.00
 001457,-0.00000270,0.14373178,0.41574408,0.00986504,0.01049452,0.00138
 595,-0.00206482,-0.00178194,-0.01207497,-0.00067454,0.00197214,-0.0075
 8124,0.00072436,0.00002815,0.00328716,-0.00013365,0.00002401,-0.000873
 73,-0.00000762,0.00011579,0.00109870,0.00056413,-0.00048813,0.00374817
 ,0.00001286,0.00002229,0.00004353,-0.00002244,-0.00002451,-0.00035406,
 0.00002486,-0.00004653,-0.00021238,0.00005111,0.00001165,0.00027100,0.
 00005885,-0.00007526,0.00193047,0.00000572,-0.00000031,0.00007102,0.00
 000208,-0.00000349,0.00001918,-0.00840594,-0.01024837,0.00924121\\0.00
 000633,0.00005486,-0.00000384,0.00003398,0.00002829,-0.00000580,-0.000
 00913,0.00000397,0.00000023,-0.00000081,-0.00000497,-0.00000013,-0.000
 00393,0.00000373,0.00000042,-0.00000045,-0.00000320,0.00000143,-0.0000
 1800,-0.00005258,-0.00000002,-0.00000115,0.00000277,0.00000194,0.00000
 186,-0.00001079,0.00000232,-0.00000013,-0.00000146,-0.00000011,0.00000
 288,-0.00000133,0.00000048,-0.00000452,-0.00000227,-0.00000019,-0.0000
 0051,-0.00000205,0.00000124,0.00000140,-0.00000129,0.00000141,-0.00000
 781,-0.00001366,0.00000062\\\@
 The archive entry for this job was punched.


 THE CHYMISTS ARE A STRANGE CLASS OF MORTALS IMPELLED
 BY AN ALMOST INSANE IMPULSE TO SEEK THEIR PLEASURE
 AMONG SMOKE AND VAPOR, SOOT AND FLAME, POISONS AND
 POVERTY; YET AMONG ALL THESE EVILS I SEEM TO LIVE
 SO SWEETLY, THAT I MAY DIE IF I WOULD CHANGE PLACES
 WITH THE PERSIAN KING.
   --  JOHANN JOACHIM BECHER, 1635-1682
 ACTA LABORATORII CHYMICA MONACENSIS, 1669
 Job cpu time:       0 days  0 hours 33 minutes 49.4 seconds.
 Elapsed time:       0 days  0 hours 17 minutes 47.0 seconds.
 File lengths (MBytes):  RWF=    125 Int=      0 D2E=      0 Chk=     18 Scr=      1
 Normal termination of Gaussian 16 at Fri Jun  2 11:46:32 2023.
