 Entering Gaussian System, Link 0=g16
 Input=tetrazolide-H_dissociation-site_index-3-freq.gjf
 Output=tetrazolide-H_dissociation-site_index-3-freq.log
 Initial command:
 /software/commercial/gaussian/g16/AVX/g16/l1.exe "/scratch1/svicchi/G09-659839.pbs02/Gau-1035875.inp" -scrdir="/scratch1/svicchi/G09-659839.pbs02/"
 Entering Link 1 = /software/commercial/gaussian/g16/AVX/g16/l1.exe PID=   1035876.
  
 Copyright (c) 1988-2019, Gaussian, Inc.  All Rights Reserved.
  
 This is part of the Gaussian(R) 16 program.  It is based on
 the Gaussian(R) 09 system (copyright 2009, Gaussian, Inc.),
 the Gaussian(R) 03 system (copyright 2003, Gaussian, Inc.),
 the Gaussian(R) 98 system (copyright 1998, Gaussian, Inc.),
 the Gaussian(R) 94 system (copyright 1995, Gaussian, Inc.),
 the Gaussian 92(TM) system (copyright 1992, Gaussian, Inc.),
 the Gaussian 90(TM) system (copyright 1990, Gaussian, Inc.),
 the Gaussian 88(TM) system (copyright 1988, Gaussian, Inc.),
 the Gaussian 86(TM) system (copyright 1986, Carnegie Mellon
 University), and the Gaussian 82(TM) system (copyright 1983,
 Carnegie Mellon University). Gaussian is a federally registered
 trademark of Gaussian, Inc.
  
 This software contains proprietary and confidential information,
 including trade secrets, belonging to Gaussian, Inc.
  
 This software is provided under written license and may be
 used, copied, transmitted, or stored only in accord with that
 written license.
  
 The following legend is applicable only to US Government
 contracts under FAR:
  
                    RESTRICTED RIGHTS LEGEND
  
 Use, reproduction and disclosure by the US Government is
 subject to restrictions as set forth in subparagraphs (a)
 and (c) of the Commercial Computer Software - Restricted
 Rights clause in FAR 52.227-19.
  
 Gaussian, Inc.
 340 Quinnipiac St., Bldg. 40, Wallingford CT 06492
  
  
 ---------------------------------------------------------------
 Warning -- This program may not be used in any manner that
 competes with the business of Gaussian, Inc. or will provide
 assistance to any competitor of Gaussian, Inc.  The licensee
 of this program is prohibited from giving any competitor of
 Gaussian, Inc. access to this program.  By using this program,
 the user acknowledges that Gaussian, Inc. is engaged in the
 business of creating and licensing software in the field of
 computational chemistry and represents and warrants to the
 licensee that it is not a competitor of Gaussian, Inc. and that
 it will not use this program in any manner prohibited above.
 ---------------------------------------------------------------
  

 Cite this work as:
 Gaussian 16, Revision C.01,
 M. J. Frisch, G. W. Trucks, H. B. Schlegel, G. E. Scuseria, 
 M. A. Robb, J. R. Cheeseman, G. Scalmani, V. Barone, 
 G. A. Petersson, H. Nakatsuji, X. Li, M. Caricato, A. V. Marenich, 
 J. Bloino, B. G. Janesko, R. Gomperts, B. Mennucci, H. P. Hratchian, 
 J. V. Ortiz, A. F. Izmaylov, J. L. Sonnenberg, D. Williams-Young, 
 F. Ding, F. Lipparini, F. Egidi, J. Goings, B. Peng, A. Petrone, 
 T. Henderson, D. Ranasinghe, V. G. Zakrzewski, J. Gao, N. Rega, 
 G. Zheng, W. Liang, M. Hada, M. Ehara, K. Toyota, R. Fukuda, 
 J. Hasegawa, M. Ishida, T. Nakajima, Y. Honda, O. Kitao, H. Nakai, 
 T. Vreven, K. Throssell, J. A. Montgomery, Jr., J. E. Peralta, 
 F. Ogliaro, M. J. Bearpark, J. J. Heyd, E. N. Brothers, K. N. Kudin, 
 V. N. Staroverov, T. A. Keith, R. Kobayashi, J. Normand, 
 K. Raghavachari, A. P. Rendell, J. C. Burant, S. S. Iyengar, 
 J. Tomasi, M. Cossi, J. M. Millam, M. Klene, C. Adamo, R. Cammi, 
 J. W. Ochterski, R. L. Martin, K. Morokuma, O. Farkas, 
 J. B. Foresman, and D. J. Fox, Gaussian, Inc., Wallingford CT, 2019.
 
 ******************************************
 Gaussian 16:  ES64L-G16RevC.01  3-Jul-2019
                 2-Jun-2023 
 ******************************************
 %NProcShared=2
 Will use up to    2 processors via shared memory.
 %mem=55gb
 %chk=/scratch1/svicchi/G09-659839.pbs02/02-freq/tetrazolide-H_dissociation-site_
 index-3-freq.chk
 ----------------------------------------------------------------------
 #p freq=raman scale=0.967 pop=(nbo,full,hirshfeld) guess=read geom=all
 check b3lyp/6-311+G(d,p) int=grid=ultrafine EmpiricalDispersion=GD3BJ 
 SCRF=(Solvent=ethanol) scf=(xqc,intrep,maxconventionalcycle=350) nosym
 m
 ----------------------------------------------------------------------
 1/10=4,29=7,30=1,38=1,114=967000/1,3;
 2/12=2,15=1,40=1/2;
 3/5=4,6=6,7=111,11=2,14=-4,25=1,30=1,70=2201,71=2,72=4,74=-5,75=-5,116=-2,124=41,140=1/1,2,3;
 4/5=1/1;
 5/5=2,8=3,13=1,17=20,38=6,53=4,85=350,98=1/2,8;
 8/6=4,10=90,11=11/1;
 10/13=10,15=4,31=1/2;
 11/6=3,8=1,9=11,15=111,16=1,31=1/1,2,10;
 10/6=1,31=1/2;
 6/7=3,28=1,40=1,79=1/1,7;
 7/8=1,10=1,25=1,30=1/1,2,3,16;
 1/10=4,30=1/3;
 99//99;
 Leave Link    1 at Fri Jun  2 11:05:57 2023, MaxMem=  7381975040 cpu:               1.3 elap:               1.6
 (Enter /software/commercial/gaussian/g16/AVX/g16/l101.exe)
 Structure from the checkpoint file:  "/scratch1/svicchi/G09-659839.pbs02/02-freq/tetrazolide-H_dissociation-site_index-3-freq.chk"
 -------------------------------------------
 tetrazolide-H_dissociation-site_index-3.gjf
 -------------------------------------------
 Charge =  0 Multiplicity = 1
 No Z-Matrix found in chk file; cartesian coordinates used.
  N                                                 0.035357771455      1.055296704444     -0.002078391272
  N                                                 1.139399592233      0.391004088128     -0.001264250375
  N                                                -1.091522730946      0.317369975692     -0.001114907026
  N                                                 0.686052420308     -0.856837996935      0.000317815282
  C                                                -0.689977368681     -0.973891436469      0.000504065977
  H                                                 0.041290512594      2.069958874639     -0.003348163852
  H                                                 1.367935803038     -1.604156209500      0.001232831264
 Recover connectivity data from disk.
 ITRead=  0  0  0  0  0  0  0
 MicOpt= -1 -1 -1 -1 -1 -1 -1
 NAtoms=      7 NQM=        7 NQMF=       0 NMMI=      0 NMMIF=      0
                NMic=       0 NMicF=      0.
                    Isotopes and Nuclear Properties:
 (Nuclear quadrupole moments (NQMom) in fm**2, nuclear magnetic moments (NMagM)
  in nuclear magnetons)

  Atom         1           2           3           4           5           6           7
 IAtWgt=          14          14          14          14          12           1           1
 AtmWgt=  14.0030740  14.0030740  14.0030740  14.0030740  12.0000000   1.0078250   1.0078250
 NucSpn=           2           2           2           2           0           1           1
 AtZEff=   4.5500000   4.5500000   4.5500000   4.5500000   3.6000000   1.0000000   1.0000000
 NQMom=    2.0440000   2.0440000   2.0440000   2.0440000   0.0000000   0.0000000   0.0000000
 NMagM=    0.4037610   0.4037610   0.4037610   0.4037610   0.0000000   2.7928460   2.7928460
 AtZNuc=   7.0000000   7.0000000   7.0000000   7.0000000   6.0000000   1.0000000   1.0000000
 Leave Link  101 at Fri Jun  2 11:05:59 2023, MaxMem=  7381975040 cpu:               0.4 elap:               0.8
 (Enter /software/commercial/gaussian/g16/AVX/g16/l103.exe)

 GradGradGradGradGradGradGradGradGradGradGradGradGradGradGradGradGradGrad
 Berny optimization.
 Initialization pass.
 Trust Radius=3.00D-01 FncErr=1.00D-07 GrdErr=1.00D-07 EigMax=2.50D+02 EigMin=1.00D-04
 Number of steps in this run=      2 maximum allowed number of steps=      2.
 GradGradGradGradGradGradGradGradGradGradGradGradGradGradGradGradGradGrad

 Leave Link  103 at Fri Jun  2 11:06:01 2023, MaxMem=  7381975040 cpu:               0.1 elap:               0.8
 (Enter /software/commercial/gaussian/g16/AVX/g16/l202.exe)
                          Input orientation:                          
 ---------------------------------------------------------------------
 Center     Atomic      Atomic             Coordinates (Angstroms)
 Number     Number       Type             X           Y           Z
 ---------------------------------------------------------------------
      1          7           0        0.035358    1.055297   -0.002078
      2          7           0        1.139400    0.391004   -0.001264
      3          7           0       -1.091523    0.317370   -0.001115
      4          7           0        0.686052   -0.856838    0.000318
      5          6           0       -0.689977   -0.973891    0.000504
      6          1           0        0.041291    2.069959   -0.003348
      7          1           0        1.367936   -1.604156    0.001233
 ---------------------------------------------------------------------
                    Distance matrix (angstroms):
                    1          2          3          4          5
     1  N    0.000000
     2  N    1.288485   0.000000
     3  N    1.346995   2.232137   0.000000
     4  N    2.019819   1.327643   2.130385   0.000000
     5  C    2.154930   2.282447   1.352256   1.380999   0.000000
     6  H    1.014680   2.006175   2.086825   2.996977   3.130462
     7  H    2.974637   2.008208   3.121090   1.011657   2.152264
                    6          7
     6  H    0.000000
     7  H    3.906294   0.000000
 Symmetry turned off by external request.
 Stoichiometry    CH2N4
 Framework group  C1[X(CH2N4)]
 Deg. of freedom    15
 Full point group                 C1      NOp   1
 Rotational constants (GHZ):          10.6339676          10.3103972           5.2348415
 Leave Link  202 at Fri Jun  2 11:06:02 2023, MaxMem=  7381975040 cpu:               0.0 elap:               0.4
 (Enter /software/commercial/gaussian/g16/AVX/g16/l301.exe)
 Standard basis: 6-311+G(d,p) (5D, 7F)
 Ernie: Thresh=  0.10000D-02 Tol=  0.10000D-05 Strict=F.
   122 basis functions,   196 primitive gaussians,   127 cartesian basis functions
    18 alpha electrons       18 beta electrons
       nuclear repulsion energy       167.1824660473 Hartrees.
 IExCor=  402 DFT=T Ex+Corr=B3LYP ExCW=0 ScaHFX=  0.200000
 ScaDFX=  0.800000  0.720000  1.000000  0.810000 ScalE2=  1.000000  1.000000
 IRadAn=      5 IRanWt=     -1 IRanGd=            0 ICorTp=0 IEmpDi=141
 NAtoms=    7 NActive=    7 NUniq=    7 SFac= 1.00D+00 NAtFMM=   60 NAOKFM=F Big=F
 Integral buffers will be    131072 words long.
 Raffenetti 2 integral format.
 Two-electron integral symmetry is turned off.
 R6Disp:  Grimme-D3(BJ) Dispersion energy=       -0.0086379547 Hartrees.
 Nuclear repulsion after empirical dispersion term =      167.1738280926 Hartrees.
 Force inversion solution in PCM.
 ------------------------------------------------------------------------------
 Polarizable Continuum Model (PCM)
 =================================
 Model                : PCM.
 Atomic radii         : UFF (Universal Force Field).
 Polarization charges : Total charges.
 Charge compensation  : None.
 Solution method      : Matrix inversion.
 Cavity type          : Scaled VdW (van der Waals Surface) (Alpha=1.100).
 Cavity algorithm     : GePol (No added spheres)
                        Default sphere list used, NSphG=    7.
                        Lebedev-Laikov grids with approx.  5.0 points / Ang**2.
                        Smoothing algorithm: York/Karplus (Gamma=1.0000).
                        Polarization charges: spherical gaussians, with
                                              point-specific exponents (IZeta= 3).
                        Self-potential: point-specific (ISelfS= 7).
                        Self-field    : sphere-specific E.n sum rule (ISelfD= 2).
 1st derivatives      : Analytical E(r).r(x)/FMM algorithm (CHGder, D1EAlg=3).
                        Cavity 1st derivative terms included.
 2nd derivatives      : Analytical E(r).r(xy)/FMM algorithm (CHGder, D2EAlg=3).
                        Cavity 2nd derivative terms included.
 Solvent              : Ethanol, Eps=  24.852000 Eps(inf)=   1.852593
 ------------------------------------------------------------------------------
 Spheres list:
 ISph  on   Nord     Re0    Alpha      Xe            Ye            Ze
    1   N      1    1.8300  1.100      0.035358      1.055297     -0.002078
    2   N      2    1.8300  1.100      1.139400      0.391004     -0.001264
    3   N      3    1.8300  1.100     -1.091523      0.317370     -0.001115
    4   N      4    1.8300  1.100      0.686052     -0.856838      0.000318
    5   C      5    1.9255  1.100     -0.689977     -0.973891      0.000504
    6   H      6    1.4430  1.100      0.041291      2.069959     -0.003348
    7   H      7    1.4430  1.100      1.367936     -1.604156      0.001233
 ------------------------------------------------------------------------------
 GePol: Number of generator spheres                  =       7
 GePol: Total number of spheres                      =       7
 GePol: Number of exposed spheres                    =       7 (100.00%)
 GePol: Number of points                             =     800
 GePol: Average weight of points                     =       0.14
 GePol: Minimum weight of points                     =   0.38D-11
 GePol: Maximum weight of points                     =    0.20577
 GePol: Number of points with low weight             =      56
 GePol: Fraction of low-weight points (<1% of avg)   =       7.00%
 GePol: Cavity surface area                          =    109.252 Ang**2
 GePol: Cavity volume                                =     96.024 Ang**3
 Leave Link  301 at Fri Jun  2 11:06:05 2023, MaxMem=  7381975040 cpu:               1.5 elap:               2.0
 (Enter /software/commercial/gaussian/g16/AVX/g16/l302.exe)
 NPDir=0 NMtPBC=     1 NCelOv=     1 NCel=       1 NClECP=     1 NCelD=      1
         NCelK=      1 NCelE2=     1 NClLst=     1 CellRange=     0.0.
 One-electron integrals computed using PRISM.
 NBasis=   122 RedAO= T EigKep=  6.59D-05  NBF=   122
 NBsUse=   122 1.00D-06 EigRej= -1.00D+00 NBFU=   122
 Precomputing XC quadrature grid using
 IXCGrd= 4 IRadAn=           5 IRanWt=          -1 IRanGd=           0 AccXCQ= 0.00D+00.
 Generated NRdTot=       0 NPtTot=           0 NUsed=           0 NTot=          32
 NSgBfM=   127   127   127   127   127 MxSgAt=     7 MxSgA2=     7.
 Leave Link  302 at Fri Jun  2 11:06:07 2023, MaxMem=  7381975040 cpu:               0.7 elap:               1.2
 (Enter /software/commercial/gaussian/g16/AVX/g16/l303.exe)
 DipDrv:  MaxL=1.
 Leave Link  303 at Fri Jun  2 11:06:10 2023, MaxMem=  7381975040 cpu:               0.3 elap:               0.9
 (Enter /software/commercial/gaussian/g16/AVX/g16/l401.exe)
 Initial guess from the checkpoint file:  "/scratch1/svicchi/G09-659839.pbs02/02-freq/tetrazolide-H_dissociation-site_index-3-freq.chk"
 B after Tr=     0.000000    0.000000    0.000000
         Rot=    1.000000    0.000000    0.000000    0.000000 Ang=   0.00 deg.
 Guess basis will be translated and rotated to current coordinates.
 JPrj=2 DoOrth=T DoCkMO=T.
 Leave Link  401 at Fri Jun  2 11:06:12 2023, MaxMem=  7381975040 cpu:               0.6 elap:               0.9
 (Enter /software/commercial/gaussian/g16/AVX/g16/l502.exe)
 Keep R1 ints in memory in canonical form, NReq=30055015.
 FoFCou: FMM=F IPFlag=           0 FMFlag=           0 FMFlg1=           0
         NFxFlg=           0 DoJE=F BraDBF=F KetDBF=F FulRan=T
         wScrn=  0.000000 ICntrl=       600 IOpCl=  0 I1Cent=           0 NGrid=           0
         NMat0=    1 NMatS0=   7503 NMatT0=    0 NMatD0=    1 NMtDS0=    0 NMtDT0=    0
 Symmetry not used in FoFCou.
 Two-electron integral symmetry not used.
 Closed shell SCF:
 Using DIIS extrapolation, IDIIS=  1040.
 NGot=  7381975040 LenX=  7353789599 LenY=  7353773029
 Requested convergence on RMS density matrix=1.00D-08 within 350 cycles.
 Requested convergence on MAX density matrix=1.00D-06.
 Requested convergence on             energy=1.00D-06.
 No special actions if energy rises.

 Cycle   1  Pass 1  IDiag  1:
 Inv3:  Mode=1 IEnd=     1920000.
 Iteration    1 A*A^-1 deviation from unit magnitude is 4.44D-15 for    784.
 Iteration    1 A*A^-1 deviation from orthogonality  is 1.03D-15 for    614    253.
 Iteration    1 A^-1*A deviation from unit magnitude is 4.00D-15 for    784.
 Iteration    1 A^-1*A deviation from orthogonality  is 7.83D-16 for    799    739.
 E= -258.288766513589    
 DIIS: error= 3.38D-08 at cycle   1 NSaved=   1.
 NSaved= 1 IEnMin= 1 EnMin= -258.288766513589     IErMin= 1 ErrMin= 3.38D-08
 ErrMax= 3.38D-08  0.00D+00 EMaxC= 1.00D-01 BMatC= 7.30D-14 BMatP= 7.30D-14
 IDIUse=1 WtCom= 1.00D+00 WtEn= 0.00D+00
 Coeff-Com:  0.100D+01
 Coeff:      0.100D+01
 Gap=     0.186 Goal=   None    Shift=    0.000
 RMSDP=5.02D-09 MaxDP=1.22D-07              OVMax= 2.49D-07

 Error on total polarization charges =  0.01320
 SCF Done:  E(RB3LYP) =  -258.288766514     A.U. after    1 cycles
            NFock=  1  Conv=0.50D-08     -V/T= 2.0036
 KE= 2.573613125741D+02 PE=-9.369625876695D+02 EE= 2.541386804892D+02
 Leave Link  502 at Fri Jun  2 11:06:18 2023, MaxMem=  7381975040 cpu:               8.1 elap:               5.7
 (Enter /software/commercial/gaussian/g16/AVX/g16/l508.exe)
 QCSCF skips out because SCF is already converged.
 Leave Link  508 at Fri Jun  2 11:06:20 2023, MaxMem=  7381975040 cpu:               0.0 elap:               0.5
 (Enter /software/commercial/gaussian/g16/AVX/g16/l801.exe)
 DoSCS=F DFT=T ScalE2(SS,OS)=  1.000000  1.000000
 Range of M.O.s used for correlation:     1   122
 NBasis=   122 NAE=    18 NBE=    18 NFC=     0 NFV=     0
 NROrb=    122 NOA=    18 NOB=    18 NVA=   104 NVB=   104

 **** Warning!!: The largest alpha MO coefficient is  0.48067984D+02

 Leave Link  801 at Fri Jun  2 11:06:22 2023, MaxMem=  7381975040 cpu:               0.2 elap:               0.8
 (Enter /software/commercial/gaussian/g16/AVX/g16/l1002.exe)
 Minotr:  Closed shell wavefunction.
 NEqPCM:  Using equilibrium solvation (IEInf=0, Eps=  24.8520, EpsInf=   1.8526)
          Direct CPHF calculation.
          Differentiating once with respect to electric field.
                with respect to dipole field.
          Electric field/nuclear overlap derivatives assumed to be zero.
          Requested convergence is 1.0D-08 RMS, and 1.0D-07 maximum.
          Secondary convergence is 1.0D-12 RMS, and 1.0D-12 maximum.
          NewPWx=F KeepS1=T KeepF1=T KeepIn=T MapXYZ=F SortEE=F KeepMc=T.
         2129 words used for storage of precomputed grid.
 Keep R1 ints in memory in canonical form, NReq=31095195.
 FoFCou: FMM=F IPFlag=           0 FMFlag=           0 FMFlg1=           0
         NFxFlg=           0 DoJE=F BraDBF=F KetDBF=F FulRan=T
         wScrn=  0.000000 ICntrl=       600 IOpCl=  0 I1Cent=           0 NGrid=           0
         NMat0=    1 NMatS0=   7503 NMatT0=    0 NMatD0=    1 NMtDS0=    0 NMtDT0=    0
 Symmetry not used in FoFCou.
 Two-electron integral symmetry not used.
          MDV=    7381975040 using IRadAn=       1.
          Solving linear equations simultaneously, MaxMat=       0.
          There are     3 degrees of freedom in the 1st order CPHF.  IDoFFX=0 NUNeed=     3.
      3 vectors produced by pass  0 Test12= 6.24D-14 3.33D-08 XBig12= 5.68D+01 5.55D+00.
 AX will form     3 AO Fock derivatives at one time.
      3 vectors produced by pass  1 Test12= 6.24D-14 3.33D-08 XBig12= 4.56D+01 2.03D+00.
      3 vectors produced by pass  2 Test12= 6.24D-14 3.33D-08 XBig12= 3.06D+00 4.93D-01.
      3 vectors produced by pass  3 Test12= 6.24D-14 3.33D-08 XBig12= 1.19D+00 2.95D-01.
      3 vectors produced by pass  4 Test12= 6.24D-14 3.33D-08 XBig12= 7.46D-02 1.16D-01.
      3 vectors produced by pass  5 Test12= 6.24D-14 3.33D-08 XBig12= 9.89D-03 2.13D-02.
      3 vectors produced by pass  6 Test12= 6.24D-14 3.33D-08 XBig12= 1.14D-03 9.10D-03.
      3 vectors produced by pass  7 Test12= 6.24D-14 3.33D-08 XBig12= 5.81D-05 2.31D-03.
      3 vectors produced by pass  8 Test12= 6.24D-14 3.33D-08 XBig12= 1.29D-06 2.59D-04.
      3 vectors produced by pass  9 Test12= 6.24D-14 3.33D-08 XBig12= 1.83D-08 3.30D-05.
      2 vectors produced by pass 10 Test12= 6.24D-14 3.33D-08 XBig12= 6.23D-10 7.14D-06.
      2 vectors produced by pass 11 Test12= 6.24D-14 3.33D-08 XBig12= 7.35D-12 5.91D-07.
      1 vectors produced by pass 12 Test12= 6.24D-14 3.33D-08 XBig12= 5.93D-14 6.44D-08.
 InvSVY:  IOpt=1 It=  1 EMax= 3.55D-15
 Solved reduced A of dimension    35 with     3 vectors.
 End of Minotr F.D. properties file   721 does not exist.
 End of Minotr F.D. properties file   722 does not exist.
 End of Minotr F.D. properties file   788 does not exist.
 Leave Link 1002 at Fri Jun  2 11:06:50 2023, MaxMem=  7381975040 cpu:              43.9 elap:              27.5
 (Enter /software/commercial/gaussian/g16/AVX/g16/l1101.exe)
 Using compressed storage, NAtomX=     7.
 Will process      8 centers per pass.
 R6Disp: Adding Grimme-D3(BJ) dispersion energy 1st derivatives to the gradient.
 Leave Link 1101 at Fri Jun  2 11:06:52 2023, MaxMem=  7381975040 cpu:               0.4 elap:               0.7
 (Enter /software/commercial/gaussian/g16/AVX/g16/l1102.exe)
 Symmetrizing basis deriv contribution to polar:
 IMax=3 JMax=2 DiffMx= 0.00D+00
 Leave Link 1102 at Fri Jun  2 11:06:54 2023, MaxMem=  7381975040 cpu:               0.5 elap:               1.2
 (Enter /software/commercial/gaussian/g16/AVX/g16/l1110.exe)
 Forming Gx(P) for the SCF density, NAtomX=     7.
 Integral derivatives from FoFJK, PRISM(SPDF).
 Do as many integral derivatives as possible in FoFJK.
 G2DrvN: MDV=    7381974197.
 G2DrvN: will do     8 centers at a time, making    1 passes.
 PxScal for G2LodP:  IOpCl= 0 ISclPx=1 IMOff=     1 NMtTot=     4 NTT=    7503 ScalPx= 6.46D+00
 Calling FoFCou, ICntrl=  3107 FMM=F I1Cent=   0 AccDes= 0.00D+00.
 FoFJK:  IHMeth= 1 ICntrl=    3107 DoSepK=F KAlg= 0 I1Cent=           0 FoldK=F
 IRaf=         0 NMat=       1 IRICut=       1 DoRegI=T DoRafI=F ISym2E= 0 IDoP0=0 IntGTp=1.
 FoFCou: FMM=F IPFlag=           0 FMFlag=      100000 FMFlg1=           0
         NFxFlg=           0 DoJE=F BraDBF=F KetDBF=F FulRan=T
         wScrn=  0.000000 ICntrl=      3107 IOpCl=  0 I1Cent=           0 NGrid=           0
         NMat0=    1 NMatS0=      1 NMatT0=    0 NMatD0=    4 NMtDS0=    3 NMtDT0=    0
 Symmetry not used in FoFCou.
 PxScal for G2LodP:  IOpCl= 0 ISclPx=0 IMOff=     1 NMtTot=     4 NTT=    7503 ScalPx= 1.00D+00
 NEqPCM:  Using equilibrium solvation (IEInf=0, Eps=  24.8520, EpsInf=   1.8526)
 G2PCM: DoFxE=T DoFxN=T DoGrad=T DoDP/DQ/DG/TGxP=TFFF NFrqRd=   0 IEInf=0 SqF1=F DoCFld=F IF1Alg=4.
 GePol: Maximum number of non-zero 1st derivatives   =     211
 End of G2Drv F.D. properties file   721 does not exist.
 End of G2Drv F.D. properties file   722 does not exist.
 End of G2Drv F.D. properties file   788 does not exist.
 Leave Link 1110 at Fri Jun  2 11:07:44 2023, MaxMem=  7381975040 cpu:              92.0 elap:              47.9
 (Enter /software/commercial/gaussian/g16/AVX/g16/l1002.exe)
 Minotr:  Closed shell wavefunction.
          IDoAtm=1111111
 NEqPCM:  Using equilibrium solvation (IEInf=0, Eps=  24.8520, EpsInf=   1.8526)
          Direct CPHF calculation.
          Differentiating once with respect to electric field.
                with respect to dipole field.
          Differentiating once with respect to nuclear coordinates.
          Requested convergence is 1.0D-08 RMS, and 1.0D-07 maximum.
          Secondary convergence is 1.0D-12 RMS, and 1.0D-12 maximum.
          NewPWx=T KeepS1=F KeepF1=F KeepIn=T MapXYZ=F SortEE=F KeepMc=T.
         2129 words used for storage of precomputed grid.
 Keep R1 ints in memory in canonical form, NReq=31095356.
 FoFCou: FMM=F IPFlag=           0 FMFlag=           0 FMFlg1=           0
         NFxFlg=           0 DoJE=F BraDBF=F KetDBF=F FulRan=T
         wScrn=  0.000000 ICntrl=       600 IOpCl=  0 I1Cent=           0 NGrid=           0
         NMat0=    1 NMatS0=   7503 NMatT0=    0 NMatD0=    1 NMtDS0=    0 NMtDT0=    0
 Symmetry not used in FoFCou.
 Two-electron integral symmetry not used.
          MDV=    7381975040 using IRadAn=       1.
          Solving linear equations simultaneously, MaxMat=       0.
          There are    24 degrees of freedom in the 1st order CPHF.  IDoFFX=5 NUNeed=    24.
 Will reuse    3 saved solutions.
     18 vectors produced by pass  0 Test12= 7.80D-15 4.17D-09 XBig12= 1.96D-01 1.33D-01.
 AX will form    18 AO Fock derivatives at one time.
     18 vectors produced by pass  1 Test12= 7.80D-15 4.17D-09 XBig12= 6.86D-02 1.50D-01.
     18 vectors produced by pass  2 Test12= 7.80D-15 4.17D-09 XBig12= 1.27D-03 7.15D-03.
     18 vectors produced by pass  3 Test12= 7.80D-15 4.17D-09 XBig12= 2.53D-05 1.22D-03.
     18 vectors produced by pass  4 Test12= 7.80D-15 4.17D-09 XBig12= 1.01D-07 7.15D-05.
     18 vectors produced by pass  5 Test12= 7.80D-15 4.17D-09 XBig12= 2.64D-10 3.93D-06.
     11 vectors produced by pass  6 Test12= 7.80D-15 4.17D-09 XBig12= 4.59D-13 1.66D-07.
      1 vectors produced by pass  7 Test12= 7.80D-15 4.17D-09 XBig12= 6.89D-16 5.92D-09.
 InvSVY:  IOpt=1 It=  1 EMax= 1.11D-15
 Solved reduced A of dimension   120 with    18 vectors.
 FullF1:  Do perturbations      1 to       3.
 Isotropic polarizability for W=    0.000000       52.84 Bohr**3.
 FullF1:  Do perturbations      1 to       6.
 End of Minotr F.D. properties file   721 does not exist.
 End of Minotr F.D. properties file   722 does not exist.
 End of Minotr F.D. properties file   788 does not exist.
 Leave Link 1002 at Fri Jun  2 11:08:39 2023, MaxMem=  7381975040 cpu:              84.5 elap:              53.2
 (Enter /software/commercial/gaussian/g16/AVX/g16/l601.exe)
 Copying SCF densities to generalized density rwf, IOpCl= 0 IROHF=0.

 **********************************************************************

            Population analysis using the SCF Density.

 **********************************************************************

 Alpha  occ. eigenvalues --  -14.46909 -14.43546 -14.42788 -14.36746 -10.21305
 Alpha  occ. eigenvalues --   -1.19083  -0.98231  -0.92196  -0.73873  -0.68070
 Alpha  occ. eigenvalues --   -0.58823  -0.55271  -0.53224  -0.40444  -0.36897
 Alpha  occ. eigenvalues --   -0.33713  -0.31861  -0.25465
 Alpha virt. eigenvalues --   -0.06841   0.00899   0.00902   0.02984   0.04449
 Alpha virt. eigenvalues --    0.05981   0.06338   0.07729   0.08466   0.11854
 Alpha virt. eigenvalues --    0.12966   0.14125   0.15725   0.16818   0.17788
 Alpha virt. eigenvalues --    0.19009   0.19636   0.19735   0.20001   0.21765
 Alpha virt. eigenvalues --    0.23437   0.24729   0.25519   0.26959   0.29601
 Alpha virt. eigenvalues --    0.31020   0.34551   0.38989   0.41421   0.54059
 Alpha virt. eigenvalues --    0.54955   0.55849   0.59766   0.68605   0.71360
 Alpha virt. eigenvalues --    0.72731   0.74703   0.76220   0.78911   0.79960
 Alpha virt. eigenvalues --    0.81200   0.83966   0.83970   0.86079   0.91165
 Alpha virt. eigenvalues --    0.94975   1.04753   1.06692   1.12423   1.13820
 Alpha virt. eigenvalues --    1.21523   1.26387   1.28527   1.28874   1.39077
 Alpha virt. eigenvalues --    1.49015   1.54143   1.64337   1.75496   1.76965
 Alpha virt. eigenvalues --    1.84440   1.86244   1.89557   1.95570   1.98635
 Alpha virt. eigenvalues --    2.09898   2.19413   2.29110   2.29345   2.33239
 Alpha virt. eigenvalues --    2.39780   2.45838   2.49004   2.62725   2.64873
 Alpha virt. eigenvalues --    2.65531   2.72081   2.75762   2.81665   2.86606
 Alpha virt. eigenvalues --    2.87644   2.95518   3.01344   3.12606   3.18938
 Alpha virt. eigenvalues --    3.35297   3.52488   3.62005   3.72000   3.85639
 Alpha virt. eigenvalues --    3.88295   3.94358   3.97637   4.12064   4.47813
 Alpha virt. eigenvalues --    4.71463   4.91580   5.04368   5.62545  23.75936
 Alpha virt. eigenvalues --   35.30994  35.47497  35.49410  35.54722
     Molecular Orbital Coefficients:
                           1         2         3         4         5
                           O         O         O         O         O
     Eigenvalues --   -14.46909 -14.43546 -14.42788 -14.36746 -10.21305
   1 1   N  1S          0.55735  -0.00290   0.00018  -0.00065   0.00000
   2        2S          0.46572  -0.00236   0.00020  -0.00052   0.00004
   3        2PX         0.00017   0.00038   0.00002  -0.00030  -0.00001
   4        2PY        -0.00028  -0.00023   0.00005  -0.00016   0.00005
   5        2PZ         0.00000   0.00000  -0.00000   0.00000  -0.00000
   6        3S          0.01584  -0.00023  -0.00044  -0.00007  -0.00043
   7        3PX         0.00026  -0.00093  -0.00010   0.00062  -0.00000
   8        3PY         0.00043   0.00066  -0.00006   0.00034  -0.00012
   9        3PZ        -0.00000  -0.00000   0.00000  -0.00000   0.00000
  10        4S         -0.01054   0.00456   0.00039   0.00322   0.00120
  11        4PX         0.00055   0.00184  -0.00038  -0.00219  -0.00030
  12        4PY         0.00477  -0.00183  -0.00189  -0.00210  -0.00237
  13        4PZ        -0.00001   0.00000   0.00000   0.00000   0.00000
  14        5S          0.01891  -0.02603   0.00533  -0.01341  -0.00472
  15        5PX        -0.00051  -0.00307  -0.00251   0.00502   0.00175
  16        5PY        -0.00637   0.00358  -0.00062   0.00198   0.00329
  17        5PZ         0.00001  -0.00000   0.00000  -0.00000  -0.00000
  18        6D 0       -0.00075   0.00025  -0.00010   0.00011  -0.00007
  19        6D+1        0.00000  -0.00000   0.00000   0.00000   0.00000
  20        6D-1       -0.00000  -0.00000  -0.00000  -0.00000  -0.00000
  21        6D+2       -0.00048  -0.00044  -0.00016  -0.00026  -0.00014
  22        6D-2       -0.00018   0.00069  -0.00000  -0.00051  -0.00005
  23 2   N  1S          0.00287   0.55727  -0.00989   0.00008   0.00000
  24        2S          0.00247   0.46583  -0.00823   0.00011   0.00003
  25        2PX        -0.00033  -0.00200  -0.00006  -0.00007  -0.00002
  26        2PY         0.00022  -0.00068  -0.00030   0.00002   0.00001
  27        2PZ        -0.00000   0.00000   0.00000  -0.00000  -0.00000
  28        3S          0.00009   0.01527  -0.00014  -0.00013  -0.00013
  29        3PX         0.00072  -0.00036   0.00020   0.00037   0.00020
  30        3PY        -0.00051   0.00011   0.00055  -0.00009  -0.00007
  31        3PZ         0.00000  -0.00000  -0.00000   0.00000   0.00000
  32        4S          0.00181  -0.01580   0.00130  -0.00064  -0.00098
  33        4PX        -0.00111   0.00319  -0.00082  -0.00007  -0.00012
  34        4PY        -0.00038   0.00107  -0.00037   0.00068   0.00094
  35        4PZ         0.00000  -0.00000   0.00000  -0.00000  -0.00000
  36        5S         -0.01056   0.04038  -0.00509   0.00778  -0.00128
  37        5PX         0.00281  -0.00855   0.00065  -0.00112   0.00190
  38        5PY         0.00039  -0.00292   0.00235  -0.00296  -0.00154
  39        5PZ        -0.00000   0.00000  -0.00000   0.00000   0.00000
  40        6D 0        0.00042  -0.00024   0.00032   0.00002  -0.00001
  41        6D+1       -0.00000   0.00000   0.00000  -0.00000   0.00000
  42        6D-1        0.00000  -0.00000   0.00000  -0.00000   0.00000
  43        6D+2       -0.00031  -0.00000   0.00039  -0.00009   0.00009
  44        6D-2        0.00063  -0.00023  -0.00032   0.00006  -0.00002
  45 3   N  1S          0.00063  -0.00009  -0.00006   0.55735  -0.00006
  46        2S          0.00056  -0.00004  -0.00001   0.46593  -0.00001
  47        2PX         0.00023   0.00005  -0.00001   0.00180   0.00021
  48        2PY         0.00018   0.00002  -0.00005  -0.00011  -0.00055
  49        2PZ        -0.00000  -0.00000   0.00000   0.00000   0.00000
  50        3S          0.00005  -0.00007  -0.00010   0.01528   0.00061
  51        3PX        -0.00036  -0.00030  -0.00011   0.00025  -0.00062
  52        3PY        -0.00031  -0.00004   0.00030  -0.00081   0.00159
  53        3PZ         0.00000   0.00000  -0.00000   0.00000  -0.00000
  54        4S          0.00328  -0.00107  -0.00258  -0.01450  -0.00386
  55        4PX         0.00199  -0.00045  -0.00069  -0.00290  -0.00076
  56        4PY        -0.00013   0.00026   0.00067   0.00062   0.00049
  57        4PZ         0.00000  -0.00000  -0.00000  -0.00000  -0.00000
  58        5S         -0.00755   0.00795  -0.00705   0.02193   0.01545
  59        5PX        -0.00292   0.00248  -0.00277   0.00565   0.00369
  60        5PY        -0.00099   0.00022  -0.00109   0.00198  -0.00211
  61        5PZ         0.00000  -0.00000   0.00000  -0.00000   0.00000
  62        6D 0        0.00025   0.00006   0.00001  -0.00024   0.00073
  63        6D+1        0.00000   0.00000  -0.00000   0.00000  -0.00000
  64        6D-1        0.00000   0.00000   0.00000  -0.00000   0.00000
  65        6D+2       -0.00016  -0.00005   0.00021  -0.00028   0.00080
  66        6D-2       -0.00046  -0.00010   0.00003  -0.00002   0.00064
  67 4   N  1S         -0.00013   0.00987   0.55725   0.00006  -0.00005
  68        2S         -0.00006   0.00827   0.46565   0.00008  -0.00005
  69        2PX         0.00003   0.00013   0.00041  -0.00005  -0.00051
  70        2PY         0.00000   0.00035   0.00044  -0.00007  -0.00003
  71        2PZ        -0.00000  -0.00000  -0.00000   0.00000   0.00000
  72        3S         -0.00035   0.00024   0.01590  -0.00015   0.00062
  73        3PX        -0.00006  -0.00020  -0.00011   0.00033   0.00130
  74        3PY        -0.00009  -0.00073  -0.00046   0.00020   0.00005
  75        3PZ         0.00000   0.00000   0.00000  -0.00000  -0.00000
  76        4S         -0.00022   0.00371  -0.00993  -0.00067  -0.00035
  77        4PX        -0.00145   0.00048   0.00351   0.00116   0.00113
  78        4PY         0.00091   0.00251  -0.00321  -0.00017  -0.00016
  79        4PZ        -0.00000  -0.00000   0.00000   0.00000   0.00000
  80        5S          0.00435  -0.01799   0.00965  -0.00734   0.00879
  81        5PX        -0.00042  -0.00124  -0.00132   0.00035  -0.00372
  82        5PY         0.00076  -0.00614   0.00444  -0.00448  -0.00057
  83        5PZ        -0.00000   0.00001  -0.00001   0.00001   0.00000
  84        6D 0       -0.00004   0.00015  -0.00077  -0.00002   0.00051
  85        6D+1        0.00000   0.00000   0.00000   0.00000   0.00000
  86        6D-1       -0.00000   0.00000  -0.00000  -0.00000  -0.00000
  87        6D+2       -0.00004   0.00045   0.00003  -0.00024  -0.00091
  88        6D-2       -0.00017  -0.00041  -0.00054  -0.00019  -0.00016
  89 5   C  1S         -0.00001  -0.00001   0.00000  -0.00000   0.56293
  90        2S          0.00005   0.00004   0.00006   0.00009   0.46368
  91        2PX        -0.00005   0.00006   0.00039  -0.00025   0.00140
  92        2PY        -0.00000  -0.00004  -0.00011   0.00035   0.00157
  93        2PZ         0.00000   0.00000   0.00000  -0.00000  -0.00000
  94        3S         -0.00046  -0.00019   0.00038   0.00028   0.01710
  95        3PX         0.00007  -0.00043  -0.00079   0.00083   0.00059
  96        3PY        -0.00027   0.00006   0.00058  -0.00073   0.00175
  97        3PZ         0.00000  -0.00000  -0.00000   0.00000  -0.00000
  98        4S         -0.00183   0.00013   0.00430   0.00366  -0.01209
  99        4PX        -0.00036   0.00023   0.00178   0.00048  -0.00103
 100        4PY        -0.00049  -0.00016   0.00164   0.00233  -0.00100
 101        4PZ         0.00000   0.00000  -0.00000  -0.00000   0.00000
 102        5S         -0.00353  -0.00291  -0.00246  -0.00507  -0.00908
 103        5PX        -0.00033  -0.00134  -0.00020  -0.00144  -0.00160
 104        5PY        -0.00129  -0.00015  -0.00134  -0.00129  -0.00135
 105        5PZ         0.00000   0.00000   0.00000   0.00000   0.00000
 106        6D 0       -0.00010  -0.00005   0.00028   0.00031  -0.00097
 107        6D+1       -0.00000   0.00000   0.00000  -0.00000   0.00000
 108        6D-1       -0.00000  -0.00000  -0.00000   0.00000  -0.00000
 109        6D+2        0.00004  -0.00021  -0.00088   0.00083  -0.00013
 110        6D-2        0.00015  -0.00010  -0.00013   0.00054  -0.00043
 111 6   H  1S          0.00018  -0.00011  -0.00015  -0.00013  -0.00017
 112        2S         -0.00395  -0.00048   0.00115   0.00020   0.00141
 113        3S          0.00273   0.00188  -0.00021   0.00073  -0.00092
 114        4PX        -0.00002  -0.00017   0.00006   0.00023   0.00003
 115        4PY         0.00194   0.00030  -0.00014   0.00014  -0.00014
 116        4PZ        -0.00000  -0.00000   0.00000  -0.00000   0.00000
 117 7   H  1S         -0.00013  -0.00012   0.00016  -0.00011  -0.00003
 118        2S          0.00102  -0.00027  -0.00403   0.00000  -0.00078
 119        3S          0.00024   0.00047   0.00281  -0.00161  -0.00072
 120        4PX        -0.00004   0.00006   0.00133   0.00001   0.00012
 121        4PY         0.00014  -0.00029  -0.00148  -0.00008  -0.00019
 122        4PZ        -0.00000   0.00000   0.00000   0.00000   0.00000
                           6         7         8         9        10
                           O         O         O         O         O
     Eigenvalues --    -1.19083  -0.98231  -0.92196  -0.73873  -0.68070
   1 1   N  1S         -0.07198   0.06548   0.03511  -0.04641  -0.00744
   2        2S         -0.11282   0.10347   0.05551  -0.07404  -0.01161
   3        2PX         0.01911   0.04169  -0.09955  -0.05565   0.12395
   4        2PY        -0.04209  -0.00160  -0.01997   0.12073   0.03036
   5        2PZ         0.00005   0.00000   0.00003  -0.00015  -0.00004
   6        3S          0.31248  -0.29555  -0.16212   0.21670   0.03221
   7        3PX         0.02795   0.06544  -0.15000  -0.08275   0.18592
   8        3PY        -0.06871   0.00120  -0.03104   0.17804   0.04681
   9        3PZ         0.00009  -0.00000   0.00004  -0.00022  -0.00006
  10        4S          0.17552  -0.21035  -0.09996   0.19611   0.03666
  11        4PX         0.00497   0.01210  -0.04006  -0.03733   0.10715
  12        4PY        -0.03174   0.01784  -0.01649   0.09105   0.01646
  13        4PZ         0.00004  -0.00002   0.00002  -0.00011  -0.00002
  14        5S         -0.03073   0.08900  -0.02766  -0.11720  -0.06998
  15        5PX         0.00715   0.01191  -0.00772   0.01005  -0.00788
  16        5PY         0.02329  -0.04355  -0.01566   0.05566   0.01892
  17        5PZ        -0.00003   0.00005   0.00002  -0.00007  -0.00002
  18        6D 0       -0.01351   0.00673   0.00190   0.00026  -0.00055
  19        6D+1        0.00001   0.00002  -0.00002  -0.00001   0.00001
  20        6D-1       -0.00003   0.00001  -0.00000  -0.00000  -0.00000
  21        6D+2       -0.00044  -0.00297  -0.00540  -0.00242  -0.00277
  22        6D-2       -0.00458  -0.01166   0.01785   0.00659  -0.00709
  23 2   N  1S         -0.06788  -0.03275   0.05590   0.04043   0.01584
  24        2S         -0.10619  -0.05169   0.08834   0.06428   0.02536
  25        2PX        -0.06101   0.00456   0.04047   0.03643  -0.04634
  26        2PY        -0.01166  -0.07128  -0.04295   0.00550   0.11695
  27        2PZ         0.00002   0.00009   0.00005  -0.00001  -0.00015
  28        3S          0.29514   0.14750  -0.25548  -0.19125  -0.07519
  29        3PX        -0.09594   0.00400   0.06373   0.05833  -0.06739
  30        3PY        -0.02007  -0.11014  -0.06272   0.00941   0.17785
  31        3PZ         0.00003   0.00014   0.00008  -0.00001  -0.00022
  32        4S          0.13881   0.10691  -0.19066  -0.14659  -0.08569
  33        4PX        -0.01711  -0.00815   0.03032   0.02202  -0.01928
  34        4PY        -0.00474  -0.02720  -0.01205   0.00759   0.06524
  35        4PZ         0.00001   0.00003   0.00001  -0.00001  -0.00008
  36        5S         -0.04572  -0.08862   0.10803   0.14995   0.03098
  37        5PX         0.01221   0.02335  -0.02929  -0.04160  -0.01076
  38        5PY         0.00368   0.00814  -0.00777  -0.02432   0.00117
  39        5PZ        -0.00000  -0.00001   0.00001   0.00003  -0.00000
  40        6D 0       -0.01359  -0.00434   0.00513   0.00297  -0.00016
  41        6D+1       -0.00000  -0.00002  -0.00002   0.00001   0.00002
  42        6D-1       -0.00002  -0.00003   0.00001  -0.00001   0.00002
  43        6D+2        0.00437  -0.01385  -0.00345  -0.00979   0.01401
  44        6D-2       -0.00038   0.01530   0.01435  -0.00495  -0.01325
  45 3   N  1S         -0.03772   0.05298  -0.06868   0.02142   0.03274
  46        2S         -0.05878   0.08335  -0.10812   0.03375   0.05216
  47        2PX         0.03815  -0.04014   0.03421  -0.00084  -0.02043
  48        2PY         0.00099  -0.01975  -0.03568   0.06994  -0.07677
  49        2PZ        -0.00000   0.00003   0.00004  -0.00009   0.00010
  50        3S          0.15748  -0.23356   0.30298  -0.09366  -0.15417
  51        3PX         0.06023  -0.06449   0.05532  -0.00140  -0.03424
  52        3PY         0.00280  -0.03258  -0.05188   0.10212  -0.11795
  53        3PZ        -0.00001   0.00004   0.00006  -0.00013   0.00015
  54        4S          0.08625  -0.13330   0.21528  -0.09028  -0.11550
  55        4PX         0.01226  -0.01550   0.02806  -0.00606  -0.00545
  56        4PY        -0.00487  -0.00984  -0.01904   0.04454  -0.04089
  57        4PZ         0.00001   0.00001   0.00002  -0.00006   0.00005
  58        5S         -0.01676   0.02061  -0.06021   0.10986   0.03182
  59        5PX         0.00242   0.01064  -0.01582   0.02895   0.01203
  60        5PY         0.00713   0.00017   0.00935  -0.00771   0.00847
  61        5PZ        -0.00001  -0.00000  -0.00001   0.00001  -0.00001
  62        6D 0       -0.00823   0.00696  -0.00733   0.00120   0.00117
  63        6D+1       -0.00000   0.00001   0.00001  -0.00002   0.00002
  64        6D-1       -0.00001   0.00001  -0.00002   0.00000  -0.00000
  65        6D+2        0.00565  -0.00373  -0.00351  -0.00066  -0.00490
  66        6D-2        0.00312  -0.01030  -0.00571   0.01252  -0.01790
  67 4   N  1S         -0.05193  -0.08169  -0.03749  -0.04785  -0.00243
  68        2S         -0.08120  -0.12884  -0.05910  -0.07621  -0.00387
  69        2PX        -0.00405   0.02125  -0.04173   0.02643  -0.14905
  70        2PY         0.03965   0.02108  -0.02871  -0.10214  -0.06499
  71        2PZ        -0.00005  -0.00003   0.00004   0.00013   0.00009
  72        3S          0.21976   0.36378   0.16418   0.22148   0.00778
  73        3PX        -0.00521   0.03223  -0.06213   0.03931  -0.22070
  74        3PY         0.06395   0.03663  -0.04394  -0.14991  -0.09566
  75        3PZ        -0.00008  -0.00005   0.00006   0.00019   0.00013
  76        4S          0.13403   0.23405   0.14606   0.18650   0.01816
  77        4PX        -0.01574   0.00247  -0.03136   0.03294  -0.12795
  78        4PY         0.02310   0.01976   0.00770  -0.07405  -0.04279
  79        4PZ        -0.00003  -0.00003  -0.00001   0.00009   0.00006
  80        5S         -0.02538  -0.00118  -0.09293  -0.05833  -0.00196
  81        5PX         0.01037   0.02330   0.00700   0.01213   0.00406
  82        5PY         0.00143  -0.02639  -0.02148  -0.03785   0.01909
  83        5PZ        -0.00000   0.00003   0.00003   0.00005  -0.00002
  84        6D 0       -0.01052  -0.00869  -0.00326   0.00024   0.00161
  85        6D+1       -0.00000  -0.00001   0.00001   0.00000   0.00001
  86        6D-1       -0.00003  -0.00002   0.00001   0.00001   0.00002
  87        6D+2       -0.00703  -0.00340   0.01160   0.00759   0.01055
  88        6D-2        0.00019   0.00469  -0.00575  -0.00400  -0.00795
  89 5   C  1S         -0.02406  -0.00527  -0.05792   0.01299  -0.06185
  90        2S         -0.03640  -0.00806  -0.08889   0.01988  -0.09625
  91        2PX         0.01754   0.03450   0.02128   0.03802   0.06148
  92        2PY         0.02274  -0.01988   0.05136  -0.05124   0.00496
  93        2PZ        -0.00003   0.00002  -0.00007   0.00006  -0.00001
  94        3S          0.08930   0.02020   0.23360  -0.05336   0.26802
  95        3PX         0.02597   0.05014   0.03342   0.05410   0.09028
  96        3PY         0.03456  -0.02997   0.07620  -0.07491   0.01083
  97        3PZ        -0.00004   0.00004  -0.00010   0.00009  -0.00002
  98        4S          0.01383   0.00164   0.08138  -0.01341   0.13585
  99        4PX        -0.00326   0.00313   0.00098   0.01266   0.01104
 100        4PY        -0.00520  -0.00675   0.00062  -0.00717   0.00257
 101        4PZ         0.00001   0.00001  -0.00000   0.00001  -0.00000
 102        5S          0.06990  -0.00877   0.03640  -0.02512   0.00093
 103        5PX         0.01555  -0.00312   0.00358  -0.00516   0.00043
 104        5PY         0.02151  -0.00058   0.00992  -0.00370  -0.01152
 105        5PZ        -0.00003   0.00000  -0.00001   0.00000   0.00001
 106        6D 0       -0.00869  -0.00129  -0.01383   0.00304  -0.00854
 107        6D+1       -0.00001  -0.00001   0.00000   0.00000  -0.00000
 108        6D-1       -0.00002   0.00002  -0.00004   0.00003   0.00000
 109        6D+2       -0.00099   0.01918  -0.00573   0.01863   0.01669
 110        6D-2        0.00496   0.00492  -0.00085  -0.00177   0.00180
 111 6   H  1S          0.02588  -0.04733  -0.03642   0.11698   0.02721
 112        2S          0.03060  -0.05174  -0.03407   0.12194   0.03391
 113        3S         -0.01432   0.01820   0.02028  -0.02506  -0.00023
 114        4PX         0.00059   0.00192  -0.00443  -0.00207   0.00479
 115        4PY        -0.00853   0.01218   0.00823  -0.01967  -0.00423
 116        4PZ         0.00001  -0.00002  -0.00001   0.00002   0.00001
 117 7   H  1S          0.01785   0.05691   0.02572   0.10137  -0.02952
 118        2S          0.02083   0.06171   0.03016   0.10291  -0.02551
 119        3S         -0.00299  -0.02895   0.00216  -0.02299   0.00773
 120        4PX        -0.00311  -0.00961  -0.00567  -0.01359  -0.00322
 121        4PY         0.00479   0.01169   0.00242   0.01109  -0.00785
 122        4PZ        -0.00001  -0.00001  -0.00000  -0.00001   0.00001
                          11        12        13        14        15
                           O         O         O         O         O
     Eigenvalues --    -0.58823  -0.55271  -0.53224  -0.40444  -0.36897
   1 1   N  1S          0.01534   0.00353   0.00000   0.02033  -0.00000
   2        2S          0.02460   0.00594   0.00000   0.03289  -0.00000
   3        2PX         0.07096  -0.05254   0.00001  -0.06707  -0.00000
   4        2PY         0.11432   0.15298   0.00020  -0.00524  -0.00021
   5        2PZ        -0.00015  -0.00019   0.16263   0.00001  -0.17013
   6        3S         -0.07517  -0.02824  -0.00000  -0.09959   0.00000
   7        3PX         0.10679  -0.07710   0.00001  -0.10660  -0.00000
   8        3PY         0.17154   0.22534   0.00031   0.00141  -0.00033
   9        3PZ        -0.00022  -0.00027   0.25143  -0.00000  -0.26198
  10        4S         -0.11595  -0.01417  -0.00000  -0.17312   0.00001
  11        4PX         0.07638  -0.05782   0.00001  -0.06973  -0.00000
  12        4PY         0.14532   0.14103   0.00024   0.05864  -0.00030
  13        4PZ        -0.00018  -0.00017   0.19076  -0.00008  -0.24151
  14        5S          0.15479   0.01981  -0.00000   0.01844  -0.00001
  15        5PX        -0.00715   0.01040   0.00000  -0.01173  -0.00000
  16        5PY        -0.01983   0.01605   0.00000   0.00089  -0.00003
  17        5PZ         0.00003  -0.00002   0.00335  -0.00000  -0.02806
  18        6D 0        0.00238  -0.00006   0.00004   0.00113  -0.00001
  19        6D+1       -0.00000   0.00000   0.00679  -0.00001   0.01009
  20        6D-1        0.00001  -0.00002  -0.01779   0.00003   0.00370
  21        6D+2        0.00243  -0.01894   0.00002   0.02570  -0.00000
  22        6D-2        0.00066   0.00012   0.00001   0.00917   0.00001
  23 2   N  1S         -0.03058  -0.00100  -0.00000  -0.05852   0.00000
  24        2S         -0.04900  -0.00162  -0.00000  -0.09418   0.00000
  25        2PX         0.07248   0.03777   0.00000   0.17795  -0.00000
  26        2PY         0.02547  -0.12128   0.00019   0.07507   0.00006
  27        2PZ        -0.00003   0.00016   0.14397  -0.00010   0.05098
  28        3S          0.14275   0.00396   0.00000   0.26964  -0.00000
  29        3PX         0.10679   0.05427   0.00000   0.25556  -0.00000
  30        3PY         0.03849  -0.18243   0.00029   0.11070   0.00010
  31        3PZ        -0.00005   0.00024   0.22390  -0.00014   0.07861
  32        4S          0.18036   0.01721   0.00000   0.47749  -0.00001
  33        4PX         0.04080   0.01715   0.00000   0.14701  -0.00000
  34        4PY         0.01459  -0.07570   0.00018   0.07013   0.00009
  35        4PZ        -0.00002   0.00010   0.14308  -0.00009   0.07169
  36        5S         -0.12929  -0.00343   0.00000   0.07311   0.00000
  37        5PX         0.02875   0.00475   0.00000   0.01597  -0.00000
  38        5PY         0.02082  -0.01005   0.00001   0.00828   0.00000
  39        5PZ        -0.00003   0.00001   0.00501  -0.00001   0.00389
  40        6D 0        0.00402  -0.00042   0.00002   0.01417   0.00006
  41        6D+1        0.00002  -0.00003  -0.02898   0.00001   0.00203
  42        6D-1       -0.00001  -0.00002  -0.00652   0.00002  -0.02693
  43        6D+2       -0.01908  -0.01638   0.00001  -0.00777   0.00003
  44        6D-2       -0.01378   0.02473  -0.00004  -0.00622   0.00000
  45 3   N  1S         -0.03915   0.01515  -0.00000  -0.01528   0.00000
  46        2S         -0.06255   0.02435  -0.00000  -0.02472   0.00000
  47        2PX        -0.08257  -0.01963   0.00000  -0.01551  -0.00000
  48        2PY        -0.11591  -0.01616   0.00011   0.10727  -0.00013
  49        2PZ         0.00015   0.00002   0.08550  -0.00014  -0.10230
  50        3S          0.17976  -0.07405   0.00000   0.07465  -0.00000
  51        3PX        -0.11983  -0.03456   0.00001  -0.01695  -0.00000
  52        3PY        -0.16926  -0.02240   0.00017   0.15669  -0.00020
  53        3PZ         0.00022   0.00003   0.13034  -0.00020  -0.15849
  54        4S          0.21207  -0.06938   0.00000   0.11692  -0.00000
  55        4PX        -0.04104  -0.01515   0.00000  -0.00235  -0.00000
  56        4PY        -0.06881  -0.01494   0.00011   0.11753  -0.00016
  57        4PZ         0.00009   0.00002   0.08801  -0.00015  -0.12158
  58        5S         -0.05262  -0.00567   0.00000  -0.00218   0.00000
  59        5PX        -0.01518  -0.00074  -0.00000  -0.02961   0.00000
  60        5PY        -0.00852   0.00392  -0.00001  -0.00989  -0.00002
  61        5PZ         0.00001  -0.00001  -0.00771   0.00001  -0.01396
  62        6D 0        0.00431   0.00057  -0.00000   0.00238   0.00002
  63        6D+1        0.00002   0.00001   0.01933  -0.00001  -0.01746
  64        6D-1       -0.00002  -0.00001   0.00009   0.00001  -0.00875
  65        6D+2       -0.02257  -0.01064   0.00000   0.00020   0.00001
  66        6D-2       -0.01135  -0.00357   0.00002   0.01001  -0.00002
  67 4   N  1S          0.01063  -0.00129  -0.00000   0.01106  -0.00000
  68        2S          0.01682  -0.00232   0.00000   0.01778  -0.00000
  69        2PX         0.10198  -0.07824   0.00001  -0.09527   0.00001
  70        2PY        -0.03351   0.16559   0.00014  -0.04582   0.00027
  71        2PZ         0.00004  -0.00020   0.11947   0.00006   0.21147
  72        3S         -0.04582   0.01465  -0.00000  -0.05265   0.00000
  73        3PX         0.14642  -0.11288   0.00001  -0.13944   0.00001
  74        3PY        -0.05029   0.24608   0.00022  -0.07710   0.00041
  75        3PZ         0.00006  -0.00030   0.18253   0.00011   0.32438
  76        4S         -0.08696   0.00786  -0.00000  -0.10292   0.00000
  77        4PX         0.12322  -0.07356   0.00001  -0.06896   0.00001
  78        4PY        -0.04726   0.15804   0.00018  -0.09432   0.00037
  79        4PZ         0.00006  -0.00019   0.14522   0.00012   0.29665
  80        5S          0.11179  -0.04020  -0.00000  -0.01976  -0.00000
  81        5PX         0.01782  -0.01748  -0.00000  -0.00927   0.00000
  82        5PY         0.01169   0.01279  -0.00001   0.03397   0.00005
  83        5PZ        -0.00002  -0.00002  -0.00916  -0.00004   0.03771
  84        6D 0        0.00138  -0.00027  -0.00004   0.00345  -0.00002
  85        6D+1       -0.00000  -0.00002  -0.00175  -0.00002   0.00092
  86        6D-1        0.00001  -0.00000   0.01662   0.00002   0.00846
  87        6D+2        0.00355  -0.00027  -0.00002   0.01273  -0.00001
  88        6D-2        0.00228   0.01701  -0.00000   0.01691   0.00000
  89 5   C  1S         -0.02542  -0.01883   0.00000  -0.01302   0.00000
  90        2S         -0.03998  -0.02964   0.00000  -0.02093   0.00000
  91        2PX        -0.10006   0.02677   0.00000   0.06897  -0.00000
  92        2PY         0.05447   0.01526   0.00007  -0.07054   0.00005
  93        2PZ        -0.00007  -0.00002   0.05525   0.00009   0.03785
  94        3S          0.11536   0.08513  -0.00000   0.06093  -0.00000
  95        3PX        -0.13726   0.03980   0.00000   0.10698  -0.00000
  96        3PY         0.07460   0.02728   0.00011  -0.10296   0.00008
  97        3PZ        -0.00009  -0.00003   0.08553   0.00013   0.05948
  98        4S          0.11874   0.05577  -0.00000   0.09170  -0.00000
  99        4PX        -0.02491   0.01308   0.00000   0.04788  -0.00000
 100        4PY         0.03001   0.00527   0.00005  -0.03760   0.00004
 101        4PZ        -0.00004  -0.00001   0.03912   0.00005   0.02866
 102        5S         -0.01904   0.01286  -0.00000   0.00697   0.00000
 103        5PX        -0.01183   0.00318   0.00000   0.02072  -0.00000
 104        5PY        -0.00679   0.00192   0.00002  -0.01921   0.00001
 105        5PZ         0.00001  -0.00000   0.01550   0.00002   0.00378
 106        6D 0        0.00082  -0.00291  -0.00004   0.00162   0.00001
 107        6D+1        0.00003  -0.00002   0.01251  -0.00000   0.02324
 108        6D-1       -0.00002   0.00000   0.01654   0.00003  -0.00586
 109        6D+2       -0.01963   0.00608  -0.00002   0.02170   0.00001
 110        6D-2       -0.02490   0.01375   0.00002   0.00091   0.00003
 111 6   H  1S          0.06669   0.11758  -0.00000  -0.04119  -0.00000
 112        2S          0.06595   0.15074  -0.00001  -0.08957  -0.00000
 113        3S         -0.01316   0.01003  -0.00000  -0.03368   0.00000
 114        4PX         0.00331  -0.00230   0.00000  -0.00310  -0.00000
 115        4PY        -0.00793  -0.01396   0.00001   0.00707  -0.00002
 116        4PZ         0.00001   0.00002   0.00961  -0.00001  -0.01387
 117 7   H  1S          0.05560  -0.13565   0.00000  -0.04676   0.00000
 118        2S          0.05590  -0.16901   0.00001  -0.09613   0.00000
 119        3S         -0.01624  -0.00579   0.00000  -0.01089  -0.00000
 120        4PX        -0.00223   0.01267  -0.00000   0.00053   0.00000
 121        4PY         0.00724  -0.01061   0.00001  -0.00897   0.00002
 122        4PZ        -0.00001   0.00001   0.00672   0.00001   0.01741
                          16        17        18        19        20
                           O         O         O         V         V
     Eigenvalues --    -0.33713  -0.31861  -0.25465  -0.06841   0.00899
   1 1   N  1S         -0.00996  -0.00000  -0.01958  -0.00000   0.02526
   2        2S         -0.01612  -0.00000  -0.03220  -0.00000   0.04249
   3        2PX        -0.06465  -0.00000  -0.04627  -0.00001   0.00715
   4        2PY        -0.00452  -0.00009  -0.03757  -0.00023  -0.05110
   5        2PZ         0.00001  -0.07303   0.00005  -0.18511   0.00030
   6        3S          0.04625   0.00000   0.10715   0.00000  -0.15490
   7        3PX        -0.10313  -0.00000  -0.07062  -0.00001   0.00910
   8        3PY        -0.01359  -0.00014  -0.05823  -0.00035  -0.07102
   9        3PZ         0.00002  -0.11249   0.00008  -0.27825   0.00042
  10        4S          0.11904   0.00000   0.16660   0.00000  -0.28419
  11        4PX        -0.01157  -0.00000  -0.10134  -0.00001  -0.02418
  12        4PY        -0.05961  -0.00012  -0.04760  -0.00047  -0.18670
  13        4PZ         0.00008  -0.09965   0.00006  -0.37543   0.00077
  14        5S          0.12531  -0.00001   0.03691  -0.00002   0.75447
  15        5PX        -0.02075   0.00000  -0.02780  -0.00001   0.05368
  16        5PY        -0.02631  -0.00002  -0.00797  -0.00036   0.52231
  17        5PZ         0.00003  -0.01560   0.00001  -0.28832   0.00019
  18        6D 0       -0.00012   0.00001   0.00406   0.00004   0.00287
  19        6D+1       -0.00003  -0.02985   0.00001   0.01076   0.00012
  20        6D-1       -0.00002  -0.00249   0.00001  -0.01617   0.00003
  21        6D+2       -0.01582   0.00000  -0.00177   0.00002  -0.00915
  22        6D-2        0.02056  -0.00004  -0.00659   0.00001  -0.00081
  23 2   N  1S         -0.00875   0.00000  -0.00295  -0.00000   0.00883
  24        2S         -0.01388   0.00000  -0.00490   0.00000   0.01531
  25        2PX         0.11882  -0.00000  -0.02500   0.00001  -0.03066
  26        2PY         0.00996  -0.00020  -0.05836   0.00027  -0.00633
  27        2PZ        -0.00001  -0.15823   0.00007   0.21773   0.00011
  28        3S          0.03234  -0.00000   0.01914  -0.00000  -0.06920
  29        3PX         0.18193  -0.00000  -0.03894   0.00001  -0.03515
  30        3PY         0.01693  -0.00031  -0.08982   0.00041  -0.00746
  31        3PZ        -0.00002  -0.24254   0.00011   0.32434   0.00014
  32        4S         -0.00663   0.00000   0.07617   0.00000   0.01764
  33        4PX         0.17120  -0.00000  -0.04931   0.00001  -0.11836
  34        4PY         0.00904  -0.00029  -0.09582   0.00055  -0.03408
  35        4PZ        -0.00001  -0.22769   0.00012   0.43858   0.00029
  36        5S         -0.03730   0.00001   0.09227   0.00002  -1.38926
  37        5PX         0.02127  -0.00000  -0.01562   0.00000   0.21269
  38        5PY         0.02137  -0.00003  -0.03315   0.00039   0.28994
  39        5PZ        -0.00003  -0.02560   0.00004   0.31082  -0.00003
  40        6D 0        0.00626   0.00001  -0.00077   0.00001   0.00261
  41        6D+1        0.00001   0.01810   0.00000   0.00179  -0.00003
  42        6D-1        0.00001  -0.00410   0.00000  -0.00436   0.00012
  43        6D+2       -0.00603   0.00001   0.00391   0.00001   0.01009
  44        6D-2       -0.00591   0.00002  -0.00085   0.00000   0.00888
  45 3   N  1S          0.04084   0.00000   0.03152   0.00000   0.00645
  46        2S          0.06561   0.00000   0.05109   0.00000   0.01104
  47        2PX         0.21009   0.00001   0.02625   0.00000   0.01422
  48        2PY        -0.10975   0.00022   0.02475   0.00015   0.00665
  49        2PZ         0.00013   0.17735  -0.00003   0.11945  -0.00082
  50        3S         -0.18484  -0.00000  -0.15124  -0.00000  -0.04404
  51        3PX         0.30941   0.00001   0.03360   0.00000   0.01423
  52        3PY        -0.15872   0.00034   0.04218   0.00022   0.01288
  53        3PZ         0.00019   0.26737  -0.00005   0.17680  -0.00123
  54        4S         -0.28992  -0.00000  -0.29368  -0.00000  -0.11060
  55        4PX         0.23685   0.00001  -0.00061   0.00001  -0.00217
  56        4PY        -0.12679   0.00032   0.00761   0.00029   0.03027
  57        4PZ         0.00015   0.25605  -0.00001   0.23082  -0.00174
  58        5S         -0.20402   0.00000  -0.08060   0.00001  -0.94668
  59        5PX        -0.00130   0.00000   0.02668   0.00001  -0.17952
  60        5PY        -0.03050   0.00003  -0.01610   0.00023   0.14020
  61        5PZ         0.00004   0.02709   0.00002   0.18079  -0.00253
  62        6D 0       -0.01321   0.00003  -0.00281   0.00004   0.00524
  63        6D+1        0.00001   0.01560  -0.00002  -0.00463  -0.00002
  64        6D-1       -0.00001  -0.01624  -0.00001  -0.01666  -0.00007
  65        6D+2        0.01303   0.00002  -0.00097   0.00002   0.00614
  66        6D-2       -0.01228   0.00002   0.01897  -0.00001  -0.00861
  67 4   N  1S          0.01639   0.00000   0.02307   0.00000   0.02235
  68        2S          0.02692   0.00000   0.03766   0.00000   0.03723
  69        2PX         0.03480   0.00000   0.06260  -0.00000  -0.02870
  70        2PY        -0.02405   0.00006   0.01394  -0.00017   0.03753
  71        2PZ         0.00003   0.04625  -0.00002  -0.13783  -0.00063
  72        3S         -0.09028  -0.00000  -0.11521  -0.00000  -0.12866
  73        3PX         0.05304   0.00000   0.09672  -0.00001  -0.04098
  74        3PY        -0.04157   0.00008   0.01973  -0.00026   0.05467
  75        3PZ         0.00005   0.06775  -0.00003  -0.20636  -0.00096
  76        4S         -0.08639  -0.00000  -0.22775  -0.00000  -0.32488
  77        4PX         0.05952   0.00000   0.09610  -0.00001  -0.04135
  78        4PY         0.00890   0.00010  -0.04320  -0.00035   0.04154
  79        4PZ        -0.00001   0.08048   0.00005  -0.27801  -0.00129
  80        5S         -0.01949  -0.00001  -0.14140  -0.00001  -0.34926
  81        5PX         0.02819  -0.00000   0.00108  -0.00001   0.72019
  82        5PY         0.02556   0.00000  -0.02435  -0.00027   0.36854
  83        5PZ        -0.00003   0.00442   0.00003  -0.21377  -0.00226
  84        6D 0       -0.00271   0.00003  -0.00162  -0.00004   0.00373
  85        6D+1        0.00001  -0.01713  -0.00002   0.00715  -0.00011
  86        6D-1        0.00001  -0.01238  -0.00001   0.01969  -0.00003
  87        6D+2        0.01130   0.00002  -0.00716  -0.00002  -0.00198
  88        6D-2       -0.00446  -0.00002   0.01780   0.00001  -0.01211
  89 5   C  1S         -0.01452  -0.00000  -0.06608   0.00000   0.01112
  90        2S         -0.02332  -0.00000  -0.10600   0.00000   0.01976
  91        2PX        -0.00724   0.00000  -0.11891   0.00000   0.02235
  92        2PY         0.08328   0.00018  -0.16696   0.00004   0.01660
  93        2PZ        -0.00011   0.14067   0.00021   0.02856   0.00098
  94        3S          0.07469   0.00000   0.29137  -0.00000  -0.10070
  95        3PX        -0.00331   0.00001  -0.16835   0.00000   0.02194
  96        3PY         0.13294   0.00028  -0.23438   0.00005   0.01408
  97        3PZ        -0.00017   0.22082   0.00030   0.04293   0.00151
  98        4S          0.08534   0.00000   0.53305  -0.00000   0.27197
  99        4PX         0.02140   0.00000  -0.10955   0.00000   0.16830
 100        4PY         0.05541   0.00021  -0.18325   0.00008   0.18105
 101        4PZ        -0.00007   0.16514   0.00023   0.06452   0.00247
 102        5S          0.03488  -0.00000   0.14672   0.00000   2.90200
 103        5PX         0.01889   0.00000  -0.03069   0.00000   0.67831
 104        5PY        -0.00158   0.00003  -0.04289   0.00005   0.32531
 105        5PZ         0.00000   0.02060   0.00005   0.03652   0.00339
 106        6D 0       -0.00553  -0.00007   0.01767  -0.00004   0.00256
 107        6D+1       -0.00002   0.00998   0.00002  -0.02396   0.00002
 108        6D-1       -0.00005   0.03195   0.00004   0.01948  -0.00004
 109        6D+2       -0.02914  -0.00004   0.00084  -0.00003  -0.00705
 110        6D-2        0.01301   0.00001  -0.01742  -0.00003   0.01482
 111 6   H  1S          0.01606  -0.00000  -0.01506  -0.00000   0.02047
 112        2S          0.04732  -0.00000  -0.03459  -0.00000   0.18908
 113        3S          0.02005  -0.00000  -0.02040  -0.00000  -0.27612
 114        4PX        -0.00372  -0.00000  -0.00340  -0.00000   0.00185
 115        4PY        -0.00288  -0.00001  -0.00000  -0.00003   0.01629
 116        4PZ         0.00000  -0.00718   0.00000  -0.02512   0.00002
 117 7   H  1S          0.02354  -0.00000  -0.00840   0.00000   0.02217
 118        2S          0.04107   0.00000  -0.03420   0.00000   0.10671
 119        3S          0.03022   0.00000  -0.00969   0.00000   0.08748
 120        4PX         0.00214   0.00000   0.00402  -0.00000   0.01291
 121        4PY         0.00105   0.00000   0.00008  -0.00002  -0.01439
 122        4PZ        -0.00000   0.00288  -0.00000  -0.01798  -0.00006
                          21        22        23        24        25
                           V         V         V         V         V
     Eigenvalues --     0.00902   0.02984   0.04449   0.05981   0.06338
   1 1   N  1S         -0.00013  -0.01972   0.01881  -0.02198  -0.00000
   2        2S         -0.00021  -0.03318   0.03103  -0.03612  -0.00000
   3        2PX        -0.00003   0.00815   0.00886  -0.00062  -0.00000
   4        2PY         0.00031   0.07139  -0.03569   0.01526  -0.00005
   5        2PZ         0.04650  -0.00009   0.00004  -0.00002  -0.04293
   6        3S          0.00077   0.12329  -0.09579   0.11166   0.00000
   7        3PX        -0.00004   0.00769   0.00988  -0.00077  -0.00000
   8        3PY         0.00044   0.11451  -0.06067   0.02898  -0.00007
   9        3PZ         0.06671  -0.00014   0.00008  -0.00003  -0.05715
  10        4S          0.00141   0.13775  -0.33638   0.29372  -0.00000
  11        4PX         0.00012   0.03889   0.07021  -0.00298  -0.00000
  12        4PY         0.00106   0.13065   0.00874   0.07030  -0.00016
  13        4PZ         0.10842  -0.00016  -0.00002  -0.00008  -0.12307
  14        5S         -0.00375   3.17428  -1.16730   6.07493   0.00023
  15        5PX        -0.00027  -1.06281  -0.73427  -0.09020   0.00004
  16        5PY        -0.00238  -2.11713   1.64831  -1.61021   0.00020
  17        5PZ         0.16910   0.00269  -0.00206   0.00205   0.20290
  18        6D 0       -0.00003   0.00173  -0.00735   0.01842  -0.00001
  19        6D+1        0.02421   0.00000   0.00000   0.00000  -0.00896
  20        6D-1        0.00790   0.00001  -0.00002   0.00004   0.00595
  21        6D+2        0.00004   0.00154  -0.00254   0.00135  -0.00001
  22        6D-2        0.00003  -0.00112  -0.00301  -0.00306  -0.00001
  23 2   N  1S         -0.00004   0.00019  -0.00683   0.02196   0.00000
  24        2S         -0.00008   0.00045  -0.01112   0.03686   0.00000
  25        2PX         0.00015   0.00611  -0.03946  -0.00293  -0.00000
  26        2PY         0.00006  -0.02102  -0.02066  -0.01107  -0.00006
  27        2PZ         0.01965   0.00003   0.00003   0.00001  -0.04325
  28        3S          0.00034  -0.00571   0.03339  -0.13618  -0.00000
  29        3PX         0.00017   0.00314  -0.06050   0.01154  -0.00000
  30        3PY         0.00007  -0.03143  -0.03102  -0.00897  -0.00007
  31        3PZ         0.02709   0.00004   0.00004   0.00001  -0.05421
  32        4S         -0.00009   0.05683   0.17018  -0.23114  -0.00000
  33        4PX         0.00059   0.02223  -0.11213  -0.03581  -0.00000
  34        4PY         0.00023  -0.07675  -0.05592  -0.03185  -0.00018
  35        4PZ         0.04823   0.00010   0.00007   0.00004  -0.13833
  36        5S          0.00690  -2.50107   1.45944  -4.80893  -0.00025
  37        5PX        -0.00106   0.23846  -0.20929   1.64958   0.00007
  38        5PY        -0.00135   1.19018   0.11777   0.11349   0.00034
  39        5PZ         0.06893  -0.00150  -0.00015  -0.00019   0.26631
  40        6D 0       -0.00006  -0.00104  -0.00315   0.00350   0.00001
  41        6D+1       -0.00433   0.00000  -0.00001   0.00001   0.01073
  42        6D-1        0.01987   0.00000  -0.00000   0.00001  -0.00339
  43        6D+2       -0.00008   0.00195   0.00503   0.00508   0.00000
  44        6D-2       -0.00005  -0.00269   0.00388  -0.00601   0.00001
  45 3   N  1S         -0.00003  -0.00697  -0.01783   0.01750  -0.00000
  46        2S         -0.00005  -0.01184  -0.02935   0.02922  -0.00000
  47        2PX        -0.00008  -0.03898  -0.01141  -0.03478   0.00000
  48        2PY        -0.00024  -0.00342   0.02254  -0.00043   0.00003
  49        2PZ        -0.16318   0.00001  -0.00003   0.00000   0.02646
  50        3S          0.00022   0.04793   0.09463  -0.10458   0.00000
  51        3PX        -0.00008  -0.06009  -0.02326  -0.05371   0.00000
  52        3PY        -0.00037  -0.00162   0.02706  -0.00717   0.00004
  53        3PZ        -0.24499   0.00000  -0.00003   0.00001   0.03028
  54        4S          0.00055  -0.00770   0.32990  -0.14454  -0.00000
  55        4PX         0.00000  -0.06910   0.13604  -0.08633   0.00000
  56        4PY        -0.00058   0.01444   0.05107   0.02265   0.00016
  57        4PZ        -0.34265  -0.00002  -0.00007  -0.00003   0.12711
  58        5S          0.00470  -1.83696   2.75784  -4.34067  -0.00006
  59        5PX         0.00088  -0.83804   0.01735  -0.92379  -0.00003
  60        5PY        -0.00130  -0.76222  -1.40357  -0.41252  -0.00026
  61        5PZ        -0.47512   0.00099   0.00177   0.00055  -0.20699
  62        6D 0        0.00001   0.00160  -0.00212   0.00427  -0.00003
  63        6D+1       -0.00643  -0.00000  -0.00000  -0.00001  -0.00624
  64        6D-1       -0.01783  -0.00000  -0.00001   0.00001   0.01246
  65        6D+2       -0.00001  -0.00279  -0.00156  -0.00299  -0.00002
  66        6D-2        0.00003   0.00266   0.00100   0.00702  -0.00001
  67 4   N  1S         -0.00011   0.01837   0.01324   0.00170  -0.00000
  68        2S         -0.00018   0.03048   0.02192   0.00331  -0.00000
  69        2PX         0.00014  -0.04781   0.00287   0.00221   0.00000
  70        2PY        -0.00033   0.04757   0.00936   0.00581   0.00002
  71        2PZ        -0.11775  -0.00006  -0.00001  -0.00001   0.01591
  72        3S          0.00064  -0.10387  -0.07131  -0.02246   0.00000
  73        3PX         0.00020  -0.07453   0.00434  -0.00253   0.00000
  74        3PY        -0.00050   0.08071   0.01007  -0.00351   0.00001
  75        3PZ        -0.17914  -0.00010  -0.00001   0.00001   0.01169
  76        4S          0.00161  -0.24378  -0.17135   0.03502   0.00001
  77        4PX         0.00020  -0.06180  -0.09315   0.07131   0.00001
  78        4PY        -0.00052   0.03700   0.04297   0.05188   0.00014
  79        4PZ        -0.24946  -0.00004  -0.00005  -0.00007   0.11535
  80        5S          0.00175   0.25772  -0.43354   1.11476   0.00011
  81        5PX        -0.00359   1.50499  -0.20665   0.09683  -0.00000
  82        5PY        -0.00228   0.32416   0.52136   0.21223  -0.00029
  83        5PZ        -0.35826  -0.00045  -0.00065  -0.00027  -0.24762
  84        6D 0       -0.00000  -0.00131  -0.00760   0.00934   0.00001
  85        6D+1       -0.02476   0.00000  -0.00001  -0.00000   0.01613
  86        6D-1       -0.00662  -0.00000  -0.00002   0.00003  -0.00402
  87        6D+2        0.00002   0.00162  -0.00449   0.00828   0.00001
  88        6D-2        0.00003  -0.00233   0.00554   0.00106   0.00002
  89 5   C  1S         -0.00006   0.00401  -0.01838  -0.01555   0.00000
  90        2S         -0.00010   0.00724  -0.03121  -0.02525   0.00000
  91        2PX        -0.00011   0.03247  -0.01204  -0.02141  -0.00000
  92        2PY         0.00017   0.01849  -0.05368  -0.02564  -0.00018
  93        2PZ         0.20197  -0.00002   0.00007   0.00003  -0.14234
  94        3S          0.00050  -0.04044   0.12791   0.07425  -0.00000
  95        3PX        -0.00010   0.03632  -0.03267  -0.01231  -0.00000
  96        3PY         0.00032   0.04673  -0.06405  -0.02375  -0.00024
  97        3PZ         0.30683  -0.00006   0.00008   0.00003  -0.18619
  98        4S         -0.00135   0.22371  -0.25138   0.27906  -0.00000
  99        4PX        -0.00082   0.17856   0.02020  -0.10519  -0.00002
 100        4PY        -0.00021  -0.00524  -0.33525  -0.06411  -0.00066
 101        4PZ         0.54338   0.00000   0.00042   0.00009  -0.52223
 102        5S         -0.01442   0.40508  -2.44625   1.66333   0.00000
 103        5PX        -0.00335   0.98306   1.54529   0.67118   0.00004
 104        5PY        -0.00065  -0.91781  -0.90224   1.76848   0.00153
 105        5PZ         0.76950   0.00113   0.00109  -0.00225   1.21481
 106        6D 0        0.00000  -0.00524   0.00304   0.01596   0.00004
 107        6D+1        0.00737  -0.00000   0.00002   0.00001  -0.01499
 108        6D-1       -0.00635  -0.00001   0.00000   0.00005  -0.01697
 109        6D+2        0.00004  -0.00239  -0.00469   0.01409   0.00002
 110        6D-2       -0.00006   0.00245  -0.01324  -0.00662  -0.00002
 111 6   H  1S         -0.00010  -0.00806   0.02650  -0.04107  -0.00000
 112        2S         -0.00094  -0.14740   0.15176  -0.16877   0.00000
 113        3S          0.00137   0.53676  -0.40052  -0.24092   0.00000
 114        4PX        -0.00001   0.00031   0.00197  -0.00070   0.00000
 115        4PY        -0.00007  -0.02498   0.01583  -0.01034   0.00001
 116        4PZ         0.00875   0.00003  -0.00002   0.00001   0.00484
 117 7   H  1S         -0.00011   0.00614   0.01117  -0.01335  -0.00000
 118        2S         -0.00053   0.08994   0.06230  -0.02797  -0.00000
 119        3S         -0.00043  -0.13775   0.41660  -0.25485  -0.00002
 120        4PX        -0.00006   0.01474   0.00087   0.01170   0.00000
 121        4PY         0.00005  -0.01816  -0.00258   0.00644   0.00002
 122        4PZ        -0.01630   0.00002   0.00000  -0.00001   0.01271
                          26        27        28        29        30
                           V         V         V         V         V
     Eigenvalues --     0.07729   0.08466   0.11854   0.12966   0.14125
   1 1   N  1S          0.00308  -0.00553  -0.00000  -0.00000  -0.02079
   2        2S          0.00547  -0.00947  -0.00000  -0.00000  -0.03461
   3        2PX        -0.02105  -0.00997   0.00000   0.00000   0.00022
   4        2PY        -0.00092  -0.03272   0.00008   0.00004  -0.01242
   5        2PZ         0.00000   0.00004   0.06480   0.03446   0.00002
   6        3S         -0.02836   0.04297   0.00000   0.00000   0.11871
   7        3PX        -0.02503  -0.02194   0.00000   0.00000  -0.00470
   8        3PY         0.00048  -0.04935   0.00009   0.00005  -0.02267
   9        3PZ        -0.00000   0.00006   0.07371   0.04183   0.00003
  10        4S          0.07999   0.05357   0.00001   0.00001   0.23539
  11        4PX        -0.13986  -0.02485   0.00000   0.00000  -0.05076
  12        4PY        -0.06183  -0.19214   0.00030   0.00016   0.02265
  13        4PZ         0.00008   0.00024   0.23385   0.12363  -0.00003
  14        5S         -6.67532   5.16030  -0.00021   0.00031  12.40424
  15        5PX        -1.33121   0.62769  -0.00001  -0.00006  -2.09884
  16        5PY         1.26369  -1.09949  -0.00111  -0.00090  -1.92164
  17        5PZ        -0.00156   0.00138  -0.93785  -0.66561   0.00252
  18        6D 0       -0.00271  -0.01032   0.00003   0.00001   0.00799
  19        6D+1        0.00002   0.00001  -0.00006  -0.00293   0.00002
  20        6D-1       -0.00001  -0.00003  -0.01322  -0.00630   0.00001
  21        6D+2       -0.00571  -0.00811   0.00002   0.00001  -0.00622
  22        6D-2       -0.01963  -0.00513  -0.00000  -0.00000  -0.01663
  23 2   N  1S         -0.03271   0.00078   0.00000   0.00000   0.00426
  24        2S         -0.05454   0.00150  -0.00000   0.00000   0.00759
  25        2PX         0.01361  -0.01973   0.00000  -0.00000  -0.00914
  26        2PY        -0.01403  -0.01291   0.00007  -0.00005  -0.01788
  27        2PZ         0.00002   0.00002   0.05929  -0.03949   0.00002
  28        3S          0.19387  -0.00968   0.00000  -0.00000  -0.04057
  29        3PX         0.00562  -0.02544   0.00000  -0.00000  -0.00623
  30        3PY        -0.03121  -0.02048   0.00008  -0.00005  -0.03033
  31        3PZ         0.00004   0.00003   0.06106  -0.04134   0.00004
  32        4S          0.32367   0.01196  -0.00000   0.00001   0.22148
  33        4PX         0.04686  -0.01143   0.00000  -0.00001  -0.12287
  34        4PY         0.00165  -0.00441   0.00030  -0.00021  -0.10266
  35        4PZ        -0.00001   0.00001   0.23511  -0.16121   0.00014
  36        5S         12.70839  -4.99666   0.00025  -0.00017  -7.89474
  37        5PX        -3.00426   1.91721  -0.00008   0.00009   3.21940
  38        5PY        -2.04235   0.18219  -0.00097   0.00076   0.43142
  39        5PZ         0.00264  -0.00027  -0.73811   0.58912  -0.00065
  40        6D 0        0.00970  -0.01279   0.00001  -0.00001  -0.00484
  41        6D+1        0.00001  -0.00000  -0.01482   0.00924   0.00001
  42        6D-1        0.00003  -0.00001  -0.00593   0.00494   0.00001
  43        6D+2        0.01045   0.01396   0.00001  -0.00001   0.01348
  44        6D-2       -0.00550   0.00199  -0.00002   0.00001  -0.00783
  45 3   N  1S          0.01601   0.00736   0.00000   0.00000   0.01465
  46        2S          0.02629   0.01181   0.00000   0.00000   0.02432
  47        2PX         0.00799  -0.00713   0.00000   0.00000  -0.01364
  48        2PY        -0.03168   0.00461   0.00004   0.00007  -0.07179
  49        2PZ         0.00004  -0.00001   0.03110   0.05909   0.00009
  50        3S         -0.07931  -0.02781  -0.00000  -0.00000  -0.08345
  51        3PX        -0.00633  -0.01428   0.00000   0.00000  -0.04177
  52        3PY        -0.04326   0.01112   0.00004   0.00008  -0.09460
  53        3PZ         0.00005  -0.00001   0.03220   0.06193   0.00012
  54        4S         -0.33317  -0.17682   0.00000  -0.00000  -0.17021
  55        4PX        -0.00794  -0.04831   0.00001   0.00001   0.04009
  56        4PY        -0.04565   0.01173   0.00017   0.00031  -0.21577
  57        4PZ         0.00006  -0.00001   0.13432   0.24532   0.00026
  58        5S          0.55838  -0.30754   0.00014  -0.00021  -8.53068
  59        5PX         0.35442  -0.16407   0.00004  -0.00013  -4.08374
  60        5PY         0.25893   0.03349  -0.00003  -0.00099  -0.22193
  61        5PZ        -0.00034  -0.00004  -0.03183  -0.77808   0.00042
  62        6D 0       -0.00143  -0.01081  -0.00001   0.00001  -0.01094
  63        6D+1        0.00001  -0.00000   0.00271   0.01313   0.00001
  64        6D-1       -0.00001  -0.00002   0.00447  -0.00330  -0.00003
  65        6D+2       -0.00323   0.00490  -0.00001   0.00000  -0.00276
  66        6D-2       -0.00663   0.00223   0.00000   0.00002  -0.00508
  67 4   N  1S          0.02794   0.01038  -0.00000  -0.00000  -0.00892
  68        2S          0.04628   0.01688  -0.00000  -0.00000  -0.01498
  69        2PX        -0.03425  -0.05202   0.00000  -0.00000   0.01678
  70        2PY        -0.01791   0.02782   0.00002  -0.00009  -0.05761
  71        2PZ         0.00002  -0.00003   0.01765  -0.06981   0.00007
  72        3S         -0.15187  -0.03865   0.00000   0.00000   0.05543
  73        3PX        -0.05220  -0.08434   0.00000  -0.00000   0.02985
  74        3PY        -0.03189   0.03479   0.00002  -0.00010  -0.08733
  75        3PZ         0.00004  -0.00004   0.01564  -0.08123   0.00011
  76        4S         -0.35107  -0.21421  -0.00000   0.00000   0.04276
  77        4PX        -0.05855  -0.15874   0.00000  -0.00001   0.05138
  78        4PY         0.01505   0.22308   0.00011  -0.00034  -0.28717
  79        4PZ        -0.00002  -0.00027   0.08570  -0.26381   0.00036
  80        5S         -7.88939   5.19767  -0.00012   0.00008   3.56763
  81        5PX        -0.37868   0.56054  -0.00000  -0.00001  -1.96978
  82        5PY        -3.31525  -0.86752   0.00004   0.00151   3.75773
  83        5PZ         0.00418   0.00106   0.07225   1.15880  -0.00469
  84        6D 0       -0.00983  -0.01230  -0.00001   0.00002  -0.00082
  85        6D+1       -0.00000   0.00001   0.00651   0.00540  -0.00000
  86        6D-1       -0.00003  -0.00003   0.00270  -0.01005  -0.00000
  87        6D+2       -0.00744   0.00001  -0.00000   0.00001   0.00096
  88        6D-2        0.00272  -0.00466   0.00001   0.00001   0.00308
  89 5   C  1S         -0.01371  -0.01367  -0.00000  -0.00000  -0.00029
  90        2S         -0.02133  -0.02238  -0.00000  -0.00000   0.00024
  91        2PX         0.01072   0.00721  -0.00000  -0.00000  -0.01274
  92        2PY         0.01279  -0.00964  -0.00008   0.00000   0.02896
  93        2PZ        -0.00002   0.00001  -0.06206   0.00033  -0.00004
  94        3S          0.04030   0.06721  -0.00000  -0.00000  -0.00958
  95        3PX         0.02409   0.03372  -0.00000   0.00000  -0.00540
[...]
      4        7           0.000034255   -0.000048370    0.000000154
      5        6          -0.000041505   -0.000061017   -0.000000136
      6        1          -0.000014477    0.000011093    0.000000096
      7        1           0.000007607    0.000006568   -0.000000075
 -------------------------------------------------------------------
 Cartesian Forces:  Max     0.000096465 RMS     0.000036778
 Force constants in Cartesian coordinates: 
                1             2             3             4             5 
      1  0.567474D+00
      2 -0.944498D-01  0.104881D+01
      3  0.102930D-03 -0.113774D-02  0.126420D+00
      4 -0.305247D+00  0.835409D-01 -0.992851D-04  0.606178D+00
      5  0.135754D+00 -0.183964D+00  0.133212D-03 -0.259174D-01  0.494857D+00
      6 -0.164439D-03  0.130721D-03 -0.806741D-01  0.291118D-04 -0.489699D-03
      7 -0.176027D+00 -0.493761D-02  0.981833D-05 -0.122575D+00  0.338048D-01
      8 -0.257884D-01 -0.126589D+00  0.681108D-04 -0.499245D-01 -0.170505D-01
      9  0.388366D-04  0.686418D-04 -0.739448D-01  0.664139D-04  0.643076D-04
     10 -0.235613D-01  0.329124D-01 -0.360245D-04 -0.144412D+00 -0.589382D-01
     11  0.773956D-01 -0.172687D+00  0.228532D-03 -0.293279D-01 -0.239256D+00
     12 -0.936733D-04  0.236704D-03  0.192090D-01  0.333876D-04  0.204066D-03
     13  0.103239D-01  0.375678D-02 -0.436151D-05 -0.582755D-01 -0.106240D+00
     14 -0.911092D-01 -0.112073D+00  0.165055D-03 -0.155840D-02 -0.225609D-01
     15  0.115113D-03  0.159488D-03  0.196640D-01  0.500200D-05  0.682315D-04
     16 -0.711247D-01 -0.924580D-02  0.123261D-04  0.691506D-02  0.362334D-01
     17  0.266882D-02 -0.448124D+00  0.528693D-03 -0.125102D-02 -0.100007D-01
     18 -0.445960D-05  0.527594D-03 -0.164664D-01  0.261292D-05  0.414129D-05
     19 -0.183827D-02 -0.115768D-01  0.145962D-04  0.174162D-01 -0.146971D-01
     20 -0.447136D-02 -0.537083D-02  0.141344D-04  0.244383D-01 -0.220246D-01
     21  0.569175D-05  0.145880D-04  0.579242D-02 -0.372431D-04  0.157397D-04
                6             7             8             9            10 
      6  0.111088D+00
      7 -0.382779D-04  0.471293D+00
      8  0.663654D-04 -0.101577D+00  0.429291D+00
      9  0.349120D-01  0.113706D-03 -0.408630D-03  0.101941D+00
     10  0.734299D-04 -0.623353D-01  0.116067D+00 -0.144293D-03  0.690042D+00
     11  0.208432D-03  0.201665D-01 -0.190531D-01  0.418704D-04 -0.264810D+00
     12 -0.735245D-01 -0.229553D-04  0.392156D-04  0.146344D-01  0.323099D-03
     13  0.135781D-03 -0.114875D+00  0.820962D-01 -0.101974D-03 -0.197139D+00
     14  0.667513D-04  0.563238D-01 -0.264990D+00  0.232680D-03 -0.118889D-01
     15  0.293538D-01 -0.666173D-04  0.233392D-03 -0.773790D-01  0.162850D-04
     16 -0.474118D-04  0.118033D-01 -0.254305D-01  0.324334D-04 -0.920515D-02
     17  0.453183D-05  0.102767D-02 -0.515114D-02 -0.483709D-05  0.151629D-02
     18 -0.101027D-01 -0.153381D-05 -0.445205D-05 -0.846328D-02 -0.184899D-05
     19  0.118059D-04 -0.728375D-02  0.455767D-02 -0.512259D-05 -0.253389D+00
     20  0.128970D-04 -0.480778D-02  0.354209D-02  0.596661D-05  0.185142D+00
     21 -0.110525D-01  0.586000D-05  0.599810D-05  0.829971D-02 -0.230647D-03
               11            12            13            14            15 
     11  0.811569D+00
     12 -0.861833D-03  0.113113D+00
     13 -0.110097D-01  0.190226D-04  0.366899D+00
     14 -0.111834D+00  0.603619D-04  0.362844D-01  0.500711D+00
     15  0.636749D-04 -0.632411D-01 -0.550190D-04 -0.509904D-03  0.928203D-01
     16  0.572802D-02 -0.691788D-05 -0.554811D-02 -0.688010D-02  0.917191D-05
     17  0.525356D-02  0.000000D+00 -0.275990D-02  0.224081D-03  0.884761D-05
     18  0.156925D-05  0.617800D-02  0.371230D-05  0.917368D-05  0.729190D-02
     19  0.201857D+00 -0.251963D-03 -0.138530D-02  0.188284D-01 -0.239358D-04
     20 -0.273991D+00  0.320598D-03 -0.212792D-02  0.105219D-01 -0.237299D-04
     21  0.317755D-03 -0.163690D-01  0.283829D-05 -0.241184D-04 -0.850992D-02
               16            17            18            19            20 
     16  0.658395D-01
     17 -0.151209D-02  0.458093D+00
     18  0.184880D-05 -0.541155D-03  0.193639D-01
     19  0.132014D-02  0.310232D-03  0.000000D+00  0.245160D+00
     20  0.110706D-02 -0.294446D-03  0.312802D-05 -0.199280D+00  0.287617D+00
     21 -0.145055D-05  0.303207D-05  0.219866D-02  0.254951D-03 -0.332994D-03
               21 
     21  0.196407D-01
 Leave Link  716 at Fri Jun  2 11:09:59 2023, MaxMem=  7381975040 cpu:               0.3 elap:               1.0
 (Enter /software/commercial/gaussian/g16/AVX/g16/l103.exe)

 GradGradGradGradGradGradGradGradGradGradGradGradGradGradGradGradGradGrad
 Berny optimization.
 Search for a local minimum.
 Step number   1 out of a maximum of    2
 All quantities printed in internal units (Hartrees-Bohrs-Radians)
 Second derivative matrix not updated -- analytic derivatives used.
 ITU=  0
     Eigenvalues ---    0.03150   0.04936   0.07337   0.11663   0.22538
     Eigenvalues ---    0.25681   0.26053   0.30685   0.49194   0.58198
     Eigenvalues ---    0.69981   0.78599   0.94305   1.24261   1.43570
 Angle between quadratic step and forces=  30.76 degrees.
 Linear search not attempted -- first point.
 B after Tr=     0.000007    0.000003    0.000000
         Rot=    1.000000    0.000000    0.000000    0.000000 Ang=   0.00 deg.
 Variable       Old X    -DE/DX   Delta X   Delta X   Delta X     New X
                                 (Linear)    (Quad)   (Total)
    X1        0.06682  -0.00003   0.00000   0.00001   0.00002   0.06684
    Y1        1.99422   0.00002   0.00000   0.00004   0.00004   1.99426
    Z1       -0.00393   0.00000   0.00000  -0.00000  -0.00000  -0.00393
    X2        2.15315   0.00010   0.00000   0.00016   0.00016   2.15332
    Y2        0.73889   0.00007   0.00000   0.00009   0.00009   0.73898
    Z2       -0.00239   0.00000   0.00000   0.00000   0.00000  -0.00239
    X3       -2.06268  -0.00005   0.00000  -0.00007  -0.00006  -2.06274
    Y3        0.59974  -0.00001   0.00000   0.00001   0.00001   0.59976
    Z3       -0.00211  -0.00000   0.00000  -0.00000  -0.00000  -0.00211
    X4        1.29645   0.00003   0.00000   0.00003   0.00003   1.29648
    Y4       -1.61919  -0.00005   0.00000  -0.00006  -0.00006  -1.61925
    Z4        0.00060   0.00000   0.00000   0.00000   0.00000   0.00060
    X5       -1.30387  -0.00004   0.00000  -0.00011  -0.00010  -1.30397
    Y5       -1.84039  -0.00006   0.00000  -0.00008  -0.00007  -1.84046
    Z5        0.00095  -0.00000   0.00000   0.00000   0.00000   0.00095
    X6        0.07803  -0.00001   0.00000  -0.00007  -0.00006   0.07796
    Y6        3.91166   0.00001   0.00000   0.00006   0.00007   3.91172
    Z6       -0.00633   0.00000   0.00000   0.00000   0.00000  -0.00633
    X7        2.58502   0.00001   0.00000   0.00000   0.00001   2.58503
    Y7       -3.03142   0.00001   0.00000  -0.00008  -0.00008  -3.03150
    Z7        0.00233  -0.00000   0.00000  -0.00000  -0.00000   0.00233
         Item               Value     Threshold  Converged?
 Maximum Force            0.000096     0.000450     YES
 RMS     Force            0.000037     0.000300     YES
 Maximum Displacement     0.000165     0.001800     YES
 RMS     Displacement     0.000060     0.001200     YES
 Predicted change in Energy=-1.978934D-08
 Optimization completed.
    -- Stationary point found.
 GradGradGradGradGradGradGradGradGradGradGradGradGradGradGradGradGradGrad

 Leave Link  103 at Fri Jun  2 11:10:03 2023, MaxMem=  7381975040 cpu:               2.4 elap:               3.0
 (Enter /software/commercial/gaussian/g16/AVX/g16/l9999.exe)

 ----------------------------------------------------------------------

 Electric dipole moment (input orientation):
 (Debye = 10**-18 statcoulomb cm , SI units = C m)
                  (au)            (Debye)         (10**-30 SI)
   Tot        0.218810D+01      0.556160D+01      0.185515D+02
   x          0.184928D+01      0.470041D+01      0.156789D+02
   y          0.116959D+01      0.297279D+01      0.991616D+01
   z         -0.152532D-02     -0.387698D-02     -0.129322D-01

 Dipole polarizability, Alpha (input orientation).
 (esu units = cm**3 , SI units = C**2 m**2 J**-1)
 Alpha(0;0):
               (au)            (10**-24 esu)      (10**-40 SI)
   iso        0.528406D+02      0.783017D+01      0.871224D+01
   aniso      0.285817D+02      0.423538D+01      0.471249D+01
   xx         0.620375D+02      0.919301D+01      0.102286D+02
   yx         0.306770D+01      0.454586D+00      0.505795D+00
   yy         0.623651D+02      0.924155D+01      0.102826D+02
   zx        -0.457656D-02     -0.678177D-03     -0.754574D-03
   zy        -0.356408D-01     -0.528143D-02     -0.587638D-02
   zz         0.341193D+02      0.505596D+01      0.562551D+01

 First dipole hyperpolarizability, Beta (input orientation).
 ||, _|_  parallel and perpendicular components, (z) with respect to z axis,
 vector components x,y,z.  Values do not include the 1/n! factor of 1/2.
 (esu units = statvolt**-1 cm**4 , SI units = C**3 m**3 J**-2)
 Beta(0;0,0):
               (au)            (10**-30 esu)      (10**-50 SI)
   || (z)     0.201345D+00      0.173947D-02      0.645586D-03
   _|_(z)     0.671151D-01      0.579822D-03      0.215195D-03
   x         -0.506411D+03     -0.437500D+01     -0.162374D+01
   y         -0.794718D+03     -0.686574D+01     -0.254815D+01
   z          0.100673D+01      0.869733D-02      0.322793D-02
   ||         0.188471D+03      0.162824D+01      0.604305D+00
   xxx       -0.466945D+02     -0.403404D+00     -0.149720D+00
   xxy       -0.200465D+02     -0.173186D+00     -0.642763D-01
   yxy       -0.462867D+02     -0.399881D+00     -0.148412D+00
   yyy       -0.150754D+03     -0.130240D+01     -0.483373D+00
   xxz        0.221110D-01      0.191022D-03      0.708958D-04
   yxz       -0.392800D-01     -0.339349D-03     -0.125946D-03
   yyz       -0.463034D-01     -0.400025D-03     -0.148465D-03
   zxz       -0.758225D+02     -0.655048D+00     -0.243114D+00
   zyz       -0.941051D+02     -0.812995D+00     -0.301735D+00
   zzz        0.359768D+00      0.310811D-02      0.115355D-02

 ----------------------------------------------------------------------

 Dipole orientation:
     7         -0.87914792          1.39594309          1.12242687
     7          0.28210202         -0.44446251          2.21470206
     7         -0.85765116          1.36186661         -1.42270653
     7          1.10124400         -1.74264864          0.23021052
     6          0.45929308         -0.72527026         -2.08569763
     1         -1.74073328          2.76137330          2.15681274
     1          2.10572605         -3.33454965          0.56438762

 Electric dipole moment (dipole orientation):
 (Debye = 10**-18 statcoulomb cm , SI units = C m)
                  (au)            (Debye)         (10**-30 SI)
   Tot        0.218810D+01      0.556160D+01      0.185515D+02
   x          0.000000D+00      0.000000D+00      0.000000D+00
   y          0.000000D+00      0.000000D+00      0.000000D+00
   z          0.218810D+01      0.556160D+01      0.185515D+02

 Dipole polarizability, Alpha (dipole orientation).
 (esu units = cm**3 , SI units = C**2 m**2 J**-1)
 Alpha(0;0):
               (au)            (10**-24 esu)      (10**-40 SI)
   iso        0.528406D+02      0.783017D+01      0.871224D+01
   aniso      0.285817D+02      0.423538D+01      0.471249D+01
   xx         0.413467D+02      0.612695D+01      0.681715D+01
   yx        -0.114543D+02     -0.169736D+01     -0.188856D+01
   yy         0.522723D+02      0.774596D+01      0.861854D+01
   zx        -0.780635D+00     -0.115678D+00     -0.128709D+00
   zy         0.123703D+01      0.183308D+00      0.203958D+00
   zz         0.649028D+02      0.961760D+01      0.107010D+02

 First dipole hyperpolarizability, Beta (dipole orientation).
 ||, _|_  parallel and perpendicular components, (z) with respect to z axis,
 vector components x,y,z.  Values do not include the 1/n! factor of 1/2.
 (esu units = statvolt**-1 cm**4 , SI units = C**3 m**3 J**-2)
 Beta(0;0,0):
               (au)            (10**-30 esu)      (10**-50 SI)
   || (z)    -0.170558D+03     -0.147349D+01     -0.546871D+00
   _|_(z)    -0.568527D+02     -0.491163D+00     -0.182290D+00
   x          0.213980D+03      0.184862D+01      0.686096D+00
   y         -0.339104D+03     -0.292959D+01     -0.108729D+01
   z         -0.852790D+03     -0.736744D+01     -0.273435D+01
   ||         0.188471D+03      0.162824D+01      0.604305D+00
   xxx        0.515592D+02      0.445431D+00      0.165317D+00
   xxy       -0.157350D+02     -0.135938D+00     -0.504520D-01
   yxy       -0.652547D+01     -0.563750D-01     -0.209230D-01
   yyy       -0.556305D+02     -0.480605D+00     -0.178372D+00
   xxz       -0.995165D+02     -0.859745D+00     -0.319086D+00
   yxz       -0.235611D+02     -0.203550D+00     -0.755455D-01
   yyz       -0.770428D+02     -0.665590D+00     -0.247027D+00
   zxz        0.262929D+02      0.227150D+00      0.843045D-01
   zyz       -0.416691D+02     -0.359989D+00     -0.133606D+00
   zzz       -0.107704D+03     -0.930479D+00     -0.345338D+00

 ----------------------------------------------------------------------
 Unable to Open any file for archive entry.
 1\1\GINC-NODE1706\Freq\RB3LYP\6-311+G(d,p)\C1H2N4\SVICCHI\02-Jun-2023\
 0\\#p freq=raman scale=0.967 pop=(nbo,full,hirshfeld) guess=read geom=
 allcheck b3lyp/6-311+G(d,p) int=grid=ultrafine EmpiricalDispersion=GD3
 BJ SCRF=(Solvent=ethanol) scf=(xqc,intrep,maxconventionalcycle=350) no
 symm\\tetrazolide-H_dissociation-site_index-3.gjf\\0,1\N,0.0353577715,
 1.0552967044,-0.0020783913\N,1.1393995922,0.3910040881,-0.0012642504\N
 ,-1.0915227309,0.3173699757,-0.001114907\N,0.6860524203,-0.8568379969,
 0.0003178153\C,-0.6899773687,-0.9738914365,0.000504066\H,0.0412905126,
 2.0699588746,-0.0033481639\H,1.367935803,-1.6041562095,0.0012328313\\V
 ersion=ES64L-G16RevC.01\HF=-258.2887665\RMSD=5.019e-09\RMSF=3.678e-05\
 ZeroPoint=0.0459841\Thermal=0.0494974\ETot=-258.2392691\HTot=-258.2383
 249\GTot=-258.2688797\Dipole=1.8492833,1.169586,-0.0015253\DipoleDeriv
 =0.5639457,0.0010097,-0.0000076,0.2132102,-0.5997283,0.0007403,-0.0002
 922,0.0007112,0.0006032,-0.7732484,-0.3296948,0.0004377,-0.4637426,0.2
 209838,-0.0001983,0.0006634,-0.0001752,0.045527,-0.3961263,0.2785607,-
 0.0003589,-0.2156481,-0.2609942,0.0000172,0.0002489,-0.0000192,-0.2726
 062,0.0740343,0.1064588,-0.0001398,0.2642994,-0.3039622,0.0001896,-0.0
 003454,0.0001733,-0.1525281,-0.0356216,0.0839302,-0.0001026,0.3139226,
 0.1472435,-0.0006624,-0.0003693,-0.0006206,-0.3478739,0.2565083,-0.077
 3864,0.0000968,-0.0252589,0.4446322,-0.0000875,0.0000189,-0.0000818,0.
 3764453,0.310508,-0.0628781,0.0000743,-0.0867827,0.3518253,0.0000012,0
 .0000757,0.0000123,0.3504327\Polar=62.0374979,3.0676992,62.3650898,-0.
 0045766,-0.0356408,34.1192766\PolarDeriv=-9.471134,-3.0050071,-0.95262
 88,0.003854,0.0009451,-0.3839577,2.4209691,-2.5363189,1.146492,0.00363
 78,0.0042114,0.57334,-0.0030761,0.0038296,0.0069815,0.4069482,3.922296
 7,-0.0113829,18.9897419,4.7825669,3.7410295,-0.0062922,-0.0046978,0.06
 40628,4.3582542,5.9790053,-1.9115281,-0.0024915,0.0036897,-0.9707687,-
 0.0040379,-0.0020394,0.0084122,4.1590669,1.8180183,-0.0019051,-7.92214
 85,0.6214593,-9.2277184,-0.0008788,0.0082613,-2.5792695,10.9661796,-2.
 2044806,-6.9793997,-0.0030823,0.0122684,1.256814,-0.0146104,-0.0031788
 ,0.0131072,-4.5190373,1.3893988,-0.0057711,-6.7234281,-2.678116,3.8144
 819,0.0038989,-0.0016597,2.5213892,-7.8506254,-6.7529346,-1.1694034,0.
 011733,-0.0039152,-1.5853945,0.0101269,0.0112569,-0.0055304,2.3044086,
 -2.6226892,0.0075318,-0.0697229,2.0368132,-2.3971976,-0.0024297,0.0029
 108,-0.0017187,-7.5449127,0.5250233,0.277047,-0.0049906,-0.0058708,0.5
 966356,0.0101375,-0.0051368,-0.0127159,-3.5319715,-4.8936851,0.012862,
 -0.5491909,2.0274991,1.1222937,-0.0026152,-0.001934,-0.3392867,1.86339
 24,1.2629166,15.3417102,-0.0011326,-0.0169048,1.1068322,-0.0026043,-0.
 0014153,-0.0171232,0.3842049,0.8815914,-0.0036513,5.7458825,-3.7852154
 ,3.8997396,0.004463,-0.0038258,0.7187807,-4.2132571,3.726789,-6.704918
 ,-0.0036736,0.0065212,-0.9774585,0.0040644,-0.0033162,0.0068687,0.7963
 802,-0.494931,0.0023167\HyperPolar=-46.6945423,-20.0464851,-46.2866716
 ,-150.754324,0.022111,-0.03928,-0.0463034,-75.8225251,-94.105108,0.359
 7679\Quadrupole=-4.0510396,4.2523708,-0.2013312,-4.8661707,0.0036216,-
 0.0070818\PG=C01 [X(C1H2N4)]\NImag=0\\0.56747365,-0.09444981,1.0488078
 4,0.00010293,-0.00113774,0.12642004,-0.30524655,0.08354087,-0.00009929
 ,0.60617773,0.13575441,-0.18396383,0.00013321,-0.02591741,0.49485682,-
 0.00016444,0.00013072,-0.08067413,0.00002911,-0.00048970,0.11108798,-0
 .17602675,-0.00493761,0.00000982,-0.12257524,0.03380476,-0.00003828,0.
 47129263,-0.02578840,-0.12658892,0.00006811,-0.04992448,-0.01705048,0.
 00006637,-0.10157736,0.42929135,0.00003884,0.00006864,-0.07394480,0.00
 006641,0.00006431,0.03491204,0.00011371,-0.00040863,0.10194091,-0.0235
 6130,0.03291240,-0.00003602,-0.14441171,-0.05893825,0.00007343,-0.0623
 3525,0.11606691,-0.00014429,0.69004156,0.07739556,-0.17268736,0.000228
 53,-0.02932788,-0.23925620,0.00020843,0.02016650,-0.01905311,0.0000418
 7,-0.26480997,0.81156855,-0.00009367,0.00023670,0.01920896,0.00003339,
 0.00020407,-0.07352453,-0.00002296,0.00003922,0.01463441,0.00032310,-0
 .00086183,0.11311329,0.01032389,0.00375678,-0.00000436,-0.05827551,-0.
 10623984,0.00013578,-0.11487492,0.08209616,-0.00010197,-0.19713897,-0.
 01100969,0.00001902,0.36689892,-0.09110921,-0.11207253,0.00016505,-0.0
 0155840,-0.02256093,0.00006675,0.05632383,-0.26498978,0.00023268,-0.01
 188895,-0.11183396,0.00006036,0.03628442,0.50071120,0.00011511,0.00015
 949,0.01966396,0.00000500,0.00006823,0.02935385,-0.00006662,0.00023339
 ,-0.07737899,0.00001629,0.00006367,-0.06324112,-0.00005502,-0.00050990
 ,0.09282032,-0.07112468,-0.00924580,0.00001233,0.00691506,0.03623339,-
 0.00004741,0.01180328,-0.02543049,0.00003243,-0.00920515,0.00572802,-0
 .00000692,-0.00554811,-0.00688010,0.00000917,0.06583945,0.00266882,-0.
 44812437,0.00052869,-0.00125102,-0.01000075,0.00000453,0.00102767,-0.0
 0515114,-0.00000484,0.00151629,0.00525356,0.00000089,-0.00275990,0.000
 22408,0.00000885,-0.00151209,0.45809307,-0.00000446,0.00052759,-0.0164
 6645,0.00000261,0.00000414,-0.01010271,-0.00000153,-0.00000445,-0.0084
 6328,-0.00000185,0.00000157,0.00617800,0.00000371,0.00000917,0.0072919
 0,0.00000185,-0.00054115,0.01936388,-0.00183827,-0.01157683,0.00001460
 ,0.01741623,-0.01469707,0.00001181,-0.00728375,0.00455767,-0.00000512,
 -0.25338918,0.20185747,-0.00025196,-0.00138530,0.01882840,-0.00002394,
 0.00132014,0.00031023,-0.00000033,0.24516012,-0.00447136,-0.00537083,0
 .00001413,0.02443832,-0.02202464,0.00001290,-0.00480778,0.00354209,0.0
 0000597,0.18514156,-0.27399149,0.00032060,-0.00212792,0.01052191,-0.00
 002373,0.00110706,-0.00029445,0.00000313,-0.19927987,0.28761740,0.0000
 0569,0.00001459,0.00579242,-0.00003724,0.00001574,-0.01105252,0.000005
 86,0.00000600,0.00829971,-0.00023065,0.00031775,-0.01636902,0.00000284
 ,-0.00002412,-0.00850992,-0.00000145,0.00000303,0.00219866,0.00025495,
 -0.00033299,0.01964067\\0.00003115,-0.00002330,-0.00000005,-0.00009646
 ,-0.00007442,-0.00000012,0.00005120,0.00000599,0.00000021,-0.00003425,
 0.00004837,-0.00000015,0.00004150,0.00006102,0.00000014,0.00001448,-0.
 00001109,-0.00000010,-0.00000761,-0.00000657,0.00000007\\\@
 The archive entry for this job was punched.


 TWO ROADS DIVERGED IN A WOOD, AND I--
 I TOOK THE ONE LESS TRAVELED BY,
 AND THAT HAS MADE ALL THE DIFFERENCE.

                       -- ROBERT FROST
 Job cpu time:       0 days  0 hours  6 minutes  1.9 seconds.
 Elapsed time:       0 days  0 hours  3 minutes 42.9 seconds.
 File lengths (MBytes):  RWF=     62 Int=      0 D2E=      0 Chk=      8 Scr=      1
 Normal termination of Gaussian 16 at Fri Jun  2 11:10:06 2023.
