 Entering Gaussian System, Link 0=g16
 Input=3ethyl45dimethylthiazolium-isolated-freq.gjf
 Output=3ethyl45dimethylthiazolium-isolated-freq.log
 Initial command:
 /software/commercial/gaussian/g16/AVX/g16/l1.exe "/scratch1/svicchi/G09-659724.pbs02/Gau-1765499.inp" -scrdir="/scratch1/svicchi/G09-659724.pbs02/"
 Entering Link 1 = /software/commercial/gaussian/g16/AVX/g16/l1.exe PID=   1765502.
  
 Copyright (c) 1988-2019, Gaussian, Inc.  All Rights Reserved.
  
 This is part of the Gaussian(R) 16 program.  It is based on
 the Gaussian(R) 09 system (copyright 2009, Gaussian, Inc.),
 the Gaussian(R) 03 system (copyright 2003, Gaussian, Inc.),
 the Gaussian(R) 98 system (copyright 1998, Gaussian, Inc.),
 the Gaussian(R) 94 system (copyright 1995, Gaussian, Inc.),
 the Gaussian 92(TM) system (copyright 1992, Gaussian, Inc.),
 the Gaussian 90(TM) system (copyright 1990, Gaussian, Inc.),
 the Gaussian 88(TM) system (copyright 1988, Gaussian, Inc.),
 the Gaussian 86(TM) system (copyright 1986, Carnegie Mellon
 University), and the Gaussian 82(TM) system (copyright 1983,
 Carnegie Mellon University). Gaussian is a federally registered
 trademark of Gaussian, Inc.
  
 This software contains proprietary and confidential information,
 including trade secrets, belonging to Gaussian, Inc.
  
 This software is provided under written license and may be
 used, copied, transmitted, or stored only in accord with that
 written license.
  
 The following legend is applicable only to US Government
 contracts under FAR:
  
                    RESTRICTED RIGHTS LEGEND
  
 Use, reproduction and disclosure by the US Government is
 subject to restrictions as set forth in subparagraphs (a)
 and (c) of the Commercial Computer Software - Restricted
 Rights clause in FAR 52.227-19.
  
 Gaussian, Inc.
 340 Quinnipiac St., Bldg. 40, Wallingford CT 06492
  
  
 ---------------------------------------------------------------
 Warning -- This program may not be used in any manner that
 competes with the business of Gaussian, Inc. or will provide
 assistance to any competitor of Gaussian, Inc.  The licensee
 of this program is prohibited from giving any competitor of
 Gaussian, Inc. access to this program.  By using this program,
 the user acknowledges that Gaussian, Inc. is engaged in the
 business of creating and licensing software in the field of
 computational chemistry and represents and warrants to the
 licensee that it is not a competitor of Gaussian, Inc. and that
 it will not use this program in any manner prohibited above.
 ---------------------------------------------------------------
  

 Cite this work as:
 Gaussian 16, Revision C.01,
 M. J. Frisch, G. W. Trucks, H. B. Schlegel, G. E. Scuseria, 
 M. A. Robb, J. R. Cheeseman, G. Scalmani, V. Barone, 
 G. A. Petersson, H. Nakatsuji, X. Li, M. Caricato, A. V. Marenich, 
 J. Bloino, B. G. Janesko, R. Gomperts, B. Mennucci, H. P. Hratchian, 
 J. V. Ortiz, A. F. Izmaylov, J. L. Sonnenberg, D. Williams-Young, 
 F. Ding, F. Lipparini, F. Egidi, J. Goings, B. Peng, A. Petrone, 
 T. Henderson, D. Ranasinghe, V. G. Zakrzewski, J. Gao, N. Rega, 
 G. Zheng, W. Liang, M. Hada, M. Ehara, K. Toyota, R. Fukuda, 
 J. Hasegawa, M. Ishida, T. Nakajima, Y. Honda, O. Kitao, H. Nakai, 
 T. Vreven, K. Throssell, J. A. Montgomery, Jr., J. E. Peralta, 
 F. Ogliaro, M. J. Bearpark, J. J. Heyd, E. N. Brothers, K. N. Kudin, 
 V. N. Staroverov, T. A. Keith, R. Kobayashi, J. Normand, 
 K. Raghavachari, A. P. Rendell, J. C. Burant, S. S. Iyengar, 
 J. Tomasi, M. Cossi, J. M. Millam, M. Klene, C. Adamo, R. Cammi, 
 J. W. Ochterski, R. L. Martin, K. Morokuma, O. Farkas, 
 J. B. Foresman, and D. J. Fox, Gaussian, Inc., Wallingford CT, 2019.
 
 ******************************************
 Gaussian 16:  ES64L-G16RevC.01  3-Jul-2019
                 2-Jun-2023 
 ******************************************
 %NProcShared=2
 Will use up to    2 processors via shared memory.
 %mem=55gb
 %chk=/scratch1/svicchi/G09-659724.pbs02/02-freq/3ethyl45dimethylthiazolium-isola
 ted-freq.chk
 ----------------------------------------------------------------------
 #p freq=raman scale=0.967 pop=(nbo,full,hirshfeld) guess=read geom=all
 check b3lyp/6-311+G(d,p) int=grid=ultrafine EmpiricalDispersion=GD3BJ 
 SCRF=(Solvent=ethanol) scf=(xqc,intrep,maxconventionalcycle=350) nosym
 m
 ----------------------------------------------------------------------
 1/10=4,29=7,30=1,38=1,114=967000/1,3;
 2/12=2,15=1,40=1/2;
 3/5=4,6=6,7=111,11=2,14=-4,25=1,30=1,70=2201,71=2,72=4,74=-5,75=-5,116=-2,124=41,140=1/1,2,3;
 4/5=1/1;
 5/5=2,8=3,13=1,17=20,38=6,53=4,85=350,98=1/2,8;
 8/6=4,10=90,11=11/1;
 10/13=10,15=4,31=1/2;
 11/6=3,8=1,9=11,15=111,16=1,31=1/1,2,10;
 10/6=1,31=1/2;
 6/7=3,28=1,40=1,79=1/1,7;
 7/8=1,10=1,25=1,30=1/1,2,3,16;
 1/10=4,30=1/3;
 99//99;
 Leave Link    1 at Fri Jun  2 11:39:25 2023, MaxMem=  7381975040 cpu:               0.8 elap:               0.9
 (Enter /software/commercial/gaussian/g16/AVX/g16/l101.exe)
 Structure from the checkpoint file:  "/scratch1/svicchi/G09-659724.pbs02/02-freq/3ethyl45dimethylthiazolium-isolated-freq.chk"
 ---------------------------------------
 3ethyl45dimethylthiazolium-isolated.gjf
 ---------------------------------------
 Charge =  1 Multiplicity = 1
 No Z-Matrix found in chk file; cartesian coordinates used.
  N                                                -0.087543262938      0.065877402296     -0.000415741502
  C                                                 1.232972468206      0.007869364709      0.034863471090
  C                                                -0.632092266864      0.073814386115     -1.288339029989
  C                                                 0.337231845988      0.016411449667     -2.246938263277
  S                                                 1.917466045634     -0.043697816980     -1.509280415148
  C                                                -0.903880899678      0.046976684183      1.239636204212
  C                                                -1.287838721199     -1.373408697797      1.635916537385
  H                                                -1.884413529624     -1.335216636970      2.548927918568
  H                                                -1.880298607271     -1.862315967086      0.861336763605
  H                                                -0.398457277186     -1.975989747685      1.828685372614
  H                                                -1.777985878844      0.668787205003      1.058199556937
  H                                                -0.307386780235      0.528572161856      2.012318267003
  H                                                 1.799385302478     -0.014192188926      0.952281338042
  C                                                 0.188907171555      0.037365640035     -3.733850585232
  H                                                 0.993368439667     -0.518014631925     -4.217099688207
  H                                                 0.210247785915      1.063100202580     -4.111147307675
  C                                                -2.105557167530      0.175101518125     -1.494245827204
  H                                                -2.334692820612      0.118960701449     -2.556087592920
  H                                                -2.487414466562      1.128344091461     -1.119928369441
  H                                                -2.640092048235     -0.630954539412     -0.988652049527
  H                                                -0.757507332665     -0.416039580698     -4.028349559335
 Recover connectivity data from disk.
 ITRead=  0  0  0  0  0  0  0  0  0  0  0  0  0  0  0  0  0  0  0  0
 ITRead=  0
 MicOpt= -1 -1 -1 -1 -1 -1 -1 -1 -1 -1 -1 -1 -1 -1 -1 -1 -1 -1 -1 -1
 MicOpt= -1
 NAtoms=     21 NQM=       21 NQMF=       0 NMMI=      0 NMMIF=      0
                NMic=       0 NMicF=      0.
                    Isotopes and Nuclear Properties:
 (Nuclear quadrupole moments (NQMom) in fm**2, nuclear magnetic moments (NMagM)
  in nuclear magnetons)

  Atom         1           2           3           4           5           6           7           8           9          10
 IAtWgt=          14          12          12          12          32          12          12           1           1           1
 AtmWgt=  14.0030740  12.0000000  12.0000000  12.0000000  31.9720718  12.0000000  12.0000000   1.0078250   1.0078250   1.0078250
 NucSpn=           2           0           0           0           0           0           0           1           1           1
 AtZEff=   4.5500000   3.6000000   3.6000000   3.6000000  13.6000000   3.6000000   3.6000000   1.0000000   1.0000000   1.0000000
 NQMom=    2.0440000   0.0000000   0.0000000   0.0000000   0.0000000   0.0000000   0.0000000   0.0000000   0.0000000   0.0000000
 NMagM=    0.4037610   0.0000000   0.0000000   0.0000000   0.0000000   0.0000000   0.0000000   2.7928460   2.7928460   2.7928460
 AtZNuc=   7.0000000   6.0000000   6.0000000   6.0000000  16.0000000   6.0000000   6.0000000   1.0000000   1.0000000   1.0000000

  Atom        11          12          13          14          15          16          17          18          19          20
 IAtWgt=           1           1           1          12           1           1          12           1           1           1
 AtmWgt=   1.0078250   1.0078250   1.0078250  12.0000000   1.0078250   1.0078250  12.0000000   1.0078250   1.0078250   1.0078250
 NucSpn=           1           1           1           0           1           1           0           1           1           1
 AtZEff=   1.0000000   1.0000000   1.0000000   3.6000000   1.0000000   1.0000000   3.6000000   1.0000000   1.0000000   1.0000000
 NQMom=    0.0000000   0.0000000   0.0000000   0.0000000   0.0000000   0.0000000   0.0000000   0.0000000   0.0000000   0.0000000
 NMagM=    2.7928460   2.7928460   2.7928460   0.0000000   2.7928460   2.7928460   0.0000000   2.7928460   2.7928460   2.7928460
 AtZNuc=   1.0000000   1.0000000   1.0000000   6.0000000   1.0000000   1.0000000   6.0000000   1.0000000   1.0000000   1.0000000

  Atom        21
 IAtWgt=           1
 AtmWgt=   1.0078250
 NucSpn=           1
 AtZEff=   1.0000000
 NQMom=    0.0000000
 NMagM=    2.7928460
 AtZNuc=   1.0000000
 Leave Link  101 at Fri Jun  2 11:39:25 2023, MaxMem=  7381975040 cpu:               0.3 elap:               0.3
 (Enter /software/commercial/gaussian/g16/AVX/g16/l103.exe)

 GradGradGradGradGradGradGradGradGradGradGradGradGradGradGradGradGradGrad
 Berny optimization.
 Initialization pass.
 Trust Radius=3.00D-01 FncErr=1.00D-07 GrdErr=1.00D-07 EigMax=2.50D+02 EigMin=1.00D-04
 Number of steps in this run=      2 maximum allowed number of steps=      2.
 GradGradGradGradGradGradGradGradGradGradGradGradGradGradGradGradGradGrad

 Leave Link  103 at Fri Jun  2 11:39:27 2023, MaxMem=  7381975040 cpu:               0.1 elap:               0.6
 (Enter /software/commercial/gaussian/g16/AVX/g16/l202.exe)
                          Input orientation:                          
 ---------------------------------------------------------------------
 Center     Atomic      Atomic             Coordinates (Angstroms)
 Number     Number       Type             X           Y           Z
 ---------------------------------------------------------------------
      1          7           0       -0.087543    0.065877   -0.000416
      2          6           0        1.232972    0.007869    0.034863
      3          6           0       -0.632092    0.073814   -1.288339
      4          6           0        0.337232    0.016411   -2.246938
      5         16           0        1.917466   -0.043698   -1.509280
      6          6           0       -0.903881    0.046977    1.239636
      7          6           0       -1.287839   -1.373409    1.635917
      8          1           0       -1.884414   -1.335217    2.548928
      9          1           0       -1.880299   -1.862316    0.861337
     10          1           0       -0.398457   -1.975990    1.828685
     11          1           0       -1.777986    0.668787    1.058200
     12          1           0       -0.307387    0.528572    2.012318
     13          1           0        1.799385   -0.014192    0.952281
     14          6           0        0.188907    0.037366   -3.733851
     15          1           0        0.993368   -0.518015   -4.217100
     16          1           0        0.210248    1.063100   -4.111147
     17          6           0       -2.105557    0.175102   -1.494246
     18          1           0       -2.334693    0.118961   -2.556088
     19          1           0       -2.487414    1.128344   -1.119928
     20          1           0       -2.640092   -0.630955   -0.988652
     21          1           0       -0.757507   -0.416040   -4.028350
 ---------------------------------------------------------------------
                    Distance matrix (angstroms):
                    1          2          3          4          5
     1  N    0.000000
     2  C    1.322260   0.000000
     3  C    1.398336   2.287724   0.000000
     4  C    2.286863   2.451335   1.364477   0.000000
     5  S    2.511721   1.689843   2.561810   1.744962   0.000000
     6  C    1.484754   2.453395   2.542685   3.701013   3.940148
     7  C    2.487938   3.290257   3.328022   4.432721   4.683415
     8  H    3.419205   4.224038   4.275312   5.455542   5.708885
     9  H    2.770292   3.724662   3.150829   4.255400   4.832206
    10  H    2.758895   3.132899   3.737930   4.595825   4.498807
    11  H    2.083690   3.248061   2.678303   3.977898   4.555870
    12  H    2.076901   2.560110   3.347623   4.338100   4.204655
    13  H    2.115311   1.078409   3.307599   3.517646   2.464569
    14  C    3.743765   3.910773   2.579902   1.494439   2.818368
    15  H    4.392007   4.291055   3.401474   2.144216   2.900210
    16  H    4.240430   4.398737   3.107486   2.141718   3.302924
    17  C    2.513133   3.675857   1.491226   2.561044   4.028997
    18  H    3.403521   4.410624   2.123222   2.691704   4.382136
    19  H    2.853336   4.053429   2.140704   3.238082   4.574740
    20  H    2.824481   4.056638   2.149087   3.296487   4.624636
    21  H    4.111611   4.544382   2.786278   2.135157   3.693214
                    6          7          8          9         10
     6  C    0.000000
     7  C    1.523797   0.000000
     8  H    2.141529   1.091307   0.000000
     9  H    2.177591   1.090877   1.767997   0.000000
    10  H    2.166755   1.091450   1.771272   1.773285   0.000000
    11  H    1.087946   2.178202   2.499926   2.540808   3.080843
    12  H    1.088475   2.172670   2.499734   3.084665   2.512936
    13  H    2.719184   3.441770   4.226672   4.118726   3.073637
    14  C    5.092136   5.745038   6.756918   5.385736   5.944779
    15  H    5.804717   6.339827   7.397877   5.987957   6.372942
    16  H    5.559197   6.419469   7.382150   6.136289   6.699866
    17  C    2.989072   3.586707   4.321715   3.122592   4.310830
    18  H    4.057083   4.571211   5.327154   3.976270   5.231067
    19  H    3.040473   3.910554   4.460185   3.638413   4.763922
    20  H    2.905045   3.044370   3.685310   2.348616   3.843363
    21  H    5.290320   5.769031   6.736125   5.221246   6.071838
                   11         12         13         14         15
    11  H    0.000000
    12  H    1.758597   0.000000
    13  H    3.643524   2.420074   0.000000
    14  C    5.218343   5.788441   4.955414   0.000000
    15  H    6.075993   6.449260   5.256044   1.090475   0.000000
    16  H    5.552540   6.168508   5.415185   1.093133   1.767605
    17  C    2.620306   3.956558   4.611931   3.209263   4.183023
    18  H    3.698013   5.014786   5.423743   2.786098   3.773684
    19  H    2.336391   3.863058   4.896539   3.896860   4.941540
    20  H    2.573355   3.973895   4.884320   3.998250   4.861858
    21  H    5.300114   6.130625   5.613009   1.089957   1.763970
                   16         17         18         19         20
    16  H    0.000000
    17  C    3.605505   0.000000
    18  H    3.128311   1.087733   0.000000
    19  H    4.028527   1.092978   1.762025   0.000000
    20  H    4.554584   1.091366   1.764227   1.770784   0.000000
    21  H    1.769537   2.930592   2.222902   3.719760   3.581909
                   21
    21  H    0.000000
 Symmetry turned off by external request.
 Stoichiometry    C7H12NS(1+)
 Framework group  C1[X(C7H12NS)]
 Deg. of freedom    57
 Full point group                 C1      NOp   1
 Rotational constants (GHZ):           2.1629918           1.1262529           0.8022807
 Leave Link  202 at Fri Jun  2 11:39:29 2023, MaxMem=  7381975040 cpu:               0.0 elap:               0.5
 (Enter /software/commercial/gaussian/g16/AVX/g16/l301.exe)
 Standard basis: 6-311+G(d,p) (5D, 7F)
 Ernie: Thresh=  0.10000D-02 Tol=  0.10000D-05 Strict=F.
   278 basis functions,   434 primitive gaussians,   287 cartesian basis functions
    38 alpha electrons       38 beta electrons
       nuclear repulsion energy       545.1927685657 Hartrees.
 IExCor=  402 DFT=T Ex+Corr=B3LYP ExCW=0 ScaHFX=  0.200000
 ScaDFX=  0.800000  0.720000  1.000000  0.810000 ScalE2=  1.000000  1.000000
 IRadAn=      5 IRanWt=     -1 IRanGd=            0 ICorTp=0 IEmpDi=141
 NAtoms=   21 NActive=   21 NUniq=   21 SFac= 1.00D+00 NAtFMM=   60 NAOKFM=F Big=F
 Integral buffers will be    131072 words long.
 Raffenetti 2 integral format.
 Two-electron integral symmetry is turned off.
 R6Disp:  Grimme-D3(BJ) Dispersion energy=       -0.0380336661 Hartrees.
 Nuclear repulsion after empirical dispersion term =      545.1547348996 Hartrees.
 Force inversion solution in PCM.
 ------------------------------------------------------------------------------
 Polarizable Continuum Model (PCM)
 =================================
 Model                : PCM.
 Atomic radii         : UFF (Universal Force Field).
 Polarization charges : Total charges.
 Charge compensation  : None.
 Solution method      : Matrix inversion.
 Cavity type          : Scaled VdW (van der Waals Surface) (Alpha=1.100).
 Cavity algorithm     : GePol (No added spheres)
                        Default sphere list used, NSphG=   21.
                        Lebedev-Laikov grids with approx.  5.0 points / Ang**2.
                        Smoothing algorithm: York/Karplus (Gamma=1.0000).
                        Polarization charges: spherical gaussians, with
                                              point-specific exponents (IZeta= 3).
                        Self-potential: point-specific (ISelfS= 7).
                        Self-field    : sphere-specific E.n sum rule (ISelfD= 2).
 1st derivatives      : Analytical E(r).r(x)/FMM algorithm (CHGder, D1EAlg=3).
                        Cavity 1st derivative terms included.
 2nd derivatives      : Analytical E(r).r(xy)/FMM algorithm (CHGder, D2EAlg=3).
                        Cavity 2nd derivative terms included.
 Solvent              : Ethanol, Eps=  24.852000 Eps(inf)=   1.852593
 ------------------------------------------------------------------------------
 GePol: Number of generator spheres                  =      21
 GePol: Total number of spheres                      =      21
 GePol: Number of exposed spheres                    =      21 (100.00%)
 GePol: Number of points                             =    1645
 GePol: Average weight of points                     =       0.13
 GePol: Minimum weight of points                     =   0.47D-08
 GePol: Maximum weight of points                     =    0.20577
 GePol: Number of points with low weight             =      77
 GePol: Fraction of low-weight points (<1% of avg)   =       4.68%
 GePol: Cavity surface area                          =    214.100 Ang**2
 GePol: Cavity volume                                =    217.901 Ang**3
 Leave Link  301 at Fri Jun  2 11:39:30 2023, MaxMem=  7381975040 cpu:               0.2 elap:               0.4
 (Enter /software/commercial/gaussian/g16/AVX/g16/l302.exe)
 NPDir=0 NMtPBC=     1 NCelOv=     1 NCel=       1 NClECP=     1 NCelD=      1
         NCelK=      1 NCelE2=     1 NClLst=     1 CellRange=     0.0.
 One-electron integrals computed using PRISM.
 NBasis=   278 RedAO= T EigKep=  3.54D-06  NBF=   278
 NBsUse=   278 1.00D-06 EigRej= -1.00D+00 NBFU=   278
 Precomputing XC quadrature grid using
 IXCGrd= 4 IRadAn=           5 IRanWt=          -1 IRanGd=           0 AccXCQ= 0.00D+00.
 Generated NRdTot=       0 NPtTot=           0 NUsed=           0 NTot=          32
 NSgBfM=   287   287   287   287   287 MxSgAt=    21 MxSgA2=    21.
 Leave Link  302 at Fri Jun  2 11:39:32 2023, MaxMem=  7381975040 cpu:               1.3 elap:               1.1
 (Enter /software/commercial/gaussian/g16/AVX/g16/l303.exe)
 DipDrv:  MaxL=1.
 Leave Link  303 at Fri Jun  2 11:39:34 2023, MaxMem=  7381975040 cpu:               0.1 elap:               0.7
 (Enter /software/commercial/gaussian/g16/AVX/g16/l401.exe)
 Initial guess from the checkpoint file:  "/scratch1/svicchi/G09-659724.pbs02/02-freq/3ethyl45dimethylthiazolium-isolated-freq.chk"
 B after Tr=     0.000000    0.000000    0.000000
         Rot=    1.000000    0.000000    0.000000    0.000000 Ang=   0.00 deg.
 Guess basis will be translated and rotated to current coordinates.
 JPrj=2 DoOrth=T DoCkMO=T.
 Leave Link  401 at Fri Jun  2 11:39:35 2023, MaxMem=  7381975040 cpu:               0.6 elap:               0.8
 (Enter /software/commercial/gaussian/g16/AVX/g16/l502.exe)
 Keep R1 ints in memory in canonical form, NReq=763947644.
 FoFCou: FMM=F IPFlag=           0 FMFlag=           0 FMFlg1=           0
         NFxFlg=           0 DoJE=F BraDBF=F KetDBF=F FulRan=T
         wScrn=  0.000000 ICntrl=       600 IOpCl=  0 I1Cent=           0 NGrid=           0
         NMat0=    1 NMatS0=  38781 NMatT0=    0 NMatD0=    1 NMtDS0=    0 NMtDT0=    0
 Symmetry not used in FoFCou.
 Two-electron integral symmetry not used.
 Closed shell SCF:
 Using DIIS extrapolation, IDIIS=  1040.
 NGot=  7381975040 LenX=  6629803474 LenY=  6629720664
 Requested convergence on RMS density matrix=1.00D-08 within 350 cycles.
 Requested convergence on MAX density matrix=1.00D-06.
 Requested convergence on             energy=1.00D-06.
 No special actions if energy rises.

 Cycle   1  Pass 1  IDiag  1:
 Inv3:  Mode=1 IEnd=     8118075.
 Iteration    1 A*A^-1 deviation from unit magnitude is 5.33D-15 for   1636.
 Iteration    1 A*A^-1 deviation from orthogonality  is 2.41D-15 for   1645   1552.
 Iteration    1 A^-1*A deviation from unit magnitude is 5.77D-15 for   1636.
 Iteration    1 A^-1*A deviation from orthogonality  is 1.87D-15 for   1643   1440.
 E= -726.910184757760    
 DIIS: error= 1.72D-08 at cycle   1 NSaved=   1.
 NSaved= 1 IEnMin= 1 EnMin= -726.910184757760     IErMin= 1 ErrMin= 1.72D-08
 ErrMax= 1.72D-08  0.00D+00 EMaxC= 1.00D-01 BMatC= 3.62D-14 BMatP= 3.62D-14
 IDIUse=1 WtCom= 1.00D+00 WtEn= 0.00D+00
 Coeff-Com:  0.100D+01
 Coeff:      0.100D+01
 Gap=     0.199 Goal=   None    Shift=    0.000
 RMSDP=8.51D-09 MaxDP=6.75D-07              OVMax= 2.10D-07

 Error on total polarization charges =  0.01247
 SCF Done:  E(RB3LYP) =  -726.910184758     A.U. after    1 cycles
            NFock=  1  Conv=0.85D-08     -V/T= 2.0030
 KE= 7.247525412846D+02 PE=-2.784899799225D+03 EE= 7.880823382828D+02
 Leave Link  502 at Fri Jun  2 11:40:12 2023, MaxMem=  7381975040 cpu:              67.1 elap:              36.1
 (Enter /software/commercial/gaussian/g16/AVX/g16/l508.exe)
 QCSCF skips out because SCF is already converged.
 Leave Link  508 at Fri Jun  2 11:40:14 2023, MaxMem=  7381975040 cpu:               0.0 elap:               0.4
 (Enter /software/commercial/gaussian/g16/AVX/g16/l801.exe)
 DoSCS=F DFT=T ScalE2(SS,OS)=  1.000000  1.000000
 Range of M.O.s used for correlation:     1   278
 NBasis=   278 NAE=    38 NBE=    38 NFC=     0 NFV=     0
 NROrb=    278 NOA=    38 NOB=    38 NVA=   240 NVB=   240

 **** Warning!!: The largest alpha MO coefficient is  0.15158988D+03

 Leave Link  801 at Fri Jun  2 11:40:15 2023, MaxMem=  7381975040 cpu:               0.1 elap:               0.2
 (Enter /software/commercial/gaussian/g16/AVX/g16/l1002.exe)
 Minotr:  Closed shell wavefunction.
 NEqPCM:  Using equilibrium solvation (IEInf=0, Eps=  24.8520, EpsInf=   1.8526)
          Direct CPHF calculation.
          Differentiating once with respect to electric field.
                with respect to dipole field.
          Electric field/nuclear overlap derivatives assumed to be zero.
          Requested convergence is 1.0D-08 RMS, and 1.0D-07 maximum.
          Secondary convergence is 1.0D-12 RMS, and 1.0D-12 maximum.
          NewPWx=F KeepS1=T KeepF1=T KeepIn=T MapXYZ=F SortEE=F KeepMc=T.
         6483 words used for storage of precomputed grid.
 Keep R1 ints in memory in canonical form, NReq=763956446.
 FoFCou: FMM=F IPFlag=           0 FMFlag=           0 FMFlg1=           0
         NFxFlg=           0 DoJE=F BraDBF=F KetDBF=F FulRan=T
         wScrn=  0.000000 ICntrl=       600 IOpCl=  0 I1Cent=           0 NGrid=           0
         NMat0=    1 NMatS0=  38781 NMatT0=    0 NMatD0=    1 NMtDS0=    0 NMtDT0=    0
 Symmetry not used in FoFCou.
 Two-electron integral symmetry not used.
          MDV=    7381975040 using IRadAn=       1.
          Solving linear equations simultaneously, MaxMat=       0.
          There are     3 degrees of freedom in the 1st order CPHF.  IDoFFX=0 NUNeed=     3.
      3 vectors produced by pass  0 Test12= 3.04D-13 3.33D-08 XBig12= 1.17D+02 6.37D+00.
 AX will form     3 AO Fock derivatives at one time.
      3 vectors produced by pass  1 Test12= 3.04D-13 3.33D-08 XBig12= 5.13D+01 2.38D+00.
      3 vectors produced by pass  2 Test12= 3.04D-13 3.33D-08 XBig12= 1.02D+01 6.06D-01.
      3 vectors produced by pass  3 Test12= 3.04D-13 3.33D-08 XBig12= 2.07D+00 3.07D-01.
      3 vectors produced by pass  4 Test12= 3.04D-13 3.33D-08 XBig12= 3.88D-01 1.20D-01.
      3 vectors produced by pass  5 Test12= 3.04D-13 3.33D-08 XBig12= 6.19D-02 5.24D-02.
      3 vectors produced by pass  6 Test12= 3.04D-13 3.33D-08 XBig12= 7.15D-03 1.34D-02.
      3 vectors produced by pass  7 Test12= 3.04D-13 3.33D-08 XBig12= 6.79D-04 3.19D-03.
      3 vectors produced by pass  8 Test12= 3.04D-13 3.33D-08 XBig12= 5.85D-05 7.16D-04.
      3 vectors produced by pass  9 Test12= 3.04D-13 3.33D-08 XBig12= 5.81D-06 2.77D-04.
      3 vectors produced by pass 10 Test12= 3.04D-13 3.33D-08 XBig12= 2.14D-07 6.78D-05.
      3 vectors produced by pass 11 Test12= 3.04D-13 3.33D-08 XBig12= 7.72D-09 1.59D-05.
      3 vectors produced by pass 12 Test12= 3.04D-13 3.33D-08 XBig12= 1.87D-10 1.78D-06.
      2 vectors produced by pass 13 Test12= 3.04D-13 3.33D-08 XBig12= 7.47D-12 5.18D-07.
      1 vectors produced by pass 14 Test12= 3.04D-13 3.33D-08 XBig12= 1.76D-13 1.25D-07.
 InvSVY:  IOpt=1 It=  1 EMax= 3.55D-15
 Solved reduced A of dimension    42 with     3 vectors.
 End of Minotr F.D. properties file   721 does not exist.
 End of Minotr F.D. properties file   722 does not exist.
 End of Minotr F.D. properties file   788 does not exist.
 Leave Link 1002 at Fri Jun  2 11:43:42 2023, MaxMem=  7381975040 cpu:             384.2 elap:             206.5
 (Enter /software/commercial/gaussian/g16/AVX/g16/l1101.exe)
 Using compressed storage, NAtomX=    21.
 Will process     22 centers per pass.
 R6Disp: Adding Grimme-D3(BJ) dispersion energy 1st derivatives to the gradient.
 Leave Link 1101 at Fri Jun  2 11:43:45 2023, MaxMem=  7381975040 cpu:               2.1 elap:               2.2
 (Enter /software/commercial/gaussian/g16/AVX/g16/l1102.exe)
 Symmetrizing basis deriv contribution to polar:
 IMax=3 JMax=2 DiffMx= 0.00D+00
 Leave Link 1102 at Fri Jun  2 11:43:48 2023, MaxMem=  7381975040 cpu:               0.1 elap:               0.9
 (Enter /software/commercial/gaussian/g16/AVX/g16/l1110.exe)
 Forming Gx(P) for the SCF density, NAtomX=    21.
 Integral derivatives from FoFJK, PRISM(SPDF).
 Do as many integral derivatives as possible in FoFJK.
 G2DrvN: MDV=    7381972741.
 G2DrvN: will do    22 centers at a time, making    1 passes.
 PxScal for G2LodP:  IOpCl= 0 ISclPx=1 IMOff=     1 NMtTot=     4 NTT=   38781 ScalPx= 7.31D+01
 Calling FoFCou, ICntrl=  3107 FMM=F I1Cent=   0 AccDes= 0.00D+00.
 FoFJK:  IHMeth= 1 ICntrl=    3107 DoSepK=F KAlg= 0 I1Cent=           0 FoldK=F
 IRaf=         0 NMat=       1 IRICut=       1 DoRegI=T DoRafI=F ISym2E= 0 IDoP0=0 IntGTp=1.
 FoFCou: FMM=F IPFlag=           0 FMFlag=      100000 FMFlg1=           0
         NFxFlg=           0 DoJE=F BraDBF=F KetDBF=F FulRan=T
         wScrn=  0.000000 ICntrl=      3107 IOpCl=  0 I1Cent=           0 NGrid=           0
         NMat0=    1 NMatS0=      1 NMatT0=    0 NMatD0=    4 NMtDS0=    3 NMtDT0=    0
 Symmetry not used in FoFCou.
 PxScal for G2LodP:  IOpCl= 0 ISclPx=0 IMOff=     1 NMtTot=     4 NTT=   38781 ScalPx= 1.00D+00
 NEqPCM:  Using equilibrium solvation (IEInf=0, Eps=  24.8520, EpsInf=   1.8526)
 G2PCM: DoFxE=T DoFxN=T DoGrad=T DoDP/DQ/DG/TGxP=TFFF NFrqRd=   0 IEInf=0 SqF1=F DoCFld=F IF1Alg=4.
 GePol: Maximum number of non-zero 1st derivatives   =     267
 End of G2Drv F.D. properties file   721 does not exist.
 End of G2Drv F.D. properties file   722 does not exist.
 End of G2Drv F.D. properties file   788 does not exist.
 Leave Link 1110 at Fri Jun  2 11:52:42 2023, MaxMem=  7381975040 cpu:            1052.9 elap:             533.4
 (Enter /software/commercial/gaussian/g16/AVX/g16/l1002.exe)
 Minotr:  Closed shell wavefunction.
          IDoAtm=111111111111111111111
 NEqPCM:  Using equilibrium solvation (IEInf=0, Eps=  24.8520, EpsInf=   1.8526)
          Direct CPHF calculation.
          Differentiating once with respect to electric field.
                with respect to dipole field.
          Differentiating once with respect to nuclear coordinates.
          Requested convergence is 1.0D-08 RMS, and 1.0D-07 maximum.
          Secondary convergence is 1.0D-12 RMS, and 1.0D-12 maximum.
          NewPWx=T KeepS1=F KeepF1=F KeepIn=T MapXYZ=F SortEE=F KeepMc=T.
         6483 words used for storage of precomputed grid.
 Keep R1 ints in memory in canonical form, NReq=763956929.
 FoFCou: FMM=F IPFlag=           0 FMFlag=           0 FMFlg1=           0
         NFxFlg=           0 DoJE=F BraDBF=F KetDBF=F FulRan=T
         wScrn=  0.000000 ICntrl=       600 IOpCl=  0 I1Cent=           0 NGrid=           0
         NMat0=    1 NMatS0=  38781 NMatT0=    0 NMatD0=    1 NMtDS0=    0 NMtDT0=    0
 Symmetry not used in FoFCou.
 Two-electron integral symmetry not used.
          MDV=    7381975040 using IRadAn=       1.
          Solving linear equations simultaneously, MaxMat=       0.
          There are    66 degrees of freedom in the 1st order CPHF.  IDoFFX=5 NUNeed=    66.
 Will reuse    3 saved solutions.
     60 vectors produced by pass  0 Test12= 1.38D-14 1.52D-09 XBig12= 2.03D-01 1.28D-01.
 AX will form    60 AO Fock derivatives at one time.
     60 vectors produced by pass  1 Test12= 1.38D-14 1.52D-09 XBig12= 2.60D-02 6.94D-02.
     60 vectors produced by pass  2 Test12= 1.38D-14 1.52D-09 XBig12= 3.15D-04 2.30D-03.
     60 vectors produced by pass  3 Test12= 1.38D-14 1.52D-09 XBig12= 1.45D-06 1.55D-04.
     60 vectors produced by pass  4 Test12= 1.38D-14 1.52D-09 XBig12= 2.71D-09 4.84D-06.
     45 vectors produced by pass  5 Test12= 1.38D-14 1.52D-09 XBig12= 3.05D-12 1.68D-07.
      9 vectors produced by pass  6 Test12= 1.38D-14 1.52D-09 XBig12= 2.72D-15 5.52D-09.
 InvSVY:  IOpt=1 It=  1 EMax= 1.05D-15
 Solved reduced A of dimension   354 with    66 vectors.
 FullF1:  Do perturbations      1 to       3.
 Isotropic polarizability for W=    0.000000      130.21 Bohr**3.
 FullF1:  Do perturbations      1 to       6.
 End of Minotr F.D. properties file   721 does not exist.
 End of Minotr F.D. properties file   722 does not exist.
 End of Minotr F.D. properties file   788 does not exist.
 Leave Link 1002 at Fri Jun  2 12:01:52 2023, MaxMem=  7381975040 cpu:            1062.8 elap:             548.9
 (Enter /software/commercial/gaussian/g16/AVX/g16/l601.exe)
 Copying SCF densities to generalized density rwf, IOpCl= 0 IROHF=0.

 **********************************************************************

            Population analysis using the SCF Density.

 **********************************************************************

 Alpha  occ. eigenvalues --  -88.93837 -14.44493 -10.29781 -10.26605 -10.25547
 Alpha  occ. eigenvalues --  -10.24921 -10.20128 -10.19989 -10.18742  -8.02437
 Alpha  occ. eigenvalues --   -5.98703  -5.98304  -5.98088  -1.06562  -0.89419
 Alpha  occ. eigenvalues --   -0.84244  -0.79914  -0.75756  -0.72365  -0.68700
 Alpha  occ. eigenvalues --   -0.63969  -0.59808  -0.55869  -0.51363  -0.50115
 Alpha  occ. eigenvalues --   -0.48349  -0.46369  -0.45173  -0.44262  -0.44020
 Alpha  occ. eigenvalues --   -0.43266  -0.41901  -0.41033  -0.40080  -0.39403
 Alpha  occ. eigenvalues --   -0.38401  -0.33221  -0.28776
 Alpha virt. eigenvalues --   -0.08922  -0.02585  -0.02162  -0.00830   0.00761
 Alpha virt. eigenvalues --    0.01164   0.01880   0.03205   0.03544   0.03900
 Alpha virt. eigenvalues --    0.04492   0.05465   0.05815   0.06502   0.06731
 Alpha virt. eigenvalues --    0.07150   0.07474   0.08269   0.08296   0.09310
 Alpha virt. eigenvalues --    0.09479   0.10266   0.10897   0.11036   0.12276
 Alpha virt. eigenvalues --    0.13094   0.13402   0.13993   0.14873   0.15240
 Alpha virt. eigenvalues --    0.15592   0.15885   0.16595   0.17553   0.17933
 Alpha virt. eigenvalues --    0.18441   0.18782   0.19591   0.19917   0.20084
 Alpha virt. eigenvalues --    0.20723   0.21124   0.21918   0.22181   0.23044
 Alpha virt. eigenvalues --    0.23370   0.24630   0.24985   0.26268   0.26526
 Alpha virt. eigenvalues --    0.27181   0.27938   0.28447   0.29518   0.30225
 Alpha virt. eigenvalues --    0.31102   0.31799   0.33270   0.36790   0.37471
 Alpha virt. eigenvalues --    0.37953   0.40387   0.40993   0.42896   0.43690
 Alpha virt. eigenvalues --    0.45538   0.46837   0.48061   0.48398   0.49219
 Alpha virt. eigenvalues --    0.51713   0.53068   0.53423   0.54769   0.56114
 Alpha virt. eigenvalues --    0.56852   0.57630   0.59093   0.59660   0.61640
 Alpha virt. eigenvalues --    0.63033   0.63296   0.63613   0.64463   0.66171
 Alpha virt. eigenvalues --    0.66822   0.67444   0.68382   0.69250   0.71466
 Alpha virt. eigenvalues --    0.72261   0.72799   0.73488   0.74853   0.75218
 Alpha virt. eigenvalues --    0.75928   0.77297   0.81338   0.83315   0.84845
 Alpha virt. eigenvalues --    0.88742   0.89117   0.90928   0.92827   0.93420
 Alpha virt. eigenvalues --    0.97633   0.98407   0.99756   1.01347   1.03853
 Alpha virt. eigenvalues --    1.06143   1.07244   1.09417   1.16589   1.19761
 Alpha virt. eigenvalues --    1.21103   1.22722   1.27172   1.32026   1.34934
 Alpha virt. eigenvalues --    1.36487   1.37086   1.41686   1.42810   1.44614
 Alpha virt. eigenvalues --    1.45301   1.46956   1.48268   1.50503   1.51337
 Alpha virt. eigenvalues --    1.52332   1.52704   1.54402   1.55507   1.56507
 Alpha virt. eigenvalues --    1.57357   1.58848   1.60038   1.61368   1.62261
 Alpha virt. eigenvalues --    1.64760   1.65737   1.66932   1.68883   1.69660
 Alpha virt. eigenvalues --    1.71588   1.74237   1.75326   1.77052   1.79688
 Alpha virt. eigenvalues --    1.80722   1.83159   1.83651   1.90587   1.91596
 Alpha virt. eigenvalues --    1.94995   1.95808   1.97436   1.97845   2.02202
 Alpha virt. eigenvalues --    2.03528   2.05867   2.07815   2.10280   2.11951
 Alpha virt. eigenvalues --    2.15844   2.18430   2.21399   2.23182   2.27210
 Alpha virt. eigenvalues --    2.30496   2.31231   2.33327   2.35636   2.41220
 Alpha virt. eigenvalues --    2.42649   2.43689   2.45975   2.46315   2.48321
 Alpha virt. eigenvalues --    2.48785   2.50437   2.53309   2.53722   2.55086
 Alpha virt. eigenvalues --    2.56643   2.57300   2.57881   2.60073   2.61509
 Alpha virt. eigenvalues --    2.62788   2.66166   2.67147   2.69292   2.72589
 Alpha virt. eigenvalues --    2.74558   2.76777   2.78743   2.81819   2.82772
 Alpha virt. eigenvalues --    2.85752   2.88307   2.92948   2.94778   2.98157
 Alpha virt. eigenvalues --    3.04335   3.17456   3.19137   3.23093   3.30048
 Alpha virt. eigenvalues --    3.36119   3.55707   3.63825   3.74691   3.75800
 Alpha virt. eigenvalues --    3.77448   3.78941   3.79243   3.80870   3.82126
 Alpha virt. eigenvalues --    3.86782   3.86969   3.98953   4.20907   4.36344
 Alpha virt. eigenvalues --    4.85704   4.92511   7.96529  17.23451  17.41242
 Alpha virt. eigenvalues --   17.46588  23.57333  23.79424  23.84963  23.93083
 Alpha virt. eigenvalues --   23.94342  23.95893  24.07979  35.48710 189.13340
     Molecular Orbital Coefficients:
                           1         2         3         4         5
                           O         O         O         O         O
     Eigenvalues --   -88.93837 -14.44493 -10.29781 -10.26605 -10.25547
   1 1   N  1S         -0.00000   0.55737  -0.00008  -0.00004   0.00000
   2        2S          0.00001   0.46568  -0.00000  -0.00007   0.00005
   3        2PX         0.00001   0.00007   0.00055  -0.00011  -0.00009
   4        2PY         0.00000  -0.00002  -0.00002  -0.00000   0.00000
   5        2PZ        -0.00000   0.00000   0.00000  -0.00033  -0.00011
   6        3S         -0.00003   0.01654   0.00050   0.00087  -0.00026
   7        3PX        -0.00006   0.00073  -0.00165   0.00014   0.00040
   8        3PY         0.00000  -0.00010   0.00007   0.00002  -0.00001
   9        3PZ         0.00003  -0.00050  -0.00000   0.00054   0.00069
  10        4S         -0.00008  -0.01824  -0.00335  -0.00316   0.00046
  11        4PX         0.00009   0.00058  -0.00252   0.00010  -0.00013
  12        4PY         0.00001   0.00021   0.00014   0.00007   0.00004
  13        4PZ        -0.00012   0.00220  -0.00020   0.00093  -0.00245
  14        5S          0.00109   0.00567   0.02436   0.01883   0.00665
  15        5PX         0.00054  -0.00165   0.01939  -0.00660  -0.00226
  16        5PY         0.00001  -0.00002  -0.00124  -0.00060   0.00011
  17        5PZ        -0.00012  -0.00064  -0.00772  -0.01373  -0.01031
  18        6D 0        0.00002  -0.00003   0.00061  -0.00061  -0.00020
  19        6D+1       -0.00000   0.00013   0.00006  -0.00035  -0.00025
  20        6D-1       -0.00000  -0.00001  -0.00001   0.00000   0.00001
  21        6D+2       -0.00001   0.00055  -0.00122  -0.00020   0.00008
  22        6D-2        0.00000  -0.00004   0.00012   0.00001  -0.00001
  23 2   C  1S          0.00000  -0.00001   0.56292   0.00004   0.00003
  24        2S         -0.00000   0.00013   0.46327   0.00002   0.00003
  25        2PX         0.00003  -0.00050  -0.00020   0.00006  -0.00000
  26        2PY        -0.00000   0.00003  -0.00000   0.00000  -0.00000
  27        2PZ        -0.00005  -0.00008  -0.00068   0.00007   0.00005
  28        3S          0.00007   0.00007   0.01977   0.00001  -0.00005
  29        3PX        -0.00008   0.00173  -0.00120  -0.00017   0.00021
  30        3PY         0.00001  -0.00009   0.00007  -0.00001   0.00000
  31        3PZ         0.00015   0.00061   0.00210  -0.00019  -0.00010
  32        4S         -0.00006   0.00258  -0.01585  -0.00000  -0.00004
  33        4PX         0.00020  -0.00250   0.00269  -0.00035  -0.00065
  34        4PY        -0.00003   0.00006  -0.00011   0.00014  -0.00002
  35        4PZ        -0.00004  -0.00084   0.00335   0.00038   0.00175
  36        5S          0.00187  -0.00205  -0.03201   0.00772   0.01565
  37        5PX         0.00016   0.00126   0.00541  -0.00743  -0.00295
  38        5PY         0.00001   0.00019   0.00006   0.00048   0.00010
  39        5PZ        -0.00034  -0.00070   0.00318   0.00147  -0.00212
  40        6D 0       -0.00009   0.00091   0.00034   0.00012   0.00021
  41        6D+1        0.00008   0.00016   0.00138   0.00030   0.00011
  42        6D-1       -0.00001   0.00000  -0.00006  -0.00001   0.00000
  43        6D+2        0.00001  -0.00087   0.00152   0.00011  -0.00000
  44        6D-2        0.00000   0.00009  -0.00013  -0.00001   0.00001
  45 3   C  1S         -0.00000   0.00001  -0.00004   0.56264  -0.01790
  46        2S          0.00001   0.00001  -0.00004   0.46303  -0.01440
  47        2PX         0.00000   0.00019  -0.00004   0.00015   0.00067
  48        2PY        -0.00000  -0.00000  -0.00000  -0.00000  -0.00005
  49        2PZ        -0.00000   0.00043   0.00006   0.00090  -0.00075
  50        3S         -0.00006   0.00029   0.00005   0.01925  -0.00139
  51        3PX        -0.00006  -0.00043   0.00000   0.00136  -0.00348
  52        3PY         0.00001   0.00000   0.00003  -0.00006   0.00024
  53        3PZ         0.00002  -0.00116  -0.00032  -0.00168   0.00361
  54        4S          0.00020   0.00538  -0.00240  -0.01723  -0.00124
  55        4PX         0.00035   0.00649   0.00602   0.00032  -0.00002
  56        4PY        -0.00005  -0.00025  -0.00047   0.00014  -0.00011
  57        4PZ        -0.00005   0.00594  -0.00012   0.00094  -0.00567
  58        5S         -0.01350  -0.01454  -0.00702   0.01608  -0.05245
  59        5PX        -0.01040   0.01283  -0.02335  -0.00117  -0.01558
  60        5PY         0.00067  -0.00041   0.00178   0.00038   0.00109
  61        5PZ         0.00063   0.00247   0.02001  -0.01870   0.00082
  62        6D 0       -0.00000  -0.00044  -0.00014   0.00037  -0.00041
  63        6D+1        0.00003  -0.00068   0.00003  -0.00091   0.00238
  64        6D-1       -0.00000   0.00002  -0.00000   0.00008  -0.00014
  65        6D+2        0.00002   0.00021   0.00022   0.00147  -0.00099
  66        6D-2       -0.00000  -0.00005   0.00000  -0.00019   0.00011
  67 4   C  1S          0.00000  -0.00001  -0.00003   0.01772   0.56264
  68        2S         -0.00000   0.00007  -0.00003   0.01491   0.46310
  69        2PX         0.00004  -0.00005  -0.00001  -0.00050   0.00098
  70        2PY        -0.00000  -0.00000   0.00000   0.00003  -0.00004
  71        2PZ         0.00002   0.00001  -0.00003   0.00061   0.00007
  72        3S          0.00007  -0.00044   0.00001  -0.00021   0.01881
  73        3PX        -0.00011   0.00049   0.00011   0.00247  -0.00334
  74        3PY         0.00000  -0.00000  -0.00001  -0.00014   0.00022
  75        3PZ        -0.00001  -0.00037  -0.00010  -0.00285   0.00164
  76        4S         -0.00026  -0.00068  -0.00463  -0.00012  -0.01599
  77        4PX         0.00020  -0.00180  -0.00057  -0.00241   0.00310
  78        4PY        -0.00001  -0.00013   0.00004   0.00004  -0.00020
  79        4PZ        -0.00025  -0.00497  -0.00170   0.00037  -0.00015
  80        5S          0.01273   0.00844   0.04798  -0.00718   0.07388
  81        5PX         0.00004  -0.00597  -0.01860   0.00634  -0.00541
  82        5PY        -0.00004   0.00012   0.00074  -0.00047   0.00022
  83        5PZ         0.01211  -0.01655  -0.01861  -0.02331   0.00161
  84        6D 0        0.00002   0.00010   0.00011  -0.00027   0.00140
  85        6D+1       -0.00007   0.00034   0.00014   0.00183  -0.00181
  86        6D-1        0.00000   0.00000   0.00000  -0.00011   0.00009
  87        6D+2       -0.00005  -0.00001   0.00003  -0.00086   0.00081
  88        6D-2        0.00000   0.00001  -0.00000   0.00011  -0.00010
  89 5   S  1S          0.41089  -0.00000  -0.00000  -0.00000  -0.00000
  90        2S          0.65436   0.00001  -0.00001   0.00000  -0.00001
  91        3S          0.01537  -0.00007   0.00002  -0.00004   0.00004
  92        4S         -0.00461   0.00016  -0.00006   0.00010  -0.00013
  93        5S          0.00196  -0.00028   0.00040  -0.00028   0.00054
  94        6S         -0.00192   0.00163   0.00278   0.00126   0.00014
  95        7S         -0.00502   0.00759   0.03616   0.00895  -0.01488
  96        7PX         0.00084  -0.00223  -0.00867  -0.00072   0.00486
  97        7PY        -0.00003   0.00001   0.00032   0.00003  -0.00016
  98        7PZ        -0.00034  -0.00064   0.00050   0.00478  -0.00040
  99        8PX        -0.00010   0.00001   0.00000   0.00001  -0.00001
 100        8PY         0.00001  -0.00000  -0.00000  -0.00000   0.00000
 101        8PZ         0.00004  -0.00000   0.00001   0.00000  -0.00001
 102        9PX         0.00004  -0.00005   0.00001  -0.00004   0.00010
 103        9PY        -0.00000   0.00000   0.00000   0.00000  -0.00000
 104        9PZ        -0.00002   0.00002  -0.00009  -0.00001   0.00007
 105       10PX        -0.00002   0.00015  -0.00004   0.00012  -0.00046
 106       10PY        -0.00000  -0.00002  -0.00000  -0.00000   0.00001
 107       10PZ         0.00000  -0.00000   0.00046  -0.00001  -0.00028
 108       11PX        -0.00010  -0.00032  -0.00063  -0.00021   0.00017
 109       11PY         0.00001   0.00004   0.00005   0.00000   0.00003
 110       11PZ         0.00008  -0.00051  -0.00005  -0.00001   0.00036
 111       12PX         0.00054  -0.00005  -0.00117  -0.00034  -0.00062
 112       12PY        -0.00003  -0.00003  -0.00003   0.00002  -0.00001
 113       12PZ        -0.00028   0.00067   0.00095  -0.00002   0.00010
 114       13D 0        0.00002  -0.00009  -0.00010   0.00007   0.00001
 115       13D+1       -0.00002   0.00019   0.00006  -0.00011   0.00005
 116       13D-1        0.00000  -0.00001  -0.00001   0.00000  -0.00000
 117       13D+2        0.00003  -0.00001  -0.00003  -0.00001  -0.00006
 118       13D-2       -0.00000  -0.00000   0.00000  -0.00000   0.00000
 119 6   C  1S         -0.00000   0.00001  -0.00006  -0.00012  -0.00022
 120        2S          0.00000  -0.00003  -0.00002  -0.00008  -0.00015
 121        2PX         0.00000   0.00017  -0.00004   0.00004   0.00000
 122        2PY        -0.00000  -0.00003  -0.00002  -0.00002  -0.00001
 123        2PZ         0.00000  -0.00023  -0.00005   0.00001  -0.00002
 124        3S         -0.00004   0.00011  -0.00046  -0.00026  -0.00047
 125        3PX         0.00000  -0.00030   0.00007  -0.00016   0.00002
 126        3PY         0.00001   0.00027   0.00015   0.00011   0.00011
 127        3PZ        -0.00000   0.00033   0.00027   0.00005   0.00012
 128        4S          0.00035   0.00347   0.00248   0.00121   0.00400
 129        4PX         0.00005   0.00040   0.00063   0.00038   0.00071
 130        4PY         0.00002  -0.00003  -0.00023  -0.00112  -0.00032
 131        4PZ        -0.00006  -0.00127  -0.00024   0.00020  -0.00126
 132        5S         -0.00065  -0.00699  -0.01561  -0.00229  -0.00017
 133        5PX         0.00017   0.00015   0.00169  -0.00022   0.00102
 134        5PY         0.00035   0.00164   0.00469   0.00228   0.00175
 135        5PZ        -0.00016   0.00076   0.00020  -0.00228  -0.00234
 136        6D 0        0.00000  -0.00024  -0.00014   0.00005   0.00000
 137        6D+1        0.00001   0.00037   0.00009   0.00008   0.00003
 138        6D-1        0.00000   0.00000   0.00008  -0.00002   0.00001
 139        6D+2        0.00000  -0.00018   0.00014  -0.00002   0.00003
 140        6D-2        0.00000  -0.00005   0.00004  -0.00003  -0.00002
 141 7   C  1S         -0.00000  -0.00000  -0.00001   0.00001  -0.00001
 142        2S          0.00000   0.00001   0.00001  -0.00000   0.00000
 143        2PX         0.00000   0.00002  -0.00001   0.00002   0.00002
 144        2PY         0.00000   0.00007   0.00002   0.00001   0.00002
 145        2PZ        -0.00000  -0.00002  -0.00003   0.00001  -0.00002
 146        3S         -0.00001  -0.00004  -0.00011   0.00025   0.00002
 147        3PX        -0.00000  -0.00014   0.00006  -0.00013  -0.00009
 148        3PY        -0.00000  -0.00042  -0.00007   0.00000  -0.00008
 149        3PZ         0.00002   0.00012   0.00017  -0.00009   0.00008
 150        4S         -0.00001  -0.00031   0.00070  -0.00203  -0.00112
 151        4PX         0.00002   0.00029  -0.00063  -0.00046   0.00023
 152        4PY        -0.00003  -0.00034   0.00025  -0.00036  -0.00005
 153        4PZ        -0.00007  -0.00008  -0.00010   0.00096   0.00019
 154        5S          0.00122   0.00626   0.01605   0.00725   0.00627
 155        5PX         0.00014   0.00082   0.00164   0.00062   0.00054
 156        5PY         0.00025   0.00127   0.00354   0.00155   0.00152
 157        5PZ        -0.00017  -0.00108  -0.00175  -0.00082  -0.00077
 158        6D 0       -0.00000   0.00008   0.00001   0.00002  -0.00001
 159        6D+1       -0.00000  -0.00002  -0.00004  -0.00002  -0.00003
 160        6D-1       -0.00000   0.00011  -0.00002   0.00003   0.00001
 161        6D+2        0.00000   0.00010  -0.00001  -0.00002  -0.00001
 162        6D-2       -0.00000  -0.00007  -0.00004   0.00002  -0.00001
 163 8   H  1S         -0.00000  -0.00004   0.00001  -0.00000  -0.00003
 164        2S          0.00003   0.00003  -0.00018   0.00001   0.00020
 165        3S          0.00004   0.00024  -0.00022  -0.00039   0.00007
 166        4PX         0.00000  -0.00004   0.00001  -0.00001  -0.00001
 167        4PY         0.00000   0.00004  -0.00000   0.00001   0.00002
 168        4PZ        -0.00000   0.00002   0.00007  -0.00002  -0.00003
 169 9   H  1S         -0.00000   0.00006  -0.00006   0.00001  -0.00003
 170        2S          0.00002  -0.00034   0.00040   0.00022   0.00030
 171        3S         -0.00011  -0.00032  -0.00079  -0.00019  -0.00006
 172        4PX         0.00000  -0.00015   0.00007   0.00001   0.00002
 173        4PY         0.00000  -0.00010   0.00006  -0.00007  -0.00000
 174        4PZ         0.00000  -0.00001  -0.00003   0.00007   0.00004
 175 10  H  1S         -0.00000   0.00005  -0.00000  -0.00008  -0.00004
 176        2S          0.00001  -0.00036   0.00019   0.00069   0.00026
 177        3S         -0.00005  -0.00052  -0.00047  -0.00012  -0.00001
 178        4PX         0.00000   0.00007  -0.00002  -0.00004  -0.00001
 179        4PY        -0.00000  -0.00010  -0.00008   0.00009   0.00003
 180        4PZ         0.00000   0.00010   0.00005  -0.00008  -0.00004
 181 11  H  1S          0.00000   0.00002   0.00003  -0.00001   0.00001
 182        2S         -0.00003  -0.00120  -0.00021  -0.00020  -0.00049
 183        3S         -0.00003   0.00010   0.00304  -0.00012   0.00011
 184        4PX        -0.00001  -0.00026  -0.00006  -0.00004  -0.00007
 185        4PY         0.00000   0.00015   0.00004   0.00006   0.00005
 186        4PZ        -0.00000  -0.00002  -0.00003   0.00012   0.00001
 187 12  H  1S          0.00000   0.00001  -0.00000   0.00003   0.00003
 188        2S         -0.00007  -0.00089  -0.00075  -0.00030  -0.00047
 189        3S          0.00003   0.00030   0.00115   0.00217   0.00178
 190        4PX         0.00001   0.00012  -0.00003   0.00003   0.00007
 191        4PY         0.00000   0.00008   0.00010   0.00007   0.00004
 192        4PZ         0.00001   0.00021   0.00014  -0.00001   0.00005
 193 13  H  1S         -0.00001  -0.00017   0.00004  -0.00002  -0.00001
 194        2S         -0.00006  -0.00084  -0.00474  -0.00033  -0.00055
 195        3S         -0.00016   0.00148   0.00143   0.00226   0.00080
 196        4PX        -0.00000   0.00055   0.00134   0.00000   0.00008
 197        4PY         0.00000  -0.00002  -0.00006  -0.00001  -0.00001
 198        4PZ         0.00004   0.00034   0.00229   0.00006   0.00005
 199 14  C  1S         -0.00000  -0.00000  -0.00000  -0.00001   0.00138
 200        2S          0.00000   0.00002   0.00001   0.00003   0.00114
 201        2PX         0.00000  -0.00001  -0.00001  -0.00002   0.00012
 202        2PY         0.00000   0.00000   0.00000   0.00002  -0.00002
 203        2PZ         0.00001   0.00009   0.00002   0.00017   0.00061
 204        3S         -0.00003  -0.00006  -0.00015  -0.00014   0.00045
 205        3PX        -0.00002   0.00002   0.00002   0.00008  -0.00041
 206        3PY         0.00000   0.00002  -0.00002  -0.00006   0.00007
 207        3PZ        -0.00005  -0.00049  -0.00017  -0.00089  -0.00192
 208        4S         -0.00002  -0.00332   0.00047   0.00010   0.00281
 209        4PX        -0.00003  -0.00018   0.00040   0.00030  -0.00029
 210        4PY         0.00001   0.00054   0.00004   0.00015   0.00000
 211        4PZ         0.00003  -0.00099   0.00026  -0.00012   0.00110
 212        5S          0.01238  -0.02523  -0.03526  -0.03238  -0.02404
 213        5PX         0.00040  -0.00011  -0.00007  -0.00063   0.00064
 214        5PY        -0.00005   0.00030   0.00022   0.00021   0.00010
 215        5PZ         0.00240  -0.00519  -0.00721  -0.00710  -0.00642
 216        6D 0       -0.00001  -0.00015  -0.00005  -0.00049  -0.00129
 217        6D+1       -0.00001   0.00002   0.00002   0.00007  -0.00040
 218        6D-1        0.00000  -0.00001   0.00001   0.00003   0.00002
 219        6D+2        0.00001   0.00001   0.00000   0.00016  -0.00017
 220        6D-2       -0.00000   0.00001  -0.00003  -0.00001   0.00004
 221 15  H  1S         -0.00001  -0.00002   0.00004  -0.00005  -0.00007
 222        2S          0.00001   0.00013  -0.00043  -0.00028  -0.00086
 223        3S         -0.00007   0.00043   0.00049   0.00003   0.00057
 224        4PX         0.00000   0.00001   0.00005   0.00010   0.00032
 225        4PY        -0.00000  -0.00002  -0.00004  -0.00012  -0.00016
 226        4PZ        -0.00001  -0.00001  -0.00004  -0.00003  -0.00006
 227 16  H  1S          0.00000   0.00005   0.00003   0.00005  -0.00015
 228        2S         -0.00000  -0.00031  -0.00027  -0.00038  -0.00089
 229        3S         -0.00006  -0.00017   0.00014  -0.00003   0.00052
 230        4PX        -0.00000   0.00003  -0.00002   0.00001   0.00004
 231        4PY         0.00000   0.00007   0.00004   0.00010   0.00042
 232        4PZ        -0.00001  -0.00008  -0.00002  -0.00003  -0.00002
 233 17  C  1S         -0.00000  -0.00000  -0.00001   0.00122  -0.00010
 234        2S          0.00000   0.00002   0.00001   0.00100  -0.00004
 235        2PX         0.00000   0.00006  -0.00001   0.00057   0.00010
 236        2PY        -0.00000  -0.00000  -0.00000  -0.00004  -0.00001
 237        2PZ        -0.00000   0.00006   0.00001   0.00005  -0.00005
 238        3S         -0.00003  -0.00018  -0.00041   0.00055  -0.00006
 239        3PX        -0.00003  -0.00038  -0.00003  -0.00176  -0.00062
 240        3PY         0.00000  -0.00000   0.00002   0.00013   0.00004
 241        3PZ        -0.00000  -0.00023  -0.00008  -0.00008   0.00017
 242        4S          0.00029   0.00479   0.00638   0.00261  -0.00104
 243        4PX         0.00009   0.00170   0.00266   0.00064  -0.00067
 244        4PY         0.00000  -0.00033  -0.00014  -0.00027  -0.00004
 245        4PZ         0.00005  -0.00151   0.00122  -0.00098   0.00029
 246        5S         -0.00892   0.02112  -0.03040  -0.00949  -0.00651
 247        5PX        -0.00157   0.00422  -0.00605  -0.00274  -0.00106
 248        5PY         0.00011  -0.00047   0.00050   0.00013   0.00003
 249        5PZ        -0.00045   0.00102  -0.00300   0.00099  -0.00112
 250        6D 0        0.00001   0.00015  -0.00001   0.00044   0.00037
 251        6D+1        0.00000  -0.00026   0.00002  -0.00041   0.00016
 252        6D-1       -0.00000   0.00001   0.00000   0.00000  -0.00002
 253        6D+2       -0.00001  -0.00013  -0.00002  -0.00116  -0.00024
 254        6D-2        0.00000   0.00003   0.00001   0.00017   0.00004
 255 18  H  1S          0.00000   0.00000   0.00003  -0.00004  -0.00011
 256        2S         -0.00004  -0.00076  -0.00039  -0.00090  -0.00003
 257        3S          0.00006  -0.00080   0.00083  -0.00097  -0.00046
 258        4PX         0.00000   0.00002  -0.00005   0.00006  -0.00000
 259        4PY        -0.00000  -0.00001   0.00000  -0.00001  -0.00001
 260        4PZ        -0.00001  -0.00016  -0.00007  -0.00029  -0.00011
 261 19  H  1S          0.00000   0.00003   0.00005  -0.00013   0.00000
 262        2S         -0.00005  -0.00027  -0.00066  -0.00082  -0.00002
 263        3S         -0.00004   0.00032   0.00092   0.00047   0.00005
 264        4PX        -0.00000  -0.00007  -0.00001  -0.00006   0.00003
 265        4PY         0.00001   0.00006   0.00009   0.00034   0.00004
 266        4PZ         0.00000   0.00007   0.00002   0.00019  -0.00001
 267 20  H  1S          0.00000   0.00004   0.00004  -0.00009  -0.00002
 268        2S         -0.00004  -0.00037  -0.00064  -0.00103   0.00000
 269        3S         -0.00004   0.00002   0.00137   0.00031  -0.00030
 270        4PX        -0.00000  -0.00013   0.00002  -0.00017   0.00001
 271        4PY        -0.00001  -0.00007  -0.00006  -0.00031  -0.00008
 272        4PZ         0.00000   0.00008   0.00007   0.00025  -0.00001
 273 21  H  1S         -0.00001  -0.00000   0.00002  -0.00005  -0.00005
 274        2S          0.00000  -0.00009  -0.00016  -0.00036  -0.00104
 275        3S         -0.00003   0.00061   0.00015   0.00039   0.00066
 276        4PX        -0.00000  -0.00002  -0.00003  -0.00012  -0.00034
 277        4PY        -0.00001  -0.00004  -0.00000  -0.00009  -0.00015
 278        4PZ        -0.00000   0.00001  -0.00002  -0.00001  -0.00000
                           6         7         8         9        10
                           O         O         O         O         O
     Eigenvalues --   -10.24921 -10.20128 -10.19989 -10.18742  -8.02437
   1 1   N  1S         -0.00002   0.00000   0.00000   0.00000   0.00000
   2        2S         -0.00007   0.00002   0.00002   0.00001   0.00005
   3        2PX        -0.00009  -0.00005  -0.00001  -0.00003   0.00005
   4        2PY         0.00002   0.00000  -0.00000  -0.00001   0.00000
   5        2PZ         0.00017  -0.00006  -0.00005   0.00006  -0.00002
   6        3S          0.00040  -0.00002  -0.00010  -0.00002  -0.00033
   7        3PX        -0.00007   0.00020   0.00005   0.00015  -0.00042
   8        3PY        -0.00006  -0.00002   0.00001   0.00007  -0.00001
   9        3PZ        -0.00002   0.00032   0.00028  -0.00029   0.00027
  10        4S          0.00156  -0.00029  -0.00004  -0.00012  -0.00055
  11        4PX        -0.00042   0.00024  -0.00020  -0.00056   0.00125
  12        4PY        -0.00025   0.00017   0.00002  -0.00007   0.00005
  13        4PZ         0.00028  -0.00173  -0.00167   0.00119  -0.00160
  14        5S          0.01375   0.00797   0.00104   0.00639   0.01976
  15        5PX        -0.01297  -0.00611  -0.00006  -0.01133   0.00966
  16        5PY        -0.00054  -0.00061   0.00011  -0.00119   0.00008
  17        5PZ         0.01320   0.00028  -0.00482   0.01055  -0.00317
  18        6D 0       -0.00018  -0.00003  -0.00004  -0.00004   0.00015
  19        6D+1        0.00027  -0.00012  -0.00000   0.00002  -0.00006
  20        6D-1       -0.00005   0.00002   0.00000   0.00000   0.00000
  21        6D+2       -0.00005  -0.00002   0.00001  -0.00004  -0.00005
  22        6D-2        0.00003  -0.00001  -0.00000   0.00000   0.00000
  23 2   C  1S          0.00006   0.00001   0.00000   0.00001  -0.00007
  24        2S          0.00008   0.00003   0.00002   0.00002   0.00001
  25        2PX        -0.00003  -0.00000   0.00000   0.00001   0.00026
  26        2PY        -0.00000   0.00001  -0.00000   0.00001  -0.00004
  27        2PZ        -0.00001  -0.00002  -0.00003   0.00000  -0.00054
  28        3S         -0.00044  -0.00035  -0.00014  -0.00013   0.00085
  29        3PX         0.00032   0.00011   0.00002  -0.00008  -0.00088
  30        3PY         0.00001  -0.00004  -0.00000  -0.00006   0.00014
  31        3PZ         0.00006   0.00014   0.00016   0.00003   0.00188
  32        4S          0.00266   0.00174   0.00040   0.00191  -0.00164
  33        4PX        -0.00054  -0.00080  -0.00086   0.00048   0.00312
  34        4PY         0.00008   0.00018   0.00004   0.00049  -0.00050
  35        4PZ         0.00104  -0.00046   0.00012  -0.00191  -0.00002
  36        5S          0.01161   0.01732   0.00826   0.00689   0.03330
  37        5PX         0.00067  -0.00508  -0.00088   0.00323   0.00302
  38        5PY         0.00010   0.00047  -0.00015   0.00041   0.00012
  39        5PZ        -0.00113  -0.00142  -0.00221  -0.00346  -0.00646
  40        6D 0        0.00018   0.00009   0.00003   0.00004  -0.00114
  41        6D+1        0.00007   0.00000   0.00003   0.00004   0.00092
  42        6D-1       -0.00004   0.00002   0.00000   0.00003  -0.00008
  43        6D+2        0.00010   0.00006   0.00004  -0.00003  -0.00001
  44        6D-2       -0.00002  -0.00001  -0.00000  -0.00006   0.00003
  45 3   C  1S          0.00011  -0.00125   0.00005  -0.00001  -0.00001
  46        2S          0.00011  -0.00107   0.00009  -0.00002   0.00005
  47        2PX        -0.00003  -0.00055   0.00003   0.00000  -0.00001
  48        2PY        -0.00000   0.00004  -0.00000   0.00001  -0.00002
  49        2PZ         0.00007  -0.00010  -0.00012  -0.00003  -0.00000
  50        3S         -0.00005   0.00073  -0.00026   0.00023  -0.00057
  51        3PX         0.00011   0.00142  -0.00031  -0.00005  -0.00045
  52        3PY         0.00001  -0.00012   0.00002  -0.00005   0.00011
  53        3PZ        -0.00038   0.00021   0.00067   0.00024   0.00007
  54        4S         -0.00427  -0.00128   0.00059  -0.00045   0.00228
  55        4PX        -0.00135  -0.00612  -0.00047   0.00054   0.00502
  56        4PY         0.00008   0.00054  -0.00004   0.00062  -0.00070
  57        4PZ         0.00199  -0.00171  -0.00238  -0.00113  -0.00049
  58        5S          0.01009   0.05537  -0.03113  -0.02121  -0.22964
  59        5PX         0.01066  -0.03317   0.00769   0.01653  -0.17673
  60        5PY         0.00099   0.00236  -0.00062  -0.00009   0.01145
  61        5PZ        -0.02310  -0.02403   0.01607  -0.01079   0.01026
  62        6D 0       -0.00003   0.00053  -0.00019  -0.00004  -0.00007
  63        6D+1        0.00003  -0.00031   0.00029   0.00003   0.00025
  64        6D-1       -0.00000   0.00003  -0.00002   0.00005  -0.00002
  65        6D+2        0.00005  -0.00066   0.00006  -0.00003   0.00025
  66        6D-2        0.00002   0.00007  -0.00001  -0.00002  -0.00002
  67 4   C  1S          0.00022   0.00005  -0.00141   0.00001  -0.00004
  68        2S          0.00022   0.00009  -0.00118   0.00001  -0.00000
  69        2PX        -0.00001  -0.00007   0.00002   0.00000   0.00048
  70        2PY         0.00001   0.00000   0.00001   0.00001  -0.00002
  71        2PZ         0.00003   0.00002  -0.00056   0.00002   0.00017
  72        3S         -0.00035  -0.00023   0.00055  -0.00012   0.00089
  73        3PX         0.00007   0.00044  -0.00031  -0.00003  -0.00135
  74        3PY        -0.00003  -0.00002  -0.00000  -0.00001   0.00005
  75        3PZ        -0.00016  -0.00020   0.00153  -0.00012  -0.00019
  76        4S          0.00353   0.00220   0.00061  -0.00012  -0.00397
  77        4PX        -0.00208  -0.00029   0.00098   0.00033   0.00239
  78        4PY         0.00021   0.00004  -0.00003  -0.00011  -0.00008
  79        4PZ         0.00278   0.00225  -0.00361   0.00167  -0.00374
  80        5S         -0.04336  -0.02233   0.07352  -0.02018   0.22148
  81        5PX         0.01682   0.01647  -0.01660   0.00302   0.00173
  82        5PY        -0.00184  -0.00067   0.00060  -0.00015  -0.00070
  83        5PZ         0.02527   0.01587  -0.03911   0.01461   0.20212
  84        6D 0        0.00001   0.00019  -0.00074   0.00001   0.00020
  85        6D+1       -0.00003   0.00020  -0.00033  -0.00003  -0.00094
  86        6D-1        0.00001  -0.00003   0.00003  -0.00001   0.00005
  87        6D+2        0.00003  -0.00010   0.00011   0.00003  -0.00078
  88        6D-2        0.00000   0.00001  -0.00001   0.00002   0.00004
  89 5   S  1S         -0.00000  -0.00000  -0.00000  -0.00000  -0.11961
  90        2S          0.00000   0.00000   0.00000   0.00000  -0.32017
  91        3S         -0.00003  -0.00003  -0.00004  -0.00002   0.51764
  92        4S          0.00007   0.00007   0.00010   0.00004   0.59200
  93        5S         -0.00021  -0.00014  -0.00028  -0.00007   0.05784
  94        6S          0.00102  -0.00061   0.00101  -0.00120  -0.03509
  95        7S         -0.02341  -0.01122   0.00877  -0.01358  -0.08693
  96        7PX         0.00489   0.00259  -0.00177   0.00197   0.01445
  97        7PY        -0.00006  -0.00014   0.00025  -0.00049  -0.00056
  98        7PZ        -0.00190   0.00171  -0.00145  -0.00306  -0.00591
  99        8PX         0.00000   0.00000   0.00000  -0.00000  -0.00242
 100        8PY        -0.00000   0.00000   0.00000   0.00000   0.00014
 101        8PZ        -0.00000   0.00000  -0.00000   0.00000   0.00106
 102        9PX        -0.00001  -0.00000  -0.00001   0.00000  -0.00525
 103        9PY        -0.00000  -0.00000  -0.00000  -0.00001   0.00030
 104        9PZ         0.00000  -0.00000   0.00001  -0.00001   0.00231
 105       10PX         0.00006  -0.00001   0.00004  -0.00003  -0.00030
 106       10PY         0.00000   0.00000   0.00001   0.00004  -0.00001
 107       10PZ         0.00001   0.00003  -0.00009   0.00005   0.00006
 108       11PX        -0.00013   0.00025  -0.00010   0.00029  -0.00230
 109       11PY        -0.00002  -0.00001  -0.00002  -0.00011   0.00019
 110       11PZ        -0.00005  -0.00012   0.00045  -0.00035   0.00131
 111       12PX        -0.00065  -0.00053  -0.00009  -0.00013   0.00931
 112       12PY         0.00014  -0.00006   0.00007   0.00016  -0.00050
 113       12PZ         0.00071   0.00042   0.00033  -0.00025  -0.00442
 114       13D 0        0.00003   0.00001  -0.00003  -0.00003   0.00052
 115       13D+1        0.00004   0.00001  -0.00010   0.00003  -0.00018
 116       13D-1       -0.00000  -0.00001  -0.00001  -0.00003   0.00004
 117       13D+2       -0.00002  -0.00002   0.00001  -0.00003   0.00064
 118       13D-2       -0.00000   0.00000  -0.00000   0.00000  -0.00006
 119 6   C  1S          0.56302   0.00002   0.00001  -0.00108  -0.00000
 120        2S          0.46320   0.00004   0.00002  -0.00093   0.00003
 121        2PX         0.00058  -0.00004  -0.00002  -0.00011  -0.00001
 122        2PY        -0.00023  -0.00002  -0.00000  -0.00046   0.00000
 123        2PZ        -0.00087  -0.00004  -0.00001   0.00010   0.00001
 124        3S          0.01984  -0.00019  -0.00020   0.00054  -0.00047
 125        3PX        -0.00078   0.00015   0.00008   0.00012   0.00007
 126        3PY         0.00168   0.00008   0.00004   0.00104   0.00006
 127        3PZ         0.00114   0.00014   0.00002  -0.00006  -0.00005
 128        4S         -0.01916   0.00157   0.00222  -0.00061   0.00476
 129        4PX        -0.00065  -0.00037   0.00047  -0.00165   0.00046
 130        4PY         0.00167  -0.00145  -0.00033  -0.00254   0.00046
 131        4PZ         0.00309  -0.00062  -0.00052   0.00202  -0.00076
 132        5S         -0.03468  -0.00957  -0.00082   0.02144  -0.00987
 133        5PX        -0.00135  -0.00088   0.00018  -0.00064   0.00321
 134        5PY         0.00624   0.00296  -0.00069  -0.00498   0.00605
 135        5PZ         0.00318  -0.00076   0.00075   0.00034  -0.00317
 136        6D 0       -0.00046  -0.00007  -0.00001   0.00016   0.00003
 137        6D+1        0.00109  -0.00008  -0.00002   0.00020   0.00005
 138        6D-1        0.00032  -0.00005   0.00001   0.00030   0.00003
 139        6D+2        0.00013  -0.00001   0.00003   0.00046   0.00007
 140        6D-2       -0.00032  -0.00003   0.00001  -0.00033   0.00002
 141 7   C  1S          0.00106   0.00001  -0.00001   0.56295  -0.00000
 142        2S          0.00083   0.00000  -0.00000   0.46314   0.00002
 143        2PX         0.00011  -0.00000   0.00001   0.00009   0.00002
 144        2PY         0.00047   0.00000   0.00001   0.00038   0.00000
 145        2PZ        -0.00006  -0.00001   0.00000  -0.00010  -0.00005
 146        3S          0.00032   0.00022   0.00003   0.01989  -0.00015
 147        3PX        -0.00031  -0.00001  -0.00003  -0.00044  -0.00005
 148        3PY        -0.00119   0.00003  -0.00002  -0.00150  -0.00001
 149        3PZ         0.00009  -0.00002   0.00000   0.00036   0.00024
 150        4S          0.00469  -0.00230  -0.00065  -0.01424   0.00017
 151        4PX         0.00012  -0.00029  -0.00006  -0.00123   0.00045
 152        4PY         0.00165  -0.00123  -0.00024  -0.00244  -0.00040
 153        4PZ        -0.00051   0.00105   0.00026   0.00186  -0.00113
 154        5S          0.02036   0.01137  -0.00084  -0.02088   0.02094
 155        5PX         0.00185   0.00088  -0.00019  -0.00097   0.00234
 156        5PY         0.00396   0.00230  -0.00010  -0.00403   0.00435
 157        5PZ        -0.00212  -0.00148  -0.00009   0.00142  -0.00280
 158        6D 0        0.00047   0.00001   0.00000   0.00033  -0.00001
 159        6D+1        0.00002  -0.00002  -0.00002   0.00009   0.00000
 160        6D-1        0.00029   0.00006   0.00001   0.00041  -0.00002
 161        6D+2        0.00068   0.00004   0.00000   0.00056  -0.00000
 162        6D-2       -0.00030  -0.00001  -0.00001  -0.00030  -0.00003
 163 8   H  1S         -0.00001  -0.00004  -0.00001   0.00021  -0.00005
 164        2S         -0.00114   0.00018   0.00007  -0.00327   0.00039
 165        3S         -0.00025  -0.00080  -0.00006   0.00338   0.00049
 166        4PX        -0.00019  -0.00001   0.00000  -0.00113   0.00003
 167        4PY         0.00004   0.00005   0.00002   0.00022   0.00004
 168        4PZ         0.00034  -0.00004  -0.00001   0.00175  -0.00002
 169 9   H  1S         -0.00002  -0.00001  -0.00001   0.00020  -0.00006
 170        2S         -0.00121   0.00035   0.00015  -0.00300   0.00032
 171        3S          0.00028  -0.00121  -0.00021   0.00411  -0.00183
 172        4PX        -0.00020   0.00001   0.00002  -0.00107   0.00003
 173        4PY        -0.00013  -0.00006   0.00000  -0.00082   0.00003
 174        4PZ        -0.00027   0.00009   0.00001  -0.00155   0.00001
 175 10  H  1S         -0.00008  -0.00005  -0.00002   0.00015  -0.00002
 176        2S         -0.00068   0.00038   0.00015  -0.00263   0.00008
 177        3S         -0.00055  -0.00111  -0.00013   0.00305  -0.00090
 178        4PX         0.00025  -0.00001  -0.00001   0.00171   0.00001
 179        4PY        -0.00009   0.00003   0.00001  -0.00100  -0.00003
 180        4PZ         0.00006  -0.00006  -0.00001   0.00028   0.00003
 181 11  H  1S          0.00006   0.00005   0.00001  -0.00009   0.00001
 182        2S         -0.00271  -0.00063  -0.00016  -0.00047  -0.00039
 183        3S          0.00377   0.00023   0.00005  -0.00320  -0.00056
 184        4PX        -0.00180   0.00001  -0.00002  -0.00021  -0.00007
 185        4PY         0.00112   0.00004   0.00001   0.00020   0.00004
 186        4PZ        -0.00049   0.00005   0.00000  -0.00002  -0.00004
 187 12  H  1S          0.00005  -0.00003   0.00001  -0.00012   0.00005
 188        2S         -0.00282   0.00012  -0.00024  -0.00017  -0.00083
 189        3S          0.00219   0.00036   0.00069  -0.00300   0.00059
 190        4PX         0.00132  -0.00002   0.00002   0.00012   0.00008
 191        4PY         0.00085   0.00003   0.00003   0.00013   0.00002
 192        4PZ         0.00149  -0.00004   0.00001   0.00013   0.00009
 193 13  H  1S          0.00005  -0.00002  -0.00004  -0.00003  -0.00013
 194        2S         -0.00105  -0.00007   0.00003   0.00035  -0.00058
 195        3S         -0.00007   0.00048   0.00027  -0.00031  -0.00305
 196        4PX         0.00024   0.00007   0.00004   0.00002  -0.00003
 197        4PY        -0.00003  -0.00001  -0.00000  -0.00001   0.00001
 198        4PZ         0.00012   0.00004   0.00001   0.00002   0.00037
 199 14  C  1S         -0.00001  -0.00095   0.56296   0.00001  -0.00000
 200        2S          0.00000  -0.00076   0.46313   0.00001   0.00005
 201        2PX        -0.00000  -0.00003   0.00009   0.00000   0.00002
 202        2PY        -0.00001  -0.00001   0.00000  -0.00001  -0.00000
 203        2PZ         0.00002   0.00003   0.00055  -0.00001   0.00007
 204        3S         -0.00013  -0.00013   0.01967  -0.00004  -0.00044
 205        3PX         0.00001   0.00009  -0.00026  -0.00002  -0.00016
 206        3PY         0.00007   0.00007  -0.00008   0.00001   0.00004
 207        3PZ        -0.00011  -0.00016  -0.00159   0.00003  -0.00049
 208        4S          0.00144   0.00157  -0.01267   0.00137  -0.00016
 209        4PX         0.00068   0.00023  -0.00024   0.00024  -0.00030
 210        4PY        -0.00024  -0.00038   0.00029  -0.00014   0.00017
 211        4PZ         0.00064   0.00012  -0.00215   0.00045   0.00041
 212        5S          0.03687   0.02475  -0.08170   0.01916   0.20357
 213        5PX        -0.00010  -0.00076  -0.00053   0.00067   0.00637
 214        5PY        -0.00025  -0.00032   0.00048  -0.00018  -0.00086
 215        5PZ         0.00704   0.00484  -0.01705   0.00353   0.03938
 216        6D 0       -0.00002  -0.00009  -0.00065  -0.00001  -0.00006
 217        6D+1        0.00003   0.00001  -0.00015  -0.00001  -0.00008
 218        6D-1       -0.00000  -0.00000   0.00003   0.00001   0.00000
 219        6D+2        0.00002   0.00000  -0.00003  -0.00000   0.00012
 220        6D-2       -0.00001  -0.00001   0.00001  -0.00001  -0.00002
 221 15  H  1S         -0.00000  -0.00001   0.00022   0.00001  -0.00010
 222        2S         -0.00015  -0.00016  -0.00319  -0.00016   0.00017
 223        3S         -0.00015  -0.00061   0.00472   0.00001  -0.00122
 224        4PX         0.00002   0.00004   0.00159   0.00002  -0.00003
 225        4PY        -0.00003  -0.00003  -0.00108  -0.00001  -0.00004
 226        4PZ         0.00002  -0.00001  -0.00078  -0.00001  -0.00010
 227 16  H  1S          0.00002  -0.00001   0.00021  -0.00001   0.00004
 228        2S         -0.00014   0.00003  -0.00317  -0.00001  -0.00008
 229        3S          0.00065  -0.00019   0.00429   0.00016  -0.00095
 230        4PX        -0.00003  -0.00000   0.00006  -0.00001  -0.00006
 231        4PY         0.00003   0.00006   0.00197   0.00001   0.00005
 232        4PZ        -0.00002  -0.00000  -0.00055   0.00001  -0.00012
 233 17  C  1S         -0.00002   0.56295   0.00094  -0.00001  -0.00000
 234        2S         -0.00001   0.46310   0.00080  -0.00001   0.00002
 235        2PX         0.00004   0.00051   0.00005  -0.00002   0.00002
 236        2PY        -0.00001  -0.00003   0.00001  -0.00000  -0.00001
 237        2PZ         0.00005   0.00009  -0.00005  -0.00001   0.00000
 238        3S         -0.00021   0.02008   0.00001   0.00009  -0.00036
 239        3PX        -0.00029  -0.00140  -0.00021   0.00012  -0.00021
 240        3PY         0.00007   0.00006  -0.00002  -0.00001   0.00004
 241        3PZ        -0.00015  -0.00023   0.00021   0.00005  -0.00004
 242        4S          0.00124  -0.01597  -0.00102   0.00028   0.00427
 243        4PX         0.00029  -0.00325  -0.00041  -0.00039   0.00127
 244        4PY        -0.00008   0.00003   0.00026  -0.00052   0.00001
 245        4PZ         0.00078  -0.00100  -0.00014  -0.00090   0.00085
 246        5S          0.01383  -0.07149   0.01907   0.02854  -0.15075
 247        5PX         0.00239  -0.01488   0.00412   0.00558  -0.02645
 248        5PY        -0.00020   0.00104   0.00010  -0.00090   0.00197
 249        5PZ         0.00374  -0.00070  -0.00140   0.00280  -0.00759
 250        6D 0       -0.00010   0.00029   0.00005   0.00003   0.00008
 251        6D+1       -0.00015  -0.00014   0.00005   0.00003  -0.00000
 252        6D-1       -0.00001  -0.00002   0.00000  -0.00001  -0.00000
 253        6D+2       -0.00009  -0.00050  -0.00006   0.00002  -0.00010
 254        6D-2        0.00002   0.00011   0.00001   0.00000   0.00003
 255 18  H  1S         -0.00002   0.00022  -0.00004   0.00003   0.00002
 256        2S          0.00013  -0.00310   0.00011  -0.00027  -0.00047
 257        3S         -0.00006   0.00417  -0.00055  -0.00093   0.00098
 258        4PX         0.00003  -0.00028  -0.00002  -0.00001   0.00004
 259        4PY         0.00002  -0.00012   0.00001   0.00003  -0.00002
 260        4PZ         0.00001  -0.00202   0.00006  -0.00004  -0.00010
 261 19  H  1S          0.00009   0.00017  -0.00004  -0.00005   0.00005
 262        2S         -0.00077  -0.00259   0.00019   0.00044  -0.00063
 263        3S         -0.00067   0.00488  -0.00055  -0.00063  -0.00072
 264        4PX        -0.00017  -0.00052   0.00002   0.00003  -0.00003
 265        4PY         0.00021   0.00171   0.00001  -0.00004   0.00010
 266        4PZ        -0.00011   0.00074   0.00000  -0.00001   0.00004
 267 20  H  1S          0.00012   0.00021  -0.00004   0.00001   0.00004
 268        2S         -0.00102  -0.00290   0.00022   0.00002  -0.00055
 269        3S          0.00033   0.00480   0.00002  -0.00157  -0.00080
 270        4PX        -0.00016  -0.00085   0.00003  -0.00005  -0.00004
 271        4PY        -0.00014  -0.00152  -0.00002   0.00004  -0.00010
 272        4PZ        -0.00003   0.00100  -0.00002  -0.00005   0.00006
 273 21  H  1S         -0.00001  -0.00002   0.00023   0.00000  -0.00007
 274        2S         -0.00001  -0.00003  -0.00326  -0.00004   0.00014
 275        3S          0.00049  -0.00097   0.00489   0.00012  -0.00039
 276        4PX        -0.00002   0.00001  -0.00184  -0.00001  -0.00002
 277        4PY         0.00002  -0.00000  -0.00089   0.00001  -0.00008
 278        4PZ        -0.00001  -0.00004  -0.00040   0.00001  -0.00002
                          11        12        13        14        15
                           O         O         O         O         O
     Eigenvalues --    -5.98703  -5.98304  -5.98088  -1.06562  -0.89419
   1 1   N  1S          0.00000  -0.00000   0.00000   0.09665  -0.04095
   2        2S          0.00001  -0.00003   0.00000   0.15191  -0.06485
   3        2PX         0.00007  -0.00002  -0.00000  -0.02370  -0.02291
   4        2PY        -0.00000  -0.00000   0.00001   0.00268  -0.00098
   5        2PZ         0.00004   0.00002   0.00000   0.01669   0.04249
   6        3S         -0.00004   0.00028  -0.00001  -0.41834   0.18466
   7        3PX        -0.00039   0.00018   0.00000  -0.03241  -0.03576
   8        3PY         0.00000   0.00001  -0.00006   0.00388  -0.00135
   9        3PZ        -0.00021  -0.00011  -0.00002   0.02296   0.06373
  10        4S         -0.00019  -0.00151  -0.00002  -0.28422   0.14300
  11        4PX         0.00110   0.00078   0.00004  -0.00759  -0.03182
  12        4PY         0.00001  -0.00015   0.00015   0.00276  -0.00046
  13        4PZ         0.00156   0.00075   0.00019   0.01213   0.04508
  14        5S          0.00091  -0.00364  -0.00033   0.22935   0.07316
  15        5PX        -0.00146   0.00225  -0.00108   0.02479   0.04597
  16        5PY        -0.00017  -0.00006  -0.00170  -0.00598   0.00167
  17        5PZ         0.00466  -0.00494   0.00125  -0.04101  -0.05254
  18        6D 0        0.00009  -0.00006   0.00000  -0.00446   0.00125
  19        6D+1        0.00002  -0.00001  -0.00001   0.00052   0.00003
  20        6D-1        0.00000  -0.00001   0.00000   0.00013  -0.00061
  21        6D+2       -0.00007   0.00004   0.00000  -0.01149   0.00179
  22        6D-2        0.00001  -0.00000  -0.00001   0.00082   0.00024
  23 2   C  1S         -0.00009   0.00008   0.00000   0.05188   0.01743
  24        2S         -0.00016   0.00009   0.00000   0.07961   0.02726
  25        2PX         0.00013  -0.00010   0.00000   0.05215  -0.03160
  26        2PY        -0.00001   0.00000  -0.00000  -0.00192   0.00153
  27        2PZ        -0.00030   0.00020   0.00000   0.01270   0.04147
  28        3S          0.00080  -0.00008  -0.00001  -0.20434  -0.06982
  29        3PX         0.00010   0.00010  -0.00001   0.07120  -0.05160
  30        3PY        -0.00001   0.00001   0.00018  -0.00240   0.00285
  31        3PZ         0.00013   0.00019  -0.00000   0.02554   0.06577
  32        4S         -0.00076  -0.00374  -0.00003  -0.10000  -0.05541
  33        4PX         0.00184   0.00040   0.00012   0.01166  -0.00822
  34        4PY        -0.00008   0.00004   0.00011  -0.00083  -0.00047
[...]
 918,-0.00183161,-0.00020048,0.00086297,0.00051473,-0.00018589,0.000168
 76,-0.00035776,-0.00004201,-0.00020590,0.00003337,-0.00000133,0.000070
 10,0.00001986,-0.00001155,-0.00001495,-0.00599270,0.00615932,-0.003585
 68,-0.03863673,0.02417566,-0.05550898,0.02168155,-0.01540336,0.0062893
 9,-0.01848516,0.01342664,-0.00371888,0.04174134,-0.02910443,0.05466849
 ,-0.02071519,0.00808330,0.00180838,0.00083077,0.00077985,0.00255156,-0
 .00061037,-0.00016279,-0.00138777,-0.00018396,-0.00001468,-0.00003206,
 -0.00064491,-0.00025316,0.00058092,-0.22464637,0.12397136,-0.03735171,
 0.01019513,-0.00605264,0.00146572,0.00035054,0.00076719,-0.00030769,0.
 00045125,0.00042344,-0.00015990,0.00037854,-0.00270459,0.00051152,0.24
 626282,-0.00152916,0.00123769,-0.00101101,-0.00094654,-0.00009277,0.00
 023858,0.00049661,0.00062190,0.00011725,0.00010855,-0.00001178,-0.0000
 6356,-0.00024498,-0.00009340,0.00014403,0.12582314,-0.13541306,0.02515
 206,0.02441602,-0.01842053,0.00679860,-0.00015798,0.00128539,-0.000025
 56,0.00015490,0.00132156,-0.00082616,-0.00234080,-0.00476408,0.0015717
 8,-0.13350629,0.14518620,0.03379904,-0.01733103,0.00002719,-0.00066632
 ,-0.00066516,-0.00376270,0.00080716,-0.00052410,0.00086906,0.00039351,
 -0.00011560,0.00041479,0.00128187,0.00087231,-0.00142092,-0.04856655,0
 .03012324,-0.05986342,-0.00709144,0.00466523,-0.00105673,-0.00003060,-
 0.00007256,0.00017570,0.00062271,-0.00026509,0.00025489,0.00101699,0.0
 0182705,0.00055102,0.03739793,-0.03130111,0.06824662,0.00861949,0.0088
 3780,0.02295847,0.00133380,0.00053265,0.00166596,-0.00311401,0.0008003
 1,0.00093140,0.00009862,-0.00019458,0.00138665,0.00028844,0.00013592,0
 .00013382,-0.13895780,-0.06649160,-0.11548559,-0.00374590,-0.00292632,
 -0.00483913,0.00005379,-0.00011550,0.00007974,0.00090080,-0.00135460,0
 .00076177,0.00078711,0.00005820,0.00060765,-0.01237351,-0.01196844,-0.
 01817920,0.14607841,0.00118199,0.00026905,0.00171029,-0.00024373,0.000
 46746,-0.00003137,-0.00003504,0.00038754,0.00085843,0.00018172,0.00013
 848,0.00030466,0.00025819,-0.00011434,-0.00023447,-0.06468030,-0.09934
 880,-0.08621434,-0.01862630,-0.01523489,-0.02112351,0.00025680,0.00123
 782,0.00019508,-0.00125368,-0.00490991,0.00241520,0.00078920,0.0014393
 8,-0.00049841,0.00893038,0.00890859,0.01353136,0.07301388,0.10678665,-
 0.01252456,-0.01022246,-0.03174601,-0.00272485,0.00039427,0.00068101,0
 .00429281,-0.00134772,-0.00006083,-0.00036716,0.00022059,-0.00136760,-
 0.00000302,0.00030315,-0.00025188,-0.10275489,-0.08244637,-0.18085610,
 0.00571885,0.00439205,0.00909707,-0.00023262,-0.00059212,0.00038546,0.
 00057993,0.00272014,0.00032587,-0.00012695,-0.00044483,0.00020677,-0.0
 0294407,-0.00123469,-0.00203333,0.10980171,0.08899350,0.20576142,-0.01
 347672,0.00044040,-0.02905686,-0.13579368,0.00437285,-0.12967261,-0.00
 418312,0.00051143,0.00383236,-0.00200862,0.00011546,0.00436217,0.00994
 272,-0.00055388,0.00971129,0.00096975,-0.00034932,-0.00223568,-0.00022
 677,-0.00012819,0.00008791,0.00004456,-0.00001085,-0.00000838,0.000078
 92,0.00007191,0.00000191,-0.00037905,-0.00021987,-0.00003113,0.0002439
 8,0.00010034,0.00020077,-0.00005952,0.00042684,0.00072476,0.14324122,0
 .00110017,0.00120193,0.00085587,0.00429612,-0.02559603,0.00451669,0.00
 024241,0.00455750,0.00002317,0.00014661,0.00112377,-0.00045667,-0.0007
 6133,-0.00148027,-0.00052856,0.00016585,-0.00329163,0.00060434,-0.0004
 8624,0.00011602,0.00018426,0.00008369,-0.00016586,0.00005936,0.0000375
 5,-0.00001376,-0.00001041,-0.00031122,-0.00027573,0.00007350,0.0001827
 5,0.00012748,-0.00027889,-0.00015358,0.00003459,-0.00076442,-0.0049014
 2,0.02044356,0.00350649,-0.00029470,0.00663903,-0.14219985,0.00465775,
 -0.28275880,0.00123184,-0.00004416,0.00199482,0.00405045,-0.00004665,-
 0.00290778,-0.01015383,0.00054238,-0.00886508,0.00079134,0.00021734,0.
 00094914,0.00002215,-0.00015118,0.00002612,0.00003047,-0.00001332,-0.0
 0001119,-0.00000866,-0.00000963,0.00000338,0.00009712,0.00005657,0.000
 09886,0.00004436,0.00003306,-0.00003885,0.00038352,-0.00036927,0.00000
 408,0.14320403,-0.00443433,0.28427754,-0.00338507,-0.00115629,0.003988
 27,-0.00739085,0.00122452,-0.00231953,0.00966942,-0.00125029,0.0195297
 7,-0.08104665,0.00336471,-0.01227208,-0.00281953,-0.00059351,-0.024729
 28,0.00118759,0.00020189,0.00056530,-0.00002691,0.00000505,0.00002260,
 -0.00001190,-0.00002761,-0.00000343,0.00001282,-0.00001012,-0.00001387
 ,-0.00000113,-0.00001979,0.00000841,0.00007222,-0.00002019,-0.00008167
 ,-0.00019333,-0.00002478,0.00036173,0.00158243,0.00066350,-0.00113711,
 0.57403823,0.00286072,0.00594652,-0.00052024,-0.00224524,0.00165378,0.
 00223432,-0.00098897,0.00143387,-0.00096579,0.00272789,-0.06115415,-0.
 00096523,0.00045505,-0.00226306,-0.00128268,-0.00004786,0.00089256,-0.
 00011931,0.00004728,-0.00005176,-0.00018586,0.00004105,0.00004153,0.00
 000951,-0.00001510,-0.00000541,-0.00000887,0.00000706,-0.00000680,0.00
 000148,-0.00003611,-0.00000827,0.00008733,-0.00016804,-0.00007689,0.00
 006826,0.00029716,0.00214902,-0.00038338,-0.00094444,0.54131305,0.0007
 4734,-0.00010136,0.00149069,0.00107103,-0.00059413,-0.00078289,0.00277
 234,0.00043598,-0.02021762,-0.00949995,0.00236353,-0.22232618,-0.00879
 642,0.00078365,-0.00884706,-0.00036127,0.00001792,0.00015211,0.0000441
 4,0.00006373,0.00001099,-0.00000493,-0.00000892,0.00000610,-0.00000121
 ,-0.00000457,0.00000463,0.00000310,-0.00000409,-0.00000256,-0.00004176
 ,0.00000297,0.00004914,-0.00004516,0.00004906,-0.00001652,-0.00005336,
 0.00000713,0.00017908,-0.01100677,0.00901483,0.48188906,-0.00005318,0.
 00033087,-0.00043806,0.00030480,-0.00034078,-0.00034895,-0.00006384,0.
 00025297,-0.00101442,0.00406350,-0.00449294,-0.00316384,0.00045300,-0.
 00014003,-0.00018360,-0.00009148,0.00013216,0.00000538,0.00002500,0.00
 000758,-0.00001549,0.00000627,0.00000534,0.00000230,0.00000055,0.00000
 729,-0.00000165,0.00000353,-0.00000432,0.00000444,0.00001119,-0.000018
 88,0.00000853,0.00000065,-0.00001371,0.00000154,-0.00000859,-0.0000680
 6,0.00001577,-0.19563538,0.10315339,0.08707985,0.20855777,-0.00039627,
 0.00024028,0.00056483,0.00014765,-0.00008506,-0.00060300,0.00011419,0.
 00033701,0.00016437,-0.00346361,-0.00001914,0.00195640,-0.00001122,0.0
 0035555,-0.00014323,-0.00001142,-0.00003626,0.00006293,-0.00000097,0.0
 0001223,0.00001989,-0.00000005,-0.00000790,-0.00000070,-0.00000134,-0.
 00000035,-0.00000038,0.00000093,-0.00000505,0.00000440,0.00000972,-0.0
 0000304,0.00000148,0.00000393,-0.00000093,0.00001908,-0.00003129,-0.00
 006747,0.00007938,0.10358137,-0.11525271,-0.06192289,-0.11268449,0.121
 59670,0.00078612,0.00085939,-0.00128256,0.00096419,0.00014125,-0.00046
 174,-0.00305006,-0.00077169,-0.00322118,0.02612641,-0.01629154,-0.0183
 5331,0.00010596,-0.00058732,0.00034444,-0.00053299,0.00008491,0.000002
 63,0.00004201,-0.00003245,-0.00006643,0.00002098,0.00003583,-0.0000109
 4,-0.00000311,-0.00000165,0.00001839,-0.00000601,-0.00000163,0.0000052
 2,-0.00000432,0.00000761,0.00003331,0.00004340,0.00001665,-0.00012135,
 -0.00015363,0.00011700,0.00017544,0.08354435,-0.05914683,-0.09608120,-
 0.09285798,0.06522183,0.10996193,-0.00058717,0.00036429,-0.00075691,0.
 00047088,-0.00052250,-0.00014371,-0.00012263,0.00018618,0.00174733,-0.
 00080021,0.00282854,-0.00131452,-0.00046053,0.00071505,-0.00073816,-0.
 00000292,0.00001509,0.00002960,0.00001493,-0.00000895,-0.00000239,0.00
 000354,0.00000536,-0.00000379,0.,-0.00000028,-0.00000043,-0.00000403,0
 .00000208,-0.00000190,0.00000181,-0.00000035,-0.00000899,0.00001052,-0
 .00000589,0.00000152,0.00001424,-0.00024062,-0.00005049,-0.04435429,-0
 .00520703,0.00140853,0.00099831,0.02277300,-0.00881728,0.04399399,-0.0
 0002885,-0.00030342,0.00025548,0.00026319,-0.00013052,-0.00026754,0.00
 115115,0.00055545,-0.00124349,0.00009187,0.00435868,0.00275619,-0.0008
 7525,0.00008850,0.00015261,0.00003052,-0.00003842,0.00001949,-0.000004
 50,0.00001276,0.00001511,-0.00000513,-0.00000508,0.00000196,0.00000035
 ,0.00000191,-0.00000532,-0.00000022,-0.00000007,-0.00000189,-0.0000026
 9,-0.00000157,-0.00000664,-0.00000726,0.00000083,0.00000625,-0.0000291
 7,-0.00001413,0.00003655,-0.00554437,-0.27970791,0.08079303,-0.0008891
 1,-0.01465016,0.00466294,0.00578086,0.30155385,-0.00114699,-0.00131625
 ,-0.00108515,0.00065629,-0.00045882,-0.00166103,-0.00210507,0.00057520
 ,0.00059621,0.00135734,0.02984615,-0.01806929,0.00092589,0.00100277,0.
 00009721,-0.00031061,-0.00023063,0.00020222,0.00003007,-0.00003694,-0.
 00000536,0.00000796,0.00002857,-0.00002465,-0.00000161,-0.00000028,0.0
 0002139,-0.00001223,-0.00000118,0.00000857,0.00003549,0.00001647,-0.00
 002495,0.00007203,0.00004234,-0.00009802,0.00005787,-0.00045377,0.0000
 3096,0.00146869,0.08267201,-0.07189810,-0.00145118,-0.01324238,0.00506
 956,-0.00109610,-0.09079409,0.08414775,-0.01054111,0.00131250,-0.01023
 304,0.00126511,-0.00008898,0.00107072,-0.22064764,0.00969416,-0.016189
 23,-0.02225391,0.00210682,0.00252145,0.00050415,0.00051883,0.00121057,
 -0.00035805,-0.00031356,0.00023022,0.00020920,0.00053449,0.00013739,-0
 .00001289,-0.00006394,-0.00003151,-0.00007162,-0.00020836,-0.00005691,
 -0.00016120,-0.00011540,-0.00006016,0.00034069,-0.00005646,0.00011304,
 -0.00021429,-0.00003606,0.00032100,0.00020429,0.00006544,0.00009236,0.
 00005087,0.00048965,-0.00176295,-0.00030714,-0.00016772,-0.00036232,0.
 00036313,-0.00030977,0.00015885,0.49009084,-0.00130074,0.00002730,0.00
 016547,0.00114104,0.00110985,-0.00056494,0.00955157,-0.06747130,0.0021
 4726,0.00202601,0.00622938,-0.00128814,-0.00005708,0.00733960,0.000313
 99,0.00054102,-0.00101628,-0.00001356,-0.00037519,-0.00009883,0.000101
 12,-0.00001757,-0.00009783,-0.00007079,0.00012111,-0.00037286,0.000615
 02,-0.00005709,-0.00002930,-0.00003204,-0.00031936,0.00037456,-0.00096
 025,0.00016965,-0.00013915,-0.00005930,-0.00007475,0.00098806,-0.00000
 832,0.00034271,-0.00337236,0.00064530,0.00016659,0.00007505,-0.0002056
 1,0.00000658,-0.00011635,0.00043003,0.00823902,0.54073770,-0.04092008,
 0.00265818,-0.00878158,0.00384585,-0.00011040,-0.00784166,-0.00946575,
 0.00077967,-0.08574182,0.01851782,-0.00164625,0.00820708,0.00352415,-0
 .00039747,0.00112448,-0.00162671,-0.00056821,-0.00043338,-0.00002357,0
 .00022560,0.00001372,-0.00005403,-0.00001751,-0.00009072,-0.00025698,-
 0.00010926,-0.00046664,0.00001987,0.00000510,-0.00006728,-0.00119028,0
 .00064512,-0.00062930,-0.00042192,0.00032389,0.00002098,-0.00156076,0.
 00006496,0.00052716,-0.00045304,-0.00011149,0.00037759,-0.00018062,0.0
 0011972,-0.00007816,-0.00007492,0.00019269,-0.00022416,-0.00711927,-0.
 00053294,0.58556228,-0.00752051,0.00052915,-0.00051558,0.00029676,0.00
 004743,-0.00182883,-0.00553163,-0.00203135,-0.03402121,0.00062478,0.00
 006944,-0.00049097,0.00022636,0.00000075,0.00006408,-0.00060722,0.0001
 4539,0.00113292,0.00005289,-0.00005763,-0.00007838,0.00003233,0.000047
 05,0.00001683,-0.00000109,0.00011926,-0.00001488,0.00001559,-0.0000140
 6,0.00003702,0.00015117,-0.00022628,-0.00004752,0.00017268,-0.00006164
 ,-0.00008892,-0.00047531,0.00002371,0.00015200,-0.00068498,-0.00069056
 ,-0.00011325,0.00039743,0.00020914,0.00006617,0.00003404,0.00007995,0.
 00016795,-0.05838305,-0.00297132,-0.05155469,0.06648436,0.00095893,0.0
 0066134,-0.00020031,-0.00006948,0.00040840,0.00020541,0.00057893,-0.00
 236633,0.00291451,-0.00005915,0.00024482,0.00001779,-0.00006629,-0.000
 28565,-0.00003955,-0.00013762,-0.00028489,-0.00024420,-0.00011358,-0.0
 0011382,-0.00003723,0.00004613,0.00001737,0.00007389,0.00010839,0.0002
 3233,-0.00002364,0.00006618,0.00006404,0.00006516,-0.00012256,-0.00008
 743,0.00023166,-0.00004451,0.00007303,-0.00000619,0.00005636,0.0000525
 0,-0.00001560,0.00021390,0.00019022,-0.00002220,-0.00009451,-0.0000776
 5,0.00000575,-0.00012703,-0.00000853,0.00004484,-0.00350945,-0.0450993
 1,-0.01419862,0.00234264,0.04460089,0.00072351,-0.00040670,0.00132430,
 -0.00004793,-0.00006459,-0.00011806,-0.00157084,0.00022297,-0.00282160
 ,0.00075055,0.00011735,-0.00079444,-0.00021179,-0.00000661,-0.00014927
 ,0.00023703,-0.00028175,0.00004845,0.00001800,0.00000177,0.00006477,-0
 .00001996,-0.00000041,-0.00004567,-0.00004660,-0.00011528,0.00002418,-
 0.00002518,0.00002871,-0.00003133,-0.00021883,0.00024394,0.00004873,-0
 .00011427,0.00007410,-0.00002082,0.00001906,0.00005061,0.00002677,0.00
 147056,-0.00026622,0.00005003,0.00019980,0.00003502,0.00005972,-0.0001
 5364,-0.00003335,-0.00000516,-0.05731570,-0.01387692,-0.31078619,0.059
 14404,0.01577541,0.33542766,0.00223626,-0.00026851,0.00175042,-0.00200
 146,-0.00012163,0.00046703,-0.01757096,0.02925748,0.01254451,-0.001048
 04,0.00001989,-0.00240701,-0.00088318,-0.00144826,-0.00085222,-0.00030
 712,0.00046592,0.00004434,0.00017769,-0.00019966,-0.00008379,0.0000068
 7,0.00006081,-0.00000831,-0.00000272,0.00004110,-0.00001697,-0.0000044
 0,-0.00005428,0.00005265,-0.00000146,0.00015613,-0.00056887,0.00012571
 ,-0.00007212,0.00000969,0.00008602,-0.00017432,-0.00000535,0.00005500,
 0.00034395,-0.00011888,0.00003492,0.00003285,0.00011070,-0.00001007,0.
 00001620,0.00009615,-0.07399322,0.07837547,0.02976790,0.00201160,-0.00
 665565,-0.00154745,0.08533705,0.00019883,0.00055417,-0.00103715,0.0004
 6158,-0.00009968,0.00009549,0.00251870,0.00165575,0.00112435,-0.000860
 26,-0.00002517,0.00093960,-0.00014428,-0.00037326,0.00028559,-0.000062
 33,-0.00034780,-0.00035462,-0.00008569,-0.00014498,-0.00002185,0.00001
 941,0.00002519,0.00001476,0.00005301,0.00009498,-0.00004596,0.00002430
 ,0.00009813,0.00002450,0.00002899,0.00043172,0.00036430,-0.00026445,0.
 00017910,-0.00002985,0.00002601,0.00005362,-0.00000413,-0.00005994,0.0
 0017122,-0.00021287,-0.00003913,-0.00002928,0.00001391,0.00002859,-0.0
 0008171,-0.00001943,0.07777566,-0.24699113,-0.08046116,-0.00074294,-0.
 00038688,-0.00011338,-0.08668548,0.26542138,0.00058660,0.00027821,-0.0
 0019601,-0.00082821,-0.00032394,0.00038264,-0.00040740,0.00602686,0.00
 081975,-0.00027257,-0.00011598,-0.00017660,0.00011252,-0.00014853,-0.0
 0039466,-0.00089866,0.00041304,0.00003566,0.00033590,0.00012382,0.0000
 4691,0.00000737,0.00000324,0.00001992,-0.00003295,-0.00002574,-0.00002
 707,-0.00005988,-0.00011165,-0.00001774,-0.00028443,0.00002174,-0.0010
 6047,0.00005534,-0.00005593,0.00004520,0.00003480,-0.00008330,-0.00001
 117,0.00052798,-0.00022855,0.00006949,0.00023624,0.00013501,0.00004806
 ,-0.00010614,-0.00006641,0.00004210,0.02928358,-0.08035359,-0.07581231
 ,0.01115860,-0.02761039,-0.00949923,-0.03299902,0.08823971,0.07986837,
 0.00251756,0.00025441,0.00144549,-0.00176537,0.00025433,0.00049502,-0.
 02112004,-0.02351864,0.01681979,-0.00151729,0.00002204,-0.00278612,-0.
 00082957,0.00133775,-0.00071445,-0.00036807,-0.00055706,-0.00016544,-0
 .00040132,-0.00027528,-0.00034552,0.00011361,0.00007403,0.00017843,0.0
 0057180,0.00061600,-0.00014486,0.00011521,0.00004192,0.00018591,-0.000
 12743,-0.00023871,-0.00037389,0.00016389,0.00002459,-0.00003470,0.0001
 0540,0.00015047,-0.00001582,-0.00007997,-0.00068169,-0.00006406,0.0000
 6049,0.00004646,0.00011454,0.00002596,0.00002455,0.00021488,-0.1061573
 6,-0.09515817,0.05819350,0.00338379,0.00621299,-0.00248082,0.00571665,
 0.00776580,-0.00607171,0.11957178,-0.00019500,0.00028671,0.00044208,-0
 .00053490,-0.00002719,-0.00004711,0.00193469,0.00481025,-0.00400760,0.
 00081984,-0.00018336,-0.00014577,0.00044034,-0.00046215,-0.00024740,-0
 .00038904,0.00035826,0.00033337,0.00045512,0.00004808,0.00027815,-0.00
 002100,-0.00001087,0.00000735,0.00016804,0.00004907,0.00038373,0.00001
 513,-0.00005393,-0.00002615,-0.00001010,-0.00059075,-0.00017811,0.0001
 2139,-0.00009852,0.00003722,-0.00001877,0.00002244,0.00000981,0.000019
 71,0.00003750,-0.00001637,0.00000938,0.00001127,0.00001901,0.00000467,
 0.00001032,-0.00000185,-0.09576156,-0.19209481,0.09343993,0.00250600,0
 .00205718,-0.00129439,-0.01317088,-0.02020262,0.01371521,0.10356370,0.
 20602533,0.00033651,-0.00027403,0.00002369,-0.00049521,0.00018403,0.00
 047671,-0.00130060,-0.00606466,0.00208776,-0.00032517,0.00050155,0.000
 25228,-0.00014461,0.00022746,-0.00036672,-0.00029609,-0.00032652,-0.00
 002751,-0.00048471,-0.00001487,-0.00080852,0.00006234,0.00001057,0.000
 10884,-0.00003155,0.00059967,-0.00053871,0.00009990,0.00002094,0.00021
 000,-0.00052270,-0.00051743,-0.00073088,0.00020979,0.00001493,0.000017
 14,0.00004013,0.00006597,-0.00002280,-0.00024591,-0.00040572,-0.000285
 02,0.00010145,0.00005353,0.00005014,0.00009802,0.00008232,0.00012802,0
 .05806104,0.09373242,-0.10408716,0.01534396,0.02341612,-0.01250057,-0.
 00635911,-0.00880539,0.00532899,-0.06447901,-0.10269902,0.11052025,0.0
 0018083,-0.00004653,-0.00039677,-0.00054847,-0.00010761,0.00014702,-0.
 00105657,0.00079963,0.00121263,-0.00165879,0.00069746,-0.00335489,0.00
 155741,-0.00033185,0.00029900,-0.00002533,-0.00002631,0.00007343,0.000
 00760,-0.00001934,-0.00002087,0.00000317,0.00001462,-0.00000412,-0.000
 00320,0.00000614,-0.00000379,-0.00000566,0.00000241,-0.00000127,0.0000
 1309,-0.00000062,-0.00002649,0.00002444,-0.00001034,-0.00001181,0.0000
 9785,-0.00006151,-0.00005078,-0.25103861,-0.09939816,-0.06125633,-0.01
 875778,-0.01015086,-0.00613714,0.00041051,0.00025771,0.00087433,0.0000
 7321,-0.00034950,0.00103351,-0.00067999,0.00041538,0.00119047,0.000034
 85,0.00004364,-0.00037797,0.00002026,0.00004325,0.00033156,0.27135119,
 -0.00041031,-0.00020447,-0.00025117,0.00094797,0.00009193,-0.00016583,
 -0.00020393,0.00066876,-0.00001062,0.00253604,-0.00011380,0.00113539,0
 .00016380,0.00005832,0.00113835,-0.00003779,-0.00000451,0.00000321,0.0
 0000742,0.00000307,0.00000463,0.00000192,-0.00000280,0.00000039,-0.000
 00004,0.00000657,0.00000008,0.00000188,-0.00000299,0.00000509,0.000007
 98,-0.00000842,-0.00000545,0.00001514,0.00000091,-0.00000656,-0.000101
 26,0.00003439,0.00014184,-0.09996605,-0.09192995,-0.03128973,0.0147203
 9,0.00760690,0.00585263,-0.02659762,-0.01152441,-0.00810278,-0.0001053
 0,0.00001802,-0.00030154,0.00067586,0.00010837,-0.00009028,0.00008100,
 -0.00000276,0.00016719,0.00004049,0.00000779,0.00019812,0.10822241,0.0
 9518908,-0.00043109,0.00019617,-0.00012361,-0.00158272,0.00023851,-0.0
 0112631,-0.00050289,0.00036905,0.00129177,-0.02952393,-0.01267284,-0.0
 1107268,0.00069066,-0.00107389,-0.00389227,-0.00004233,0.00012370,0.00
 024911,0.00004017,-0.00004993,-0.00006057,0.00001963,0.00003158,-0.000
 01177,0.00000380,0.00001304,0.00000764,-0.00000452,-0.00000994,0.00001
 317,0.00004964,-0.00001369,-0.00004890,-0.00000597,-0.00000219,0.00002
 746,0.00049538,0.00038749,-0.00031668,-0.05922495,-0.02949758,-0.06382
 176,0.01200049,0.00747470,0.00390805,0.00998437,0.00344409,0.00275189,
 -0.00006910,-0.00018423,-0.00079293,0.00147065,-0.00035259,-0.00030228
 ,0.00012360,0.00000357,0.00048818,0.00002884,-0.00000206,0.00016407,0.
 06648028,0.03157705,0.07266843\\-0.00000157,0.00000270,-0.00000066,-0.
 00000053,0.00001447,0.00000011,-0.00000377,-0.00000170,0.00000162,-0.0
 0000256,0.00000608,0.00000021,-0.00000195,0.00003497,-0.00000172,-0.00
 000135,-0.00000335,-0.00000160,0.00001504,-0.00001075,0.00000241,0.000
 00365,-0.00000615,0.00000307,0.00000434,-0.00000752,-0.00000546,0.0000
 0720,-0.00000087,0.00000015,-0.00000160,-0.00000394,0.00000017,0.00000
 001,0.00000204,0.00000226,-0.00000053,0.00000729,-0.00000039,0.0000000
 4,0.00000858,0.00003726,0.00003898,-0.00001860,-0.00001877,-0.00000619
 ,0.00004603,-0.00001091,-0.00002604,-0.00000822,0.00000157,0.00000021,
 -0.00000673,0.00002226,0.00000664,-0.00003978,-0.00001280,0.00001224,0
 .00001032,-0.00001120,-0.00004224,-0.00002488,-0.00000758\\\@
 The archive entry for this job was punched.


 I FIND THAT THE THREE TRULY GREAT TIMES FOR THINKING THOUGHTS
 ARE WHEN I AM STANDING IN THE SHOWER, SITTING ON THE JOHN, OR WALKING.

                                    -- COLIN FLETCHER
 Job cpu time:       0 days  1 hours  1 minutes 53.4 seconds.
 Elapsed time:       0 days  0 hours 32 minutes  5.6 seconds.
 File lengths (MBytes):  RWF=    233 Int=      0 D2E=      0 Chk=     24 Scr=      1
 Normal termination of Gaussian 16 at Fri Jun  2 12:11:52 2023.
