 Entering Gaussian System, Link 0=g16
 Input=MEA-CO2_binding_direct-site_index-0-freq.gjf
 Output=MEA-CO2_binding_direct-site_index-0-freq.log
 Initial command:
 /software/commercial/gaussian/g16/AVX/g16/l1.exe "/scratch1/svicchi/G09-709948.pbs02/Gau-2203958.inp" -scrdir="/scratch1/svicchi/G09-709948.pbs02/"
 Entering Link 1 = /software/commercial/gaussian/g16/AVX/g16/l1.exe PID=   2203959.
  
 Copyright (c) 1988-2019, Gaussian, Inc.  All Rights Reserved.
  
 This is part of the Gaussian(R) 16 program.  It is based on
 the Gaussian(R) 09 system (copyright 2009, Gaussian, Inc.),
 the Gaussian(R) 03 system (copyright 2003, Gaussian, Inc.),
 the Gaussian(R) 98 system (copyright 1998, Gaussian, Inc.),
 the Gaussian(R) 94 system (copyright 1995, Gaussian, Inc.),
 the Gaussian 92(TM) system (copyright 1992, Gaussian, Inc.),
 the Gaussian 90(TM) system (copyright 1990, Gaussian, Inc.),
 the Gaussian 88(TM) system (copyright 1988, Gaussian, Inc.),
 the Gaussian 86(TM) system (copyright 1986, Carnegie Mellon
 University), and the Gaussian 82(TM) system (copyright 1983,
 Carnegie Mellon University). Gaussian is a federally registered
 trademark of Gaussian, Inc.
  
 This software contains proprietary and confidential information,
 including trade secrets, belonging to Gaussian, Inc.
  
 This software is provided under written license and may be
 used, copied, transmitted, or stored only in accord with that
 written license.
  
 The following legend is applicable only to US Government
 contracts under FAR:
  
                    RESTRICTED RIGHTS LEGEND
  
 Use, reproduction and disclosure by the US Government is
 subject to restrictions as set forth in subparagraphs (a)
 and (c) of the Commercial Computer Software - Restricted
 Rights clause in FAR 52.227-19.
  
 Gaussian, Inc.
 340 Quinnipiac St., Bldg. 40, Wallingford CT 06492
  
  
 ---------------------------------------------------------------
 Warning -- This program may not be used in any manner that
 competes with the business of Gaussian, Inc. or will provide
 assistance to any competitor of Gaussian, Inc.  The licensee
 of this program is prohibited from giving any competitor of
 Gaussian, Inc. access to this program.  By using this program,
 the user acknowledges that Gaussian, Inc. is engaged in the
 business of creating and licensing software in the field of
 computational chemistry and represents and warrants to the
 licensee that it is not a competitor of Gaussian, Inc. and that
 it will not use this program in any manner prohibited above.
 ---------------------------------------------------------------
  

 Cite this work as:
 Gaussian 16, Revision C.01,
 M. J. Frisch, G. W. Trucks, H. B. Schlegel, G. E. Scuseria, 
 M. A. Robb, J. R. Cheeseman, G. Scalmani, V. Barone, 
 G. A. Petersson, H. Nakatsuji, X. Li, M. Caricato, A. V. Marenich, 
 J. Bloino, B. G. Janesko, R. Gomperts, B. Mennucci, H. P. Hratchian, 
 J. V. Ortiz, A. F. Izmaylov, J. L. Sonnenberg, D. Williams-Young, 
 F. Ding, F. Lipparini, F. Egidi, J. Goings, B. Peng, A. Petrone, 
 T. Henderson, D. Ranasinghe, V. G. Zakrzewski, J. Gao, N. Rega, 
 G. Zheng, W. Liang, M. Hada, M. Ehara, K. Toyota, R. Fukuda, 
 J. Hasegawa, M. Ishida, T. Nakajima, Y. Honda, O. Kitao, H. Nakai, 
 T. Vreven, K. Throssell, J. A. Montgomery, Jr., J. E. Peralta, 
 F. Ogliaro, M. J. Bearpark, J. J. Heyd, E. N. Brothers, K. N. Kudin, 
 V. N. Staroverov, T. A. Keith, R. Kobayashi, J. Normand, 
 K. Raghavachari, A. P. Rendell, J. C. Burant, S. S. Iyengar, 
 J. Tomasi, M. Cossi, J. M. Millam, M. Klene, C. Adamo, R. Cammi, 
 J. W. Ochterski, R. L. Martin, K. Morokuma, O. Farkas, 
 J. B. Foresman, and D. J. Fox, Gaussian, Inc., Wallingford CT, 2019.
 
 ******************************************
 Gaussian 16:  ES64L-G16RevC.01  3-Jul-2019
                12-Jun-2023 
 ******************************************
 %NProcShared=2
 Will use up to    2 processors via shared memory.
 %mem=55gb
 %chk=/scratch1/svicchi/G09-709948.pbs02/02-freq/MEA-CO2_binding_direct-site_inde
 x-0-freq.chk
 ----------------------------------------------------------------------
 #p freq=raman scale=0.967 pop=(nbo,full,hirshfeld) guess=read geom=all
 check b3lyp/6-311+G(d,p) int=grid=ultrafine EmpiricalDispersion=GD3BJ 
 SCRF=(Solvent=ethanol) scf=(xqc,intrep,maxconventionalcycle=350) nosym
 m
 ----------------------------------------------------------------------
 1/10=4,29=7,30=1,38=1,114=967000/1,3;
 2/12=2,15=1,40=1/2;
 3/5=4,6=6,7=111,11=2,14=-4,25=1,30=1,70=2201,71=2,72=4,74=-5,75=-5,116=-2,124=41,140=1/1,2,3;
 4/5=1/1;
 5/5=2,8=3,13=1,17=20,38=6,53=4,85=350,98=1/2,8;
 8/6=4,10=90,11=11/1;
 10/13=10,15=4,31=1/2;
 11/6=3,8=1,9=11,15=111,16=1,31=1/1,2,10;
 10/6=1,31=1/2;
 6/7=3,28=1,40=1,79=1/1,7;
 7/8=1,10=1,25=1,30=1/1,2,3,16;
 1/10=4,30=1/3;
 99//99;
 Leave Link    1 at Mon Jun 12 10:30:51 2023, MaxMem=  7381975040 cpu:               0.2 elap:               0.1
 (Enter /software/commercial/gaussian/g16/AVX/g16/l101.exe)
 Structure from the checkpoint file:  "/scratch1/svicchi/G09-709948.pbs02/02-freq/MEA-CO2_binding_direct-site_index-0-freq.chk"
 ---------------------------------------
 MEA-CO2_binding_direct-site_index-0.gjf
 ---------------------------------------
 Charge =  0 Multiplicity = 1
 No Z-Matrix found in chk file; cartesian coordinates used.
  O                                                 2.161893515521     -0.692101508495     -0.563268614128
  C                                                 3.131198791972      0.226731253494     -0.041378373598
  C                                                 4.513004964156     -0.277728944949     -0.426673046235
  H                                                 3.052769990894      0.290971286606      1.049306481707
  H                                                 2.969190428191      1.228001769999     -0.458679188579
  N                                                 5.537535749760      0.646138792560      0.078308445094
  H                                                 4.545623016142     -0.417759721762     -1.516168808813
  H                                                 4.672745291965     -1.255105911613      0.034545253416
  H                                                 5.543718899203      1.500565725932     -0.471315207325
  H                                                 6.459197804604      0.234552604738     -0.023137949653
  H                                                 1.285147570983     -0.310055528793     -0.452902945538
  C                                                 2.053690565425     -3.044570944208      0.963217712022
  O                                                 1.203080451134     -3.469971272509      0.297643704027
  O                                                 2.901763960048     -2.660103601000      1.656594537602
 Recover connectivity data from disk.
 ITRead=  0  0  0  0  0  0  0  0  0  0  0  0  0  0
 MicOpt= -1 -1 -1 -1 -1 -1 -1 -1 -1 -1 -1 -1 -1 -1
 NAtoms=     14 NQM=       14 NQMF=       0 NMMI=      0 NMMIF=      0
                NMic=       0 NMicF=      0.
                    Isotopes and Nuclear Properties:
 (Nuclear quadrupole moments (NQMom) in fm**2, nuclear magnetic moments (NMagM)
  in nuclear magnetons)

  Atom         1           2           3           4           5           6           7           8           9          10
 IAtWgt=          16          12          12           1           1          14           1           1           1           1
 AtmWgt=  15.9949146  12.0000000  12.0000000   1.0078250   1.0078250  14.0030740   1.0078250   1.0078250   1.0078250   1.0078250
 NucSpn=           0           0           0           1           1           2           1           1           1           1
 AtZEff=   5.6000000   3.6000000   3.6000000   1.0000000   1.0000000   4.5500000   1.0000000   1.0000000   1.0000000   1.0000000
 NQMom=    0.0000000   0.0000000   0.0000000   0.0000000   0.0000000   2.0440000   0.0000000   0.0000000   0.0000000   0.0000000
 NMagM=    0.0000000   0.0000000   0.0000000   2.7928460   2.7928460   0.4037610   2.7928460   2.7928460   2.7928460   2.7928460
 AtZNuc=   8.0000000   6.0000000   6.0000000   1.0000000   1.0000000   7.0000000   1.0000000   1.0000000   1.0000000   1.0000000

  Atom        11          12          13          14
 IAtWgt=           1          12          16          16
 AtmWgt=   1.0078250  12.0000000  15.9949146  15.9949146
 NucSpn=           1           0           0           0
 AtZEff=   1.0000000   3.6000000   5.6000000   5.6000000
 NQMom=    0.0000000   0.0000000   0.0000000   0.0000000
 NMagM=    2.7928460   0.0000000   0.0000000   0.0000000
 AtZNuc=   1.0000000   6.0000000   8.0000000   8.0000000
 Leave Link  101 at Mon Jun 12 10:30:52 2023, MaxMem=  7381975040 cpu:               0.2 elap:               0.1
 (Enter /software/commercial/gaussian/g16/AVX/g16/l103.exe)

 GradGradGradGradGradGradGradGradGradGradGradGradGradGradGradGradGradGrad
 Berny optimization.
 Initialization pass.
 Trust Radius=3.00D-01 FncErr=1.00D-07 GrdErr=1.00D-07 EigMax=2.50D+02 EigMin=1.00D-04
 Number of steps in this run=      2 maximum allowed number of steps=      2.
 GradGradGradGradGradGradGradGradGradGradGradGradGradGradGradGradGradGrad

 Leave Link  103 at Mon Jun 12 10:30:52 2023, MaxMem=  7381975040 cpu:               0.1 elap:               0.1
 (Enter /software/commercial/gaussian/g16/AVX/g16/l202.exe)
                          Input orientation:                          
 ---------------------------------------------------------------------
 Center     Atomic      Atomic             Coordinates (Angstroms)
 Number     Number       Type             X           Y           Z
 ---------------------------------------------------------------------
      1          8           0        2.161894   -0.692102   -0.563269
      2          6           0        3.131199    0.226731   -0.041378
      3          6           0        4.513005   -0.277729   -0.426673
      4          1           0        3.052770    0.290971    1.049306
      5          1           0        2.969190    1.228002   -0.458679
      6          7           0        5.537536    0.646139    0.078308
      7          1           0        4.545623   -0.417760   -1.516169
      8          1           0        4.672745   -1.255106    0.034545
      9          1           0        5.543719    1.500566   -0.471315
     10          1           0        6.459198    0.234553   -0.023138
     11          1           0        1.285148   -0.310056   -0.452903
     12          6           0        2.053691   -3.044571    0.963218
     13          8           0        1.203080   -3.469971    0.297644
     14          8           0        2.901764   -2.660104    1.656595
 ---------------------------------------------------------------------
                    Distance matrix (angstroms):
                    1          2          3          4          5
     1  O    0.000000
     2  C    1.433937   0.000000
     3  C    2.391252   1.520632   0.000000
     4  H    2.088179   1.095386   2.152724   0.000000
     5  H    2.085537   1.096781   2.156760   1.777367   0.000000
     6  N    3.687475   2.445544   1.469082   2.691290   2.687623
     7  H    2.581753   2.142655   1.098942   3.051651   2.512360
     8  H    2.641729   2.139619   1.092477   2.458539   3.051425
     9  H    4.031499   2.761839   2.055893   3.159151   2.588947
    10  H    4.429137   3.328058   2.052545   3.571704   3.654694
    11  H    0.962717   1.966061   3.228126   2.396321   2.280713
    12  C    2.806418   3.587709   3.954167   3.483018   4.595085
    13  O    3.062197   4.183083   4.655174   4.258056   5.075640
    14  O    3.057488   3.357018   3.551311   3.016694   4.426770
                    6          7          8          9         10
     6  N    0.000000
     7  H    2.158270   0.000000
     8  H    2.089141   1.766925   0.000000
     9  H    1.015958   2.401643   2.933976   0.000000
    10  H    1.014473   2.513249   2.326762   1.625347   0.000000
    11  H    4.390820   3.431156   3.550570   4.627539   5.220354
    12  C    5.151852   4.388305   3.305157   5.907322   5.579789
    13  O    5.981469   4.876321   4.124733   6.643695   6.438413
    14  O    4.513260   4.218626   2.782344   5.368342   4.884247
                   11         12         13         14
    11  H    0.000000
    12  C    3.173898   0.000000
    13  O    3.248865   1.160815   0.000000
    14  O    3.547697   1.160954   2.321241   0.000000
 Symmetry turned off by external request.
 Stoichiometry    C3H7NO3
 Framework group  C1[X(C3H7NO3)]
 Deg. of freedom    36
 Full point group                 C1      NOp   1
 Rotational constants (GHZ):           4.7885858           1.1138145           0.9687873
 Leave Link  202 at Mon Jun 12 10:30:52 2023, MaxMem=  7381975040 cpu:               0.0 elap:               0.0
 (Enter /software/commercial/gaussian/g16/AVX/g16/l301.exe)
 Standard basis: 6-311+G(d,p) (5D, 7F)
 Ernie: Thresh=  0.10000D-02 Tol=  0.10000D-05 Strict=F.
   196 basis functions,   308 primitive gaussians,   203 cartesian basis functions
    28 alpha electrons       28 beta electrons
       nuclear repulsion energy       291.8665199711 Hartrees.
 IExCor=  402 DFT=T Ex+Corr=B3LYP ExCW=0 ScaHFX=  0.200000
 ScaDFX=  0.800000  0.720000  1.000000  0.810000 ScalE2=  1.000000  1.000000
 IRadAn=      5 IRanWt=     -1 IRanGd=            0 ICorTp=0 IEmpDi=141
 NAtoms=   14 NActive=   14 NUniq=   14 SFac= 1.00D+00 NAtFMM=   60 NAOKFM=F Big=F
 Integral buffers will be    131072 words long.
 Raffenetti 2 integral format.
 Two-electron integral symmetry is turned off.
 R6Disp:  Grimme-D3(BJ) Dispersion energy=       -0.0152437992 Hartrees.
 Nuclear repulsion after empirical dispersion term =      291.8512761718 Hartrees.
 Force inversion solution in PCM.
 ------------------------------------------------------------------------------
 Polarizable Continuum Model (PCM)
 =================================
 Model                : PCM.
 Atomic radii         : UFF (Universal Force Field).
 Polarization charges : Total charges.
 Charge compensation  : None.
 Solution method      : Matrix inversion.
 Cavity type          : Scaled VdW (van der Waals Surface) (Alpha=1.100).
 Cavity algorithm     : GePol (No added spheres)
                        Default sphere list used, NSphG=   14.
                        Lebedev-Laikov grids with approx.  5.0 points / Ang**2.
                        Smoothing algorithm: York/Karplus (Gamma=1.0000).
                        Polarization charges: spherical gaussians, with
                                              point-specific exponents (IZeta= 3).
                        Self-potential: point-specific (ISelfS= 7).
                        Self-field    : sphere-specific E.n sum rule (ISelfD= 2).
 1st derivatives      : Analytical E(r).r(x)/FMM algorithm (CHGder, D1EAlg=3).
                        Cavity 1st derivative terms included.
 2nd derivatives      : Analytical E(r).r(xy)/FMM algorithm (CHGder, D2EAlg=3).
                        Cavity 2nd derivative terms included.
 Solvent              : Ethanol, Eps=  24.852000 Eps(inf)=   1.852593
 ------------------------------------------------------------------------------
 Spheres list:
 ISph  on   Nord     Re0    Alpha      Xe            Ye            Ze
    1   O      1    1.7500  1.100      2.161894     -0.692102     -0.563269
    2   C      2    1.9255  1.100      3.131199      0.226731     -0.041378
    3   C      3    1.9255  1.100      4.513005     -0.277729     -0.426673
    4   H      4    1.4430  1.100      3.052770      0.290971      1.049306
    5   H      5    1.4430  1.100      2.969190      1.228002     -0.458679
    6   N      6    1.8300  1.100      5.537536      0.646139      0.078308
    7   H      7    1.4430  1.100      4.545623     -0.417760     -1.516169
    8   H      8    1.4430  1.100      4.672745     -1.255106      0.034545
    9   H      9    1.4430  1.100      5.543719      1.500566     -0.471315
   10   H     10    1.4430  1.100      6.459198      0.234553     -0.023138
   11   H     11    1.4430  1.100      1.285148     -0.310056     -0.452903
   12   C     12    1.9255  1.100      2.053691     -3.044571      0.963218
   13   O     13    1.7500  1.100      1.203080     -3.469971      0.297644
   14   O     14    1.7500  1.100      2.901764     -2.660104      1.656595
 ------------------------------------------------------------------------------
 GePol: Number of generator spheres                  =      14
 GePol: Total number of spheres                      =      14
 GePol: Number of exposed spheres                    =      14 (100.00%)
 GePol: Number of points                             =    1321
 GePol: Average weight of points                     =       0.14
 GePol: Minimum weight of points                     =   0.19D-09
 GePol: Maximum weight of points                     =    0.20577
 GePol: Number of points with low weight             =      71
 GePol: Fraction of low-weight points (<1% of avg)   =       5.37%
 GePol: Cavity surface area                          =    178.659 Ang**2
 GePol: Cavity volume                                =    163.148 Ang**3
 Leave Link  301 at Mon Jun 12 10:30:52 2023, MaxMem=  7381975040 cpu:               0.2 elap:               0.1
 (Enter /software/commercial/gaussian/g16/AVX/g16/l302.exe)
 NPDir=0 NMtPBC=     1 NCelOv=     1 NCel=       1 NClECP=     1 NCelD=      1
         NCelK=      1 NCelE2=     1 NClLst=     1 CellRange=     0.0.
 One-electron integrals computed using PRISM.
 NBasis=   196 RedAO= T EigKep=  6.34D-05  NBF=   196
 NBsUse=   196 1.00D-06 EigRej= -1.00D+00 NBFU=   196
 Precomputing XC quadrature grid using
 IXCGrd= 4 IRadAn=           5 IRanWt=          -1 IRanGd=           0 AccXCQ= 0.00D+00.
 Generated NRdTot=       0 NPtTot=           0 NUsed=           0 NTot=          32
 NSgBfM=   203   203   203   203   203 MxSgAt=    14 MxSgA2=    14.
 Leave Link  302 at Mon Jun 12 10:30:53 2023, MaxMem=  7381975040 cpu:               0.6 elap:               0.3
 (Enter /software/commercial/gaussian/g16/AVX/g16/l303.exe)
 DipDrv:  MaxL=1.
 Leave Link  303 at Mon Jun 12 10:30:53 2023, MaxMem=  7381975040 cpu:               0.1 elap:               0.1
 (Enter /software/commercial/gaussian/g16/AVX/g16/l401.exe)
 Initial guess from the checkpoint file:  "/scratch1/svicchi/G09-709948.pbs02/02-freq/MEA-CO2_binding_direct-site_index-0-freq.chk"
 B after Tr=     0.000000    0.000000    0.000000
         Rot=    1.000000    0.000000    0.000000    0.000000 Ang=   0.00 deg.
 Guess basis will be translated and rotated to current coordinates.
 JPrj=2 DoOrth=T DoCkMO=T.
 Leave Link  401 at Mon Jun 12 10:30:54 2023, MaxMem=  7381975040 cpu:               0.3 elap:               0.2
 (Enter /software/commercial/gaussian/g16/AVX/g16/l502.exe)
 Keep R1 ints in memory in canonical form, NReq=190616234.
 FoFCou: FMM=F IPFlag=           0 FMFlag=           0 FMFlg1=           0
         NFxFlg=           0 DoJE=F BraDBF=F KetDBF=F FulRan=T
         wScrn=  0.000000 ICntrl=       600 IOpCl=  0 I1Cent=           0 NGrid=           0
         NMat0=    1 NMatS0=  19306 NMatT0=    0 NMatD0=    1 NMtDS0=    0 NMtDT0=    0
 Symmetry not used in FoFCou.
 Two-electron integral symmetry not used.
 Closed shell SCF:
 Using DIIS extrapolation, IDIIS=  1040.
 NGot=  7381975040 LenX=  7195518996 LenY=  7195477346
 Requested convergence on RMS density matrix=1.00D-08 within 350 cycles.
 Requested convergence on MAX density matrix=1.00D-06.
 Requested convergence on             energy=1.00D-06.
 No special actions if energy rises.

 Cycle   1  Pass 1  IDiag  1:
 Inv3:  Mode=1 IEnd=     5235123.
 Iteration    1 A*A^-1 deviation from unit magnitude is 4.00D-15 for   1298.
 Iteration    1 A*A^-1 deviation from orthogonality  is 1.78D-15 for   1308    303.
 Iteration    1 A^-1*A deviation from unit magnitude is 3.55D-15 for   1298.
 Iteration    1 A^-1*A deviation from orthogonality  is 3.05D-14 for    944    884.
 E= -399.132977377410    
 DIIS: error= 1.13D-07 at cycle   1 NSaved=   1.
 NSaved= 1 IEnMin= 1 EnMin= -399.132977377410     IErMin= 1 ErrMin= 1.13D-07
 ErrMax= 1.13D-07  0.00D+00 EMaxC= 1.00D-01 BMatC= 2.74D-12 BMatP= 2.74D-12
 IDIUse=1 WtCom= 1.00D+00 WtEn= 0.00D+00
 Coeff-Com:  0.100D+01
 Coeff:      0.100D+01
 Gap=     0.246 Goal=   None    Shift=    0.000
 RMSDP=1.33D-08 MaxDP=5.33D-07              OVMax= 7.78D-07

 Cycle   2  Pass 1  IDiag  1:
 E= -399.132977377405     Delta-E=        0.000000000005 Rises=F Damp=F
 DIIS: error= 2.61D-07 at cycle   2 NSaved=   2.
 NSaved= 2 IEnMin= 1 EnMin= -399.132977377410     IErMin= 1 ErrMin= 1.13D-07
 ErrMax= 2.61D-07  0.00D+00 EMaxC= 1.00D-01 BMatC= 9.81D-12 BMatP= 2.74D-12
 IDIUse=1 WtCom= 1.00D+00 WtEn= 0.00D+00
 Coeff-Com:  0.656D+00 0.344D+00
 Coeff:      0.656D+00 0.344D+00
 Gap=     0.246 Goal=   None    Shift=    0.000
 RMSDP=8.70D-09 MaxDP=3.11D-07 DE= 4.66D-12 OVMax= 6.49D-07

 Error on total polarization charges =  0.01143
 SCF Done:  E(RB3LYP) =  -399.132977377     A.U. after    2 cycles
            NFock=  2  Conv=0.87D-08     -V/T= 2.0037
 KE= 3.976717326820D+02 PE=-1.520460307114D+03 EE= 4.318043208832D+02
 Leave Link  502 at Mon Jun 12 10:31:10 2023, MaxMem=  7381975040 cpu:              30.9 elap:              16.0
 (Enter /software/commercial/gaussian/g16/AVX/g16/l508.exe)
 QCSCF skips out because SCF is already converged.
 Leave Link  508 at Mon Jun 12 10:31:10 2023, MaxMem=  7381975040 cpu:               0.0 elap:               0.0
 (Enter /software/commercial/gaussian/g16/AVX/g16/l801.exe)
 DoSCS=F DFT=T ScalE2(SS,OS)=  1.000000  1.000000
 Range of M.O.s used for correlation:     1   196
 NBasis=   196 NAE=    28 NBE=    28 NFC=     0 NFV=     0
 NROrb=    196 NOA=    28 NOB=    28 NVA=   168 NVB=   168

 **** Warning!!: The largest alpha MO coefficient is  0.32349440D+02

 Leave Link  801 at Mon Jun 12 10:31:10 2023, MaxMem=  7381975040 cpu:               0.1 elap:               0.1
 (Enter /software/commercial/gaussian/g16/AVX/g16/l1002.exe)
 Minotr:  Closed shell wavefunction.
 NEqPCM:  Using equilibrium solvation (IEInf=0, Eps=  24.8520, EpsInf=   1.8526)
          Direct CPHF calculation.
          Differentiating once with respect to electric field.
                with respect to dipole field.
          Electric field/nuclear overlap derivatives assumed to be zero.
          Requested convergence is 1.0D-08 RMS, and 1.0D-07 maximum.
          Secondary convergence is 1.0D-12 RMS, and 1.0D-12 maximum.
          NewPWx=F KeepS1=T KeepF1=T KeepIn=T MapXYZ=F SortEE=F KeepMc=T.
         4320 words used for storage of precomputed grid.
 Keep R1 ints in memory in canonical form, NReq=191764961.
 FoFCou: FMM=F IPFlag=           0 FMFlag=           0 FMFlg1=           0
         NFxFlg=           0 DoJE=F BraDBF=F KetDBF=F FulRan=T
         wScrn=  0.000000 ICntrl=       600 IOpCl=  0 I1Cent=           0 NGrid=           0
         NMat0=    1 NMatS0=  19306 NMatT0=    0 NMatD0=    1 NMtDS0=    0 NMtDT0=    0
 Symmetry not used in FoFCou.
 Two-electron integral symmetry not used.
          MDV=    7381975040 using IRadAn=       1.
          Solving linear equations simultaneously, MaxMat=       0.
          There are     3 degrees of freedom in the 1st order CPHF.  IDoFFX=0 NUNeed=     3.
      3 vectors produced by pass  0 Test12= 1.57D-13 3.33D-08 XBig12= 3.85D+01 1.89D+00.
 AX will form     3 AO Fock derivatives at one time.
      3 vectors produced by pass  1 Test12= 1.57D-13 3.33D-08 XBig12= 2.21D+01 1.32D+00.
      3 vectors produced by pass  2 Test12= 1.57D-13 3.33D-08 XBig12= 2.95D+00 3.01D-01.
      3 vectors produced by pass  3 Test12= 1.57D-13 3.33D-08 XBig12= 2.78D-01 7.72D-02.
      3 vectors produced by pass  4 Test12= 1.57D-13 3.33D-08 XBig12= 6.06D-02 5.20D-02.
      3 vectors produced by pass  5 Test12= 1.57D-13 3.33D-08 XBig12= 2.65D-03 1.72D-02.
      3 vectors produced by pass  6 Test12= 1.57D-13 3.33D-08 XBig12= 1.35D-04 3.99D-03.
      3 vectors produced by pass  7 Test12= 1.57D-13 3.33D-08 XBig12= 3.77D-06 5.52D-04.
      3 vectors produced by pass  8 Test12= 1.57D-13 3.33D-08 XBig12= 1.00D-07 4.97D-05.
      3 vectors produced by pass  9 Test12= 1.57D-13 3.33D-08 XBig12= 2.00D-09 8.67D-06.
      3 vectors produced by pass 10 Test12= 1.57D-13 3.33D-08 XBig12= 5.41D-11 1.62D-06.
      3 vectors produced by pass 11 Test12= 1.57D-13 3.33D-08 XBig12= 1.57D-12 3.48D-07.
      1 vectors produced by pass 12 Test12= 1.57D-13 3.33D-08 XBig12= 3.52D-14 4.73D-08.
 InvSVY:  IOpt=1 It=  1 EMax= 1.78D-15
 Solved reduced A of dimension    37 with     3 vectors.
 End of Minotr F.D. properties file   721 does not exist.
 End of Minotr F.D. properties file   722 does not exist.
 End of Minotr F.D. properties file   788 does not exist.
 Leave Link 1002 at Mon Jun 12 10:32:05 2023, MaxMem=  7381975040 cpu:             107.1 elap:              54.2
 (Enter /software/commercial/gaussian/g16/AVX/g16/l1101.exe)
 Using compressed storage, NAtomX=    14.
 Will process     15 centers per pass.
 R6Disp: Adding Grimme-D3(BJ) dispersion energy 1st derivatives to the gradient.
 Leave Link 1101 at Mon Jun 12 10:32:05 2023, MaxMem=  7381975040 cpu:               0.4 elap:               0.2
 (Enter /software/commercial/gaussian/g16/AVX/g16/l1102.exe)
 Symmetrizing basis deriv contribution to polar:
 IMax=3 JMax=2 DiffMx= 0.00D+00
 Leave Link 1102 at Mon Jun 12 10:32:06 2023, MaxMem=  7381975040 cpu:               0.1 elap:               0.1
 (Enter /software/commercial/gaussian/g16/AVX/g16/l1110.exe)
 Forming Gx(P) for the SCF density, NAtomX=    14.
 Integral derivatives from FoFJK, PRISM(SPDF).
 Do as many integral derivatives as possible in FoFJK.
 G2DrvN: MDV=    7381973462.
 G2DrvN: will do    15 centers at a time, making    1 passes.
 PxScal for G2LodP:  IOpCl= 0 ISclPx=1 IMOff=     1 NMtTot=     4 NTT=   19306 ScalPx= 5.72D+00
 Calling FoFCou, ICntrl=  3107 FMM=F I1Cent=   0 AccDes= 0.00D+00.
 FoFJK:  IHMeth= 1 ICntrl=    3107 DoSepK=F KAlg= 0 I1Cent=           0 FoldK=F
 IRaf=         0 NMat=       1 IRICut=       1 DoRegI=T DoRafI=F ISym2E= 0 IDoP0=0 IntGTp=1.
 FoFCou: FMM=F IPFlag=           0 FMFlag=      100000 FMFlg1=           0
         NFxFlg=           0 DoJE=F BraDBF=F KetDBF=F FulRan=T
         wScrn=  0.000000 ICntrl=      3107 IOpCl=  0 I1Cent=           0 NGrid=           0
         NMat0=    1 NMatS0=      1 NMatT0=    0 NMatD0=    4 NMtDS0=    3 NMtDT0=    0
 Symmetry not used in FoFCou.
 PxScal for G2LodP:  IOpCl= 0 ISclPx=0 IMOff=     1 NMtTot=     4 NTT=   19306 ScalPx= 1.00D+00
 NEqPCM:  Using equilibrium solvation (IEInf=0, Eps=  24.8520, EpsInf=   1.8526)
 G2PCM: DoFxE=T DoFxN=T DoGrad=T DoDP/DQ/DG/TGxP=TFFF NFrqRd=   0 IEInf=0 SqF1=F DoCFld=F IF1Alg=4.
 GePol: Maximum number of non-zero 1st derivatives   =     220
 End of G2Drv F.D. properties file   721 does not exist.
 End of G2Drv F.D. properties file   722 does not exist.
 End of G2Drv F.D. properties file   788 does not exist.
 Leave Link 1110 at Mon Jun 12 10:34:58 2023, MaxMem=  7381975040 cpu:             342.2 elap:             171.7
 (Enter /software/commercial/gaussian/g16/AVX/g16/l1002.exe)
 Minotr:  Closed shell wavefunction.
          IDoAtm=11111111111111
 NEqPCM:  Using equilibrium solvation (IEInf=0, Eps=  24.8520, EpsInf=   1.8526)
          Direct CPHF calculation.
          Differentiating once with respect to electric field.
                with respect to dipole field.
          Differentiating once with respect to nuclear coordinates.
          Requested convergence is 1.0D-08 RMS, and 1.0D-07 maximum.
          Secondary convergence is 1.0D-12 RMS, and 1.0D-12 maximum.
          NewPWx=T KeepS1=F KeepF1=F KeepIn=T MapXYZ=F SortEE=F KeepMc=T.
         4320 words used for storage of precomputed grid.
 Keep R1 ints in memory in canonical form, NReq=191765283.
 FoFCou: FMM=F IPFlag=           0 FMFlag=           0 FMFlg1=           0
         NFxFlg=           0 DoJE=F BraDBF=F KetDBF=F FulRan=T
         wScrn=  0.000000 ICntrl=       600 IOpCl=  0 I1Cent=           0 NGrid=           0
         NMat0=    1 NMatS0=  19306 NMatT0=    0 NMatD0=    1 NMtDS0=    0 NMtDT0=    0
 Symmetry not used in FoFCou.
 Two-electron integral symmetry not used.
          MDV=    7381975040 using IRadAn=       1.
          Solving linear equations simultaneously, MaxMat=       0.
          There are    45 degrees of freedom in the 1st order CPHF.  IDoFFX=5 NUNeed=    45.
 Will reuse    3 saved solutions.
     39 vectors produced by pass  0 Test12= 1.05D-14 2.22D-09 XBig12= 2.29D-01 1.18D-01.
 AX will form    39 AO Fock derivatives at one time.
     39 vectors produced by pass  1 Test12= 1.05D-14 2.22D-09 XBig12= 1.11D-02 2.00D-02.
     39 vectors produced by pass  2 Test12= 1.05D-14 2.22D-09 XBig12= 1.69D-04 1.60D-03.
     39 vectors produced by pass  3 Test12= 1.05D-14 2.22D-09 XBig12= 6.44D-07 1.27D-04.
     39 vectors produced by pass  4 Test12= 1.05D-14 2.22D-09 XBig12= 1.59D-09 5.74D-06.
     28 vectors produced by pass  5 Test12= 1.05D-14 2.22D-09 XBig12= 1.86D-12 1.96D-07.
      9 vectors produced by pass  6 Test12= 1.05D-14 2.22D-09 XBig12= 1.38D-15 1.22D-08.
 InvSVY:  IOpt=1 It=  1 EMax= 1.44D-15
 Solved reduced A of dimension   232 with    39 vectors.
 FullF1:  Do perturbations      1 to       3.
 Isotropic polarizability for W=    0.000000       67.60 Bohr**3.
 FullF1:  Do perturbations      1 to       6.
 End of Minotr F.D. properties file   721 does not exist.
 End of Minotr F.D. properties file   722 does not exist.
 End of Minotr F.D. properties file   788 does not exist.
 Leave Link 1002 at Mon Jun 12 10:37:56 2023, MaxMem=  7381975040 cpu:             355.1 elap:             178.3
 (Enter /software/commercial/gaussian/g16/AVX/g16/l601.exe)
 Copying SCF densities to generalized density rwf, IOpCl= 0 IROHF=0.

 **********************************************************************

            Population analysis using the SCF Density.

 **********************************************************************

 Alpha  occ. eigenvalues --  -19.20251 -19.20249 -19.13322 -14.30049 -10.36041
 Alpha  occ. eigenvalues --  -10.21723 -10.19419  -1.16404  -1.12536  -1.03140
 Alpha  occ. eigenvalues --   -0.88820  -0.72874  -0.60796  -0.56670  -0.52932
 Alpha  occ. eigenvalues --   -0.52549  -0.51869  -0.51709  -0.50043  -0.46524
 Alpha  occ. eigenvalues --   -0.42786  -0.40622  -0.37919  -0.37460  -0.37157
 Alpha  occ. eigenvalues --   -0.34302  -0.28974  -0.25486
 Alpha virt. eigenvalues --   -0.00926   0.00549   0.01768   0.02817   0.03138
 Alpha virt. eigenvalues --    0.03350   0.05053   0.05599   0.06486   0.07143
 Alpha virt. eigenvalues --    0.07969   0.09424   0.10455   0.11678   0.12543
 Alpha virt. eigenvalues --    0.13617   0.15213   0.16108   0.16810   0.17366
 Alpha virt. eigenvalues --    0.18497   0.18617   0.18868   0.21321   0.21715
 Alpha virt. eigenvalues --    0.22137   0.23225   0.24142   0.24679   0.25283
 Alpha virt. eigenvalues --    0.26120   0.27346   0.27911   0.28975   0.29401
 Alpha virt. eigenvalues --    0.30301   0.30691   0.31456   0.33488   0.35192
 Alpha virt. eigenvalues --    0.36994   0.42740   0.45667   0.51628   0.53065
 Alpha virt. eigenvalues --    0.54662   0.55753   0.56948   0.58500   0.61311
 Alpha virt. eigenvalues --    0.63284   0.65993   0.66349   0.67642   0.69593
 Alpha virt. eigenvalues --    0.71242   0.72375   0.78565   0.80733   0.83805
 Alpha virt. eigenvalues --    0.85843   0.86525   0.89731   0.93438   1.00235
 Alpha virt. eigenvalues --    1.02038   1.03818   1.06452   1.07925   1.08699
 Alpha virt. eigenvalues --    1.11318   1.13665   1.15847   1.16941   1.18861
 Alpha virt. eigenvalues --    1.20365   1.23119   1.25829   1.26638   1.34020
 Alpha virt. eigenvalues --    1.36644   1.39814   1.40499   1.41058   1.46248
 Alpha virt. eigenvalues --    1.49512   1.51033   1.54582   1.58824   1.60723
 Alpha virt. eigenvalues --    1.62954   1.64865   1.67071   1.69462   1.72117
 Alpha virt. eigenvalues --    1.76336   1.79553   1.80579   1.84564   1.89647
 Alpha virt. eigenvalues --    1.95360   2.03761   2.06059   2.07074   2.10159
 Alpha virt. eigenvalues --    2.17922   2.24522   2.31998   2.41541   2.44259
 Alpha virt. eigenvalues --    2.50310   2.51567   2.53130   2.56026   2.56925
 Alpha virt. eigenvalues --    2.60706   2.61898   2.63451   2.65331   2.68630
 Alpha virt. eigenvalues --    2.72472   2.73739   2.74583   2.76616   2.78016
 Alpha virt. eigenvalues --    2.80855   2.85292   2.85753   2.89260   2.94287
 Alpha virt. eigenvalues --    2.96508   3.09184   3.10856   3.11725   3.13665
 Alpha virt. eigenvalues --    3.17432   3.20442   3.22674   3.29805   3.51639
 Alpha virt. eigenvalues --    3.67202   3.68426   3.79580   3.80992   3.82302
 Alpha virt. eigenvalues --    3.84892   3.86030   3.98142   4.07518   4.25527
 Alpha virt. eigenvalues --    4.72097   4.83201   4.95938   4.99617   5.02988
 Alpha virt. eigenvalues --    5.05106   5.06749   5.36896   5.63296   5.65589
 Alpha virt. eigenvalues --    5.69220  23.83079  23.85784  24.39240  35.58264
 Alpha virt. eigenvalues --   49.90136  49.91947  50.06826
     Molecular Orbital Coefficients:
                           1         2         3         4         5
                           O         O         O         O         O
     Eigenvalues --   -19.20251 -19.20249 -19.13322 -14.30049 -10.36041
   1 1   O  1S          0.00000   0.00000   0.55133   0.00000  -0.00000
   2        2S         -0.00000  -0.00000   0.46973   0.00001  -0.00001
   3        2PX        -0.00002   0.00001  -0.00027   0.00002   0.00000
   4        2PY        -0.00000   0.00002   0.00111   0.00001   0.00000
   5        2PZ        -0.00001   0.00000   0.00053   0.00001   0.00000
   6        3S          0.00005   0.00002   0.01360  -0.00010   0.00010
   7        3PX         0.00008  -0.00006  -0.00012  -0.00009  -0.00002
   8        3PY         0.00002  -0.00007  -0.00001  -0.00005  -0.00003
   9        3PZ         0.00005  -0.00000  -0.00001  -0.00004   0.00002
  10        4S         -0.00005  -0.00002  -0.00956   0.00049  -0.00025
  11        4PX        -0.00027   0.00029  -0.00128   0.00038   0.00017
  12        4PY        -0.00013   0.00027  -0.00070   0.00031   0.00016
  13        4PZ        -0.00019  -0.00005  -0.00050   0.00022  -0.00018
  14        5S         -0.00059  -0.00012   0.00841   0.00161  -0.00027
  15        5PX         0.00023  -0.00027   0.00009   0.00074  -0.00049
  16        5PY        -0.00011   0.00013   0.00038   0.00003   0.00009
  17        5PZ         0.00003  -0.00016   0.00045   0.00033  -0.00011
  18        6D 0       -0.00000   0.00001  -0.00012  -0.00001   0.00001
  19        6D+1       -0.00002   0.00001  -0.00006  -0.00000   0.00000
  20        6D-1       -0.00001   0.00001   0.00000   0.00000   0.00001
  21        6D+2        0.00001  -0.00000   0.00017   0.00001   0.00001
  22        6D-2       -0.00001   0.00001  -0.00017  -0.00001   0.00001
  23 2   C  1S          0.00000  -0.00000   0.00002   0.00000   0.00000
  24        2S         -0.00002   0.00001  -0.00007   0.00000  -0.00000
  25        2PX         0.00002  -0.00001  -0.00006   0.00005   0.00001
  26        2PY         0.00003  -0.00002  -0.00013  -0.00002  -0.00000
  27        2PZ        -0.00000  -0.00000  -0.00009  -0.00003  -0.00000
  28        3S          0.00012  -0.00007   0.00008   0.00012   0.00001
  29        3PX        -0.00011   0.00007  -0.00031  -0.00031  -0.00002
  30        3PY        -0.00016   0.00010   0.00012   0.00013  -0.00001
  31        3PZ         0.00000   0.00006   0.00020   0.00013   0.00005
  32        4S         -0.00001   0.00029   0.00451  -0.00272   0.00034
  33        4PX        -0.00016   0.00013   0.00018  -0.00024  -0.00002
  34        4PY         0.00034  -0.00023  -0.00137   0.00127  -0.00002
  35        4PZ        -0.00039   0.00055  -0.00111   0.00015   0.00016
  36        5S          0.00110  -0.00313  -0.01587   0.00464  -0.00357
  37        5PX        -0.00005  -0.00112  -0.00217   0.00111  -0.00148
  38        5PY         0.00002  -0.00008   0.00334   0.00022  -0.00018
  39        5PZ        -0.00008   0.00053   0.00116  -0.00029   0.00049
  40        6D 0       -0.00003   0.00005   0.00011   0.00003   0.00002
  41        6D+1        0.00000  -0.00002  -0.00008   0.00005  -0.00002
  42        6D-1        0.00001  -0.00000  -0.00010   0.00000   0.00001
  43        6D+2       -0.00000   0.00002   0.00001  -0.00012   0.00002
  44        6D-2        0.00004  -0.00001  -0.00013   0.00008   0.00001
  45 3   C  1S          0.00000  -0.00000   0.00000   0.00001  -0.00000
  46        2S         -0.00000   0.00000  -0.00001  -0.00002   0.00000
  47        2PX         0.00002  -0.00000  -0.00003   0.00022   0.00001
  48        2PY         0.00002  -0.00001   0.00002   0.00025   0.00000
  49        2PZ        -0.00002  -0.00000   0.00002   0.00014  -0.00000
  50        3S         -0.00004   0.00001   0.00019   0.00002  -0.00003
  51        3PX        -0.00005  -0.00001   0.00024  -0.00025  -0.00005
  52        3PY        -0.00009   0.00004  -0.00014  -0.00063  -0.00001
  53        3PZ         0.00008  -0.00000  -0.00007  -0.00037   0.00003
  54        4S          0.00050  -0.00004  -0.00287   0.00551   0.00038
  55        4PX        -0.00008   0.00008   0.00075   0.00068   0.00019
  56        4PY        -0.00010  -0.00004  -0.00069   0.00136  -0.00004
  57        4PZ         0.00014  -0.00050  -0.00024   0.00137  -0.00012
  58        5S         -0.00135   0.00544   0.01135  -0.01093   0.00731
  59        5PX         0.00021  -0.00114  -0.00265   0.00023  -0.00120
  60        5PY        -0.00045   0.00017   0.00099  -0.00203   0.00025
  61        5PZ        -0.00044   0.00053   0.00043  -0.00200   0.00106
  62        6D 0       -0.00002   0.00003   0.00003   0.00026  -0.00000
  63        6D+1       -0.00002   0.00001   0.00006  -0.00020  -0.00000
  64        6D-1       -0.00002   0.00001   0.00001  -0.00024  -0.00000
  65        6D+2       -0.00002   0.00000  -0.00011  -0.00008  -0.00001
  66        6D-2        0.00002  -0.00000   0.00005  -0.00038   0.00002
  67 4   H  1S         -0.00001   0.00003   0.00008   0.00003   0.00002
  68        2S          0.00019  -0.00030  -0.00125  -0.00004  -0.00012
  69        3S          0.00027  -0.00055   0.00141  -0.00012  -0.00045
  70        4PX         0.00000  -0.00000   0.00008  -0.00013   0.00000
  71        4PY        -0.00002   0.00006   0.00017  -0.00009   0.00004
  72        4PZ        -0.00002   0.00007   0.00031   0.00007   0.00004
  73 5   H  1S          0.00002  -0.00001   0.00003   0.00006   0.00001
  74        2S         -0.00010   0.00010  -0.00095  -0.00035  -0.00002
  75        3S         -0.00030   0.00022   0.00025  -0.00057   0.00003
  76        4PX         0.00000   0.00000   0.00006  -0.00015   0.00001
  77        4PY         0.00000  -0.00002   0.00030   0.00006  -0.00001
  78        4PZ         0.00001  -0.00002   0.00002  -0.00008  -0.00001
  79 6   N  1S          0.00000  -0.00000  -0.00000   0.55739   0.00000
  80        2S         -0.00000   0.00000   0.00001   0.46574   0.00000
  81        2PX        -0.00000  -0.00000  -0.00003   0.00012  -0.00000
  82        2PY        -0.00000  -0.00000   0.00000  -0.00031  -0.00000
  83        2PZ        -0.00000   0.00001  -0.00000  -0.00116   0.00001
  84        3S          0.00003  -0.00002  -0.00013   0.01561  -0.00002
  85        3PX         0.00001   0.00001   0.00012   0.00065   0.00001
  86        3PY         0.00001   0.00000  -0.00000   0.00030  -0.00000
  87        3PZ         0.00000  -0.00002   0.00001  -0.00057  -0.00003
  88        4S         -0.00018   0.00011   0.00087  -0.00877   0.00002
  89        4PX        -0.00001  -0.00006  -0.00049   0.00227   0.00004
  90        4PY        -0.00003  -0.00019  -0.00004   0.00153  -0.00005
  91        4PZ        -0.00001   0.00014  -0.00028   0.00004   0.00014
  92        5S          0.00074  -0.00097  -0.00003   0.00776  -0.00198
  93        5PX        -0.00013  -0.00003  -0.00018  -0.00157   0.00001
  94        5PY        -0.00002   0.00032  -0.00036  -0.00144   0.00053
  95        5PZ         0.00009  -0.00007   0.00022   0.00021  -0.00013
  96        6D 0        0.00000  -0.00001  -0.00001  -0.00045  -0.00001
  97        6D+1        0.00000  -0.00000   0.00001  -0.00010  -0.00000
  98        6D-1        0.00001   0.00001  -0.00003  -0.00049   0.00000
  99        6D+2        0.00000   0.00001  -0.00000   0.00001   0.00001
 100        6D-2        0.00000  -0.00000  -0.00000  -0.00034  -0.00000
 101 7   H  1S         -0.00000  -0.00000   0.00002   0.00000  -0.00001
 102        2S          0.00003  -0.00007   0.00007  -0.00106   0.00002
 103        3S         -0.00009  -0.00056  -0.00033   0.00023  -0.00042
 104        4PX         0.00000  -0.00001   0.00012  -0.00009  -0.00002
 105        4PY         0.00001  -0.00001   0.00004  -0.00015  -0.00001
 106        4PZ         0.00001  -0.00002  -0.00006  -0.00039   0.00001
 107 8   H  1S          0.00004  -0.00001   0.00006   0.00000   0.00001
 108        2S         -0.00023   0.00016  -0.00018  -0.00127   0.00004
 109        3S          0.00001  -0.00069  -0.00006   0.00000  -0.00094
 110        4PX         0.00005   0.00003   0.00012   0.00002   0.00005
 111        4PY        -0.00004   0.00004  -0.00006  -0.00034   0.00000
 112        4PZ         0.00001  -0.00001   0.00006   0.00007  -0.00001
 113 9   H  1S          0.00001  -0.00001  -0.00000   0.00001  -0.00001
 114        2S          0.00000   0.00014  -0.00023  -0.00189   0.00009
 115        3S          0.00009  -0.00007   0.00014   0.00099  -0.00004
 116        4PX         0.00000   0.00001   0.00001  -0.00013  -0.00000
 117        4PY        -0.00001  -0.00002   0.00003   0.00136  -0.00001
 118        4PZ         0.00000   0.00002  -0.00002  -0.00093   0.00000
 119 10  H  1S          0.00000   0.00001   0.00001  -0.00003   0.00001
 120        2S          0.00000  -0.00008  -0.00011  -0.00179  -0.00007
 121        3S         -0.00003   0.00036   0.00004   0.00031   0.00044
 122        4PX         0.00000   0.00001   0.00007   0.00144   0.00001
 123        4PY         0.00001   0.00001   0.00002  -0.00081   0.00000
 124        4PZ         0.00000  -0.00001   0.00003  -0.00017  -0.00001
 125 11  H  1S         -0.00001   0.00000   0.00001   0.00001   0.00000
 126        2S         -0.00002   0.00016  -0.00012  -0.00013   0.00024
 127        3S          0.00036  -0.00022  -0.00169   0.00021  -0.00057
 128        4PX         0.00003  -0.00001  -0.00070  -0.00005   0.00002
 129        4PY         0.00003  -0.00005   0.00043  -0.00004  -0.00001
 130        4PZ         0.00005  -0.00001   0.00013  -0.00004   0.00001
 131 12  C  1S         -0.00008  -0.00011   0.00000  -0.00000   0.56285
 132        2S          0.00033   0.00047  -0.00002   0.00000   0.46273
 133        2PX         0.00005  -0.00004   0.00000  -0.00000   0.00000
 134        2PY         0.00003  -0.00001   0.00002  -0.00001   0.00005
 135        2PZ         0.00004  -0.00003  -0.00002   0.00000  -0.00004
 136        3S         -0.00015  -0.00018   0.00007  -0.00002   0.02098
 137        3PX         0.00045  -0.00033  -0.00001   0.00005  -0.00003
 138        3PY         0.00021  -0.00016  -0.00004   0.00005  -0.00030
 139        3PZ         0.00034  -0.00027   0.00005   0.00001   0.00019
 140        4S         -0.00220  -0.00322   0.00174  -0.00018  -0.00407
 141        4PX         0.01114  -0.00840  -0.00020   0.00034  -0.00056
 142        4PY         0.00536  -0.00388  -0.00012  -0.00005   0.00002
 143        4PZ         0.00893  -0.00676  -0.00022   0.00049  -0.00067
 144        5S         -0.00245  -0.00393   0.00161   0.00056  -0.00585
 145        5PX        -0.00005  -0.00046   0.00020   0.00047  -0.00070
 146        5PY        -0.00034  -0.00073   0.00049   0.00032  -0.00105
 147        5PZ         0.00033   0.00023  -0.00004   0.00029   0.00023
 148        6D 0       -0.00003  -0.00004  -0.00001  -0.00000   0.00011
 149        6D+1       -0.00137  -0.00194   0.00010  -0.00002   0.00555
 150        6D-1       -0.00066  -0.00093   0.00010  -0.00000   0.00264
 151        6D+2       -0.00067  -0.00095   0.00008   0.00000   0.00267
 152        6D-2       -0.00082  -0.00116   0.00008  -0.00001   0.00330
 153 13  O  1S         -0.09140   0.54366  -0.00000   0.00000  -0.00012
 154        2S         -0.07789   0.46314  -0.00000   0.00000   0.00013
 155        2PX        -0.00028   0.00094   0.00000   0.00001   0.00065
 156        2PY        -0.00015   0.00045  -0.00001   0.00000   0.00032
 157        2PZ        -0.00022   0.00076   0.00001  -0.00000   0.00051
 158        3S         -0.00252   0.01445   0.00005  -0.00005  -0.00155
 159        3PX         0.00060   0.00102  -0.00002  -0.00002  -0.00315
 160        3PY         0.00033   0.00057   0.00002  -0.00002  -0.00155
 161        3PZ         0.00045   0.00074  -0.00004   0.00001  -0.00249
 162        4S          0.00972  -0.01238  -0.00048   0.00039  -0.00717
 163        4PX         0.00209  -0.00196  -0.00028   0.00021  -0.00186
 164        4PY         0.00105  -0.00115  -0.00019   0.00014  -0.00117
 165        4PZ         0.00164  -0.00139  -0.00019   0.00007  -0.00124
 166        5S          0.00999  -0.00159  -0.00124   0.00046   0.00494
 167        5PX         0.00242  -0.00083  -0.00028  -0.00018   0.00131
 168        5PY         0.00141  -0.00018  -0.00038  -0.00009   0.00100
 169        5PZ         0.00167  -0.00094  -0.00004   0.00001   0.00062
 170        6D 0       -0.00002  -0.00001   0.00000  -0.00000   0.00004
 171        6D+1        0.00025   0.00036  -0.00004   0.00001  -0.00126
 172        6D-1        0.00014   0.00019  -0.00001   0.00001  -0.00065
 173        6D+2        0.00012   0.00017  -0.00001   0.00001  -0.00060
 174        6D-2        0.00019   0.00024  -0.00003   0.00001  -0.00085
 175 14  O  1S          0.54366   0.09140  -0.00000  -0.00000  -0.00012
 176        2S          0.46315   0.07783  -0.00000  -0.00000   0.00013
 177        2PX        -0.00099  -0.00004  -0.00001  -0.00000  -0.00065
 178        2PY        -0.00047  -0.00004  -0.00003   0.00000  -0.00029
 179        2PZ        -0.00079  -0.00003   0.00001  -0.00000  -0.00053
 180        3S          0.01447   0.00233   0.00003   0.00003  -0.00158
 181        3PX        -0.00073  -0.00089   0.00004   0.00001   0.00316
 182        3PY        -0.00029  -0.00035   0.00012  -0.00001   0.00143
 183        3PZ        -0.00063  -0.00076  -0.00002  -0.00000   0.00259
 184        4S         -0.01473   0.00542  -0.00022  -0.00022  -0.00670
 185        4PX         0.00238  -0.00147   0.00018   0.00000   0.00161
 186        4PY         0.00095  -0.00072  -0.00017   0.00003   0.00057
 187        4PZ         0.00206  -0.00116   0.00030   0.00005   0.00141
 188        5S         -0.00406   0.00991  -0.00083  -0.00049   0.00726
 189        5PX         0.00167  -0.00214   0.00029   0.00034  -0.00170
 190        5PY         0.00096  -0.00079   0.00027   0.00031  -0.00063
 191        5PZ         0.00111  -0.00194   0.00017  -0.00012  -0.00147
 192        6D 0        0.00002   0.00004  -0.00001   0.00000  -0.00009
 193        6D+1        0.00028   0.00040  -0.00005   0.00000  -0.00134
 194        6D-1        0.00012   0.00017   0.00001  -0.00000  -0.00058
 195        6D+2        0.00013   0.00020  -0.00001   0.00000  -0.00065
 196        6D-2        0.00015   0.00020  -0.00001  -0.00000  -0.00070
                           6         7         8         9        10
                           O         O         O         O         O
     Eigenvalues --   -10.21723 -10.19419  -1.16404  -1.12536  -1.03140
   1 1   O  1S         -0.00002   0.00000  -0.00176   0.00016  -0.11192
   2        2S         -0.00007  -0.00000  -0.00279   0.00025  -0.17904
   3        2PX         0.00007  -0.00000  -0.00014  -0.00027  -0.00864
   4        2PY         0.00009   0.00003  -0.00014  -0.00016   0.04165
   5        2PZ         0.00006   0.00000   0.00064  -0.00020   0.01974
   6        3S          0.00057   0.00015   0.00761  -0.00056   0.51758
   7        3PX         0.00015   0.00002  -0.00018   0.00004  -0.01144
   8        3PY         0.00003  -0.00009  -0.00014  -0.00002   0.06694
   9        3PZ        -0.00004   0.00001   0.00099  -0.00011   0.03175
  10        4S         -0.00058  -0.00136   0.00666  -0.00085   0.38309
  11        4PX         0.00048  -0.00020  -0.00033  -0.00189   0.00491
  12        4PY        -0.00013  -0.00039  -0.00088  -0.00130   0.02782
  13        4PZ         0.00015  -0.00039   0.00117  -0.00084   0.01583
  14        5S          0.01007  -0.00111  -0.00074  -0.00067  -0.05566
  15        5PX         0.00115   0.00110  -0.00027   0.00166  -0.00756
  16        5PY         0.00249  -0.00018  -0.00029  -0.00098  -0.00696
  17        5PZ         0.00116   0.00039  -0.00002   0.00077  -0.00514
  18        6D 0        0.00010   0.00003  -0.00009  -0.00005  -0.00676
  19        6D+1       -0.00007  -0.00004   0.00002  -0.00009   0.00154
  20        6D-1       -0.00011  -0.00004  -0.00008  -0.00002   0.00522
  21        6D+2       -0.00002   0.00001  -0.00003  -0.00000   0.00328
  22        6D-2       -0.00010  -0.00003   0.00001   0.00000   0.00027
  23 2   C  1S          0.56304  -0.00287  -0.00052   0.00018  -0.04017
  24        2S          0.46329  -0.00235  -0.00077   0.00023  -0.06180
  25        2PX        -0.00064   0.00047  -0.00036   0.00011  -0.03028
  26        2PY        -0.00073  -0.00022  -0.00043   0.00026  -0.02685
  27        2PZ        -0.00049  -0.00015  -0.00008  -0.00005  -0.01564
  28        3S          0.01875  -0.00006   0.00175  -0.00005   0.16008
  29        3PX         0.00029  -0.00115  -0.00050  -0.00040  -0.04909
  30        3PY         0.00193   0.00068  -0.00066  -0.00052  -0.04817
  31        3PZ         0.00129   0.00048  -0.00035  -0.00004  -0.02953
  32        4S         -0.01531   0.00508  -0.00049  -0.00006   0.03053
  33        4PX        -0.00019   0.00206  -0.00051  -0.00076  -0.01526
  34        4PY         0.00179  -0.00092  -0.00082   0.00246   0.00247
  35        4PZ         0.00079  -0.00030  -0.00065  -0.00311   0.00141
  36        5S         -0.02078   0.01597   0.01398   0.01259   0.13603
  37        5PX        -0.00359   0.00335   0.00556   0.00330   0.01324
  38        5PY         0.00190  -0.00205  -0.00082   0.00134  -0.02734
  39        5PZ         0.00057  -0.00120  -0.00220  -0.00162  -0.00989
  40        6D 0        0.00072   0.00040  -0.00024  -0.00015  -0.00892
  41        6D+1       -0.00021   0.00036   0.00015   0.00005   0.00991
  42        6D-1       -0.00053  -0.00017   0.00002   0.00007   0.00924
  43        6D+2       -0.00058  -0.00049  -0.00012   0.00001   0.00410
  44        6D-2       -0.00053   0.00048   0.00019   0.00010   0.01682
  45 3   C  1S          0.00284   0.56301  -0.00015   0.00011  -0.00953
  46        2S          0.00235   0.46327  -0.00023   0.00016  -0.01465
  47        2PX        -0.00046   0.00033  -0.00014   0.00009  -0.00795
  48        2PY         0.00024   0.00058  -0.00006   0.00011   0.00089
  49        2PZ         0.00016   0.00030   0.00008  -0.00009   0.00091
  50        3S          0.00017   0.01883   0.00055  -0.00055   0.03602
  51        3PX         0.00109  -0.00020  -0.00002  -0.00007  -0.01683
  52        3PY        -0.00079  -0.00205  -0.00006  -0.00019   0.00431
  53        3PZ        -0.00047  -0.00095  -0.00005   0.00008   0.00325
  54        4S          0.00409  -0.01486  -0.00066   0.00169   0.03974
  55        4PX        -0.00147   0.00138  -0.00072  -0.00027  -0.01080
  56        4PY         0.00055  -0.00084   0.00067  -0.00067   0.00347
  57        4PZ         0.00071  -0.00113   0.00129   0.00138   0.00346
  58        5S          0.01487  -0.02247  -0.02278  -0.02048  -0.08818
  59        5PX        -0.00284   0.00264   0.00511   0.00440   0.02434
  60        5PY         0.00134  -0.00120   0.00070  -0.00257  -0.00737
  61        5PZ         0.00127  -0.00118  -0.00125  -0.00339  -0.00251
  62        6D 0        0.00038   0.00064  -0.00010  -0.00001  -0.00245
  63        6D+1        0.00042  -0.00002  -0.00003  -0.00007  -0.00127
  64        6D-1       -0.00019  -0.00043  -0.00003  -0.00004   0.00013
  65        6D+2       -0.00053  -0.00064   0.00005  -0.00004   0.00402
  66        6D-2        0.00048  -0.00039  -0.00008   0.00011  -0.00125
  67 4   H  1S          0.00007  -0.00006   0.00017  -0.00019   0.01500
  68        2S         -0.00296  -0.00106   0.00109   0.00072   0.02714
  69        3S          0.00452  -0.00040   0.00153   0.00285  -0.01644
  70        4PX        -0.00017   0.00003  -0.00003   0.00004  -0.00023
  71        4PY        -0.00004   0.00001  -0.00028  -0.00001  -0.00145
  72        4PZ         0.00219   0.00035  -0.00023  -0.00013  -0.00758
  73 5   H  1S          0.00005  -0.00009   0.00009   0.00005   0.01566
  74        2S         -0.00281  -0.00075   0.00032  -0.00088   0.02476
  75        3S          0.00341  -0.00002   0.00051  -0.00208  -0.00857
  76        4PX        -0.00033  -0.00000  -0.00002   0.00001   0.00035
  77        4PY         0.00189   0.00025  -0.00002   0.00005  -0.00695
  78        4PZ        -0.00096  -0.00015   0.00004   0.00006   0.00197
  79 6   N  1S          0.00000  -0.00003  -0.00003   0.00003  -0.00316
  80        2S          0.00001  -0.00005  -0.00004   0.00004  -0.00495
  81        2PX        -0.00002  -0.00017  -0.00001   0.00001  -0.00139
  82        2PY        -0.00004  -0.00016  -0.00000   0.00001  -0.00092
  83        2PZ        -0.00003  -0.00009  -0.00001   0.00001  -0.00112
  84        3S          0.00008   0.00042   0.00011  -0.00005   0.01359
  85        3PX         0.00011   0.00013  -0.00010   0.00005  -0.00315
  86        3PY         0.00014   0.00012  -0.00008   0.00007  -0.00174
  87        3PZ         0.00010   0.00015   0.00003   0.00002  -0.00199
  88        4S         -0.00112   0.00020   0.00027  -0.00065   0.00469
  89        4PX         0.00008  -0.00040   0.00022  -0.00002   0.00092
  90        4PY         0.00049  -0.00043   0.00069   0.00007   0.00032
  91        4PZ        -0.00009   0.00008  -0.00048  -0.00019   0.00008
  92        5S          0.00069   0.00931   0.00140   0.00492  -0.00303
  93        5PX        -0.00103  -0.00039   0.00044  -0.00018  -0.00033
  94        5PY         0.00066  -0.00159  -0.00107  -0.00149   0.00428
  95        5PZ        -0.00020  -0.00112   0.00009   0.00097  -0.00127
  96        6D 0        0.00003   0.00011   0.00002   0.00002  -0.00031
  97        6D+1       -0.00004  -0.00018   0.00001   0.00001   0.00037
  98        6D-1       -0.00006  -0.00012  -0.00003   0.00001   0.00015
  99        6D+2        0.00002   0.00004  -0.00003  -0.00000   0.00024
 100        6D-2       -0.00009  -0.00029   0.00002  -0.00000   0.00056
 101 7   H  1S         -0.00010   0.00009   0.00009  -0.00003   0.00483
 102        2S         -0.00066  -0.00283   0.00009   0.00002   0.00443
 103        3S         -0.00011   0.00392   0.00282   0.00138   0.00137
 104        4PX        -0.00006   0.00006   0.00003   0.00002  -0.00094
 105        4PY         0.00001  -0.00011   0.00001   0.00003  -0.00013
 106        4PZ        -0.00031  -0.00211   0.00005   0.00001   0.00181
 107 8   H  1S         -0.00009   0.00008   0.00018  -0.00011   0.00453
 108        2S         -0.00086  -0.00301   0.00053  -0.00154   0.00467
 109        3S          0.00004   0.00493   0.00372   0.00119  -0.00188
 110        4PX        -0.00003   0.00032  -0.00037   0.00027  -0.00107
 111        4PY        -0.00029  -0.00189  -0.00016  -0.00005   0.00136
 112        4PZ         0.00018   0.00109   0.00015  -0.00013  -0.00097
 113 9   H  1S          0.00000  -0.00014   0.00003   0.00002   0.00203
 114        2S         -0.00007   0.00058  -0.00048  -0.00020   0.00192
 115        3S         -0.00122  -0.00068   0.00011   0.00133  -0.00147
 116        4PX         0.00007  -0.00012  -0.00002  -0.00000  -0.00008
 117        4PY         0.00004  -0.00019   0.00007  -0.00002  -0.00047
 118        4PZ        -0.00002   0.00000  -0.00004  -0.00001   0.00022
 119 10  H  1S         -0.00002  -0.00012  -0.00002  -0.00002   0.00159
 120        2S          0.00025   0.00034   0.00026   0.00017   0.00225
 121        3S          0.00071  -0.00219  -0.00099  -0.00136   0.00176
 122        4PX        -0.00009  -0.00001  -0.00005   0.00001  -0.00086
 123        4PY        -0.00002  -0.00003  -0.00006   0.00002   0.00002
 124        4PZ         0.00001  -0.00003   0.00003   0.00001  -0.00009
 125 11  H  1S         -0.00000  -0.00003   0.00118  -0.00008   0.09186
 126        2S          0.00039   0.00051   0.00051  -0.00036   0.07375
 127        3S         -0.00222   0.00086  -0.00010   0.00180   0.00246
 128        4PX         0.00026   0.00018   0.00023   0.00011   0.02277
 129        4PY        -0.00001  -0.00001  -0.00013   0.00013  -0.00674
 130        4PZ        -0.00002   0.00000  -0.00003   0.00017  -0.00139
 131 12  C  1S         -0.00000   0.00000  -0.08699  -0.00029   0.00161
 132        2S         -0.00000   0.00000  -0.13189  -0.00044   0.00250
 133        2PX         0.00000  -0.00001   0.00017  -0.12323  -0.00032
 134        2PY        -0.00002  -0.00002  -0.00256  -0.05878   0.00094
 135        2PZ         0.00000   0.00001   0.00212  -0.09853  -0.00094
 136        3S          0.00007  -0.00003   0.34852   0.00122  -0.00750
 137        3PX         0.00008   0.00005   0.00010  -0.12576  -0.00028
 138        3PY         0.00014   0.00009  -0.00368  -0.05994   0.00213
 139        3PZ         0.00004  -0.00001   0.00302  -0.10065  -0.00180
 140        4S         -0.00120   0.00078   0.10898  -0.00001  -0.00977
 141        4PX         0.00070   0.00030   0.00221   0.05179   0.00033
 142        4PY        -0.00016  -0.00002   0.00027   0.02438   0.00232
 143        4PZ         0.00075   0.00031   0.00217   0.04183  -0.00086
 144        5S          0.00036   0.00084   0.03095   0.00143  -0.01435
 145        5PX        -0.00035   0.00038   0.00213  -0.00524  -0.00143
 146        5PY        -0.00007   0.00005   0.00381  -0.00239  -0.00425
 147        5PZ        -0.00014  -0.00032  -0.00184  -0.00409   0.00030
 148        6D 0        0.00002  -0.00002   0.00080  -0.00084  -0.00011
 149        6D+1       -0.00006  -0.00001   0.04242  -0.00042  -0.00137
 150        6D-1       -0.00000   0.00003   0.02055   0.00049  -0.00149
 151        6D+2        0.00001   0.00000   0.02073  -0.00028  -0.00130
 152        6D-2       -0.00005  -0.00001   0.02522   0.00097  -0.00081
 153 13  O  1S          0.00000   0.00000  -0.07348  -0.08068   0.00145
 154        2S          0.00001   0.00000  -0.11685  -0.12928   0.00233
 155        2PX        -0.00000   0.00000   0.04407   0.04558  -0.00083
 156        2PY        -0.00001   0.00000   0.02172   0.02284   0.00022
 157        2PZ         0.00000  -0.00001   0.03476   0.03568  -0.00104
 158        3S         -0.00012  -0.00003   0.33015   0.37173  -0.00692
 159        3PX         0.00002  -0.00001   0.05519   0.06992  -0.00089
 160        3PY         0.00002  -0.00000   0.02674   0.03506   0.00023
 161        3PZ        -0.00001   0.00003   0.04391   0.05470  -0.00111
 162        4S          0.00093   0.00018   0.20163   0.28335  -0.00280
 163        4PX         0.00028   0.00008   0.01775   0.02901   0.00098
 164        4PY         0.00015   0.00004   0.00875   0.01465   0.00143
 165        4PZ         0.00028  -0.00005   0.01397   0.02273   0.00014
 166        5S          0.00067  -0.00004  -0.03328   0.02950   0.00723
 167        5PX         0.00025  -0.00010  -0.00653   0.01142   0.00152
 168        5PY         0.00046   0.00012  -0.00444   0.00591   0.00168
 169        5PZ        -0.00016   0.00017  -0.00357   0.00867   0.00094
 170        6D 0        0.00000  -0.00000   0.00014  -0.00022  -0.00009
 171        6D+1        0.00002   0.00000   0.00745   0.01256  -0.00003
 172        6D-1        0.00001   0.00000   0.00363   0.00645  -0.00003
 173        6D+2        0.00001   0.00000   0.00364   0.00606  -0.00011
 174        6D-2        0.00002   0.00001   0.00442   0.00815   0.00011
 175 14  O  1S         -0.00000  -0.00000  -0.07396   0.08023   0.00184
 176        2S         -0.00001  -0.00000  -0.11763   0.12855   0.00296
 177        2PX        -0.00000   0.00000  -0.04422   0.04513   0.00115
 178        2PY         0.00000  -0.00001  -0.02034   0.02039   0.00131
 179        2PZ        -0.00001   0.00000  -0.03596   0.03698   0.00043
 180        3S          0.00012   0.00002   0.33247  -0.36957  -0.00883
 181        3PX         0.00001  -0.00000  -0.05564   0.06938   0.00130
 182        3PY        -0.00001   0.00005  -0.02607   0.03130   0.00125
 183        3PZ         0.00003  -0.00002  -0.04484   0.05684   0.00056
 184        4S         -0.00050   0.00000   0.20142  -0.28255  -0.00428
 185        4PX        -0.00003   0.00011  -0.01689   0.02855  -0.00050
 186        4PY        -0.00001  -0.00007  -0.00762   0.01269   0.00185
 187        4PZ        -0.00005   0.00014  -0.01409   0.02377  -0.00169
 188        5S          0.00040  -0.00196  -0.04046  -0.02881   0.00735
 189        5PX         0.00018   0.00024   0.00707   0.01214  -0.00259
 190        5PY         0.00035  -0.00004   0.00210   0.00611  -0.00253
 191        5PZ         0.00005   0.00071   0.00723   0.00888  -0.00139
 192        6D 0        0.00001  -0.00001   0.00016  -0.00072   0.00008
 193        6D+1        0.00001  -0.00001   0.00750  -0.01312   0.00002
 194        6D-1        0.00000   0.00001   0.00363  -0.00593  -0.00022
 195        6D+2        0.00001  -0.00000   0.00367  -0.00644  -0.00007
 196        6D-2       -0.00000  -0.00001   0.00446  -0.00711  -0.00013
                          11        12        13        14        15
                           O         O         O         O         O
     Eigenvalues --    -0.88820  -0.72874  -0.60796  -0.56670  -0.52932
   1 1   O  1S          0.01178   0.02838  -0.01706  -0.00003  -0.01425
   2        2S          0.01893   0.04578  -0.02758  -0.00004  -0.02327
   3        2PX         0.00952   0.07222  -0.05904   0.00336   0.18421
   4        2PY        -0.00243   0.00958  -0.03838  -0.00290  -0.02103
   5        2PZ        -0.00087   0.00903  -0.02545   0.00051   0.01428
   6        3S         -0.05573  -0.13706   0.08303  -0.00001   0.07210
   7        3PX         0.01420   0.10610  -0.08660   0.00485   0.26610
   8        3PY        -0.00377   0.01399  -0.05603  -0.00489  -0.02773
   9        3PZ        -0.00132   0.01328  -0.03733   0.00110   0.02189
  10        4S         -0.04464  -0.11820   0.07441   0.00367   0.09422
  11        4PX         0.00640   0.05673  -0.04724   0.00452   0.17795
  12        4PY        -0.00217   0.00931  -0.04334  -0.00166  -0.02573
  13        4PZ        -0.00138   0.00705  -0.02630   0.00041   0.01468
  14        5S         -0.00260  -0.01749   0.02244   0.00018   0.00050
  15        5PX        -0.00480  -0.01139  -0.01045   0.00153  -0.00373
  16        5PY        -0.00041  -0.00299   0.00642  -0.00055   0.00011
  17        5PZ        -0.00061  -0.00156  -0.00039   0.00011  -0.00284
  18        6D 0        0.00043   0.00094  -0.00096   0.00010   0.00314
  19        6D+1        0.00042   0.00342  -0.00292   0.00003   0.00668
  20        6D-1       -0.00029   0.00126  -0.00403  -0.00027   0.00051
  21        6D+2       -0.00021  -0.00222   0.00598  -0.00013  -0.00165
  22        6D-2        0.00123   0.00785  -0.00623   0.00034   0.01387
  23 2   C  1S         -0.01632  -0.07657   0.06023  -0.00045   0.00776
  24        2S         -0.02520  -0.11922   0.09447  -0.00074   0.01168
  25        2PX         0.02141   0.03768   0.04390   0.00134  -0.03638
  26        2PY         0.00154  -0.00221  -0.03830   0.00014  -0.10418
  27        2PZ        -0.00063  -0.00223  -0.02186  -0.00271  -0.03754
  28        3S          0.06557   0.32270  -0.26151   0.00292  -0.02893
  29        3PX         0.03569   0.05458   0.07234   0.00226  -0.05687
  30        3PY        -0.00083  -0.01345  -0.04887  -0.00046  -0.15855
  31        3PZ        -0.00287  -0.00977  -0.02794  -0.00341  -0.05849
  32        4S          0.04503   0.19004  -0.16475  -0.00315  -0.03009
  33        4PX         0.01050   0.01159   0.03551   0.00079  -0.00966
  34        4PY        -0.00326  -0.00154  -0.03898   0.00362  -0.08167
  35        4PZ        -0.00029  -0.00080  -0.01895  -0.00021  -0.02647
  36        5S         -0.04820  -0.01232  -0.08892  -0.00361  -0.02211
  37        5PX        -0.00813   0.00053  -0.01963  -0.00187   0.00546
  38        5PY         0.00606   0.01088   0.00115   0.00326   0.00370
  39        5PZ         0.00496   0.00726   0.00450   0.00169   0.00219
  40        6D 0       -0.00222  -0.00215  -0.00347  -0.00018  -0.00492
  41        6D+1       -0.00289  -0.00395  -0.00563  -0.00036   0.00691
  42        6D-1       -0.00019   0.00254   0.00243   0.00017   0.01721
  43        6D+2        0.00427   0.00049   0.00582  -0.00013  -0.01007
  44        6D-2       -0.00369  -0.00574  -0.00936   0.00015   0.01497
  45 3   C  1S         -0.05592  -0.05914  -0.06930  -0.00098   0.01088
  46        2S         -0.08623  -0.09178  -0.10829  -0.00154   0.01709
  47        2PX         0.02697  -0.05342   0.03108  -0.00111  -0.01781
  48        2PY         0.02750  -0.00631  -0.04522   0.00216  -0.05078
  49        2PZ         0.01355   0.00300  -0.01717  -0.00241  -0.01525
  50        3S          0.22567   0.24505   0.29716   0.00398  -0.04748
  51        3PX         0.04374  -0.08235   0.05078  -0.00199  -0.02616
  52        3PY         0.04995  -0.00332  -0.06129   0.00307  -0.07513
  53        3PZ         0.02430   0.00821  -0.02251  -0.00279  -0.02280
  54        4S          0.08632   0.15832   0.18676   0.00812  -0.05639
  55        4PX         0.00986  -0.02416   0.02487  -0.00392  -0.01584
  56        4PY         0.00635   0.00137  -0.03935  -0.00033  -0.04898
  57        4PZ        -0.00268   0.00053  -0.02204  -0.00626  -0.01131
  58        5S          0.09167   0.03419   0.09822  -0.00870  -0.00143
  59        5PX        -0.00893  -0.00890  -0.01331  -0.00406  -0.02165
  60        5PY         0.00983  -0.00193   0.00699  -0.00571  -0.01231
  61        5PZ         0.00939  -0.00681   0.00177  -0.00906   0.00004
  62        6D 0       -0.00799  -0.00065   0.00567   0.00020  -0.00014
  63        6D+1        0.00566  -0.00612   0.00552  -0.00007  -0.00049
  64        6D-1        0.00607   0.00034  -0.00346   0.00025  -0.00598
  65        6D+2        0.00234   0.00328  -0.00483   0.00017   0.00746
  66        6D-2        0.01234  -0.01144   0.00396   0.00004   0.00060
  67 4   H  1S          0.00957   0.05457  -0.06922  -0.00207  -0.03668
  68        2S          0.00979   0.06532  -0.08690  -0.00288  -0.04405
  69        3S         -0.00217  -0.00384  -0.00100   0.00002  -0.00596
  70        4PX         0.00129   0.00284   0.00083  -0.00001  -0.00210
  71        4PY         0.00018  -0.00070  -0.00141   0.00033  -0.00504
  72        4PZ        -0.00241  -0.01168   0.01154   0.00005   0.00310
  73 5   H  1S          0.00989   0.05381  -0.07392   0.00100  -0.06192
  74        2S          0.01183   0.06436  -0.09258   0.00183  -0.07434
  75        3S         -0.00010  -0.00245  -0.00183  -0.00119  -0.01571
  76        4PX         0.00179   0.00369  -0.00086   0.00010  -0.00318
  77        4PY        -0.00220  -0.01040   0.01018  -0.00039   0.00299
  78        4PZ         0.00110   0.00422  -0.00635  -0.00012  -0.00519
  79 6   N  1S         -0.10038   0.04373   0.02182   0.00028  -0.00491
  80        2S         -0.15764   0.06907   0.03460   0.00044  -0.00776
  81        2PX        -0.00215  -0.04347  -0.04199  -0.00168   0.07608
  82        2PY        -0.01350  -0.01786  -0.06083   0.00071   0.00263
  83        2PZ        -0.03673   0.01400   0.00134  -0.00090   0.00593
  84        3S          0.43202  -0.19364  -0.09830  -0.00120   0.02114
  85        3PX        -0.00680  -0.06417  -0.06210  -0.00226   0.11092
  86        3PY        -0.02348  -0.02626  -0.08985   0.00126   0.00444
  87        3PZ        -0.05740   0.02086   0.00128  -0.00137   0.00925
  88        4S          0.29891  -0.15135  -0.07470  -0.00154   0.02986
  89        4PX        -0.00943  -0.02837  -0.03219  -0.00268   0.06931
  90        4PY        -0.01234  -0.00905  -0.05424  -0.00147  -0.00244
  91        4PZ        -0.02234   0.00976  -0.00271  -0.00040   0.00158
  92        5S         -0.03485  -0.04097  -0.03955   0.01758   0.05959
  93        5PX         0.01579   0.00382  -0.00484  -0.00185   0.00526
  94        5PY         0.00900  -0.00336   0.00378  -0.00144  -0.00564
  95        5PZ         0.00030   0.00887   0.00861   0.00102  -0.01222
  96        6D 0       -0.00553   0.00077   0.00022   0.00013  -0.00120
  97        6D+1        0.00293   0.00368   0.00450   0.00024  -0.00608
  98        6D-1       -0.00066   0.00399   0.00924   0.00008  -0.00117
  99        6D+2        0.00051   0.00104  -0.00214   0.00007   0.00035
 100        6D-2        0.00245   0.00519   0.00593   0.00012  -0.00563
 101 7   H  1S          0.02710   0.04199   0.07494   0.00232   0.00429
 102        2S          0.03344   0.04738   0.09177   0.00107   0.00941
 103        3S         -0.01131  -0.00386   0.00408  -0.00460  -0.00134
 104        4PX         0.00048  -0.00281   0.00082  -0.00003  -0.00189
 105        4PY         0.00177   0.00069  -0.00058   0.00017  -0.00228
 106        4PZ         0.00825   0.00842   0.01209   0.00007   0.00081
 107 8   H  1S          0.02768   0.04397   0.08430  -0.00234   0.01658
 108        2S          0.03712   0.05128   0.10467  -0.00451   0.02388
 109        3S         -0.00791  -0.00074   0.00947  -0.00192  -0.00112
 110        4PX        -0.00035  -0.00419  -0.00095   0.00050  -0.00259
 111        4PY         0.00817   0.00766   0.01099   0.00018  -0.00005
 112        4PZ        -0.00278  -0.00356  -0.00712  -0.00056  -0.00192
 113 9   H  1S          0.07772  -0.05023  -0.05777   0.00052   0.00341
 114        2S          0.07318  -0.05587  -0.06873   0.00152   0.00507
 115        3S         -0.00538   0.01106  -0.00345  -0.00014  -0.01146
 116        4PX        -0.00028  -0.00265  -0.00259  -0.00006   0.00563
 117        4PY        -0.01605   0.00835   0.00614  -0.00018  -0.00015
 118        4PZ         0.00746  -0.00498  -0.00585   0.00010   0.00100
 119 10  H  1S          0.07714  -0.05745  -0.03008  -0.00152   0.05675
 120        2S          0.07387  -0.05985  -0.04069  -0.00204   0.06854
 121        3S         -0.00593   0.00357   0.00503  -0.00070   0.00416
 122        4PX        -0.01661   0.00844   0.00254   0.00022  -0.00524
 123        4PY         0.00638  -0.00614  -0.00711   0.00007   0.00435
 124        4PZ        -0.00048   0.00000  -0.00050  -0.00013   0.00076
 125 11  H  1S         -0.01471  -0.06447   0.04309  -0.00325  -0.12309
 126        2S         -0.01182  -0.06499   0.05534  -0.00309  -0.15696
 127        3S         -0.00200  -0.01140  -0.00348   0.00239  -0.04699
 128        4PX        -0.00282  -0.01045   0.00508  -0.00048  -0.01673
 129        4PY         0.00127   0.00700  -0.00859  -0.00036   0.00839
 130        4PZ         0.00039   0.00234  -0.00366   0.00036   0.00324
 131 12  C  1S          0.00007   0.00057   0.00029  -0.07592   0.00034
 132        2S          0.00011   0.00090   0.00048  -0.12047   0.00053
 133        2PX        -0.00021  -0.00089   0.00132   0.00040  -0.00255
 134        2PY        -0.00024  -0.00124   0.00366  -0.00158   0.00426
 135        2PZ        -0.00020  -0.00098  -0.00428   0.00193  -0.05315
 136        3S         -0.00022  -0.00266  -0.00226   0.37464  -0.00212
 137        3PX        -0.00052  -0.00161   0.00201   0.00054   0.00077
 138        3PY        -0.00063  -0.00223   0.00557  -0.00318   0.00892
 139        3PZ        -0.00020  -0.00137  -0.00638   0.00318  -0.07631
 140        4S          0.00027  -0.00119   0.00386   0.26207  -0.00110
 141        4PX        -0.00167  -0.00210   0.00283   0.00137   0.00803
 142        4PY        -0.00046  -0.00208   0.00546  -0.00064   0.00908
 143        4PZ        -0.00211  -0.00241  -0.00248   0.00320  -0.03458
 144        5S         -0.00289  -0.00159  -0.00074  -0.00065  -0.00172
 145        5PX        -0.00214   0.00052  -0.00133   0.00070   0.00304
 146        5PY        -0.00083   0.00014   0.00055  -0.00377   0.00492
 147        5PZ        -0.00059   0.00156  -0.00119   0.00531  -0.00444
 148        6D 0        0.00001  -0.00015   0.00008   0.00026  -0.00068
 149        6D+1        0.00001  -0.00025  -0.00022   0.01499  -0.00094
 150        6D-1        0.00010   0.00028  -0.00077   0.00748  -0.00001
 151        6D+2        0.00007   0.00014  -0.00007   0.00747  -0.00040
 152        6D-2        0.00009   0.00043  -0.00019   0.00889   0.00110
 153 13  O  1S         -0.00016  -0.00058   0.00052   0.05036   0.00654
 154        2S         -0.00027  -0.00097   0.00085   0.08205   0.01058
 155        2PX         0.00008   0.00037   0.00056   0.11387   0.04085
 156        2PY        -0.00010  -0.00095   0.00349   0.05630   0.02250
 157        2PZ         0.00013   0.00063  -0.00341   0.08961  -0.00966
 158        3S          0.00099   0.00340  -0.00278  -0.25101  -0.03162
 159        3PX         0.00019   0.00055   0.00088   0.15514   0.05898
 160        3PY        -0.00008  -0.00133   0.00512   0.07674   0.03274
 161        3PZ         0.00014   0.00082  -0.00501   0.12207  -0.01586
 162        4S         -0.00109  -0.00073  -0.00198  -0.31775  -0.04642
 163        4PX        -0.00088  -0.00093   0.00086   0.09191   0.03796
 164        4PY        -0.00063  -0.00176   0.00399   0.04507   0.02087
 165        4PZ        -0.00020   0.00018  -0.00350   0.07246  -0.01521
 166        5S         -0.00256  -0.00121   0.00355  -0.05351  -0.00971
 167        5PX         0.00038   0.00006   0.00156   0.00232   0.00096
 168        5PY        -0.00038  -0.00132   0.00093   0.00328  -0.00245
 169        5PZ        -0.00031  -0.00027   0.00095  -0.00060   0.00382
 170        6D 0        0.00001   0.00005  -0.00052   0.00010  -0.00429
 171        6D+1       -0.00001   0.00005  -0.00031   0.00906   0.00076
 172        6D-1        0.00000   0.00003  -0.00002   0.00435   0.00074
 173        6D+2        0.00002   0.00015  -0.00017   0.00432   0.00247
 174        6D-2       -0.00002  -0.00007   0.00042   0.00554   0.00386
 175 14  O  1S          0.00003  -0.00018   0.00022   0.05069  -0.00665
 176        2S          0.00006  -0.00027   0.00035   0.08258  -0.01073
 177        2PX         0.00034   0.00207   0.00288  -0.11513   0.04462
 178        2PY         0.00018   0.00151   0.00242  -0.05300   0.02740
 179        2PZ         0.00005   0.00032  -0.00308  -0.09314  -0.01020
 180        3S         -0.00040   0.00024  -0.00115  -0.25239   0.03133
 181        3PX         0.00041   0.00290   0.00403  -0.15686   0.06420
 182        3PY         0.00027   0.00209   0.00365  -0.07212   0.03939
 183        3PZ         0.00006   0.00040  -0.00453  -0.12700  -0.01637
 184        4S          0.00151   0.00460  -0.00170  -0.32194   0.05090
 185        4PX         0.00040   0.00122   0.00402  -0.09303   0.04165
 186        4PY         0.00028   0.00195   0.00254  -0.04369   0.02841
 187        4PZ        -0.00045  -0.00125  -0.00366  -0.07414  -0.01909
 188        5S          0.00308   0.00478  -0.00270  -0.06132   0.01206
 189        5PX        -0.00186  -0.00036   0.00176   0.00183  -0.00191
 190        5PY        -0.00134   0.00140  -0.00176   0.00458  -0.00358
 191        5PZ         0.00001  -0.00118   0.00185  -0.00286   0.00364
 192        6D 0        0.00001   0.00004   0.00060   0.00024   0.00452
 193        6D+1       -0.00006  -0.00023   0.00003   0.00933  -0.00121
 194        6D-1       -0.00004  -0.00019  -0.00018   0.00433  -0.00127
 195        6D+2       -0.00003  -0.00020   0.00001   0.00450  -0.00271
 196        6D-2        0.00002  -0.00002  -0.00031   0.00543  -0.00388
                          16        17        18        19        20
                           O         O         O         O         O
     Eigenvalues --    -0.52549  -0.51869  -0.51709  -0.50043  -0.46524
   1 1   O  1S         -0.00335   0.00368  -0.00325  -0.00726   0.01484
   2        2S         -0.00547   0.00607  -0.00533  -0.01177   0.02416
   3        2PX         0.03981  -0.02570   0.03990   0.02178  -0.02203
   4        2PY        -0.00225  -0.02589   0.00532  -0.01171   0.08009
   5        2PZ        -0.00330   0.01978  -0.00083  -0.04640  -0.03830
   6        3S          0.01698  -0.02082   0.01702   0.03508  -0.07380
   7        3PX         0.05774  -0.03731   0.05789   0.03095  -0.03105
   8        3PY        -0.00251  -0.03767   0.00811  -0.01662   0.11604
   9        3PZ        -0.00454   0.02834  -0.00105  -0.06806  -0.05663
  10        4S          0.02253  -0.01332   0.01980   0.04894  -0.09413
  11        4PX         0.03877  -0.02927   0.03813   0.02448  -0.02495
  12        4PY        -0.00306  -0.03198   0.00768  -0.01076   0.09004
  13        4PZ        -0.00433   0.02796  -0.00187  -0.05328  -0.04939
  14        5S          0.00549  -0.00172  -0.00836   0.01177  -0.07498
  15        5PX        -0.00233  -0.00496   0.00318  -0.01468   0.00846
  16        5PY        -0.00043  -0.00031  -0.00190  -0.00099  -0.00902
  17        5PZ         0.00092  -0.00075   0.00078  -0.00128  -0.00656
  18        6D 0        0.00012   0.00177   0.00022  -0.00268  -0.00574
  19        6D+1        0.00118  -0.00042   0.00112  -0.00118  -0.00292
  20        6D-1       -0.00027  -0.00008   0.00019  -0.00456  -0.00075
  21        6D+2       -0.00044   0.00111  -0.00042   0.00059  -0.00657
  22        6D-2        0.00316  -0.00199   0.00314   0.00231  -0.00021
  23 2   C  1S          0.00154  -0.00309   0.00280   0.01058  -0.00880
  24        2S          0.00226  -0.00466   0.00425   0.01672  -0.01388
  25        2PX        -0.00519   0.00912  -0.00906   0.02969  -0.04980
  26        2PY        -0.01789   0.00602  -0.02245   0.01068   0.08542
  27        2PZ        -0.01913   0.03793  -0.01837  -0.08633  -0.08627
  28        3S         -0.00443   0.01086  -0.01024  -0.04531   0.03592
  29        3PX        -0.00850   0.01466  -0.01381   0.04388  -0.07352
  30        3PY        -0.02851   0.01103  -0.03453   0.01650   0.12520
  31        3PZ        -0.02856   0.05640  -0.02796  -0.12722  -0.12791
  32        4S         -0.00983   0.01632  -0.01341  -0.06681   0.06489
  33        4PX        -0.00151   0.00576  -0.00269   0.02115  -0.05884
  34        4PY        -0.00771  -0.00594  -0.01528   0.00801   0.07823
  35        4PZ        -0.01728   0.02897  -0.01627  -0.06748  -0.09805
  36        5S         -0.00602   0.01046   0.05663  -0.06055   0.09923
  37        5PX         0.00136   0.01133   0.02078  -0.00493   0.00665
  38        5PY         0.00544  -0.00216  -0.00193   0.01029  -0.00758
  39        5PZ        -0.00070   0.00248  -0.00392   0.00203  -0.02343
  40        6D 0       -0.00163   0.00195  -0.00159  -0.00331  -0.00079
  41        6D+1        0.00134  -0.00274   0.00167  -0.00327   0.00374
  42        6D-1        0.00396  -0.00403   0.00453   0.00367  -0.00576
  43        6D+2       -0.00192  -0.00054  -0.00129  -0.00153  -0.00350
  44        6D-2        0.00312  -0.00266   0.00370  -0.00005  -0.00387
  45 3   C  1S          0.00043   0.00231  -0.00075  -0.00499  -0.00128
  46        2S          0.00067   0.00368  -0.00118  -0.00774  -0.00197
  47        2PX        -0.00644   0.00350  -0.00338  -0.04159   0.01826
  48        2PY        -0.00387  -0.00045  -0.00838   0.05722  -0.03030
  49        2PZ        -0.01229   0.02444  -0.01267  -0.08072  -0.09268
[...]
     1         12.15047953          0.29570508          1.21079261
     1          2.38791234          1.12602517          0.06108100
     6          4.21211357          1.35441246         -5.64800974
     8          2.55781439          2.78094745         -5.84869000
     8          5.86808358         -0.08063191         -5.54055797

 Electric dipole moment (dipole orientation):
 (Debye = 10**-18 statcoulomb cm , SI units = C m)
                  (au)            (Debye)         (10**-30 SI)
   Tot        0.798583D+00      0.202980D+01      0.677067D+01
   x          0.000000D+00      0.000000D+00      0.000000D+00
   y          0.000000D+00      0.000000D+00      0.000000D+00
   z          0.798583D+00      0.202980D+01      0.677067D+01

 Dipole polarizability, Alpha (dipole orientation).
 (esu units = cm**3 , SI units = C**2 m**2 J**-1)
 Alpha(0;0):
               (au)            (10**-24 esu)      (10**-40 SI)
   iso        0.676032D+02      0.100178D+02      0.111463D+02
   aniso      0.250210D+02      0.370774D+01      0.412541D+01
   xx         0.740716D+02      0.109763D+02      0.122128D+02
   yx        -0.116191D+02     -0.172178D+01     -0.191573D+01
   yy         0.689308D+02      0.102145D+02      0.113651D+02
   zx         0.362736D+01      0.537520D+00      0.598072D+00
   zy        -0.288681D+01     -0.427781D+00     -0.475971D+00
   zz         0.598074D+02      0.886254D+01      0.986090D+01

 First dipole hyperpolarizability, Beta (dipole orientation).
 ||, _|_  parallel and perpendicular components, (z) with respect to z axis,
 vector components x,y,z.  Values do not include the 1/n! factor of 1/2.
 (esu units = statvolt**-1 cm**4 , SI units = C**3 m**3 J**-2)
 Beta(0;0,0):
               (au)            (10**-30 esu)      (10**-50 SI)
   || (z)    -0.479127D+02     -0.413928D+00     -0.153625D+00
   _|_(z)    -0.159709D+02     -0.137976D+00     -0.512085D-01
   x         -0.241688D+02     -0.208800D+00     -0.774939D-01
   y         -0.214172D+03     -0.185028D+01     -0.686714D+00
   z         -0.239563D+03     -0.206964D+01     -0.768127D+00
   ||         0.644499D+02      0.556797D+00      0.206650D+00
   xxx       -0.599762D+01     -0.518147D-01     -0.192305D-01
   xxy       -0.799462D+01     -0.690673D-01     -0.256337D-01
   yxy       -0.442393D+01     -0.382193D-01     -0.141847D-01
   yyy       -0.426657D+02     -0.368599D+00     -0.136802D+00
   xxz       -0.104709D+02     -0.904606D-01     -0.335736D-01
   yxz        0.986411D+01      0.852182D-01      0.316279D-01
   yyz        0.302753D+00      0.261555D-02      0.970734D-03
   zxz        0.236529D+01      0.204342D-01      0.758396D-02
   zyz       -0.207305D+02     -0.179095D+00     -0.664694D-01
   zzz       -0.696863D+02     -0.602035D+00     -0.223439D+00

 ----------------------------------------------------------------------
 Unable to Open any file for archive entry.
 1\1\GINC-NODE1678\Freq\RB3LYP\6-311+G(d,p)\C3H7N1O3\SVICCHI\12-Jun-202
 3\0\\#p freq=raman scale=0.967 pop=(nbo,full,hirshfeld) guess=read geo
 m=allcheck b3lyp/6-311+G(d,p) int=grid=ultrafine EmpiricalDispersion=G
 D3BJ SCRF=(Solvent=ethanol) scf=(xqc,intrep,maxconventionalcycle=350) 
 nosymm\\MEA-CO2_binding_direct-site_index-0.gjf\\0,1\O,2.1618935155,-0
 .6921015085,-0.5632686141\C,3.131198792,0.2267312535,-0.0413783736\C,4
 .5130049642,-0.2777289449,-0.4266730462\H,3.0527699909,0.2909712866,1.
 0493064817\H,2.9691904282,1.22800177,-0.4586791886\N,5.5375357498,0.64
 61387926,0.0783084451\H,4.5456230161,-0.4177597218,-1.5161688088\H,4.6
 72745292,-1.2551059116,0.0345452534\H,5.5437188992,1.5005657259,-0.471
 3152073\H,6.4591978046,0.2345526047,-0.0231379497\H,1.285147571,-0.310
 0555288,-0.4529029455\C,2.0536905654,-3.0445709442,0.963217712\O,1.203
 0804511,-3.4699712725,0.297643704\O,2.90176396,-2.660103601,1.65659453
 76\\Version=ES64L-G16RevC.01\HF=-399.1329774\RMSD=8.705e-09\RMSF=6.197
 e-06\ZeroPoint=0.1063103\Thermal=0.1162221\ETot=-399.0167553\HTot=-399
 .0158111\GTot=-399.0646114\Dipole=0.0525095,0.6974284,-0.38545\DipoleD
 eriv=-0.9498944,-0.3625064,-0.1678466,-0.3495279,-0.7398779,0.0111372,
 -0.1694692,0.01827,-0.7014478,0.7033199,0.3344447,0.188688,0.3127241,0
 .6042802,0.0793975,0.1781376,0.0565565,0.5101831,0.4571845,0.2050834,0
 .1338383,0.2526983,0.3597768,0.1114828,0.0623029,0.0227597,0.4079227,-
 0.0094875,-0.0226132,0.0106049,-0.0327567,0.0271277,-0.0144559,0.00428
 3,-0.0733598,-0.2309165,-0.0212456,0.0043958,-0.0192896,-0.0130732,-0.
 2307722,0.0585199,-0.0369272,0.1124526,0.0124114,-0.6441606,-0.1495809
 ,-0.0733925,-0.1791121,-0.4851627,-0.1799806,-0.0741379,-0.134516,-0.6
 420363,-0.0360602,-0.0545721,-0.0350489,-0.0429858,0.0050612,-0.077439
 8,-0.0340515,-0.1255744,-0.2814858,0.0294435,0.038728,-0.0144294,0.017
 0699,-0.1413389,0.0501374,-0.0372108,0.0865889,0.0289958,0.1779378,-0.
 0292041,-0.0569088,-0.0491613,0.1408361,0.1002379,-0.0309068,0.1835408
 ,0.1879915,0.0545753,0.0154688,0.0325497,0.037825,0.1429965,-0.0247246
 ,0.1261191,-0.0378325,0.3193293,0.2733735,0.0291107,0.0103828,0.040810
 4,0.2680296,-0.0696242,0.0267306,-0.0712216,0.3885655,1.9592026,0.6919
 17,1.0222984,0.687223,1.1507228,0.3867479,1.0422259,0.4224518,1.498068
 ,-1.0049302,-0.3829259,-0.4994391,-0.3711905,-0.5793247,-0.2357396,-0.
 5140515,-0.2606285,-0.7114791,-0.9892586,-0.3177458,-0.5320072,-0.3105
 431,-0.5223545,-0.1956959,-0.5430442,-0.1994874,-0.7861017\Polar=73.56
 57243,8.0645414,63.7459986,9.2044812,5.6119597,65.4979805\PolarDeriv=2
 .8333579,-4.0227027,1.1254588,-1.7284989,0.3606483,0.8056798,-6.537843
 7,-2.1807215,-4.9501623,0.0238827,-0.7225319,-0.8933675,-2.4192112,-0.
 5282179,-0.2129393,-1.7255787,-1.2308218,-0.3831382,-1.5570062,2.91023
 63,1.2925717,2.0089376,-1.0532766,-0.4636869,3.5494357,3.0203362,-10.3
 221579,0.6705807,3.866429,-1.1664642,2.8114814,0.4739926,4.5652999,1.5
 611457,-4.0744585,-12.2208366,1.919202,-2.6746204,-1.7655123,-1.189366
 2,0.653676,-0.0515187,-3.2211029,-2.7453656,8.3532821,0.1853945,-2.647
 1715,1.6994922,-2.6000131,0.7179191,-3.3710248,0.2161186,6.7966815,14.
 2342217,0.2214405,-0.0756061,-0.4869098,2.0744611,0.5576347,0.3061388,
 -0.8054924,-0.5769777,1.2417175,0.0309531,1.6055622,0.4002495,2.219114
 5,0.131686,1.3685623,-1.2106223,2.1933151,12.9836074,-0.1718065,2.0459
 512,-0.5535309,-1.0817284,0.378394,-0.7008189,1.6027584,-1.4185416,12.
 0705996,0.1295206,-2.5571908,1.1978232,-1.9961986,0.292393,-3.9341274,
 -0.7517876,2.8652941,-0.7838483,-3.2988411,3.8522994,-0.618993,2.71660
 86,-0.229922,0.5749843,4.9667867,0.0904326,-2.5195066,0.4285303,4.3874
 763,-3.0409001,3.2152387,1.1223709,4.6461627,2.1639226,-2.5283237,-1.2
 59597,-0.736685,-0.0999585,0.1804685,-2.2653676,-0.2695476,-0.8321305,
 0.9521241,0.1989927,-1.8914338,-0.0408323,-2.1710964,-0.8540212,-2.238
 541,-0.8032303,-2.1535513,-0.2998417,-4.131699,-14.5636504,0.7226971,-
 1.7926001,0.6320724,1.2068076,-0.1801551,0.804705,-1.532131,1.3916451,
 -10.7777065,0.0611958,2.4862915,-1.3070432,2.1398543,-0.2243208,4.2222
 03,0.4642859,-2.9539979,0.9378536,-0.4105633,1.2732983,0.197669,-0.499
 2637,-0.1181816,-0.5578788,1.5878206,1.8134873,8.298788,-0.8096063,-3.
 4681989,3.674541,-1.1974016,-0.6344582,-4.3598819,0.2632711,2.5422095,
 -0.0917619,11.853255,-1.9591468,1.5482156,-0.9474746,0.2729135,0.93389
 46,-3.957197,1.8167777,-1.644304,0.2106514,0.0339224,-0.6232066,-0.022
 2751,-0.1568486,0.0423942,0.0473025,0.6508265,1.6651767,-11.2282414,0.
 9533789,-1.8844347,-0.1730858,-0.1820531,-0.9335209,3.3636539,-1.54029
 84,0.6615405,-0.1166551,0.2102386,0.6069224,0.3745927,0.0089333,0.6346
 262,-0.9843767,-0.1756417,-0.5828862,0.0974715,0.5032974,0.235015,0.01
 22711,0.2806977,-0.9773612,-0.1033568,1.3012967,5.2475226,-0.5711969,-
 2.568195,0.698913,0.0589868,-0.0196065,-2.871228,0.1697651,1.7851144,-
 1.1028567,-10.4787144,-3.2496704,-4.4280622,-3.378514,0.12684,-2.84414
 95,-1.8647166,-4.706844,-7.5996871,-0.3811332,-1.6800971,-1.690023,-2.
 8849011,-0.7977484,-2.7395766,-3.9248706,-2.0707901,-7.3888746,10.2344
 339,2.3358435,4.525972,3.2442132,-0.5976681,3.935663,1.9992609,3.53578
 05,3.8315078,0.1787147,3.2245615,1.2970843,2.5392734,0.4171358,4.16308
 09,4.0112659,0.3322916,8.5565904\HyperPolar=-8.793858,-4.7329709,-10.5
 515731,-17.4523218,10.4268293,-6.5197271,40.1220594,3.2969608,-12.5759
 562,49.8124115\Quadrupole=4.3094598,-1.5586903,-2.7507695,1.1785145,-7
 .026393,-2.8765052\PG=C01 [X(C3H7N1O3)]\NImag=0\\0.61367979,-0.0924661
 0,0.28423378,0.00552171,0.10440559,0.09749150,-0.13505025,-0.02619743,
 -0.02148816,0.46725757,-0.06344126,-0.13893029,-0.04341894,-0.04267157
 ,0.53887338,-0.03640332,-0.04071882,-0.08474269,-0.01514278,-0.0322421
 1,0.57533660,-0.02920428,0.00144596,0.00139124,-0.16154076,0.04899350,
 0.03434863,0.47500490,-0.03220855,0.00691875,0.00336712,0.05413166,-0.
 10019482,-0.01387787,-0.02603855,0.56558385,-0.01935019,0.00270885,0.0
 0329036,0.04033435,-0.01299347,-0.09085762,0.00262291,-0.03928439,0.56
 644210,-0.00550691,-0.01124863,-0.03001263,-0.05131106,0.00365117,0.02
 629683,-0.00419281,0.00144475,0.03165867,0.05867895,-0.00742127,-0.006
 52069,-0.02829753,0.00253635,-0.05139877,0.00121543,0.00348249,-0.0004
 3083,-0.01296251,0.00268005,0.05569259,-0.00975967,-0.00942005,-0.0085
 6608,0.02660516,-0.00246841,-0.29619520,0.00086543,-0.00041653,-0.0096
 7070,-0.02139235,0.01207692,0.32309371,-0.00409025,-0.03333331,0.00472
 957,-0.05773974,0.04289398,-0.01646901,-0.00615631,0.02911721,-0.01336
 540,0.00285442,-0.00252818,0.00255225,0.06557948,-0.01020432,-0.026385
 27,0.00106824,0.03905246,-0.24324569,0.08949259,0.00282606,-0.01068838
 ,0.00548789,0.00128495,0.00173207,0.00106695,-0.03581604,0.27513646,-0
 .00070126,-0.01793982,0.00746773,-0.01738382,0.09328171,-0.09671716,0.
 00308956,-0.00881281,0.00383211,-0.00574533,0.02865274,-0.01209570,0.0
 1992921,-0.09449928,0.09510535,-0.01200165,0.00218060,0.00093012,-0.02
 674092,-0.02714570,-0.01448508,-0.14427384,-0.05240517,-0.05686374,0.0
 0236470,-0.00068341,-0.00033863,0.00223990,-0.00002736,-0.00079364,0.6
 0230624,0.00385863,0.00087702,-0.00015606,0.00071073,0.00571199,0.0045
 1883,-0.03927192,-0.14258655,-0.03651421,0.00037595,0.00027855,0.00063
 746,-0.00006768,0.00134546,-0.00013206,-0.05758033,0.58279804,0.001049
 17,0.00012163,0.00082856,-0.00077644,0.00308847,0.00230030,-0.02220991
 ,-0.01001659,-0.08406509,-0.00038892,0.00079953,0.00155717,0.00024244,
 -0.00032028,0.00007345,0.02290311,-0.13566882,0.24390840,0.00231534,0.
 00012269,-0.00077592,-0.00438985,0.00296246,0.03259240,-0.05004238,0.0
 0345810,0.01352256,-0.00560914,0.00175198,0.00138132,0.00155503,-0.000
 20201,-0.00077141,-0.00499954,-0.01075267,-0.02937975,0.05772495,-0.00
 089556,0.00048402,0.00096948,0.00286692,-0.00132595,-0.01390738,0.0043
 7176,-0.05457727,-0.01737605,0.00180031,-0.00012606,-0.00102910,-0.000
 82408,0.00054130,-0.00020123,-0.00773486,-0.00692677,-0.02533087,0.000
 82844,0.05643407,-0.00010235,0.00078139,0.00157908,0.00049252,-0.00090
 216,-0.01169827,0.01656075,-0.01805520,-0.28433431,0.00149363,-0.00131
 815,0.00063232,0.00008369,-0.00036286,0.00102848,-0.00770949,-0.008515
 87,-0.00775248,-0.01146318,0.02880165,0.31188156,0.00226501,-0.0010425
 2,0.00035314,-0.00676486,0.03019678,-0.01374640,-0.05477838,0.03942925
 ,-0.01910414,0.00159736,-0.00074637,-0.00005505,-0.00573776,0.00148725
 ,0.00162522,0.00086269,-0.02858875,0.01023403,0.00117897,-0.00153017,0
 .00146860,0.06337959,-0.00009078,0.00135096,0.00008792,0.00328431,-0.0
 1217746,0.00484595,0.03467719,-0.24858984,0.09740307,-0.00028231,0.000
 56416,-0.00023671,0.00173735,0.00023225,-0.00090134,-0.00033848,-0.022
 34700,0.00730186,-0.00008311,0.00415266,-0.00044302,-0.03514201,0.2775
 1880,-0.00095745,0.00039676,0.00007576,0.00242098,-0.00948006,0.003620
 45,-0.01874247,0.10466059,-0.10336738,-0.00068692,-0.00046939,0.000988
 21,0.00187869,-0.00098710,0.00083866,0.00180223,-0.01321967,0.00608613
 ,-0.00524910,0.02782396,-0.01378490,0.02030995,-0.10686568,0.10501684,
 -0.00008360,0.00074422,-0.00025477,0.00099302,-0.00239694,0.00082482,0
 .00029761,-0.02431200,0.01688774,-0.00005989,0.00009467,-0.00017250,-0
 .00066414,0.00069436,-0.00025728,-0.06031395,-0.00767725,-0.00418207,0
 .00083479,0.00057474,-0.00047073,-0.00348058,-0.00313205,-0.00160791,0
 .06227653,0.00025911,0.00014718,-0.00008960,0.00009943,0.00056206,0.00
 006366,-0.00085196,-0.02185794,0.01386181,0.00011672,0.00003361,-0.000
 03220,-0.00062912,0.00011616,0.00020161,0.00171758,-0.29588866,0.16366
 481,0.00178709,0.00153901,-0.00002688,-0.00394601,-0.00114473,-0.00236
 025,0.00269207,0.33036821,0.00013865,-0.00014917,-0.00000008,0.0004772
 8,0.00064414,0.00007020,-0.00243493,-0.01858543,0.00391352,0.00000013,
 0.00007811,-0.00003666,0.00022501,0.00014845,0.00002053,-0.01129779,0.
 21264616,-0.14447980,0.00084858,-0.00069304,0.00186082,-0.00191851,-0.
 00199151,0.00033248,0.01102357,-0.18617464,0.13966616,-0.00210049,0.00
 060358,0.00030007,-0.00030076,-0.00486494,-0.00276447,-0.02319470,0.01
 207959,0.00635325,0.00025138,-0.00004480,0.00011408,0.00034059,0.00002
 437,-0.00016648,-0.35846722,0.13808473,0.02214415,0.00095828,0.0007474
 5,-0.00039054,0.00131501,0.00009565,0.00068787,0.00033859,-0.00121608,
 0.00289432,0.38111220,-0.00225897,0.00032093,0.00003863,-0.00110121,-0
 .00331359,-0.00210480,-0.02771460,0.00991275,0.00161787,0.00003948,-0.
 00008782,0.00010331,-0.00011773,0.00035814,-0.00015177,0.14375300,-0.1
 2394552,-0.00352122,0.00003864,-0.00001554,-0.00017820,0.00015873,0.00
 075520,0.00047721,0.03265462,-0.01393117,-0.00597932,-0.14510417,0.130
 24804,0.00026601,0.00003434,0.00051402,0.00043824,-0.00064199,-0.00075
 873,-0.01625816,0.00257835,-0.00384622,-0.00038398,0.00012205,0.000282
 89,0.00006181,-0.00017871,-0.00010138,0.06647370,-0.02364819,-0.018828
 01,-0.00045742,0.00071346,0.00034746,0.00074751,0.00032732,0.00058705,
 -0.02178165,0.01090604,-0.00135030,-0.02903948,0.00980225,0.02299050,-
 0.42835735,0.15955914,0.04054499,-0.02426730,0.01286608,0.00448005,-0.
 00163641,-0.00491541,-0.00284994,0.00099011,0.00099535,0.00018820,0.00
 195010,0.00094405,0.00125221,-0.00101394,0.00093390,0.00035306,0.00043
 717,-0.00008246,-0.00002062,0.00046418,-0.00007059,-0.00011268,-0.0001
 1907,-0.00002480,0.00005187,-0.00026767,-0.00036338,-0.00005321,0.4517
 3576,0.20573660,-0.11905505,-0.03835570,-0.03167162,0.00740192,0.00244
 848,-0.00163109,-0.00375457,-0.00217312,0.00000668,-0.00002043,-0.0006
 1975,-0.00055665,0.00060311,0.00046260,-0.00192129,0.00071873,-0.00011
 583,0.00005838,-0.00009809,0.00016866,-0.00011349,0.00027726,-0.000202
 45,0.00008548,0.00006169,0.00005730,-0.00043282,-0.00032736,-0.0000091
 8,-0.17030335,0.11462207,0.06150475,-0.04220089,-0.01581273,-0.0165296
 9,0.00529149,-0.00068545,0.00028469,-0.00100338,-0.00136655,-0.0007086
 3,0.00035055,0.00005768,0.00038211,-0.00073607,0.00057553,-0.00054199,
 -0.00016590,0.00045797,-0.00021119,0.00010271,0.00035812,0.00016024,-0
 .00015708,-0.00009730,-0.00007501,-0.00005389,-0.00001074,-0.00010901,
 -0.00009406,0.00016758,-0.04367217,0.03797952,0.01678756,-0.00464736,-
 0.00072703,-0.00198477,0.00072617,-0.00202005,0.00179700,0.00007658,-0
 .00138218,0.00067945,0.00004918,-0.00077938,-0.00065666,-0.00041355,0.
 00002047,-0.00061349,0.00019778,0.00079423,-0.00034265,0.00008824,0.00
 042397,-0.00044975,-0.00175074,0.00021669,0.00041800,0.00020506,0.0001
 4615,0.00003794,-0.00000782,0.00000762,0.00001350,0.00033863,0.0018613
 9,-0.00076029,1.07614693,0.00001349,0.00362328,-0.00398451,-0.00304499
 ,-0.00332130,-0.00053222,-0.00055433,-0.00029183,0.00075725,0.00033579
 ,-0.00030606,0.00001913,0.00062677,0.00094161,-0.00020336,0.00067678,0
 .00036350,-0.00016896,0.00011909,0.00021587,-0.00028866,-0.00092684,0.
 00004865,0.00025435,0.00007794,0.00007204,0.00004223,0.00010400,0.0000
 9795,-0.00004022,0.00136448,-0.00026805,0.00078520,0.44260761,0.347564
 71,-0.00302055,-0.00323346,-0.00159691,0.00253124,-0.00018540,0.002490
 93,0.00056608,-0.00111291,0.00006715,-0.00021551,-0.00077931,-0.000761
 80,-0.00083690,-0.00061256,-0.00058299,-0.00021113,0.00047377,-0.00027
 703,0.00001570,0.00032648,-0.00033682,-0.00088815,0.00053278,0.0002241
 0,0.00014661,0.00008630,0.00001530,-0.00006113,-0.00003664,0.00004681,
 -0.00054200,0.00070721,-0.00026482,0.74340062,0.36123094,0.73598914,0.
 00118515,-0.00053071,0.00062270,0.00006443,0.00048305,-0.00043679,0.00
 010165,0.00047122,-0.00025499,-0.00006683,0.00031688,0.00028977,-0.000
 01862,-0.00013029,0.00023451,-0.00014395,-0.00028585,0.00012693,-0.000
 04546,-0.00017542,0.00018694,0.00064973,-0.00009476,-0.00020717,-0.000
 07111,-0.00004486,-0.00001207,-0.00000712,-0.00000944,-0.00000735,-0.0
 0029373,-0.00066799,0.00019454,-0.53685904,-0.22921229,-0.36520744,0.5
 7331633,-0.00216056,-0.00417577,0.00083402,0.00126539,0.00021688,0.000
 98622,0.00024016,0.00005031,-0.00025490,-0.00010283,0.00005605,-0.0000
 1674,-0.00046859,-0.00047578,-0.00003230,-0.00026654,-0.00010106,0.000
 04645,-0.00003238,-0.00008542,0.00010616,0.00029815,-0.00000771,-0.000
 11661,-0.00001503,-0.00001520,-0.00001302,-0.00004304,-0.00003564,0.00
 000951,-0.00045118,0.00019723,-0.00019190,-0.22949463,-0.18242466,-0.1
 8279807,0.26573248,0.16950316,0.00216628,0.00230981,0.00088565,-0.0009
 0136,0.00049581,-0.00110846,-0.00017000,0.00057567,-0.00016963,0.00000
 390,0.00030169,0.00034437,0.00030496,0.00018179,0.00028644,0.00001928,
 -0.00027268,0.00015333,-0.00001483,-0.00018412,0.00018195,0.00053585,-
 0.00024510,-0.00012097,-0.00007906,-0.00004935,-0.00001405,0.00001792,
 0.00000866,-0.00002005,-0.00000810,-0.00042836,0.00013141,-0.36578741,
 -0.18269296,-0.35863022,0.42290227,0.20747807,0.37000661,0.00159685,0.
 00088954,0.00012272,-0.00093570,0.00049345,-0.00089188,-0.00046088,0.0
 0113007,-0.00027054,-0.00003945,0.00034564,0.00037865,0.00030085,0.000
 04605,0.00030200,-0.00001629,-0.00053371,0.00022685,-0.00000640,-0.000
 37102,0.00032054,0.00079978,-0.00077711,0.00004599,-0.00015327,-0.0001
 0533,-0.00003404,0.00002973,0.00001741,-0.00001953,0.00003953,-0.00045
 021,0.00008166,-0.53415006,-0.21218750,-0.37567742,-0.03781144,-0.0345
 0139,-0.05898971,0.57080675,0.00127956,-0.00288885,0.00353136,0.000739
 58,0.00114165,-0.00018795,0.00002534,0.00050637,-0.00027809,-0.0001020
 7,0.00053362,0.00033572,-0.00003393,-0.00021144,0.00027530,-0.00022482
 ,-0.00029774,0.00011981,-0.00005668,-0.00021183,0.00023314,0.00046600,
 -0.00063322,0.00008835,-0.00008484,-0.00006228,-0.00003027,-0.00003351
 ,-0.00003638,0.00002498,-0.00045183,-0.00035847,0.00009372,-0.21167486
 ,-0.16631569,-0.17459913,-0.03585202,0.01729762,-0.02747893,0.24600409
 ,0.15153663,-0.00035176,0.00290384,-0.00141418,-0.00107754,-0.00046905
 ,-0.00105489,0.00008618,-0.00001662,0.00013226,0.00008110,0.00022988,0
 .00036977,0.00028158,0.00025095,0.00026894,0.00011306,0.00001724,0.000
 03708,-0.00003776,-0.00001595,0.00003698,0.00027772,0.00034153,-0.0003
 9915,-0.00000176,0.00000258,0.00001261,0.00001945,0.00001807,-0.000031
 63,0.00038834,0.00008063,-0.00029828,-0.37575148,-0.17517819,-0.376382
 85,-0.05843186,-0.02603688,-0.01192637,0.43440473,0.19787198,0.3906497
 0\\-0.00000030,0.00000219,0.00000160,0.00000158,0.00000041,-0.00000009
 ,0.00000036,-0.00000199,-0.00000142,0.00000121,0.00000037,-0.00000037,
 0.00000120,-0.00000012,-0.00000013,0.00000271,-0.00000415,-0.00000268,
 -0.00000032,-0.00000093,-0.00000104,-0.00000030,-0.00000105,-0.0000005
 7,0.00000136,-0.00000094,-0.00000146,0.00000080,-0.00000225,-0.0000015
 1,0.00000013,0.00000127,0.00000083,-0.00000234,0.00000279,0.00000188,-
 0.00002455,-0.00000602,-0.00001208,0.00001847,0.00001042,0.00001706\\\
 @
 The archive entry for this job was punched.


 ASKING DUMB QUESTIONS IS EASIER THAN CORECTING DUMB MISTAKES.
 Job cpu time:       0 days  0 hours 20 minutes 16.2 seconds.
 Elapsed time:       0 days  0 hours 10 minutes 11.2 seconds.
 File lengths (MBytes):  RWF=    124 Int=      0 D2E=      0 Chk=     15 Scr=      1
 Normal termination of Gaussian 16 at Mon Jun 12 10:41:09 2023.
