 Entering Gaussian System, Link 0=g16
 Input=EDA-H_dissociation-site_index-0-freq.gjf
 Output=EDA-H_dissociation-site_index-0-freq.log
 Initial command:
 /software/commercial/gaussian/g16/AVX/g16/l1.exe "/scratch1/svicchi/G09-659887.pbs02/Gau-2060477.inp" -scrdir="/scratch1/svicchi/G09-659887.pbs02/"
 Entering Link 1 = /software/commercial/gaussian/g16/AVX/g16/l1.exe PID=   2060478.
  
 Copyright (c) 1988-2019, Gaussian, Inc.  All Rights Reserved.
  
 This is part of the Gaussian(R) 16 program.  It is based on
 the Gaussian(R) 09 system (copyright 2009, Gaussian, Inc.),
 the Gaussian(R) 03 system (copyright 2003, Gaussian, Inc.),
 the Gaussian(R) 98 system (copyright 1998, Gaussian, Inc.),
 the Gaussian(R) 94 system (copyright 1995, Gaussian, Inc.),
 the Gaussian 92(TM) system (copyright 1992, Gaussian, Inc.),
 the Gaussian 90(TM) system (copyright 1990, Gaussian, Inc.),
 the Gaussian 88(TM) system (copyright 1988, Gaussian, Inc.),
 the Gaussian 86(TM) system (copyright 1986, Carnegie Mellon
 University), and the Gaussian 82(TM) system (copyright 1983,
 Carnegie Mellon University). Gaussian is a federally registered
 trademark of Gaussian, Inc.
  
 This software contains proprietary and confidential information,
 including trade secrets, belonging to Gaussian, Inc.
  
 This software is provided under written license and may be
 used, copied, transmitted, or stored only in accord with that
 written license.
  
 The following legend is applicable only to US Government
 contracts under FAR:
  
                    RESTRICTED RIGHTS LEGEND
  
 Use, reproduction and disclosure by the US Government is
 subject to restrictions as set forth in subparagraphs (a)
 and (c) of the Commercial Computer Software - Restricted
 Rights clause in FAR 52.227-19.
  
 Gaussian, Inc.
 340 Quinnipiac St., Bldg. 40, Wallingford CT 06492
  
  
 ---------------------------------------------------------------
 Warning -- This program may not be used in any manner that
 competes with the business of Gaussian, Inc. or will provide
 assistance to any competitor of Gaussian, Inc.  The licensee
 of this program is prohibited from giving any competitor of
 Gaussian, Inc. access to this program.  By using this program,
 the user acknowledges that Gaussian, Inc. is engaged in the
 business of creating and licensing software in the field of
 computational chemistry and represents and warrants to the
 licensee that it is not a competitor of Gaussian, Inc. and that
 it will not use this program in any manner prohibited above.
 ---------------------------------------------------------------
  

 Cite this work as:
 Gaussian 16, Revision C.01,
 M. J. Frisch, G. W. Trucks, H. B. Schlegel, G. E. Scuseria, 
 M. A. Robb, J. R. Cheeseman, G. Scalmani, V. Barone, 
 G. A. Petersson, H. Nakatsuji, X. Li, M. Caricato, A. V. Marenich, 
 J. Bloino, B. G. Janesko, R. Gomperts, B. Mennucci, H. P. Hratchian, 
 J. V. Ortiz, A. F. Izmaylov, J. L. Sonnenberg, D. Williams-Young, 
 F. Ding, F. Lipparini, F. Egidi, J. Goings, B. Peng, A. Petrone, 
 T. Henderson, D. Ranasinghe, V. G. Zakrzewski, J. Gao, N. Rega, 
 G. Zheng, W. Liang, M. Hada, M. Ehara, K. Toyota, R. Fukuda, 
 J. Hasegawa, M. Ishida, T. Nakajima, Y. Honda, O. Kitao, H. Nakai, 
 T. Vreven, K. Throssell, J. A. Montgomery, Jr., J. E. Peralta, 
 F. Ogliaro, M. J. Bearpark, J. J. Heyd, E. N. Brothers, K. N. Kudin, 
 V. N. Staroverov, T. A. Keith, R. Kobayashi, J. Normand, 
 K. Raghavachari, A. P. Rendell, J. C. Burant, S. S. Iyengar, 
 J. Tomasi, M. Cossi, J. M. Millam, M. Klene, C. Adamo, R. Cammi, 
 J. W. Ochterski, R. L. Martin, K. Morokuma, O. Farkas, 
 J. B. Foresman, and D. J. Fox, Gaussian, Inc., Wallingford CT, 2019.
 
 ******************************************
 Gaussian 16:  ES64L-G16RevC.01  3-Jul-2019
                 2-Jun-2023 
 ******************************************
 %NProcShared=2
 Will use up to    2 processors via shared memory.
 %mem=55gb
 %chk=/scratch1/svicchi/G09-659887.pbs02/02-freq/EDA-H_dissociation-site_index-0-
 freq.chk
 ----------------------------------------------------------------------
 #p freq=raman scale=0.967 pop=(nbo,full,hirshfeld) guess=read geom=all
 check b3lyp/6-311+G(d,p) int=grid=ultrafine EmpiricalDispersion=GD3BJ 
 SCRF=(Solvent=ethanol) scf=(xqc,intrep,maxconventionalcycle=350) nosym
 m
 ----------------------------------------------------------------------
 1/10=4,29=7,30=1,38=1,114=967000/1,3;
 2/12=2,15=1,40=1/2;
 3/5=4,6=6,7=111,11=2,14=-4,25=1,30=1,70=2201,71=2,72=4,74=-5,75=-5,116=-2,124=41,140=1/1,2,3;
 4/5=1/1;
 5/5=2,8=3,13=1,17=20,38=6,53=4,85=350,98=1/2,8;
 8/6=4,10=90,11=11/1;
 10/13=10,15=4,31=1/2;
 11/6=3,8=1,9=11,15=111,16=1,31=1/1,2,10;
 10/6=1,31=1/2;
 6/7=3,28=1,40=1,79=1/1,7;
 7/8=1,10=1,25=1,30=1/1,2,3,16;
 1/10=4,30=1/3;
 99//99;
 Leave Link    1 at Fri Jun  2 11:24:43 2023, MaxMem=  7381975040 cpu:               2.4 elap:               2.6
 (Enter /software/commercial/gaussian/g16/AVX/g16/l101.exe)
 Structure from the checkpoint file:  "/scratch1/svicchi/G09-659887.pbs02/02-freq/EDA-H_dissociation-site_index-0-freq.chk"
 -----------------------------------
 EDA-H_dissociation-site_index-0.gjf
 -----------------------------------
 Charge = -1 Multiplicity = 1
 No Z-Matrix found in chk file; cartesian coordinates used.
  N                                                 2.056916668202     -0.835104928206      0.111690786897
  C                                                 3.096239924609      0.173611709569      0.051270894943
  C                                                 4.541453116167     -0.356170410993     -0.049953733162
  H                                                 3.051580055822      0.796950647237      0.958850425157
  H                                                 2.990570369956      0.898672766759     -0.793968504117
  N                                                 5.532067500199      0.740343826016     -0.108773942096
  H                                                 4.599217098153     -1.025186531816     -0.924413138687
  H                                                 4.758469233857     -0.966057566559      0.833578853310
  H                                                 5.361621604055      1.304608845475     -0.937812754013
  H                                                 6.471647391306      0.366845562072     -0.211477163144
  H                                                 2.064036037674     -1.318769919554     -0.791052725088
 Recover connectivity data from disk.
 ITRead=  0  0  0  0  0  0  0  0  0  0  0
 MicOpt= -1 -1 -1 -1 -1 -1 -1 -1 -1 -1 -1
 NAtoms=     11 NQM=       11 NQMF=       0 NMMI=      0 NMMIF=      0
                NMic=       0 NMicF=      0.
                    Isotopes and Nuclear Properties:
 (Nuclear quadrupole moments (NQMom) in fm**2, nuclear magnetic moments (NMagM)
  in nuclear magnetons)

  Atom         1           2           3           4           5           6           7           8           9          10
 IAtWgt=          14          12          12           1           1          14           1           1           1           1
 AtmWgt=  14.0030740  12.0000000  12.0000000   1.0078250   1.0078250  14.0030740   1.0078250   1.0078250   1.0078250   1.0078250
 NucSpn=           2           0           0           1           1           2           1           1           1           1
 AtZEff=   4.5500000   3.6000000   3.6000000   1.0000000   1.0000000   4.5500000   1.0000000   1.0000000   1.0000000   1.0000000
 NQMom=    2.0440000   0.0000000   0.0000000   0.0000000   0.0000000   2.0440000   0.0000000   0.0000000   0.0000000   0.0000000
 NMagM=    0.4037610   0.0000000   0.0000000   2.7928460   2.7928460   0.4037610   2.7928460   2.7928460   2.7928460   2.7928460
 AtZNuc=   7.0000000   6.0000000   6.0000000   1.0000000   1.0000000   7.0000000   1.0000000   1.0000000   1.0000000   1.0000000

  Atom        11
 IAtWgt=           1
 AtmWgt=   1.0078250
 NucSpn=           1
 AtZEff=   1.0000000
 NQMom=    0.0000000
 NMagM=    2.7928460
 AtZNuc=   1.0000000
 Leave Link  101 at Fri Jun  2 11:24:46 2023, MaxMem=  7381975040 cpu:               0.5 elap:               1.5
 (Enter /software/commercial/gaussian/g16/AVX/g16/l103.exe)

 GradGradGradGradGradGradGradGradGradGradGradGradGradGradGradGradGradGrad
 Berny optimization.
 Initialization pass.
 Trust Radius=3.00D-01 FncErr=1.00D-07 GrdErr=1.00D-07 EigMax=2.50D+02 EigMin=1.00D-04
 Number of steps in this run=      2 maximum allowed number of steps=      2.
 GradGradGradGradGradGradGradGradGradGradGradGradGradGradGradGradGradGrad

 Leave Link  103 at Fri Jun  2 11:24:49 2023, MaxMem=  7381975040 cpu:               0.4 elap:               1.4
 (Enter /software/commercial/gaussian/g16/AVX/g16/l202.exe)
                          Input orientation:                          
 ---------------------------------------------------------------------
 Center     Atomic      Atomic             Coordinates (Angstroms)
 Number     Number       Type             X           Y           Z
 ---------------------------------------------------------------------
      1          7           0        2.056917   -0.835105    0.111691
      2          6           0        3.096240    0.173612    0.051271
      3          6           0        4.541453   -0.356170   -0.049954
      4          1           0        3.051580    0.796951    0.958850
      5          1           0        2.990570    0.898673   -0.793969
      6          7           0        5.532068    0.740344   -0.108774
      7          1           0        4.599217   -1.025187   -0.924413
      8          1           0        4.758469   -0.966058    0.833579
      9          1           0        5.361622    1.304609   -0.937813
     10          1           0        6.471647    0.366846   -0.211477
     11          1           0        2.064036   -1.318770   -0.791053
 ---------------------------------------------------------------------
                    Distance matrix (angstroms):
                    1          2          3          4          5
     1  N    0.000000
     2  C    1.449604   0.000000
     3  C    2.535435   1.542581   0.000000
     4  H    2.090608   1.101929   2.137076   0.000000
     5  H    2.167467   1.118619   2.129185   1.756828   0.000000
     6  N    3.821952   2.506004   1.478892   2.701082   2.637000
     7  H    2.751896   2.155926   1.102542   3.043361   2.511174
     8  H    2.799403   2.161911   1.095303   2.457104   3.041644
     9  H    4.074421   2.718344   2.054059   3.031722   2.409846
    10  H    4.586826   3.391128   2.067484   3.640263   3.569318
    11  H    1.024172   2.000539   2.759243   2.917821   2.403232
                    6          7          8          9         10
     6  N    0.000000
     7  H    2.156983   0.000000
     8  H    2.097210   1.766180   0.000000
     9  H    1.017228   2.451405   2.942371   0.000000
    10  H    1.016297   2.439677   2.409098   1.624537   0.000000
    11  H    4.090562   2.555605   3.166039   4.216364   4.754392
                   11
    11  H    0.000000
 Symmetry turned off by external request.
 Stoichiometry    C2H7N2(1-)
 Framework group  C1[X(C2H7N2)]
 Deg. of freedom    27
 Full point group                 C1      NOp   1
 Rotational constants (GHZ):          28.6442004           3.8699126           3.6348503
 Leave Link  202 at Fri Jun  2 11:24:53 2023, MaxMem=  7381975040 cpu:               0.0 elap:               1.3
 (Enter /software/commercial/gaussian/g16/AVX/g16/l301.exe)
 Standard basis: 6-311+G(d,p) (5D, 7F)
 Ernie: Thresh=  0.10000D-02 Tol=  0.10000D-05 Strict=F.
   130 basis functions,   200 primitive gaussians,   134 cartesian basis functions
    17 alpha electrons       17 beta electrons
       nuclear repulsion energy       122.6380048174 Hartrees.
 IExCor=  402 DFT=T Ex+Corr=B3LYP ExCW=0 ScaHFX=  0.200000
 ScaDFX=  0.800000  0.720000  1.000000  0.810000 ScalE2=  1.000000  1.000000
 IRadAn=      5 IRanWt=     -1 IRanGd=            0 ICorTp=0 IEmpDi=141
 NAtoms=   11 NActive=   11 NUniq=   11 SFac= 1.00D+00 NAtFMM=   60 NAOKFM=F Big=F
 Integral buffers will be    131072 words long.
 Raffenetti 2 integral format.
 Two-electron integral symmetry is turned off.
 R6Disp:  Grimme-D3(BJ) Dispersion energy=       -0.0110498614 Hartrees.
 Nuclear repulsion after empirical dispersion term =      122.6269549560 Hartrees.
 Force inversion solution in PCM.
 ------------------------------------------------------------------------------
 Polarizable Continuum Model (PCM)
 =================================
 Model                : PCM.
 Atomic radii         : UFF (Universal Force Field).
 Polarization charges : Total charges.
 Charge compensation  : None.
 Solution method      : Matrix inversion.
 Cavity type          : Scaled VdW (van der Waals Surface) (Alpha=1.100).
 Cavity algorithm     : GePol (No added spheres)
                        Default sphere list used, NSphG=   11.
                        Lebedev-Laikov grids with approx.  5.0 points / Ang**2.
                        Smoothing algorithm: York/Karplus (Gamma=1.0000).
                        Polarization charges: spherical gaussians, with
                                              point-specific exponents (IZeta= 3).
                        Self-potential: point-specific (ISelfS= 7).
                        Self-field    : sphere-specific E.n sum rule (ISelfD= 2).
 1st derivatives      : Analytical E(r).r(x)/FMM algorithm (CHGder, D1EAlg=3).
                        Cavity 1st derivative terms included.
 2nd derivatives      : Analytical E(r).r(xy)/FMM algorithm (CHGder, D2EAlg=3).
                        Cavity 2nd derivative terms included.
 Solvent              : Ethanol, Eps=  24.852000 Eps(inf)=   1.852593
 ------------------------------------------------------------------------------
 Spheres list:
 ISph  on   Nord     Re0    Alpha      Xe            Ye            Ze
    1   N      1    1.8300  1.100      2.056917     -0.835105      0.111691
    2   C      2    1.9255  1.100      3.096240      0.173612      0.051271
    3   C      3    1.9255  1.100      4.541453     -0.356170     -0.049954
    4   H      4    1.4430  1.100      3.051580      0.796951      0.958850
    5   H      5    1.4430  1.100      2.990570      0.898673     -0.793969
    6   N      6    1.8300  1.100      5.532068      0.740344     -0.108774
    7   H      7    1.4430  1.100      4.599217     -1.025187     -0.924413
    8   H      8    1.4430  1.100      4.758469     -0.966058      0.833579
    9   H      9    1.4430  1.100      5.361622      1.304609     -0.937813
   10   H     10    1.4430  1.100      6.471647      0.366846     -0.211477
   11   H     11    1.4430  1.100      2.064036     -1.318770     -0.791053
 ------------------------------------------------------------------------------
 GePol: Number of generator spheres                  =      11
 GePol: Total number of spheres                      =      11
 GePol: Number of exposed spheres                    =      11 (100.00%)
 GePol: Number of points                             =     950
 GePol: Average weight of points                     =       0.14
 GePol: Minimum weight of points                     =   0.67D-09
 GePol: Maximum weight of points                     =    0.20577
 GePol: Number of points with low weight             =      64
 GePol: Fraction of low-weight points (<1% of avg)   =       6.74%
 GePol: Cavity surface area                          =    130.461 Ang**2
 GePol: Cavity volume                                =    113.705 Ang**3
 Leave Link  301 at Fri Jun  2 11:24:56 2023, MaxMem=  7381975040 cpu:               2.1 elap:               2.8
 (Enter /software/commercial/gaussian/g16/AVX/g16/l302.exe)
 NPDir=0 NMtPBC=     1 NCelOv=     1 NCel=       1 NClECP=     1 NCelD=      1
         NCelK=      1 NCelE2=     1 NClLst=     1 CellRange=     0.0.
 One-electron integrals computed using PRISM.
 NBasis=   130 RedAO= T EigKep=  9.16D-05  NBF=   130
 NBsUse=   130 1.00D-06 EigRej= -1.00D+00 NBFU=   130
 Precomputing XC quadrature grid using
 IXCGrd= 4 IRadAn=           5 IRanWt=          -1 IRanGd=           0 AccXCQ= 0.00D+00.
 Generated NRdTot=       0 NPtTot=           0 NUsed=           0 NTot=          32
 NSgBfM=   134   134   134   134   134 MxSgAt=    11 MxSgA2=    11.
 Leave Link  302 at Fri Jun  2 11:25:00 2023, MaxMem=  7381975040 cpu:               2.1 elap:               2.4
 (Enter /software/commercial/gaussian/g16/AVX/g16/l303.exe)
 DipDrv:  MaxL=1.
 Leave Link  303 at Fri Jun  2 11:25:03 2023, MaxMem=  7381975040 cpu:               0.1 elap:               0.8
 (Enter /software/commercial/gaussian/g16/AVX/g16/l401.exe)
 Initial guess from the checkpoint file:  "/scratch1/svicchi/G09-659887.pbs02/02-freq/EDA-H_dissociation-site_index-0-freq.chk"
 B after Tr=     0.000000    0.000000    0.000000
         Rot=    1.000000    0.000000    0.000000    0.000000 Ang=   0.00 deg.
 Guess basis will be translated and rotated to current coordinates.
 JPrj=2 DoOrth=T DoCkMO=T.
 Leave Link  401 at Fri Jun  2 11:25:07 2023, MaxMem=  7381975040 cpu:               0.5 elap:               2.5
 (Enter /software/commercial/gaussian/g16/AVX/g16/l502.exe)
 Keep R1 ints in memory in canonical form, NReq=38177834.
 FoFCou: FMM=F IPFlag=           0 FMFlag=           0 FMFlg1=           0
         NFxFlg=           0 DoJE=F BraDBF=F KetDBF=F FulRan=T
         wScrn=  0.000000 ICntrl=       600 IOpCl=  0 I1Cent=           0 NGrid=           0
         NMat0=    1 NMatS0=   8515 NMatT0=    0 NMatD0=    1 NMtDS0=    0 NMtDT0=    0
 Symmetry not used in FoFCou.
 Two-electron integral symmetry not used.
 Closed shell SCF:
 Using DIIS extrapolation, IDIIS=  1040.
 NGot=  7381975040 LenX=  7345680024 LenY=  7345661627
 Requested convergence on RMS density matrix=1.00D-08 within 350 cycles.
 Requested convergence on MAX density matrix=1.00D-06.
 Requested convergence on             energy=1.00D-06.
 No special actions if energy rises.

 Cycle   1  Pass 1  IDiag  1:
 Inv3:  Mode=1 IEnd=     2707500.
 Iteration    1 A*A^-1 deviation from unit magnitude is 2.89D-15 for    934.
 Iteration    1 A*A^-1 deviation from orthogonality  is 1.67D-15 for    747    356.
 Iteration    1 A^-1*A deviation from unit magnitude is 2.89D-15 for    934.
 Iteration    1 A^-1*A deviation from orthogonality  is 1.46D-15 for    889    671.
 E= -190.056824856143    
 DIIS: error= 2.87D-09 at cycle   1 NSaved=   1.
 NSaved= 1 IEnMin= 1 EnMin= -190.056824856143     IErMin= 1 ErrMin= 2.87D-09
 ErrMax= 2.87D-09  0.00D+00 EMaxC= 1.00D-01 BMatC= 1.24D-15 BMatP= 1.24D-15
 IDIUse=1 WtCom= 1.00D+00 WtEn= 0.00D+00
 Coeff-Com:  0.100D+01
 Coeff:      0.100D+01
 Gap=     0.147 Goal=   None    Shift=    0.000
 RMSDP=5.94D-10 MaxDP=1.64D-08              OVMax= 2.01D-08

 Error on total polarization charges =  0.03225
 SCF Done:  E(RB3LYP) =  -190.056824856     A.U. after    1 cycles
            NFock=  1  Conv=0.59D-09     -V/T= 2.0049
 KE= 1.891309763802D+02 PE=-6.948890824225D+02 EE= 1.930743262301D+02
 Leave Link  502 at Fri Jun  2 11:25:18 2023, MaxMem=  7381975040 cpu:              14.3 elap:              10.5
 (Enter /software/commercial/gaussian/g16/AVX/g16/l508.exe)
 QCSCF skips out because SCF is already converged.
 Leave Link  508 at Fri Jun  2 11:25:21 2023, MaxMem=  7381975040 cpu:               0.0 elap:               1.6
 (Enter /software/commercial/gaussian/g16/AVX/g16/l801.exe)
 DoSCS=F DFT=T ScalE2(SS,OS)=  1.000000  1.000000
 Range of M.O.s used for correlation:     1   130
 NBasis=   130 NAE=    17 NBE=    17 NFC=     0 NFV=     0
 NROrb=    130 NOA=    17 NOB=    17 NVA=   113 NVB=   113

 **** Warning!!: The largest alpha MO coefficient is  0.29646417D+02

 Leave Link  801 at Fri Jun  2 11:25:24 2023, MaxMem=  7381975040 cpu:               0.1 elap:               1.0
 (Enter /software/commercial/gaussian/g16/AVX/g16/l1002.exe)
 Minotr:  Closed shell wavefunction.
 NEqPCM:  Using equilibrium solvation (IEInf=0, Eps=  24.8520, EpsInf=   1.8526)
          Direct CPHF calculation.
          Differentiating once with respect to electric field.
                with respect to dipole field.
          Electric field/nuclear overlap derivatives assumed to be zero.
          Requested convergence is 1.0D-08 RMS, and 1.0D-07 maximum.
          Secondary convergence is 1.0D-12 RMS, and 1.0D-12 maximum.
          NewPWx=F KeepS1=T KeepF1=T KeepIn=T MapXYZ=F SortEE=F KeepMc=T.
         3342 words used for storage of precomputed grid.
 Keep R1 ints in memory in canonical form, NReq=39794576.
 FoFCou: FMM=F IPFlag=           0 FMFlag=           0 FMFlg1=           0
         NFxFlg=           0 DoJE=F BraDBF=F KetDBF=F FulRan=T
         wScrn=  0.000000 ICntrl=       600 IOpCl=  0 I1Cent=           0 NGrid=           0
         NMat0=    1 NMatS0=   8515 NMatT0=    0 NMatD0=    1 NMtDS0=    0 NMtDT0=    0
 Symmetry not used in FoFCou.
 Two-electron integral symmetry not used.
          MDV=    7381975040 using IRadAn=       1.
          Solving linear equations simultaneously, MaxMat=       0.
          There are     3 degrees of freedom in the 1st order CPHF.  IDoFFX=0 NUNeed=     3.
      3 vectors produced by pass  0 Test12= 6.40D-14 3.33D-08 XBig12= 5.43D+01 3.00D+00.
 AX will form     3 AO Fock derivatives at one time.
      3 vectors produced by pass  1 Test12= 6.40D-14 3.33D-08 XBig12= 4.75D+00 6.17D-01.
      3 vectors produced by pass  2 Test12= 6.40D-14 3.33D-08 XBig12= 2.00D+00 4.27D-01.
      3 vectors produced by pass  3 Test12= 6.40D-14 3.33D-08 XBig12= 1.24D-01 1.05D-01.
      3 vectors produced by pass  4 Test12= 6.40D-14 3.33D-08 XBig12= 1.02D-02 2.34D-02.
      3 vectors produced by pass  5 Test12= 6.40D-14 3.33D-08 XBig12= 1.29D-03 1.09D-02.
      3 vectors produced by pass  6 Test12= 6.40D-14 3.33D-08 XBig12= 6.41D-05 1.71D-03.
      3 vectors produced by pass  7 Test12= 6.40D-14 3.33D-08 XBig12= 1.95D-06 2.69D-04.
      3 vectors produced by pass  8 Test12= 6.40D-14 3.33D-08 XBig12= 5.82D-08 3.95D-05.
      3 vectors produced by pass  9 Test12= 6.40D-14 3.33D-08 XBig12= 2.01D-09 9.18D-06.
      3 vectors produced by pass 10 Test12= 6.40D-14 3.33D-08 XBig12= 4.42D-11 1.23D-06.
      2 vectors produced by pass 11 Test12= 6.40D-14 3.33D-08 XBig12= 1.01D-12 1.72D-07.
 InvSVY:  IOpt=1 It=  1 EMax= 8.88D-16
 Solved reduced A of dimension    35 with     3 vectors.
 End of Minotr F.D. properties file   721 does not exist.
 End of Minotr F.D. properties file   722 does not exist.
 End of Minotr F.D. properties file   788 does not exist.
 Leave Link 1002 at Fri Jun  2 11:26:05 2023, MaxMem=  7381975040 cpu:              63.3 elap:              40.3
 (Enter /software/commercial/gaussian/g16/AVX/g16/l1101.exe)
 Using compressed storage, NAtomX=    11.
 Will process     12 centers per pass.
 R6Disp: Adding Grimme-D3(BJ) dispersion energy 1st derivatives to the gradient.
 Leave Link 1101 at Fri Jun  2 11:26:07 2023, MaxMem=  7381975040 cpu:               0.9 elap:               1.4
 (Enter /software/commercial/gaussian/g16/AVX/g16/l1102.exe)
 Symmetrizing basis deriv contribution to polar:
 IMax=3 JMax=2 DiffMx= 0.00D+00
 Leave Link 1102 at Fri Jun  2 11:26:10 2023, MaxMem=  7381975040 cpu:               0.1 elap:               1.0
 (Enter /software/commercial/gaussian/g16/AVX/g16/l1110.exe)
 Forming Gx(P) for the SCF density, NAtomX=    11.
 Integral derivatives from FoFJK, PRISM(SPDF).
 Do as many integral derivatives as possible in FoFJK.
 G2DrvN: MDV=    7381973771.
 G2DrvN: will do    12 centers at a time, making    1 passes.
 PxScal for G2LodP:  IOpCl= 0 ISclPx=1 IMOff=     1 NMtTot=     4 NTT=    8515 ScalPx= 1.84D+01
 Calling FoFCou, ICntrl=  3107 FMM=F I1Cent=   0 AccDes= 0.00D+00.
 FoFJK:  IHMeth= 1 ICntrl=    3107 DoSepK=F KAlg= 0 I1Cent=           0 FoldK=F
 IRaf=         0 NMat=       1 IRICut=       1 DoRegI=T DoRafI=F ISym2E= 0 IDoP0=0 IntGTp=1.
 FoFCou: FMM=F IPFlag=           0 FMFlag=      100000 FMFlg1=           0
         NFxFlg=           0 DoJE=F BraDBF=F KetDBF=F FulRan=T
         wScrn=  0.000000 ICntrl=      3107 IOpCl=  0 I1Cent=           0 NGrid=           0
         NMat0=    1 NMatS0=      1 NMatT0=    0 NMatD0=    4 NMtDS0=    3 NMtDT0=    0
 Symmetry not used in FoFCou.
 PxScal for G2LodP:  IOpCl= 0 ISclPx=0 IMOff=     1 NMtTot=     4 NTT=    8515 ScalPx= 1.00D+00
 NEqPCM:  Using equilibrium solvation (IEInf=0, Eps=  24.8520, EpsInf=   1.8526)
 G2PCM: DoFxE=T DoFxN=T DoGrad=T DoDP/DQ/DG/TGxP=TFFF NFrqRd=   0 IEInf=0 SqF1=F DoCFld=F IF1Alg=4.
 GePol: Maximum number of non-zero 1st derivatives   =     219
 End of G2Drv F.D. properties file   721 does not exist.
 End of G2Drv F.D. properties file   722 does not exist.
 End of G2Drv F.D. properties file   788 does not exist.
 Leave Link 1110 at Fri Jun  2 11:27:34 2023, MaxMem=  7381975040 cpu:             160.7 elap:              83.8
 (Enter /software/commercial/gaussian/g16/AVX/g16/l1002.exe)
 Minotr:  Closed shell wavefunction.
          IDoAtm=11111111111
 NEqPCM:  Using equilibrium solvation (IEInf=0, Eps=  24.8520, EpsInf=   1.8526)
          Direct CPHF calculation.
          Differentiating once with respect to electric field.
                with respect to dipole field.
          Differentiating once with respect to nuclear coordinates.
          Requested convergence is 1.0D-08 RMS, and 1.0D-07 maximum.
          Secondary convergence is 1.0D-12 RMS, and 1.0D-12 maximum.
          NewPWx=T KeepS1=F KeepF1=F KeepIn=T MapXYZ=F SortEE=F KeepMc=T.
         3342 words used for storage of precomputed grid.
 Keep R1 ints in memory in canonical form, NReq=39794829.
 FoFCou: FMM=F IPFlag=           0 FMFlag=           0 FMFlg1=           0
         NFxFlg=           0 DoJE=F BraDBF=F KetDBF=F FulRan=T
         wScrn=  0.000000 ICntrl=       600 IOpCl=  0 I1Cent=           0 NGrid=           0
         NMat0=    1 NMatS0=   8515 NMatT0=    0 NMatD0=    1 NMtDS0=    0 NMtDT0=    0
 Symmetry not used in FoFCou.
 Two-electron integral symmetry not used.
          MDV=    7381975040 using IRadAn=       1.
          Solving linear equations simultaneously, MaxMat=       0.
          There are    36 degrees of freedom in the 1st order CPHF.  IDoFFX=5 NUNeed=    36.
 Will reuse    3 saved solutions.
     30 vectors produced by pass  0 Test12= 5.34D-15 2.78D-09 XBig12= 8.86D-02 6.74D-02.
 AX will form    30 AO Fock derivatives at one time.
     30 vectors produced by pass  1 Test12= 5.34D-15 2.78D-09 XBig12= 6.12D-03 2.31D-02.
     30 vectors produced by pass  2 Test12= 5.34D-15 2.78D-09 XBig12= 1.44D-04 2.47D-03.
     30 vectors produced by pass  3 Test12= 5.34D-15 2.78D-09 XBig12= 5.31D-07 1.56D-04.
     30 vectors produced by pass  4 Test12= 5.34D-15 2.78D-09 XBig12= 1.35D-09 5.75D-06.
     24 vectors produced by pass  5 Test12= 5.34D-15 2.78D-09 XBig12= 1.80D-12 2.22D-07.
      8 vectors produced by pass  6 Test12= 5.34D-15 2.78D-09 XBig12= 1.72D-15 7.00D-09.
 InvSVY:  IOpt=1 It=  1 EMax= 2.66D-15
 Solved reduced A of dimension   182 with    30 vectors.
 FullF1:  Do perturbations      1 to       3.
 Isotropic polarizability for W=    0.000000       80.34 Bohr**3.
 FullF1:  Do perturbations      1 to       6.
 End of Minotr F.D. properties file   721 does not exist.
 End of Minotr F.D. properties file   722 does not exist.
 End of Minotr F.D. properties file   788 does not exist.
 Leave Link 1002 at Fri Jun  2 11:29:06 2023, MaxMem=  7381975040 cpu:             149.0 elap:              90.9
 (Enter /software/commercial/gaussian/g16/AVX/g16/l601.exe)
 Copying SCF densities to generalized density rwf, IOpCl= 0 IROHF=0.

 **********************************************************************

            Population analysis using the SCF Density.

 **********************************************************************

 Alpha  occ. eigenvalues --  -14.28301 -14.18879 -10.16252 -10.14704  -0.86608
 Alpha  occ. eigenvalues --   -0.77227  -0.64648  -0.55403  -0.47114  -0.43178
 Alpha  occ. eigenvalues --   -0.40807  -0.36255  -0.33010  -0.31536  -0.23659
 Alpha  occ. eigenvalues --   -0.20076  -0.13413
 Alpha virt. eigenvalues --    0.01322   0.02535   0.03736   0.04826   0.07499
 Alpha virt. eigenvalues --    0.08390   0.08693   0.10501   0.12233   0.12850
 Alpha virt. eigenvalues --    0.13495   0.16393   0.16921   0.19703   0.20073
 Alpha virt. eigenvalues --    0.20164   0.21805   0.22431   0.23307   0.23952
 Alpha virt. eigenvalues --    0.24865   0.28026   0.29163   0.30168   0.31819
 Alpha virt. eigenvalues --    0.34111   0.43667   0.46513   0.49787   0.53920
 Alpha virt. eigenvalues --    0.55518   0.57818   0.61972   0.63379   0.65530
 Alpha virt. eigenvalues --    0.67621   0.68835   0.70575   0.73789   0.77842
 Alpha virt. eigenvalues --    0.82115   0.83879   0.85991   0.89936   0.91895
 Alpha virt. eigenvalues --    0.95161   0.97536   1.08598   1.13093   1.18817
 Alpha virt. eigenvalues --    1.23486   1.31328   1.33391   1.40276   1.41911
 Alpha virt. eigenvalues --    1.48876   1.53161   1.57301   1.58852   1.61299
 Alpha virt. eigenvalues --    1.66306   1.67371   1.69907   1.76177   1.76577
 Alpha virt. eigenvalues --    1.80517   1.82700   1.85722   1.94180   1.99365
 Alpha virt. eigenvalues --    2.03328   2.05724   2.09039   2.17939   2.21189
 Alpha virt. eigenvalues --    2.30953   2.40279   2.40942   2.44553   2.50137
 Alpha virt. eigenvalues --    2.52139   2.54024   2.57207   2.60920   2.62831
 Alpha virt. eigenvalues --    2.65327   2.67195   2.70795   2.75087   2.77635
 Alpha virt. eigenvalues --    2.79306   2.84058   2.86475   2.93146   2.98736
 Alpha virt. eigenvalues --    3.11603   3.13602   3.18189   3.50453   3.59329
 Alpha virt. eigenvalues --    3.78088   3.84211   4.00379   4.08893   4.20356
 Alpha virt. eigenvalues --    4.41730   4.72723   4.78700   4.92473  23.86078
 Alpha virt. eigenvalues --   23.88290  35.58330  35.61515
     Molecular Orbital Coefficients:
                           1         2         3         4         5
                           O         O         O         O         O
     Eigenvalues --   -14.28301 -14.18879 -10.16252 -10.14704  -0.86608
   1 1   N  1S         -0.00001   0.55743   0.00000  -0.00003  -0.00953
   2        2S          0.00001   0.46589   0.00001  -0.00004  -0.01490
   3        2PX         0.00002   0.00079   0.00004   0.00022   0.00601
   4        2PY         0.00000   0.00028   0.00004   0.00021   0.00337
   5        2PZ         0.00000  -0.00091  -0.00000  -0.00002  -0.00264
   6        3S         -0.00014   0.01489   0.00002   0.00048   0.04022
   7        3PX        -0.00010   0.00029  -0.00019  -0.00035   0.00969
   8        3PY        -0.00003  -0.00015  -0.00016  -0.00030   0.00552
   9        3PZ        -0.00002  -0.00079   0.00001   0.00011  -0.00404
  10        4S          0.00074  -0.01032  -0.00051  -0.00048   0.02649
  11        4PX         0.00047  -0.00155  -0.00020   0.00037   0.00333
  12        4PY         0.00006  -0.00160  -0.00012   0.00008   0.00260
  13        4PZ        -0.00012  -0.00035  -0.00021   0.00024  -0.00176
  14        5S         -0.00007   0.00938   0.00141   0.00622  -0.00093
  15        5PX         0.00003   0.00114   0.00035   0.00156  -0.00196
  16        5PY         0.00038   0.00135   0.00015   0.00099  -0.00155
  17        5PZ         0.00007   0.00023  -0.00038  -0.00051   0.00049
  18        6D 0        0.00003   0.00037   0.00004   0.00020  -0.00049
  19        6D+1       -0.00001  -0.00001  -0.00002   0.00006  -0.00051
  20        6D-1        0.00003   0.00051   0.00003  -0.00002   0.00019
  21        6D+2        0.00001  -0.00014  -0.00001   0.00004   0.00050
  22        6D-2        0.00000   0.00015  -0.00013  -0.00047   0.00165
  23 2   C  1S         -0.00000   0.00001   0.00367   0.56304  -0.02134
  24        2S          0.00001  -0.00001   0.00303   0.46333  -0.03287
  25        2PX         0.00006  -0.00025   0.00045   0.00001   0.01159
  26        2PY        -0.00003  -0.00031  -0.00023  -0.00023  -0.00299
  27        2PZ        -0.00001   0.00002  -0.00005  -0.00005  -0.00133
  28        3S          0.00002   0.00004   0.00013   0.01813   0.08514
  29        3PX        -0.00033   0.00038  -0.00103  -0.00006   0.02104
  30        3PY         0.00014   0.00085   0.00073   0.00188  -0.00820
  31        3PZ         0.00007  -0.00003   0.00018   0.00031  -0.00249
  32        4S         -0.00162   0.00546   0.00385  -0.01300   0.04389
  33        4PX        -0.00030  -0.00069   0.00196  -0.00127   0.00892
  34        4PY         0.00083  -0.00188  -0.00046   0.00121  -0.00174
  35        4PZ        -0.00000   0.00004  -0.00003  -0.00000  -0.00023
  36        5S          0.00521  -0.01107   0.00791  -0.00939  -0.02533
  37        5PX         0.00137   0.00096   0.00217  -0.00094  -0.00529
  38        5PY        -0.00030   0.00315  -0.00068  -0.00026   0.00502
  39        5PZ        -0.00005  -0.00016  -0.00016   0.00012   0.00011
  40        6D 0        0.00004   0.00038   0.00040   0.00069  -0.00353
  41        6D+1        0.00000   0.00003   0.00005   0.00002  -0.00073
  42        6D-1        0.00001  -0.00001  -0.00001   0.00009   0.00020
  43        6D+2       -0.00014  -0.00004  -0.00051  -0.00053   0.00453
  44        6D-2        0.00010  -0.00059   0.00052  -0.00004  -0.00028
  45 3   C  1S          0.00001   0.00000   0.56299  -0.00369  -0.05354
  46        2S         -0.00003   0.00001   0.46333  -0.00304  -0.08258
  47        2PX         0.00018  -0.00008   0.00063  -0.00044   0.02459
  48        2PY         0.00028   0.00003   0.00054   0.00024   0.02919
  49        2PZ        -0.00001   0.00000  -0.00007   0.00002  -0.00364
  50        3S          0.00004   0.00014   0.01850  -0.00013   0.21560
  51        3PX        -0.00013   0.00038  -0.00014   0.00097   0.03900
  52        3PY        -0.00072  -0.00017  -0.00223  -0.00080   0.05371
  53        3PZ        -0.00001  -0.00000   0.00016   0.00001  -0.00654
  54        4S          0.00480  -0.00230  -0.01357   0.00471   0.08284
  55        4PX         0.00059   0.00089   0.00090  -0.00173   0.00925
  56        4PY         0.00161  -0.00054  -0.00160   0.00078   0.00473
  57        4PZ         0.00013   0.00000  -0.00016   0.00022  -0.00517
  58        5S         -0.00929   0.00589  -0.01539   0.00397   0.05941
  59        5PX        -0.00023  -0.00203   0.00060   0.00015  -0.00216
  60        5PY        -0.00243  -0.00006  -0.00141   0.00118   0.00885
  61        5PZ        -0.00018   0.00018   0.00008  -0.00003   0.00052
  62        6D 0        0.00033   0.00007   0.00090   0.00043  -0.00985
  63        6D+1        0.00004   0.00004   0.00023   0.00012  -0.00210
  64        6D-1        0.00006  -0.00000   0.00001  -0.00005  -0.00251
  65        6D+2        0.00001  -0.00020  -0.00048  -0.00045   0.00089
  66        6D-2       -0.00041   0.00008  -0.00042   0.00046   0.01324
  67 4   H  1S          0.00005  -0.00004  -0.00008   0.00009   0.01170
  68        2S         -0.00029  -0.00105  -0.00083  -0.00286   0.01380
  69        3S         -0.00058  -0.00011   0.00008   0.00372  -0.00118
  70        4PX        -0.00013   0.00002   0.00008  -0.00008   0.00093
  71        4PY         0.00001   0.00023   0.00012   0.00108  -0.00171
  72        4PZ         0.00013   0.00024   0.00029   0.00185  -0.00282
  73 5   H  1S          0.00003  -0.00000  -0.00008   0.00016   0.01234
  74        2S         -0.00027  -0.00114  -0.00060  -0.00258   0.01540
  75        3S         -0.00056  -0.00008  -0.00016   0.00356  -0.00097
  76        4PX        -0.00013   0.00009   0.00010  -0.00020   0.00149
  77        4PY         0.00001   0.00036   0.00010   0.00112  -0.00202
  78        4PZ        -0.00009  -0.00026  -0.00025  -0.00156   0.00255
  79 6   N  1S          0.55739   0.00001  -0.00002   0.00000  -0.10068
  80        2S          0.46576   0.00002  -0.00005   0.00001  -0.15817
  81        2PX         0.00007  -0.00003  -0.00016  -0.00002  -0.00334
  82        2PY        -0.00067   0.00000  -0.00018  -0.00004  -0.02503
  83        2PZ        -0.00096   0.00001  -0.00000   0.00000  -0.02955
  84        3S          0.01549  -0.00013   0.00041   0.00004   0.43394
  85        3PX         0.00050   0.00014   0.00014   0.00010  -0.00854
  86        3PY         0.00006   0.00001   0.00014   0.00014  -0.04177
  87        3PZ        -0.00078  -0.00004   0.00008  -0.00001  -0.04439
  88        4S         -0.00837   0.00064   0.00032  -0.00094   0.29972
  89        4PX         0.00202  -0.00061  -0.00049   0.00007  -0.00770
  90        4PY         0.00143   0.00002  -0.00036   0.00039  -0.01950
  91        4PZ        -0.00076  -0.00012   0.00012  -0.00015  -0.01553
  92        5S          0.00697   0.00019   0.01058  -0.00064  -0.02299
  93        5PX        -0.00130   0.00030  -0.00047  -0.00080   0.01301
  94        5PY        -0.00110  -0.00056  -0.00211   0.00047   0.00735
  95        5PZ         0.00051   0.00008  -0.00058  -0.00012  -0.00383
  96        6D 0       -0.00004   0.00002   0.00015   0.00004  -0.00376
  97        6D+1        0.00001   0.00001  -0.00002   0.00003   0.00049
  98        6D-1       -0.00054  -0.00004   0.00005  -0.00001  -0.00410
  99        6D+2        0.00029   0.00000   0.00008   0.00003   0.00139
 100        6D-2       -0.00043  -0.00001  -0.00030  -0.00008   0.00237
 101 7   H  1S          0.00001   0.00002   0.00010  -0.00006   0.02666
 102        2S         -0.00114  -0.00005  -0.00293  -0.00082   0.03320
 103        3S          0.00007  -0.00061   0.00356   0.00041  -0.00890
 104        4PX        -0.00007   0.00009   0.00010  -0.00006   0.00018
 105        4PY        -0.00032  -0.00002  -0.00115  -0.00013   0.00549
 106        4PZ        -0.00026  -0.00010  -0.00179  -0.00024   0.00620
 107 8   H  1S          0.00000   0.00002   0.00006  -0.00005   0.02635
 108        2S         -0.00114  -0.00007  -0.00298  -0.00105   0.03522
 109        3S          0.00000  -0.00074   0.00366   0.00061  -0.00612
 110        4PX         0.00003   0.00010   0.00045   0.00002  -0.00078
 111        4PY        -0.00022  -0.00002  -0.00108  -0.00016   0.00530
 112        4PZ         0.00023   0.00009   0.00189   0.00029  -0.00634
 113 9   H  1S         -0.00000   0.00001  -0.00014   0.00000   0.07957
 114        2S         -0.00178  -0.00031   0.00052  -0.00010   0.07574
 115        3S          0.00067   0.00021  -0.00116  -0.00051  -0.00439
 116        4PX        -0.00040   0.00001  -0.00010   0.00006   0.00279
 117        4PY         0.00087   0.00002  -0.00018   0.00003  -0.01186
 118        4PZ        -0.00134  -0.00005   0.00008  -0.00003   0.01314
 119 10  H  1S         -0.00002  -0.00001  -0.00012  -0.00004   0.07883
 120        2S         -0.00184   0.00009   0.00036   0.00028   0.07560
 121        3S          0.00054  -0.00031  -0.00241   0.00071  -0.00701
 122        4PX         0.00148   0.00005  -0.00001  -0.00009  -0.01713
 123        4PY        -0.00074   0.00004  -0.00003  -0.00003   0.00508
 124        4PZ        -0.00012   0.00002  -0.00000   0.00003   0.00001
 125 11  H  1S         -0.00000  -0.00001   0.00001  -0.00015   0.00714
 126        2S         -0.00019  -0.00147  -0.00014   0.00074   0.00601
 127        3S          0.00010   0.00034  -0.00085  -0.00082   0.00083
 128        4PX        -0.00001   0.00005  -0.00004   0.00016   0.00045
 129        4PY        -0.00001  -0.00073  -0.00006   0.00024   0.00091
 130        4PZ        -0.00004  -0.00144  -0.00003   0.00008   0.00118
                           6         7         8         9        10
                           O         O         O         O         O
     Eigenvalues --    -0.77227  -0.64648  -0.55403  -0.47114  -0.43178
   1 1   N  1S         -0.08329   0.05865   0.03635   0.00510   0.01756
   2        2S         -0.13067   0.09241   0.05746   0.00802   0.02789
   3        2PX         0.03675  -0.00334   0.00952   0.01276   0.02270
   4        2PY         0.02056   0.00421   0.04016   0.03403   0.01974
   5        2PZ        -0.02729   0.02827   0.03275   0.03329   0.00081
   6        3S          0.35698  -0.25642  -0.16073  -0.02144  -0.07857
   7        3PX         0.05756  -0.00611   0.01314   0.01864   0.03232
   8        3PY         0.03334   0.00526   0.05852   0.04993   0.02895
   9        3PZ        -0.04100   0.04212   0.04786   0.04849   0.00100
  10        4S          0.25205  -0.20247  -0.13130  -0.02532  -0.08979
  11        4PX         0.02398  -0.00412   0.00863   0.00716   0.01813
  12        4PY         0.01504  -0.00002   0.03085   0.02366   0.01375
  13        4PZ        -0.01399   0.01604   0.02202   0.02662   0.00233
  14        5S         -0.02286  -0.01769  -0.03034  -0.01585  -0.05151
  15        5PX        -0.00891   0.00001  -0.00301   0.00163  -0.00410
  16        5PY        -0.00645   0.00220   0.00124   0.00050   0.00230
  17        5PZ         0.00079   0.00285   0.00447   0.00066   0.00547
  18        6D 0       -0.00063  -0.00409  -0.00648  -0.00538  -0.00329
  19        6D+1       -0.00293   0.00108   0.00105   0.00275  -0.00340
  20        6D-1        0.00286  -0.00372  -0.00512  -0.00130  -0.00470
  21        6D+2        0.00030   0.00237  -0.00132  -0.00095   0.00200
  22        6D-2        0.00961  -0.00182   0.00396   0.00365   0.00209
  23 2   C  1S         -0.07270  -0.02723  -0.06592  -0.01947  -0.01515
  24        2S         -0.11235  -0.04226  -0.10289  -0.03060  -0.02386
  25        2PX        -0.02346   0.06868   0.00456  -0.03444  -0.00485
  26        2PY        -0.03010   0.02081   0.06958   0.01448  -0.01891
  27        2PZ        -0.00062   0.00136   0.00848   0.05552  -0.05626
  28        3S          0.29826   0.11248   0.28158   0.08444   0.06659
  29        3PX        -0.03559   0.10508   0.00347  -0.05005  -0.00708
  30        3PY        -0.05336   0.02754   0.09664   0.02053  -0.02920
  31        3PZ        -0.00239   0.00200   0.01198   0.08129  -0.08302
  32        4S          0.13255   0.08363   0.17955   0.09761   0.06680
  33        4PX        -0.00531   0.03387   0.00189  -0.01827  -0.01054
  34        4PY        -0.00762   0.00708   0.05611   0.00835  -0.02307
  35        4PZ        -0.00745   0.00466   0.00656   0.03716  -0.05502
  36        5S          0.06564  -0.03876   0.07369   0.04976   0.05102
  37        5PX         0.00480  -0.00793   0.01833   0.00190   0.00852
  38        5PY        -0.00682   0.00760   0.00113  -0.00827  -0.00454
  39        5PZ        -0.00113   0.00289  -0.00034  -0.00080  -0.01100
  40        6D 0       -0.00851   0.00113   0.00867   0.00366   0.00126
  41        6D+1        0.00015  -0.00152  -0.00153   0.00309  -0.00567
  42        6D-1        0.00108  -0.00026  -0.00148   0.00134  -0.00261
  43        6D+2        0.00003   0.00594  -0.00291  -0.00284  -0.00572
  44        6D-2        0.01179  -0.01596  -0.00025   0.00223  -0.00679
  45 3   C  1S         -0.02122  -0.07835   0.04404   0.01104  -0.00065
  46        2S         -0.03286  -0.12198   0.06889   0.01729  -0.00083
  47        2PX        -0.03473  -0.02244  -0.05367   0.02696  -0.05972
  48        2PY        -0.00699  -0.01267   0.05771  -0.02523  -0.11365
  49        2PZ         0.00290   0.00770  -0.00284   0.07660  -0.09393
  50        3S          0.08641   0.32949  -0.18943  -0.04724  -0.00166
  51        3PX        -0.05648  -0.03338  -0.08327   0.03893  -0.08996
  52        3PY        -0.00713  -0.01031   0.08107  -0.03885  -0.16920
  53        3PZ         0.00495   0.01118  -0.00384   0.11325  -0.13695
  54        4S          0.05420   0.21103  -0.12331  -0.04629  -0.00057
  55        4PX        -0.01570  -0.00180  -0.04601   0.04280  -0.04381
  56        4PY        -0.00049  -0.00407   0.04867  -0.02930  -0.09341
  57        4PZ         0.00302  -0.00415  -0.00213   0.08011  -0.07723
  58        5S         -0.03679   0.07163  -0.07190  -0.03367  -0.06132
  59        5PX         0.00688  -0.00582   0.00741   0.01760  -0.01244
  60        5PY        -0.00730   0.00546  -0.00547  -0.00031  -0.02516
  61        5PZ        -0.00115  -0.00470  -0.00170   0.00978   0.00298
  62        6D 0       -0.00124   0.00123  -0.00719   0.00028   0.01195
  63        6D+1        0.00001   0.00151  -0.00339   0.00351  -0.00167
  64        6D-1        0.00094   0.00125  -0.00065   0.00032   0.00658
  65        6D+2        0.00552  -0.00100   0.00159   0.01292   0.00764
  66        6D-2       -0.00769  -0.00743  -0.00871  -0.00106  -0.01593
  67 4   H  1S          0.04011   0.02719   0.08767   0.05950  -0.02972
  68        2S          0.05187   0.02992   0.10826   0.07498  -0.03802
  69        3S         -0.00302   0.00104   0.01471   0.02559  -0.00873
  70        4PX        -0.00039   0.00362   0.00093  -0.00106  -0.00175
  71        4PY        -0.00662  -0.00201  -0.00459  -0.00436   0.00144
  72        4PZ        -0.00802  -0.00410  -0.01197  -0.00453   0.00066
  73 5   H  1S          0.03927   0.02368   0.08226  -0.00548   0.03960
  74        2S          0.04719   0.02733   0.10489  -0.01151   0.05235
  75        3S         -0.00689   0.00556   0.01960  -0.00883   0.01262
  76        4PX         0.00017   0.00339   0.00264  -0.00390   0.00060
  77        4PY        -0.00699  -0.00236  -0.00545   0.00152  -0.00458
  78        4PZ         0.00735   0.00350   0.01102   0.00236   0.00107
  79 6   N  1S          0.03043   0.03611  -0.00959  -0.00434   0.01581
  80        2S          0.04796   0.05713  -0.01520  -0.00693   0.02550
  81        2PX        -0.01344  -0.05624  -0.00111   0.13165   0.14468
  82        2PY         0.00025  -0.03399   0.05958  -0.08514   0.03276
  83        2PZ         0.01292   0.03192  -0.03001   0.08936  -0.06602
  84        3S         -0.13355  -0.16111   0.04297   0.01988  -0.07867
  85        3PX        -0.01984  -0.08325  -0.00090   0.19061   0.21163
  86        3PY         0.00098  -0.05092   0.08819  -0.12314   0.04999
  87        3PZ         0.01924   0.04696  -0.04342   0.13050  -0.09613
  88        4S         -0.09769  -0.13356   0.03255   0.01888  -0.07941
  89        4PX        -0.00779  -0.04122  -0.00219   0.12063   0.14302
  90        4PY         0.00140  -0.02399   0.05462  -0.07475   0.02765
  91        4PZ         0.00695   0.02345  -0.02326   0.08437  -0.07796
  92        5S         -0.00913  -0.07031   0.01639  -0.00248   0.10064
  93        5PX         0.00002   0.00325   0.00526   0.00864   0.01097
  94        5PY        -0.00009   0.00712  -0.00267  -0.00353  -0.01665
  95        5PZ         0.00343   0.01047  -0.00247   0.00286  -0.02228
  96        6D 0       -0.00035  -0.00442   0.00563  -0.01351   0.00417
  97        6D+1        0.00039   0.00173   0.00104  -0.01125  -0.00326
  98        6D-1        0.00151   0.00349  -0.00441   0.00458   0.00455
  99        6D+2       -0.00020  -0.00306   0.00543   0.00348   0.00362
 100        6D-2        0.00229   0.00946  -0.00331  -0.00940  -0.01304
 101 7   H  1S          0.01518   0.06234  -0.06359  -0.04480   0.11150
 102        2S          0.01776   0.07288  -0.08089  -0.05369   0.14966
 103        3S          0.00070   0.00135  -0.01190  -0.01165   0.05356
 104        4PX        -0.00205  -0.00153  -0.00130   0.00167  -0.00348
 105        4PY         0.00166   0.00617  -0.00341  -0.00461   0.00477
 106        4PZ         0.00287   0.00958  -0.00872  -0.00132   0.00810
 107 8   H  1S          0.01476   0.06796  -0.06955   0.04950  -0.01730
 108        2S          0.01591   0.08315  -0.08636   0.05606  -0.02319
 109        3S         -0.00058   0.00734  -0.00923   0.00884  -0.01710
 110        4PX        -0.00235  -0.00377  -0.00028  -0.00024  -0.00187
 111        4PY         0.00137   0.00653  -0.00326   0.00295  -0.00812
 112        4PZ        -0.00251  -0.00988   0.00942  -0.00201  -0.00293
 113 9   H  1S         -0.02851  -0.05515   0.05353  -0.11198   0.02280
 114        2S         -0.03010  -0.06331   0.06669  -0.14743   0.02806
 115        3S          0.00447   0.00791   0.01409  -0.04699  -0.01260
 116        4PX        -0.00210  -0.00585   0.00098   0.00637   0.01088
 117        4PY         0.00370   0.00430  -0.00247   0.00821  -0.00081
 118        4PZ        -0.00446  -0.00715   0.00633  -0.01076  -0.00205
 119 10  H  1S         -0.03234  -0.06049  -0.00520   0.12364   0.09167
 120        2S         -0.03266  -0.06832  -0.00247   0.16542   0.12382
 121        3S          0.00243   0.00422  -0.00590   0.05149   0.01913
 122        4PX         0.00573   0.00793   0.00159  -0.01351  -0.00604
 123        4PY        -0.00258  -0.00679   0.00436   0.00177   0.00806
 124        4PZ         0.00026   0.00117  -0.00209   0.00790  -0.00445
 125 11  H  1S          0.07085  -0.06608  -0.06796  -0.04114  -0.02510
 126        2S          0.06855  -0.07113  -0.07874  -0.05341  -0.02889
 127        3S          0.00455  -0.00631  -0.01346  -0.01983  -0.00473
 128        4PX         0.00270  -0.00011  -0.00001  -0.00018   0.00331
 129        4PY         0.00886  -0.00621  -0.00310  -0.00182   0.00027
 130        4PZ         0.01153  -0.00967  -0.00879  -0.00402  -0.00347
                          11        12        13        14        15
                           O         O         O         O         O
     Eigenvalues --    -0.40807  -0.36255  -0.33010  -0.31536  -0.23659
   1 1   N  1S         -0.00464   0.01360   0.00022  -0.00587  -0.00210
   2        2S         -0.00744   0.02183   0.00042  -0.00930  -0.00330
   3        2PX         0.03318  -0.02255  -0.07442  -0.06624  -0.01215
   4        2PY         0.01806  -0.09638  -0.02230  -0.10731   0.01238
   5        2PZ         0.05572  -0.08312  -0.04118  -0.01385   0.01013
   6        3S          0.02193  -0.06520  -0.00413   0.02358   0.00792
   7        3PX         0.04900  -0.03320  -0.10903  -0.09510  -0.01840
   8        3PY         0.02537  -0.14022  -0.02983  -0.15411   0.01770
   9        3PZ         0.08078  -0.11873  -0.05874  -0.01678   0.01441
  10        4S          0.02538  -0.06555   0.00957   0.03777   0.02958
  11        4PX         0.03043  -0.01265  -0.07274  -0.06446  -0.00767
  12        4PY         0.01042  -0.08351  -0.01343  -0.10877   0.02283
  13        4PZ         0.05004  -0.07415  -0.04181  -0.01013   0.01447
  14        5S         -0.01065   0.00440   0.01643   0.02487   0.02298
  15        5PX        -0.00294   0.00313  -0.01457  -0.01459  -0.00311
  16        5PY        -0.00022  -0.01196  -0.00325  -0.02579   0.00437
  17        5PZ         0.00947  -0.01205  -0.01283  -0.00904   0.00639
  18        6D 0       -0.00717   0.01112   0.00770   0.00873  -0.00076
  19        6D+1        0.00432  -0.00416   0.00217   0.00703   0.00083
  20        6D-1        0.00199   0.00467   0.00205   0.01441   0.00007
  21        6D+2        0.00469   0.00354  -0.01085  -0.00190  -0.00203
  22        6D-2        0.00286  -0.00809  -0.00439  -0.00907   0.00015
  23 2   C  1S          0.00285  -0.00264   0.01300   0.00730   0.00815
  24        2S          0.00439  -0.00394   0.02075   0.01174   0.01308
  25        2PX         0.00906   0.12293  -0.06866   0.08592  -0.02810
  26        2PY        -0.07290   0.00748   0.14136   0.07442   0.01429
  27        2PZ         0.10514  -0.06406  -0.00922   0.13004   0.00931
  28        3S         -0.00814   0.00714  -0.06577  -0.03639  -0.04017
  29        3PX         0.01299   0.18072  -0.09976   0.12902  -0.04393
  30        3PY        -0.10826   0.01157   0.20575   0.11091   0.01971
  31        3PZ         0.15397  -0.09179  -0.01227   0.18427   0.01175
  32        4S         -0.03308   0.00756  -0.04965  -0.04759  -0.05448
  33        4PX        -0.00112   0.12120  -0.05484   0.07602  -0.01357
  34        4PY        -0.05604   0.01019   0.15018   0.08039   0.03947
  35        4PZ         0.09644  -0.08158  -0.00908   0.14745  -0.00849
  36        5S         -0.03240  -0.00630   0.02703   0.00906  -0.06142
  37        5PX        -0.00304   0.01266  -0.00320   0.00711  -0.01728
  38        5PY         0.00325   0.00606   0.01335   0.01010   0.01341
  39        5PZ         0.00519  -0.01285  -0.00171   0.02590   0.00905
  40        6D 0       -0.00627  -0.00031   0.01451   0.01015   0.00125
  41        6D+1       -0.00027   0.01078   0.00908  -0.00503  -0.00493
  42        6D-1        0.00626  -0.00283  -0.00197   0.02197   0.00480
  43        6D+2        0.00070  -0.00054  -0.01032  -0.00273  -0.00240
  44        6D-2       -0.00198  -0.01436  -0.00532  -0.00991  -0.00078
  45 3   C  1S         -0.00390  -0.00094   0.00433  -0.00257   0.00542
  46        2S         -0.00600  -0.00141   0.00705  -0.00402   0.00873
  47        2PX        -0.05653  -0.10927   0.09491  -0.02824  -0.00724
  48        2PY        -0.07311   0.00887  -0.10555   0.01434  -0.04911
  49        2PZ         0.07773   0.09217   0.05566  -0.07702  -0.06741
  50        3S          0.01429   0.00415  -0.02540   0.01048  -0.02927
  51        3PX        -0.08510  -0.16173   0.13779  -0.04117  -0.01070
  52        3PY        -0.10753   0.01296  -0.15369   0.02179  -0.07259
  53        3PZ         0.11248   0.13341   0.07908  -0.10876  -0.09237
  54        4S          0.03182   0.00505  -0.02124   0.01147   0.01346
  55        4PX        -0.05851  -0.09329   0.10873  -0.03898   0.00453
  56        4PY        -0.05695   0.01852  -0.11359   0.01222  -0.04860
  57        4PZ         0.08366   0.10718   0.06037  -0.07807  -0.06605
  58        5S          0.02247   0.01065   0.02022  -0.01403   0.10969
  59        5PX        -0.02347  -0.00432   0.01616  -0.01268   0.00966
  60        5PY        -0.01030   0.00403  -0.00865  -0.00771   0.00709
  61        5PZ         0.01501   0.01296   0.00903  -0.01015  -0.04109
  62        6D 0        0.00997  -0.00198   0.01519   0.00069   0.00514
  63        6D+1       -0.00546   0.01026   0.00483  -0.01523   0.01109
  64        6D-1       -0.00674  -0.00710  -0.01018   0.01457   0.02770
  65        6D+2       -0.00381   0.00458  -0.01514   0.00040  -0.01515
  66        6D-2       -0.00914  -0.01570  -0.00836  -0.00689   0.00030
  67 4   H  1S          0.03324  -0.04157   0.05572   0.13018   0.01605
  68        2S          0.04409  -0.05599   0.07940   0.18641   0.03322
  69        3S          0.01741  -0.02042   0.04215   0.11599   0.03855
  70        4PX         0.00156   0.00643  -0.00409   0.00559   0.00003
  71        4PY        -0.00721   0.00286   0.00442  -0.00480   0.00068
  72        4PZ         0.00189   0.00207  -0.00645  -0.00580  -0.00020
  73 5   H  1S         -0.10338   0.03727   0.08392  -0.06770  -0.00712
  74        2S         -0.13647   0.04447   0.12442  -0.09842  -0.02343
  75        3S         -0.05989   0.02302   0.07629  -0.07340  -0.01114
  76        4PX        -0.00120   0.00653  -0.00233   0.00272  -0.00262
  77        4PY         0.00610  -0.00299   0.00116   0.00853   0.00199
  78        4PZ        -0.00601   0.00015   0.00791   0.00112   0.00004
  79 6   N  1S          0.00075  -0.00325   0.00878   0.00973  -0.02980
  80        2S          0.00127  -0.00518   0.01418   0.01570  -0.04814
  81        2PX         0.01055   0.06853  -0.00602   0.03443  -0.01445
  82        2PY         0.12439   0.06390   0.04908  -0.02890   0.13434
  83        2PZ        -0.05832   0.04514  -0.04154  -0.03112   0.19884
  84        3S         -0.00547   0.01437  -0.04388  -0.04807   0.14122
  85        3PX         0.01604   0.09897  -0.00630   0.04992  -0.02076
  86        3PY         0.18192   0.09507   0.06989  -0.04066   0.19435
  87        3PZ        -0.08232   0.06778  -0.05821  -0.04648   0.28612
  88        4S         -0.00680   0.00596  -0.05284  -0.04970   0.21027
  89        4PX         0.01680   0.07493  -0.00491   0.03685  -0.01852
  90        4PY         0.12741   0.08049   0.05106  -0.03582   0.20924
  91        4PZ        -0.05708   0.06123  -0.04416  -0.05233   0.30197
  92        5S          0.05074  -0.03950  -0.02572   0.05464  -0.09339
  93        5PX         0.00426   0.02288  -0.00342   0.00207   0.00342
  94        5PY         0.00663   0.01613   0.01410  -0.01837   0.10740
  95        5PZ        -0.01870   0.01379  -0.01354  -0.01924   0.14678
  96        6D 0        0.01232  -0.00176   0.00679  -0.00087  -0.00792
  97        6D+1       -0.00133  -0.00610  -0.00031  -0.00054   0.00362
  98        6D-1       -0.01227  -0.00763  -0.00684   0.00770  -0.00715
  99        6D+2        0.00008   0.00970  -0.00853   0.00326   0.00210
 100        6D-2       -0.00352  -0.00620  -0.00117  -0.00237   0.00134
 101 7   H  1S         -0.01326  -0.07153   0.01972   0.05588   0.09542
 102        2S         -0.01486  -0.09491   0.03201   0.08537   0.15703
 103        3S         -0.00378  -0.04078   0.01340   0.05477   0.16041
 104        4PX        -0.00186  -0.00674   0.00567  -0.00139  -0.00158
 105        4PY        -0.00488  -0.00492  -0.00463   0.00482   0.00222
 106        4PZ         0.00284  -0.00264   0.00517   0.00041   0.00293
 107 8   H  1S          0.08238   0.04485   0.11280  -0.06996  -0.04215
 108        2S          0.10917   0.05841   0.16419  -0.10508  -0.07759
 109        3S          0.03715   0.03233   0.09482  -0.07736  -0.04885
 110        4PX        -0.00501  -0.00622   0.00406  -0.00070   0.00139
 111        4PY         0.00248   0.00383   0.00162  -0.00398  -0.00533
 112        4PZ        -0.00522   0.00083  -0.00855   0.00295   0.00012
 113 9   H  1S          0.09926  -0.00442   0.05544  -0.01350  -0.04314
 114        2S          0.14012   0.00144   0.09017  -0.03160  -0.06270
 115        3S          0.04318   0.01728   0.04944  -0.03899   0.00840
 116        4PX         0.00613   0.00465   0.00079   0.00288  -0.00445
 117        4PY        -0.00127   0.00599  -0.00101  -0.00154   0.01854
 118        4PZ         0.01040   0.00306   0.00414  -0.00478   0.01113
 119 10  H  1S         -0.02803   0.04055  -0.03076   0.03346  -0.03985
 120        2S         -0.03862   0.06605  -0.04745   0.04877  -0.05765
 121        3S         -0.02921   0.03657  -0.02530   0.01479   0.00838
 122        4PX         0.00572  -0.00042   0.00381  -0.00231   0.00761
 123        4PY         0.00768   0.00860   0.00064  -0.00024   0.00851
 124        4PZ        -0.00471   0.00424  -0.00363  -0.00294   0.01898
 125 11  H  1S         -0.04360   0.08977   0.04569   0.07226  -0.00823
 126        2S         -0.06145   0.12856   0.06719   0.10766  -0.01089
 127        3S         -0.02049   0.06753   0.03520   0.06864   0.00205
 128        4PX         0.00163  -0.00056  -0.00645  -0.00522  -0.00014
 129        4PY        -0.00420   0.00165   0.00212  -0.00500  -0.00042
 130        4PZ        -0.00258   0.00790   0.00262   0.00842  -0.00112
                          16        17        18        19        20
                           O         O         V         V         V
     Eigenvalues --    -0.20076  -0.13413   0.01322   0.02535   0.03736
   1 1   N  1S         -0.04214   0.00005   0.00423  -0.02851   0.00038
   2        2S         -0.06753   0.00015   0.00711  -0.04675   0.00053
   3        2PX        -0.12646   0.16327   0.01066  -0.00736   0.02680
   4        2PY        -0.02996  -0.16102   0.02876  -0.02440  -0.02101
   5        2PZ         0.17251   0.09102   0.00241  -0.01533   0.00135
   6        3S          0.18898  -0.00246  -0.02668   0.15406   0.00032
   7        3PX        -0.17918   0.23552   0.01561  -0.00566   0.03848
   8        3PY        -0.04371  -0.23309   0.03492  -0.02936  -0.03349
   9        3PZ         0.24291   0.13090   0.00349  -0.02059   0.00271
  10        4S          0.32457   0.02478  -0.00139   0.20180  -0.03382
  11        4PX        -0.16046   0.26489   0.00744   0.00212   0.04070
  12        4PY        -0.04187  -0.24305   0.07750  -0.04566  -0.02233
  13        4PZ         0.20438   0.13832   0.00782  -0.07017  -0.00262
  14        5S          0.32187  -0.01943  -0.91575   3.05259   0.21131
  15        5PX        -0.06655   0.17117  -0.12588   0.64689   0.21339
  16        5PY        -0.02028  -0.19270  -0.20112   0.50837  -0.13911
  17        5PZ         0.10120   0.13568   0.01558  -0.05194   0.10724
  18        6D 0       -0.00663  -0.00682   0.00106   0.00236   0.00026
  19        6D+1        0.01063  -0.00434  -0.00002  -0.00043  -0.00096
  20        6D-1       -0.00090   0.00777  -0.00112   0.00269   0.00185
  21        6D+2       -0.00298   0.00733   0.00189  -0.00123   0.00300
  22        6D-2       -0.00521  -0.00392   0.00037  -0.00014  -0.00206
  23 2   C  1S          0.01351   0.00075   0.01204  -0.00244   0.01960
  24        2S          0.02160   0.00121   0.02014  -0.00486   0.03229
  25        2PX         0.06129  -0.02163   0.00972   0.01407   0.00030
  26        2PY         0.03343   0.02153  -0.04309   0.03247  -0.04038
  27        2PZ        -0.05310  -0.01476   0.00781   0.00091   0.00887
  28        3S         -0.06201  -0.00533  -0.06920   0.03382  -0.10573
  29        3PX         0.09295  -0.03043   0.01393  -0.00001   0.00072
  30        3PY         0.05471   0.02708  -0.06668   0.03459  -0.06393
  31        3PZ        -0.07266  -0.01894   0.01144   0.00314   0.01419
  32        4S         -0.10448  -0.01867  -0.07017  -0.10908  -0.15193
  33        4PX         0.06490   0.01061   0.02976   0.21665   0.05174
  34        4PY         0.05804   0.04569  -0.09441   0.16576  -0.13501
  35        4PZ        -0.00024   0.00351   0.02393   0.00831   0.01957
  36        5S         -0.23246  -0.04379   1.37103  -2.68484  -4.83513
  37        5PX        -0.02066  -0.00332  -0.33397   1.22292  -1.76949
  38        5PY         0.04645   0.08744  -0.31940   1.05012   1.31737
  39        5PZ        -0.00497  -0.02598  -0.05003   0.01935  -0.06212
  40        6D 0       -0.00083   0.00879   0.00107  -0.00607  -0.00587
  41        6D+1       -0.01430  -0.00580   0.00039  -0.00114  -0.00083
  42        6D-1       -0.02553  -0.01530   0.00141  -0.00080   0.00113
  43        6D+2        0.01158  -0.03906   0.00434  -0.00117  -0.00284
  44        6D-2       -0.00880   0.00562   0.00590   0.00963  -0.00682
  45 3   C  1S         -0.00941   0.02101   0.01184  -0.01096  -0.01753
  46        2S         -0.01498   0.03395   0.02045  -0.01778  -0.02896
  47        2PX        -0.04179   0.06148  -0.00272   0.02590   0.00576
  48        2PY         0.01239  -0.01907   0.05653  -0.00440  -0.03236
  49        2PZ         0.00297  -0.00723   0.00591  -0.00650   0.00292
  50        3S          0.04109  -0.10412  -0.08521   0.04858   0.09515
  51        3PX        -0.06238   0.09178  -0.01762   0.03139   0.00813
  52        3PY         0.01721  -0.02550   0.07623  -0.01777  -0.05265
  53        3PZ         0.00255  -0.01081   0.00972  -0.01021   0.00433
  54        4S          0.10466  -0.19803   0.01792   0.15373   0.15317
  55        4PX        -0.05608   0.06890   0.07977   0.17383   0.08153
  56        4PY         0.03646  -0.08779   0.18247   0.03142  -0.09610
  57        4PZ        -0.04420  -0.04107  -0.00331  -0.03567   0.00940
  58        5S          0.21104   0.10904   2.89090   0.37962   5.35412
  59        5PX        -0.03680  -0.03652   0.94369   0.47813  -1.82778
  60        5PY         0.03411  -0.06632   0.86139   0.48429   1.48820
  61        5PZ        -0.00106  -0.00256  -0.15735  -0.04867   0.16196
  62        6D 0        0.00085  -0.00396   0.00472   0.00310   0.00888
  63        6D+1        0.00487   0.00114   0.00046   0.00001   0.00098
  64        6D-1       -0.00406  -0.00069  -0.00017   0.00188  -0.00079
  65        6D+2       -0.00152  -0.00092   0.00150   0.00075   0.00297
  66        6D-2       -0.00739   0.00532  -0.00239  -0.01205   0.00837
  67 4   H  1S         -0.06149   0.00482  -0.01192   0.00466  -0.00382
  68        2S         -0.11922   0.00280   0.01652  -0.01791   0.05344
  69        3S         -0.13895  -0.00808  -0.19235   0.02159  -0.15584
  70        4PX         0.00135  -0.00134   0.00246   0.00440  -0.00413
  71        4PY         0.00472   0.00215   0.00113   0.00109   0.00657
  72        4PZ         0.00192  -0.00046   0.00767  -0.00687   0.00446
  73 5   H  1S          0.05244   0.06262  -0.01939   0.00478  -0.00597
  74        2S          0.10116   0.11814   0.02093  -0.01923   0.07144
  75        3S          0.12725   0.16933  -0.25992   0.08460  -0.21724
  76        4PX         0.00568   0.00122   0.00221   0.00572  -0.00482
  77        4PY        -0.00250   0.00128   0.00286   0.00061   0.00856
  78        4PZ        -0.00046   0.00042  -0.00909   0.00639  -0.00520
  79 6   N  1S          0.00518  -0.00473   0.02766   0.02179   0.00232
  80        2S          0.00837  -0.00759   0.04560   0.03579   0.00394
  81        2PX         0.02366  -0.01985  -0.03431  -0.00642   0.02980
  82        2PY         0.00871  -0.01378  -0.02099   0.01071  -0.03063
  83        2PZ         0.00463   0.01260   0.02486   0.01388   0.00676
  84        3S         -0.02403   0.02107  -0.15106  -0.11461  -0.01637
  85        3PX         0.03414  -0.02685  -0.04661  -0.00826   0.04439
  86        3PY         0.01285  -0.01984  -0.02187   0.01541  -0.04786
  87        3PZ         0.00731   0.01713   0.03767   0.02092   0.00796
  88        4S         -0.06260   0.06895  -0.27326  -0.23692   0.02828
  89        4PX         0.03232  -0.04026  -0.07782  -0.03614   0.06702
  90        4PY         0.02057  -0.04265  -0.06062   0.04637  -0.05353
  91        4PZ         0.01905   0.03152   0.08896   0.06113   0.02680
  92        5S         -0.09466   0.01064  -2.53389  -1.07904  -0.85510
  93        5PX         0.01705  -0.01100   0.42727   0.47237   0.27184
  94        5PY         0.01032  -0.00718   0.55056   0.16056   0.00631
  95        5PZ         0.00230   0.02558  -0.02385  -0.05791  -0.05490
  96        6D 0       -0.00164  -0.00029  -0.00023  -0.00233  -0.00092
  97        6D+1       -0.00090   0.00181   0.00117   0.00032  -0.00142
  98        6D-1       -0.00000   0.00016   0.00161   0.00034   0.00085
  99        6D+2        0.00431  -0.00450   0.00182  -0.00212  -0.00296
 100        6D-2       -0.00090  -0.00111  -0.00003   0.00304   0.00077
 101 7   H  1S         -0.00730   0.00050  -0.01358   0.00931   0.00500
 102        2S         -0.02947  -0.00954   0.03919  -0.01982  -0.04456
 103        3S         -0.04344  -0.03361  -0.26149   0.19389   0.13430
 104        4PX        -0.00047   0.00279   0.00238   0.00606  -0.00581
 105        4PY        -0.00039  -0.00326  -0.00184   0.00389   0.00788
 106        4PZ        -0.00036  -0.00111  -0.01224   0.00212   0.00287
 107 8   H  1S          0.00617   0.00040  -0.01241   0.00440   0.00467
 108        2S          0.02185   0.01702   0.02638  -0.02058  -0.05957
 109        3S          0.04044  -0.01475  -0.17520   0.19312   0.15162
 110        4PX        -0.00297   0.00191   0.00442   0.00521  -0.00592
 111        4PY         0.00080  -0.00189  -0.00010   0.00372   0.00730
 112        4PZ         0.00070   0.00053   0.01063  -0.00259  -0.00241
 113 9   H  1S         -0.00651  -0.00183   0.00235   0.00354  -0.00209
 114        2S         -0.00030   0.00364   0.07589   0.05390   0.01857
 115        3S          0.01276   0.03004   0.14688   0.09696   0.04599
 116        4PX         0.00044  -0.00417  -0.00448   0.00035  -0.00054
 117        4PY         0.00021   0.00047   0.00430   0.00583   0.00394
 118        4PZ        -0.00002   0.00038  -0.01253  -0.00435  -0.00636
 119 10  H  1S          0.01689  -0.01274   0.00669   0.00073   0.00222
 120        2S          0.03652  -0.02758   0.06392   0.06497  -0.02113
 121        3S          0.03981  -0.01901   0.20971  -0.05372   0.00136
 122        4PX        -0.00050  -0.00008   0.01381   0.00742  -0.00464
 123        4PY         0.00259  -0.00332  -0.00805  -0.00163   0.00374
 124        4PZ         0.00013   0.00120  -0.00232  -0.00137   0.00042
 125 11  H  1S         -0.08771  -0.00196  -0.00319   0.00416   0.00479
 126        2S         -0.15621  -0.00686   0.00740  -0.05080  -0.00988
 127        3S         -0.15780   0.03205   0.01806  -0.15520   0.10812
 128        4PX        -0.01405   0.01885   0.00112  -0.00138   0.00192
 129        4PY        -0.01411  -0.01831   0.00118   0.00475   0.00092
 130        4PZ        -0.00153   0.00924  -0.00651   0.01372   0.00162
                          21        22        23        24        25
                           V         V         V         V         V
     Eigenvalues --     0.04826   0.07499   0.08390   0.08693   0.10501
   1 1   N  1S          0.00036  -0.01370   0.00093  -0.01131   0.00464
   2        2S          0.00070  -0.02250   0.00154  -0.01868   0.00702
   3        2PX         0.00354  -0.01592   0.00288  -0.05063  -0.02824
   4        2PY        -0.00117   0.00599  -0.00111   0.02701   0.05917
   5        2PZ        -0.03843  -0.01054  -0.01416   0.00141  -0.01209
   6        3S         -0.00397   0.07455  -0.00394   0.06234  -0.00688
   7        3PX         0.00575  -0.01966   0.00338  -0.06269  -0.04813
   8        3PY        -0.00239   0.01077   0.00003   0.04860   0.06960
   9        3PZ        -0.05598  -0.01566  -0.02361  -0.00561  -0.00910
  10        4S          0.02311   0.08886  -0.00871   0.01407  -0.19389
  11        4PX         0.00349  -0.03597   0.00518  -0.17056  -0.03866
  12        4PY         0.00129   0.00426  -0.00233  -0.02928   0.17870
  13        4PZ        -0.06292  -0.04875   0.01669   0.00983  -0.02065
  14        5S         -0.24323   2.06002   0.07086  -0.64372   1.46805
  15        5PX        -0.00766   0.41644   0.00813  -0.33112  -0.38554
  16        5PY        -0.02539   0.35110  -0.07230   0.74505  -0.40337
  17        5PZ        -0.09025   0.01914  -0.53730   0.43978  -0.26387
  18        6D 0        0.00255   0.00064  -0.00027   0.00867  -0.00563
  19        6D+1       -0.00406   0.00035  -0.00485   0.00179   0.00128
  20        6D-1       -0.00281   0.00088  -0.00182   0.00205  -0.00722
  21        6D+2        0.00051   0.00081  -0.00013  -0.00174  -0.00266
  22        6D-2       -0.00109  -0.00523  -0.00025  -0.00254   0.00300
  23 2   C  1S          0.00463   0.00963  -0.00043   0.01575  -0.00597
  24        2S          0.00791   0.01573  -0.00056   0.02480  -0.00934
  25        2PX         0.00018   0.03456  -0.00577   0.00987  -0.01982
  26        2PY        -0.00944  -0.01699   0.00244  -0.00506   0.00541
  27        2PZ        -0.06093   0.00728  -0.06004  -0.00384  -0.00163
  28        3S         -0.03113  -0.04458  -0.00275  -0.05816   0.01820
  29        3PX        -0.00129   0.04212  -0.00811   0.02986  -0.00689
  30        3PY        -0.01466  -0.03553   0.00349  -0.01929   0.00374
  31        3PZ        -0.09894   0.01147  -0.10714  -0.00545  -0.00393
  32        4S         -0.00572  -0.13923   0.04421  -0.35232   0.21933
  33        4PX         0.00652   0.15511  -0.01874  -0.16236  -0.16054
  34        4PY        -0.02380   0.01412   0.00619  -0.10818   0.06611
  35        4PZ        -0.19395   0.03938  -0.19690  -0.01350  -0.02218
  36        5S         -0.29573  -1.27855  -0.86041  -0.04572  -1.63192
  37        5PX        -0.29599   0.66853  -0.24715   1.91459   1.48603
  38        5PY         0.19182   2.63314   0.02698  -0.00665   1.56573
  39        5PZ         0.76906  -0.08672   2.90223  -0.10248  -0.04510
  40        6D 0       -0.00217  -0.01607  -0.00268   0.00893  -0.00652
  41        6D+1        0.00037  -0.00021   0.00319  -0.00011   0.00081
  42        6D-1       -0.00517   0.00180  -0.00821  -0.00177   0.00115
  43        6D+2       -0.00069   0.00392  -0.00044   0.00440   0.00411
  44        6D-2       -0.00051   0.00086  -0.00024   0.00700   0.00449
  45 3   C  1S          0.00106   0.00758  -0.00100   0.01896  -0.00946
  46        2S          0.00206   0.01246  -0.00169   0.03049  -0.01500
  47        2PX        -0.00933  -0.04132   0.00454  -0.01792   0.01256
  48        2PY         0.00424   0.01067   0.00053   0.01437   0.01717
  49        2PZ        -0.06375   0.01412   0.05705   0.00083  -0.00428
  50        3S         -0.01321  -0.03279   0.00864  -0.08230   0.03226
  51        3PX        -0.01557  -0.06116   0.01051  -0.04945  -0.00076
  52        3PY         0.00365   0.02382  -0.00074   0.02578   0.03090
  53        3PZ        -0.10902   0.02319   0.10614   0.00636  -0.00987
  54        4S          0.03330  -0.18082  -0.01682  -0.35254   0.36964
  55        4PX        -0.01005  -0.08479   0.00137   0.06442   0.11919
  56        4PY         0.01579  -0.04624  -0.00758   0.20279   0.02669
  57        4PZ        -0.20352   0.03808   0.19673  -0.02591   0.03888
  58        5S          1.14508  -0.42265   0.89034   1.51694  -0.11122
  59        5PX         0.02677  -0.46917  -0.38768  -1.73729  -2.16564
  60        5PY         0.17360  -2.35341   0.16501   0.23487  -1.76483
  61        5PZ         0.88490  -0.16158  -2.74769  -0.09088   0.51491
  62        6D 0        0.00050  -0.01382   0.00056   0.01060  -0.00640
  63        6D+1       -0.00273  -0.00278   0.00594   0.00245  -0.00254
  64        6D-1        0.00505  -0.00080  -0.00707  -0.00032  -0.00306
  65        6D+2       -0.00118  -0.00164   0.00042   0.00019  -0.00136
  66        6D-2        0.00117   0.00116  -0.00123   0.00655   0.00964
  67 4   H  1S         -0.00951  -0.01412  -0.01991   0.00467  -0.00807
  68        2S          0.10015   0.00593   0.07046   0.07082  -0.02009
  69        3S         -0.34716  -0.31468  -0.41476  -0.36137  -0.09459
  70        4PX        -0.00084  -0.00051  -0.00303   0.00821   0.00411
  71        4PY         0.00321   0.00869   0.00284  -0.00149   0.00258
  72        4PZ         0.00621  -0.00334   0.00358   0.00698  -0.00292
  73 5   H  1S          0.00247  -0.01597   0.01740   0.00465  -0.01126
  74        2S         -0.07518   0.03107  -0.07785   0.04553  -0.03886
  75        3S          0.19763  -0.34060   0.43072  -0.25370  -0.20227
  76        4PX         0.00007  -0.00137   0.00233   0.00863   0.00309
  77        4PY         0.00053   0.00897  -0.00192  -0.00064   0.00305
  78        4PZ         0.00258   0.00292   0.00435  -0.00829   0.00376
  79 6   N  1S          0.00079  -0.01023  -0.00008  -0.00791   0.00732
  80        2S          0.00145  -0.01696  -0.00010  -0.01296   0.01161
  81        2PX        -0.00740   0.00035  -0.00153   0.05049   0.02242
  82        2PY         0.00092  -0.00206   0.00274  -0.02868  -0.06221
  83        2PZ        -0.04118  -0.01092   0.01017   0.00377   0.00051
  84        3S         -0.00779   0.05779  -0.00298   0.03829  -0.01796
  85        3PX        -0.01042   0.00158  -0.00071   0.06333   0.02964
  86        3PY         0.00114  -0.00413   0.00615  -0.04693  -0.07683
  87        3PZ        -0.06250  -0.01771   0.02094  -0.00218   0.01180
  88        4S          0.03119   0.08797   0.02806   0.07394  -0.25900
  89        4PX        -0.01853  -0.02789  -0.01553   0.22158   0.04813
  90        4PY         0.00836   0.00715   0.00466  -0.01360  -0.17512
  91        4PZ        -0.07063  -0.04120  -0.03906   0.01415   0.00746
  92        5S         -0.53485   1.05543  -0.07385  -1.13940   2.88615
  93        5PX         0.07057  -0.45533   0.02553   0.46036   0.73990
  94        5PY         0.07440  -0.25727   0.00729  -0.66148   0.54307
  95        5PZ        -0.08823   0.14166   0.41871   0.31810  -0.72515
  96        6D 0        0.00160  -0.00150   0.00054   0.00775  -0.00574
  97        6D+1        0.00282  -0.00119  -0.00447  -0.00010  -0.00328
  98        6D-1        0.00496   0.00030  -0.00219  -0.00223   0.00889
  99        6D+2        0.00105   0.00438  -0.00030   0.00207  -0.00404
 100        6D-2       -0.00015  -0.00812   0.00009  -0.00707   0.00851
 101 7   H  1S          0.00529  -0.01281  -0.01657   0.00636  -0.01030
 102        2S         -0.09517   0.03453   0.07520   0.08777   0.00563
 103        3S          0.26536  -0.30234  -0.37000  -0.34404  -0.29726
 104        4PX        -0.00088   0.00095   0.00321  -0.00835  -0.00611
 105        4PY         0.00060  -0.00900  -0.00123  -0.00067  -0.00360
 106        4PZ         0.00280   0.00244  -0.00339  -0.00899   0.00408
 107 8   H  1S         -0.00833  -0.01126   0.01817   0.00813  -0.01041
 108        2S          0.09852   0.01004  -0.07431   0.09389  -0.02092
 109        3S         -0.32435  -0.24158   0.40562  -0.33447  -0.29494
 110        4PX         0.00131  -0.00109  -0.00325  -0.00588  -0.00759
 111        4PY        -0.00175  -0.00776   0.00256  -0.00001  -0.00701
 112        4PZ         0.00582  -0.00379  -0.00340   0.00978  -0.00043
 113 9   H  1S         -0.00371  -0.00584  -0.00100   0.00773  -0.01800
 114        2S         -0.01561  -0.05622  -0.03378  -0.04167   0.06934
 115        3S         -0.01589   0.03338   0.05770   0.59572  -0.74305
 116        4PX         0.00002  -0.00565   0.00499  -0.00600   0.00880
 117        4PY        -0.00469  -0.00093   0.00263  -0.00447   0.00524
 118        4PZ         0.00593   0.00566  -0.00497  -0.01149   0.00125
 119 10  H  1S          0.00105   0.01781  -0.00006   0.00283  -0.00247
 120        2S          0.00479   0.01983  -0.01034  -0.02580   0.07298
 121        3S          0.06678   0.24611   0.03703  -0.38872  -0.78075
 122        4PX         0.00109  -0.00606   0.00115  -0.01023  -0.01136
 123        4PY        -0.00121  -0.00615   0.00036  -0.00002   0.01314
 124        4PZ        -0.00049   0.00005  -0.00634   0.00307  -0.00312
 125 11  H  1S          0.00239  -0.00471  -0.00139   0.00705  -0.01209
 126        2S         -0.00695  -0.05507   0.02283  -0.06413   0.03284
 127        3S          0.05324  -0.02759  -0.16389   0.62099  -0.37598
 128        4PX         0.00116   0.00175   0.00446   0.00068  -0.00481
 129        4PY         0.00466   0.00254   0.00107   0.00664  -0.00179
 130        4PZ         0.00551   0.00518   0.00489  -0.00652   0.00387
                          26        27        28        29        30
                           V         V         V         V         V
     Eigenvalues --     0.12233   0.12850   0.13495   0.16393   0.16921
   1 1   N  1S          0.00109  -0.00450   0.00150   0.00239  -0.00388
   2        2S          0.00164  -0.00760   0.00216   0.00410  -0.00631
   3        2PX        -0.00915   0.00210   0.02972   0.01476   0.01523
   4        2PY         0.02498  -0.02855  -0.00485  -0.02851  -0.04079
   5        2PZ         0.06352   0.05193  -0.01911  -0.01976   0.08119
   6        3S          0.00194   0.03075   0.00419  -0.02259   0.02322
   7        3PX        -0.01649   0.00705   0.02130   0.00869   0.02279
   8        3PY         0.03551  -0.03624  -0.01236  -0.03327  -0.02691
   9        3PZ         0.08005   0.05834  -0.01944  -0.02592   0.08313
  10        4S         -0.08502  -0.02398  -0.11882   0.05009  -0.02809
  11        4PX        -0.01165  -0.01306   0.11180   0.07308  -0.00058
  12        4PY         0.07252  -0.05088  -0.00036  -0.13141  -0.22187
  13        4PZ         0.22220   0.18108  -0.03914  -0.11569   0.36535
  14        5S          0.17148   3.32480   1.67576  -3.21750   0.33299
  15        5PX        -0.37063   0.97084  -0.49931  -0.58897   0.32995
  16        5PY        -0.52676   0.26857  -0.69689   0.91191   0.74009
  17        5PZ        -1.29346  -0.88322  -0.39866   1.68292  -1.98871
  18        6D 0       -0.00670  -0.00723  -0.01101   0.01196  -0.00296
  19        6D+1        0.00275   0.00105  -0.00270  -0.00462   0.00663
  20        6D-1       -0.00560   0.00023  -0.00557   0.00896   0.00035
  21        6D+2        0.00134  -0.00170   0.00687   0.00287   0.00478
  22        6D-2        0.00370  -0.00498   0.00759  -0.00131  -0.00657
  23 2   C  1S          0.00542  -0.00616  -0.02158  -0.00659   0.00324
  24        2S          0.00890  -0.01051  -0.03439  -0.00980   0.00449
  25        2PX        -0.00692  -0.00121   0.01061   0.03542   0.02845
  26        2PY        -0.02605   0.03721  -0.02686  -0.00755  -0.00509
  27        2PZ        -0.01500  -0.01380  -0.00299   0.00500  -0.01984
[...]
    Y5        1.69825   0.00004   0.00000   0.00521   0.00540   1.70364
    Z5       -1.50038  -0.00001   0.00000   0.00600   0.00557  -1.49481
    X6       10.45409   0.00021   0.00000  -0.00089  -0.00138  10.45271
    Y6        1.39905   0.00008   0.00000   0.00069   0.00115   1.40019
    Z6       -0.20555  -0.00023   0.00000  -0.00335  -0.00403  -0.20959
    X7        8.69126   0.00000   0.00000  -0.00310  -0.00350   8.68776
    Y7       -1.93732   0.00001   0.00000   0.00011   0.00046  -1.93686
    Z7       -1.74689   0.00001   0.00000   0.00081   0.00024  -1.74665
    X8        8.99220  -0.00002   0.00000   0.00097   0.00074   8.99295
    Y8       -1.82558  -0.00001   0.00000   0.00192   0.00231  -1.82328
    Z8        1.57524  -0.00000   0.00000   0.00019  -0.00040   1.57484
    X9       10.13200   0.00009   0.00000   0.00564   0.00501  10.13701
    Y9        2.46535  -0.00014   0.00000  -0.00679  -0.00636   2.45900
    Z9       -1.77221   0.00023   0.00000  -0.00897  -0.00964  -1.78185
   X10       12.22964  -0.00033   0.00000  -0.00107  -0.00154  12.22810
   Y10        0.69324   0.00011   0.00000  -0.00052   0.00003   0.69326
   Z10       -0.39963   0.00006   0.00000   0.00709   0.00632  -0.39331
   X11        3.90046   0.00004   0.00000   0.00728   0.00693   3.90739
   Y11       -2.49211  -0.00001   0.00000  -0.00202  -0.00192  -2.49404
   Z11       -1.49487  -0.00003   0.00000  -0.00162  -0.00194  -1.49681
         Item               Value     Threshold  Converged?
 Maximum Force            0.000327     0.000450     YES
 RMS     Force            0.000098     0.000300     YES
 Maximum Displacement     0.009644     0.001800     NO 
 RMS     Displacement     0.003550     0.001200     NO 
 Predicted change in Energy=-7.574303D-07
 GradGradGradGradGradGradGradGradGradGradGradGradGradGradGradGradGradGrad

 Leave Link  103 at Fri Jun  2 11:31:01 2023, MaxMem=  7381975040 cpu:               3.3 elap:               4.5
 (Enter /software/commercial/gaussian/g16/AVX/g16/l9999.exe)

 ----------------------------------------------------------------------

 Electric dipole moment (input orientation):
 (Debye = 10**-18 statcoulomb cm , SI units = C m)
                  (au)            (Debye)         (10**-30 SI)
   Tot        0.416570D+01      0.105882D+02      0.353183D+02
   x         -0.377540D+01     -0.959612D+01     -0.320092D+02
   y          0.112408D+01      0.285712D+01      0.953031D+01
   z         -0.135494D+01     -0.344391D+01     -0.114876D+02

 Dipole polarizability, Alpha (input orientation).
 (esu units = cm**3 , SI units = C**2 m**2 J**-1)
 Alpha(0;0):
               (au)            (10**-24 esu)      (10**-40 SI)
   iso        0.803415D+02      0.119054D+02      0.132465D+02
   aniso      0.207724D+02      0.307816D+01      0.342491D+01
   xx         0.867129D+02      0.128495D+02      0.142970D+02
   yx        -0.136784D+01     -0.202692D+00     -0.225526D+00
   yy         0.859607D+02      0.127381D+02      0.141730D+02
   zx         0.484765D+00      0.718347D-01      0.799269D-01
   zy        -0.580976D+01     -0.860918D+00     -0.957900D+00
   zz         0.683509D+02      0.101286D+02      0.112695D+02

 First dipole hyperpolarizability, Beta (input orientation).
 ||, _|_  parallel and perpendicular components, (z) with respect to z axis,
 vector components x,y,z.  Values do not include the 1/n! factor of 1/2.
 (esu units = statvolt**-1 cm**4 , SI units = C**3 m**3 J**-2)
 Beta(0;0,0):
               (au)            (10**-30 esu)      (10**-50 SI)
   || (z)    -0.181504D+02     -0.156805D+00     -0.581968D-01
   _|_(z)    -0.605014D+01     -0.522685D-01     -0.193989D-01
   x          0.327502D+04      0.282937D+02      0.105009D+02
   y         -0.844934D+03     -0.729957D+01     -0.270916D+01
   z         -0.907521D+02     -0.784027D+00     -0.290984D+00
   ||         0.676696D+03      0.584613D+01      0.216973D+01
   xxx        0.291823D+03      0.252113D+01      0.935691D+00
   xxy       -0.307514D+02     -0.265668D+00     -0.986001D-01
   yxy        0.595123D+03      0.514140D+01      0.190818D+01
   yyy       -0.190415D+03     -0.164504D+01     -0.610539D+00
   xxz       -0.103156D+03     -0.891189D+00     -0.330756D+00
   yxz       -0.660837D+02     -0.570912D+00     -0.211888D+00
   yyz       -0.157243D+02     -0.135846D+00     -0.504178D-01
   zxz        0.204729D+03      0.176870D+01      0.656434D+00
   zyz       -0.604784D+02     -0.522486D+00     -0.193916D+00
   zzz        0.886298D+02      0.765692D+00      0.284179D+00

 ----------------------------------------------------------------------

 Dipole orientation:
     7          0.99534532          0.71716576         -4.01731392
     6          2.19732059         -1.41592581         -5.24582618
     6          3.22429586         -0.92215004         -7.92893231
     1          0.82822024         -2.97636936         -5.40932925
     1          3.82186144         -2.24295357         -4.17559327
     7          4.41915201         -3.19586906         -9.03023536
     1          4.53015870          0.69840987         -7.83152160
     1          1.65433545         -0.35916689         -9.15467229
     1          5.91333283         -3.72140350         -7.94101349
     1          5.13987158         -2.80412075        -10.76675602
     1          2.37789848          2.03879101         -3.72126559

 Electric dipole moment (dipole orientation):
 (Debye = 10**-18 statcoulomb cm , SI units = C m)
                  (au)            (Debye)         (10**-30 SI)
   Tot        0.416570D+01      0.105882D+02      0.353183D+02
   x          0.000000D+00      0.000000D+00      0.000000D+00
   y          0.000000D+00      0.000000D+00      0.000000D+00
   z          0.416570D+01      0.105882D+02      0.353183D+02

 Dipole polarizability, Alpha (dipole orientation).
 (esu units = cm**3 , SI units = C**2 m**2 J**-1)
 Alpha(0;0):
               (au)            (10**-24 esu)      (10**-40 SI)
   iso        0.803415D+02      0.119054D+02      0.132465D+02
   aniso      0.207724D+02      0.307816D+01      0.342491D+01
   xx         0.730222D+02      0.108208D+02      0.120397D+02
   yx        -0.847681D+01     -0.125613D+01     -0.139764D+01
   yy         0.813121D+02      0.120492D+02      0.134066D+02
   zx        -0.325409D+01     -0.482207D+00     -0.536527D+00
   zy        -0.373842D+01     -0.553976D+00     -0.616382D+00
   zz         0.866902D+02      0.128462D+02      0.142933D+02

 First dipole hyperpolarizability, Beta (dipole orientation).
 ||, _|_  parallel and perpendicular components, (z) with respect to z axis,
 vector components x,y,z.  Values do not include the 1/n! factor of 1/2.
 (esu units = statvolt**-1 cm**4 , SI units = C**3 m**3 J**-2)
 Beta(0;0,0):
               (au)            (10**-30 esu)      (10**-50 SI)
   || (z)    -0.633331D+03     -0.547149D+01     -0.203069D+01
   _|_(z)    -0.211110D+03     -0.182383D+01     -0.676896D+00
   x          0.117150D+04      0.101209D+02      0.375627D+01
   y          0.218640D+03      0.188888D+01      0.701037D+00
   z         -0.316666D+04     -0.273574D+02     -0.101534D+02
   ||         0.676696D+03      0.584613D+01      0.216973D+01
   xxx        0.201037D+03      0.173680D+01      0.644597D+00
   xxy       -0.108974D+03     -0.941452D+00     -0.349410D+00
   yxy        0.234386D+03      0.202491D+01      0.751527D+00
   yyy       -0.970361D+02     -0.838316D+00     -0.311133D+00
   xxz       -0.245997D+03     -0.212523D+01     -0.788757D+00
   yxz        0.412583D+02      0.356440D+00      0.132289D+00
   yyz       -0.435441D+03     -0.376187D+01     -0.139618D+01
   zxz       -0.449215D+02     -0.388086D+00     -0.144034D+00
   zyz        0.278890D+03      0.240939D+01      0.894222D+00
   zzz       -0.374113D+03     -0.323205D+01     -0.119954D+01

 ----------------------------------------------------------------------
 Unable to Open any file for archive entry.
 1\1\GINC-NODE1942\Freq\RB3LYP\6-311+G(d,p)\C2H7N2(1-)\SVICCHI\02-Jun-2
 023\0\\#p freq=raman scale=0.967 pop=(nbo,full,hirshfeld) guess=read g
 eom=allcheck b3lyp/6-311+G(d,p) int=grid=ultrafine EmpiricalDispersion
 =GD3BJ SCRF=(Solvent=ethanol) scf=(xqc,intrep,maxconventionalcycle=350
 ) nosymm\\EDA-H_dissociation-site_index-0.gjf\\-1,1\N,2.0569166682,-0.
 8351049282,0.1116907869\C,3.0962399246,0.1736117096,0.0512708949\C,4.5
 414531162,-0.356170411,-0.0499537332\H,3.0515800558,0.7969506472,0.958
 8504252\H,2.99057037,0.8986727668,-0.7939685041\N,5.5320675002,0.74034
 3826,-0.1087739421\H,4.5992170982,-1.0251865318,-0.9244131387\H,4.7584
 692339,-0.9660575666,0.8335788533\H,5.3616216041,1.3046088455,-0.93781
 2754\H,6.4716473913,0.3668455621,-0.2114771631\H,2.0640360377,-1.31876
 99196,-0.7910527251\\Version=ES64L-G16RevC.01\HF=-190.0568249\RMSD=5.9
 44e-10\RMSF=9.816e-05\ZeroPoint=0.0915339\Thermal=0.0970429\ETot=-189.
 9597819\HTot=-189.9588377\GTot=-189.9928567\Dipole=3.5685405,1.0266335
 ,-1.4601891\DipoleDeriv=-1.4523632,-0.1343299,-0.1204736,-0.2286261,-1
 .2569754,0.2327723,-0.252143,0.1232863,-0.5520645,0.754483,0.3265942,-
 0.0921517,0.5987589,0.7941725,-0.1390182,0.0317532,-0.0453499,0.425692
 6,0.2458324,0.3266253,0.0245079,0.1750121,0.5570092,0.0545407,-0.02750
 15,-0.0084271,0.4024689,-0.0144307,-0.0185299,-0.0168178,-0.0028495,-0
 .1626939,-0.1784141,-0.0283683,-0.2333254,-0.2131035,-0.0885419,-0.135
 1072,0.0650584,-0.0749252,-0.467683,0.3189551,0.1317305,0.4178043,-0.2
 751258,-0.8191662,-0.2789862,-0.0013792,-0.3053474,-0.6522231,-0.16797
 53,0.0065744,-0.14408,-0.4834341,-0.0287031,-0.0771628,-0.0003585,-0.0
 636552,-0.2149773,-0.1717827,0.0066696,-0.2245581,-0.1909804,0.0203125
 ,0.0098581,-0.0360505,0.0063581,-0.1031352,0.1245514,-0.0813866,0.1634
 009,-0.1496766,0.1913522,0.0095164,-0.0751454,-0.0461647,0.2275088,0.0
 911023,-0.0314476,0.1771454,0.0501421,-0.0177443,0.0255809,0.0660668,0
 .0746578,0.1468024,0.0264294,0.1486758,0.0370219,0.2869212,0.2089692,-
 0.0540589,0.1867434,-0.1332188,0.132195,-0.1911609,0.0954434,-0.262918
 3,-0.3008397\Polar=86.7128879,-1.3678365,85.9607057,0.4847645,-5.80976
 1,68.3509294\PolarDeriv=-3.5077526,-0.2207472,8.6322522,-5.0094363,2.9
 915075,-1.7519022,-9.7405118,2.7982949,7.337796,0.0340695,-2.7479969,1
 5.3700121,-1.1146587,-1.0744402,-0.560097,-5.5487956,9.0558182,11.2325
 252,-8.5221693,-4.0837902,-2.7575765,4.0765361,-2.7594881,1.4869785,18
 .3322168,-12.2456302,-26.5399709,6.2939954,6.4266016,-10.5488102,1.596
 4739,5.5429484,17.5288289,-2.2671039,-21.4511108,2.1323591,1.091369,-5
 .6860362,5.8077464,-0.6058748,1.4722357,-1.2257867,-12.0391802,-1.7975
 357,10.8959182,1.5680975,1.6395294,8.8533556,-2.4547894,3.6146565,0.57
 33018,-0.9776615,14.9929836,-0.9848196,-0.0787478,1.6263931,0.0423341,
 1.6189598,0.9677586,-0.8318418,-1.4958751,0.9052267,4.6123724,-0.13537
 77,4.4557938,2.0918906,1.0213167,0.9581772,4.5610807,-0.3517719,7.7562
 155,8.5868452,0.9066783,2.0714489,-2.061662,-2.2032999,0.7555518,0.013
 3806,-4.543581,6.2525719,12.9206829,-2.9347702,-7.6332628,2.5143621,-0
 .8672821,-6.8115583,-15.2471466,3.3644422,11.1514327,-10.1092016,-1.69
 07278,8.2633943,-2.4777721,1.071086,-0.7623872,0.5826758,13.2368137,0.
 775267,-1.2606389,-0.0678171,1.2313335,-5.9362119,3.1653298,1.3373407,
 1.3836638,0.2331632,-5.1536522,3.8756272,-0.9281814,-1.1090684,-1.4245
 072,-1.4066737,-0.7964115,-0.2133274,-0.3026969,0.4600147,-7.179474,-0
 .6072319,-4.2932838,-3.2775678,-1.9066468,-1.5840656,-5.5938204,0.9886
 111,-7.0686963,-7.8549799,0.568604,-0.6102294,-1.4824542,1.5136362,0.4
 728955,0.6051653,-0.65751,2.6400972,-4.5038651,-0.7599272,2.8189024,-2
 .9888075,2.4132495,-0.985956,3.4424801,2.3110252,-5.800644,7.6657835,-
 1.5397768,-0.6337085,-0.9483886,0.0042392,0.596382,-1.2969364,0.494176
 5,0.7918204,4.5248649,-0.401165,-2.8735118,6.0970429,-1.7729989,-0.463
 8233,-3.9129228,0.7721729,5.0004472,-5.474998,16.0808473,-0.8015009,0.
 6734214,-2.3311467,0.6685767,0.6741745,-4.270443,1.5556344,-0.9270736,
 0.1319868,0.9549882,-0.285355,-0.7474353,-0.7217288,2.0766129,0.693474
 7,1.1475335,1.1711838,-2.3801429,1.1838443,-4.0033935,3.2719739,-3.606
 621,1.9574198,0.986591,-2.1357615,0.1193883,-3.1218601,0.0209063,-11.8
 899108,0.6674413,0.1884494,-4.2519815,0.7824437,-9.6303274,-10.2403248
 \HyperPolar=291.8231987,-30.7514122,595.1230386,-190.4149643,-103.1561
 569,-66.0837361,-15.7243132,204.7287567,-60.4783917,88.6297791\Quadrup
 ole=-8.9883336,2.0215841,6.9667495,1.4669404,-8.8816255,0.6168325\PG=C
 01 [X(C2H7N2)]\NImag=0\\0.19290853,0.12711566,0.25985309,-0.02534845,0
 .15054600,0.38389964,-0.12726439,-0.07602887,-0.00888838,0.38770736,-0
 .05163058,-0.12915362,-0.01724525,-0.00708661,0.47377257,0.01819852,0.
 00727423,-0.08236035,0.00826949,0.04252299,0.54053937,-0.03156132,-0.0
 1054260,0.00263018,-0.12576264,0.05503943,0.00230358,0.41951166,-0.030
 34889,0.00310804,0.00079095,0.03832598,-0.09444566,-0.00455326,-0.0291
 1937,0.50719696,0.00230390,-0.00032626,0.00087951,0.00658527,-0.005200
 78,-0.07353219,0.01810687,-0.01995859,0.58060478,-0.00345360,-0.017164
 68,-0.01991454,-0.04436181,0.01022856,0.01248717,-0.00617338,0.0175330
 8,0.02626223,0.05640574,-0.00698802,-0.01644070,-0.01809874,0.01136392
 ,-0.11019915,-0.09909654,0.00344022,-0.00957612,-0.01400912,-0.0046411
 3,0.12959480,-0.00465527,-0.00227213,0.00319874,0.01451653,-0.10165727
 ,-0.21140947,-0.00063945,-0.00288824,-0.00441160,-0.01226363,0.1172034
 1,0.22851000,-0.00190745,-0.02428960,0.01914602,-0.04816183,0.01801142
 ,-0.01957516,-0.01058031,0.01987753,-0.02456287,0.00101910,-0.00123648
 ,0.00199887,0.06170571,-0.01459982,-0.02614789,0.01656512,0.02566794,-
 0.10794054,0.08384878,0.00615642,-0.01093893,0.01566744,-0.00161044,0.
 01005836,-0.01070985,-0.01682785,0.13204889,0.01004264,0.01118694,0.00
 481155,-0.02820186,0.07630088,-0.16220311,0.00158879,0.00218067,-0.002
 77217,-0.00458530,0.01527686,-0.02328843,0.02210111,-0.10359785,0.1764
 3552,-0.01156327,0.00106154,0.00005229,-0.02276138,-0.03225889,0.00185
 433,-0.12956613,-0.05390099,-0.02174718,0.00246833,-0.00073058,-0.0003
 2641,0.00170704,-0.00086080,0.00019194,0.59141284,0.00095979,0.0024932
 4,-0.00068036,0.00061417,0.00596242,0.00152331,-0.03399275,-0.14820002
 ,-0.00323250,-0.00009784,0.00158112,0.00118033,0.00111765,0.00102206,-
 0.00100432,-0.08037820,0.41582596,0.00051139,0.00007013,0.00152112,0.0
 0032645,0.00156406,-0.00039011,0.00499888,0.02648531,-0.07137573,-0.00
 064872,0.00088319,0.00077219,-0.00060906,-0.00049107,0.00084244,0.0156
 7951,-0.19517251,0.37995763,0.00315024,0.00048516,-0.00045253,-0.00584
 486,0.01745711,0.02584103,-0.04701307,0.01184204,0.01396482,-0.0056488
 8,0.00274254,0.00097423,0.00153516,-0.00077484,-0.00064380,-0.00518578
 ,-0.02353029,-0.01815680,0.05646565,-0.00074813,0.00138633,0.00183080,
 0.00122280,-0.00831928,-0.01308412,0.01336939,-0.12165107,-0.10437204,
 0.00221788,-0.00110490,-0.00049196,-0.00048043,0.00038625,0.00022471,-
 0.01006596,-0.02400430,-0.01812418,-0.00603686,0.14107800,0.00039362,0
 .00178591,0.00142907,-0.00200611,-0.00255527,-0.00412161,0.01488981,-0
 .10344530,-0.20406076,0.00097229,-0.00082893,0.00167053,0.00057891,-0.
 00024368,0.00130267,-0.00241285,-0.00018849,0.00753389,-0.01410573,0.1
 2010323,0.21631268,0.00418912,-0.00086687,0.00207228,-0.00862108,0.016
 92925,-0.02478870,-0.05530520,0.02975810,-0.04580227,0.00158965,-0.000
 80112,0.00042611,-0.00578210,0.00258520,-0.00018024,0.00300480,-0.0191
 0625,0.02014549,0.00130356,-0.00058001,0.00269917,0.06243778,-0.001778
 08,0.00170040,-0.00090898,0.00368296,-0.00828959,0.01072459,0.02566624
 ,-0.11634812,0.10488719,-0.00047800,0.00032042,0.00002166,0.00246564,-
 0.00143362,0.00054061,0.00248544,-0.01887443,0.02034092,-0.00325392,0.
 00996431,-0.01475144,-0.02506580,0.13538476,0.00026908,-0.00130177,0.0
 0057629,0.00225872,-0.00052343,0.00101174,-0.04257535,0.10965121,-0.21
 861530,-0.00042963,0.00011427,0.00144799,-0.00000932,0.00030392,0.0016
 7079,0.00152364,0.00133270,0.00196577,-0.00622499,0.01272429,-0.022551
 69,0.04414341,-0.12200999,0.23287490,-0.00028316,0.00113626,-0.0007865
 0,0.00121657,-0.00218875,0.00232461,0.00572148,-0.01523045,0.02306332,
 -0.00017503,0.00007835,-0.00014678,-0.00022101,0.00097963,-0.00136448,
 -0.07014557,0.03048574,-0.04865452,0.00041928,0.00013003,-0.00051709,-
 0.00328099,-0.00374091,0.00051926,0.07346645,0.00027485,0.00012100,-0.
 00041369,0.00077901,0.00133083,-0.00033731,0.00309165,-0.01943350,0.02
 556240,0.00010015,0.00002370,-0.00017816,-0.00069504,0.00046196,-0.000
 04002,0.02894276,-0.13341529,0.15470931,0.00146972,0.00081981,-0.00011
 446,-0.00382216,-0.00303481,-0.00073735,-0.03288325,0.16272066,0.00007
 070,-0.00014758,0.00025342,-0.00058719,-0.00034591,0.00011259,-0.00167
 294,-0.00374993,-0.00382660,0.00008529,0.00005336,-0.00007787,0.000715
 02,-0.00028361,0.00003289,-0.06210941,0.20110140,-0.28895481,0.0000301
 2,-0.00042862,0.00170847,0.00107394,0.00113028,0.00170863,0.05869051,-
 0.19133875,0.28866679,-0.00172078,0.00075216,0.00015653,-0.00009983,-0
 .00687300,0.00024850,-0.02134582,0.01235855,0.00417790,0.00034173,0.00
 012197,0.00017812,0.00057351,0.00007180,-0.00024355,-0.35939880,0.1236
 0886,0.02571547,0.00140686,0.00068248,-0.00108879,0.00057106,0.0000371
 8,0.00043183,-0.00674399,0.00279309,0.00373195,0.38639184,-0.00248828,
 -0.00019551,0.00014008,0.00079974,-0.00438170,0.00032939,-0.03279406,0
 .00964371,0.00079059,-0.00010808,0.00013522,0.00025472,-0.00005731,0.0
 0041226,-0.00041403,0.14585305,-0.10264392,0.00963211,0.00015131,0.000
 83777,-0.00010316,0.00082754,0.00055467,0.00036569,0.02123134,-0.00941
 630,-0.00602570,-0.13356653,0.10506152,0.00057585,0.00001751,0.0007825
 5,0.00007245,0.00173201,-0.00038461,-0.00077731,-0.00552929,-0.0030915
 2,-0.00048717,0.00018825,0.00022449,0.00014686,-0.00051495,0.00029071,
 0.06679898,-0.00523386,-0.03228628,-0.00028799,0.00123446,0.00061924,0
 .00019097,0.00005355,-0.00009494,-0.03313895,0.01293913,0.00043500,-0.
 03330225,-0.00502530,0.03349146,-0.02249393,-0.00165816,0.03133309,-0.
 00604610,-0.01762793,-0.02716337,0.00207472,-0.00109558,-0.00235198,-0
 .00201183,-0.00334967,-0.00006232,0.00011219,-0.00078724,0.00129474,0.
 00002792,0.00031912,0.00069190,-0.00058816,0.00028881,0.00059675,-0.00
 010661,-0.00002075,0.00009335,0.00002598,-0.00005079,-0.00002800,0.000
 02421,0.00015129,0.00020855,0.02898161,-0.01976851,-0.09672439,-0.1325
 2593,0.00065896,-0.01833628,-0.02915206,-0.00031457,0.00064469,0.00019
 168,-0.00597949,-0.00439277,-0.00046252,0.00211447,0.00207120,-0.00065
 447,-0.00014737,0.00025316,0.00010274,-0.00055197,0.00060709,0.0003415
 9,0.00014212,0.00005601,0.00008045,0.00000200,-0.00017807,0.00003505,0
 .00001344,-0.00000772,0.00013849,0.02383091,0.11600707,-0.00236199,-0.
 16683299,-0.31499153,0.00765463,0.00540798,-0.00726226,0.00114693,0.00
 101646,0.00020158,-0.00147799,-0.00168602,0.00336344,0.00006961,-0.000
 54425,0.00287714,0.00049515,0.00037429,0.00041391,-0.00093836,0.000383
 43,0.00015752,0.00001982,-0.00002840,0.00000583,0.00001062,-0.00005109
 ,-0.00005851,-0.00000572,0.00005561,0.00001390,-0.00461271,0.16190498,
 0.31527897\\-0.00000326,0.00000714,0.00006379,0.00002635,0.00002887,-0
 .00000999,0.00000312,0.00003103,-0.00000581,0.00001107,0.00000629,-0.0
 0001301,-0.00002926,-0.00003818,0.00000878,-0.00021253,-0.00007832,0.0
 0022560,-0.00000267,-0.00001040,-0.00001177,0.00001636,0.00001408,0.00
 000367,-0.00009284,0.00014074,-0.00022532,0.00032664,-0.00011248,-0.00
 006483,-0.00004300,0.00001125,0.00002888\\\@
 The archive entry for this job was punched.


 If fifty million people say a stupid thing,
 it is still a stupid thing.
                   -- Anatole France
 Job cpu time:       0 days  0 hours  9 minutes 37.0 seconds.
 Elapsed time:       0 days  0 hours  5 minutes 58.2 seconds.
 File lengths (MBytes):  RWF=     76 Int=      0 D2E=      0 Chk=      8 Scr=      1
 Normal termination of Gaussian 16 at Fri Jun  2 11:31:09 2023.
