 Entering Gaussian System, Link 0=g16
 Input=glycerol-H_dissociation-site_index-3-freq.gjf
 Output=glycerol-H_dissociation-site_index-3-freq.log
 Initial command:
 /software/commercial/gaussian/g16/AVX/g16/l1.exe "/scratch1/svicchi/G09-659918.pbs02/Gau-295277.inp" -scrdir="/scratch1/svicchi/G09-659918.pbs02/"
 Entering Link 1 = /software/commercial/gaussian/g16/AVX/g16/l1.exe PID=    295283.
  
 Copyright (c) 1988-2019, Gaussian, Inc.  All Rights Reserved.
  
 This is part of the Gaussian(R) 16 program.  It is based on
 the Gaussian(R) 09 system (copyright 2009, Gaussian, Inc.),
 the Gaussian(R) 03 system (copyright 2003, Gaussian, Inc.),
 the Gaussian(R) 98 system (copyright 1998, Gaussian, Inc.),
 the Gaussian(R) 94 system (copyright 1995, Gaussian, Inc.),
 the Gaussian 92(TM) system (copyright 1992, Gaussian, Inc.),
 the Gaussian 90(TM) system (copyright 1990, Gaussian, Inc.),
 the Gaussian 88(TM) system (copyright 1988, Gaussian, Inc.),
 the Gaussian 86(TM) system (copyright 1986, Carnegie Mellon
 University), and the Gaussian 82(TM) system (copyright 1983,
 Carnegie Mellon University). Gaussian is a federally registered
 trademark of Gaussian, Inc.
  
 This software contains proprietary and confidential information,
 including trade secrets, belonging to Gaussian, Inc.
  
 This software is provided under written license and may be
 used, copied, transmitted, or stored only in accord with that
 written license.
  
 The following legend is applicable only to US Government
 contracts under FAR:
  
                    RESTRICTED RIGHTS LEGEND
  
 Use, reproduction and disclosure by the US Government is
 subject to restrictions as set forth in subparagraphs (a)
 and (c) of the Commercial Computer Software - Restricted
 Rights clause in FAR 52.227-19.
  
 Gaussian, Inc.
 340 Quinnipiac St., Bldg. 40, Wallingford CT 06492
  
  
 ---------------------------------------------------------------
 Warning -- This program may not be used in any manner that
 competes with the business of Gaussian, Inc. or will provide
 assistance to any competitor of Gaussian, Inc.  The licensee
 of this program is prohibited from giving any competitor of
 Gaussian, Inc. access to this program.  By using this program,
 the user acknowledges that Gaussian, Inc. is engaged in the
 business of creating and licensing software in the field of
 computational chemistry and represents and warrants to the
 licensee that it is not a competitor of Gaussian, Inc. and that
 it will not use this program in any manner prohibited above.
 ---------------------------------------------------------------
  

 Cite this work as:
 Gaussian 16, Revision C.01,
 M. J. Frisch, G. W. Trucks, H. B. Schlegel, G. E. Scuseria, 
 M. A. Robb, J. R. Cheeseman, G. Scalmani, V. Barone, 
 G. A. Petersson, H. Nakatsuji, X. Li, M. Caricato, A. V. Marenich, 
 J. Bloino, B. G. Janesko, R. Gomperts, B. Mennucci, H. P. Hratchian, 
 J. V. Ortiz, A. F. Izmaylov, J. L. Sonnenberg, D. Williams-Young, 
 F. Ding, F. Lipparini, F. Egidi, J. Goings, B. Peng, A. Petrone, 
 T. Henderson, D. Ranasinghe, V. G. Zakrzewski, J. Gao, N. Rega, 
 G. Zheng, W. Liang, M. Hada, M. Ehara, K. Toyota, R. Fukuda, 
 J. Hasegawa, M. Ishida, T. Nakajima, Y. Honda, O. Kitao, H. Nakai, 
 T. Vreven, K. Throssell, J. A. Montgomery, Jr., J. E. Peralta, 
 F. Ogliaro, M. J. Bearpark, J. J. Heyd, E. N. Brothers, K. N. Kudin, 
 V. N. Staroverov, T. A. Keith, R. Kobayashi, J. Normand, 
 K. Raghavachari, A. P. Rendell, J. C. Burant, S. S. Iyengar, 
 J. Tomasi, M. Cossi, J. M. Millam, M. Klene, C. Adamo, R. Cammi, 
 J. W. Ochterski, R. L. Martin, K. Morokuma, O. Farkas, 
 J. B. Foresman, and D. J. Fox, Gaussian, Inc., Wallingford CT, 2019.
 
 ******************************************
 Gaussian 16:  ES64L-G16RevC.01  3-Jul-2019
                 2-Jun-2023 
 ******************************************
 %NProcShared=2
 Will use up to    2 processors via shared memory.
 %mem=55gb
 %chk=/scratch1/svicchi/G09-659918.pbs02/02-freq/glycerol-H_dissociation-site_ind
 ex-3-freq.chk
 ----------------------------------------------------------------------
 #p freq=raman scale=0.967 pop=(nbo,full,hirshfeld) guess=read geom=all
 check b3lyp/6-311+G(d,p) int=grid=ultrafine EmpiricalDispersion=GD3BJ 
 SCRF=(Solvent=ethanol) scf=(xqc,intrep,maxconventionalcycle=350) nosym
 m
 ----------------------------------------------------------------------
 1/10=4,29=7,30=1,38=1,114=967000/1,3;
 2/12=2,15=1,40=1/2;
 3/5=4,6=6,7=111,11=2,14=-4,25=1,30=1,70=2201,71=2,72=4,74=-5,75=-5,116=-2,124=41,140=1/1,2,3;
 4/5=1/1;
 5/5=2,8=3,13=1,17=20,38=6,53=4,85=350,98=1/2,8;
 8/6=4,10=90,11=11/1;
 10/13=10,15=4,31=1/2;
 11/6=3,8=1,9=11,15=111,16=1,31=1/1,2,10;
 10/6=1,31=1/2;
 6/7=3,28=1,40=1,79=1/1,7;
 7/8=1,10=1,25=1,30=1/1,2,3,16;
 1/10=4,30=1/3;
 99//99;
 Leave Link    1 at Fri Jun  2 11:18:27 2023, MaxMem=  7381975040 cpu:               1.2 elap:               1.4
 (Enter /software/commercial/gaussian/g16/AVX/g16/l101.exe)
 Structure from the checkpoint file:  "/scratch1/svicchi/G09-659918.pbs02/02-freq/glycerol-H_dissociation-site_index-3-freq.chk"
 ----------------------------------------
 glycerol-H_dissociation-site_index-3.gjf
 ----------------------------------------
 Charge = -1 Multiplicity = 1
 No Z-Matrix found in chk file; cartesian coordinates used.
  O                                                 2.356735344980     -0.003057342729      0.045366681420
  C                                                 1.278444075644      0.904447280419      0.296032466595
  C                                                -0.000057812756      0.267546554737     -0.283482159882
  O                                                -0.000351826641     -1.092071618828     -0.024858922498
  C                                                -1.279174890499      0.904664048337      0.294415579100
  O                                                -2.357297098708     -0.002696859443      0.042362457473
  H                                                 1.855435966798     -0.851681741086      0.018500288592
  H                                                 1.162966574262      1.050872017896      1.380963879716
  H                                                 1.514016276982      1.869434647060     -0.164265840638
  H                                                 0.000652044608      0.468134355148     -1.380219738744
  H                                                -1.165042620430      1.051072955518      1.379508807708
  H                                                -1.514003043789      1.869695780320     -0.166196983565
  H                                                -1.856053990449     -0.851385077349      0.016164484724
 Recover connectivity data from disk.
 ITRead=  0  0  0  0  0  0  0  0  0  0  0  0  0
 MicOpt= -1 -1 -1 -1 -1 -1 -1 -1 -1 -1 -1 -1 -1
 NAtoms=     13 NQM=       13 NQMF=       0 NMMI=      0 NMMIF=      0
                NMic=       0 NMicF=      0.
                    Isotopes and Nuclear Properties:
 (Nuclear quadrupole moments (NQMom) in fm**2, nuclear magnetic moments (NMagM)
  in nuclear magnetons)

  Atom         1           2           3           4           5           6           7           8           9          10
 IAtWgt=          16          12          12          16          12          16           1           1           1           1
 AtmWgt=  15.9949146  12.0000000  12.0000000  15.9949146  12.0000000  15.9949146   1.0078250   1.0078250   1.0078250   1.0078250
 NucSpn=           0           0           0           0           0           0           1           1           1           1
 AtZEff=   5.6000000   3.6000000   3.6000000   5.6000000   3.6000000   5.6000000   1.0000000   1.0000000   1.0000000   1.0000000
 NQMom=    0.0000000   0.0000000   0.0000000   0.0000000   0.0000000   0.0000000   0.0000000   0.0000000   0.0000000   0.0000000
 NMagM=    0.0000000   0.0000000   0.0000000   0.0000000   0.0000000   0.0000000   2.7928460   2.7928460   2.7928460   2.7928460
 AtZNuc=   8.0000000   6.0000000   6.0000000   8.0000000   6.0000000   8.0000000   1.0000000   1.0000000   1.0000000   1.0000000

  Atom        11          12          13
 IAtWgt=           1           1           1
 AtmWgt=   1.0078250   1.0078250   1.0078250
 NucSpn=           1           1           1
 AtZEff=   1.0000000   1.0000000   1.0000000
 NQMom=    0.0000000   0.0000000   0.0000000
 NMagM=    2.7928460   2.7928460   2.7928460
 AtZNuc=   1.0000000   1.0000000   1.0000000
 Leave Link  101 at Fri Jun  2 11:18:29 2023, MaxMem=  7381975040 cpu:               0.5 elap:               1.4
 (Enter /software/commercial/gaussian/g16/AVX/g16/l103.exe)

 GradGradGradGradGradGradGradGradGradGradGradGradGradGradGradGradGradGrad
 Berny optimization.
 Initialization pass.
 Trust Radius=3.00D-01 FncErr=1.00D-07 GrdErr=1.00D-07 EigMax=2.50D+02 EigMin=1.00D-04
 Number of steps in this run=      2 maximum allowed number of steps=      2.
 GradGradGradGradGradGradGradGradGradGradGradGradGradGradGradGradGradGrad

 Leave Link  103 at Fri Jun  2 11:18:32 2023, MaxMem=  7381975040 cpu:               0.1 elap:               0.7
 (Enter /software/commercial/gaussian/g16/AVX/g16/l202.exe)
                          Input orientation:                          
 ---------------------------------------------------------------------
 Center     Atomic      Atomic             Coordinates (Angstroms)
 Number     Number       Type             X           Y           Z
 ---------------------------------------------------------------------
      1          8           0        2.356735   -0.003057    0.045367
      2          6           0        1.278444    0.904447    0.296032
      3          6           0       -0.000058    0.267547   -0.283482
      4          8           0       -0.000352   -1.092072   -0.024859
      5          6           0       -1.279175    0.904664    0.294416
      6          8           0       -2.357297   -0.002697    0.042362
      7          1           0        1.855436   -0.851682    0.018500
      8          1           0        1.162967    1.050872    1.380964
      9          1           0        1.514016    1.869435   -0.164266
     10          1           0        0.000652    0.468134   -1.380220
     11          1           0       -1.165043    1.051073    1.379509
     12          1           0       -1.514003    1.869696   -0.166197
     13          1           0       -1.856054   -0.851385    0.016164
 ---------------------------------------------------------------------
                    Distance matrix (angstroms):
                    1          2          3          4          5
     1  O    0.000000
     2  C    1.431471   0.000000
     3  C    2.394962   1.541443   0.000000
     4  O    2.597449   2.392567   1.383997   0.000000
     5  C    3.755772   2.557619   1.541436   2.392546   0.000000
     6  O    4.714033   3.755779   2.394950   2.597392   1.431496
     7  H    0.985995   1.869206   2.187858   1.871795   3.603702
     8  H    2.078382   1.100841   2.176374   2.814579   2.676942
     9  H    2.064061   1.094792   2.207414   3.329154   2.990500
    10  H    2.793823   2.152427   1.114930   2.066699   2.152422
    11  H    3.910760   2.676947   2.176383   2.814573   1.100858
    12  H    4.305180   2.990505   2.207412   3.329141   1.094803
    13  H    4.297454   3.603658   2.187811   1.871695   1.869203
                    6          7          8          9         10
     6  O    0.000000
     7  H    4.297495   0.000000
     8  H    3.910769   2.440396   0.000000
     9  H    4.305187   2.748535   1.783540   0.000000
    10  H    2.793805   2.671808   3.051998   2.394255   0.000000
    11  H    2.078428   3.820486   2.328010   3.198486   3.052010
    12  H    2.064097   4.335104   3.198491   3.028020   2.394244
    13  H    0.986003   3.711491   3.820438   4.335065   2.671774
                   11         12         13
    11  H    0.000000
    12  H    1.783570   0.000000
    13  H    2.440400   2.748552   0.000000
 Symmetry turned off by external request.
 Stoichiometry    C3H7O3(1-)
 Framework group  C1[X(C3H7O3)]
 Deg. of freedom    33
 Full point group                 C1      NOp   1
 Rotational constants (GHZ):           8.7861642           2.1169754           1.7964792
 Leave Link  202 at Fri Jun  2 11:18:34 2023, MaxMem=  7381975040 cpu:               0.1 elap:               1.0
 (Enter /software/commercial/gaussian/g16/AVX/g16/l301.exe)
 Standard basis: 6-311+G(d,p) (5D, 7F)
 Ernie: Thresh=  0.10000D-02 Tol=  0.10000D-05 Strict=F.
   174 basis functions,   272 primitive gaussians,   180 cartesian basis functions
    25 alpha electrons       25 beta electrons
       nuclear repulsion energy       252.9710948113 Hartrees.
 IExCor=  402 DFT=T Ex+Corr=B3LYP ExCW=0 ScaHFX=  0.200000
 ScaDFX=  0.800000  0.720000  1.000000  0.810000 ScalE2=  1.000000  1.000000
 IRadAn=      5 IRanWt=     -1 IRanGd=            0 ICorTp=0 IEmpDi=141
 NAtoms=   13 NActive=   13 NUniq=   13 SFac= 1.00D+00 NAtFMM=   60 NAOKFM=F Big=F
 Integral buffers will be    131072 words long.
 Raffenetti 2 integral format.
 Two-electron integral symmetry is turned off.
 R6Disp:  Grimme-D3(BJ) Dispersion energy=       -0.0152578125 Hartrees.
 Nuclear repulsion after empirical dispersion term =      252.9558369988 Hartrees.
 Force inversion solution in PCM.
 ------------------------------------------------------------------------------
 Polarizable Continuum Model (PCM)
 =================================
 Model                : PCM.
 Atomic radii         : UFF (Universal Force Field).
 Polarization charges : Total charges.
 Charge compensation  : None.
 Solution method      : Matrix inversion.
 Cavity type          : Scaled VdW (van der Waals Surface) (Alpha=1.100).
 Cavity algorithm     : GePol (No added spheres)
                        Default sphere list used, NSphG=   13.
                        Lebedev-Laikov grids with approx.  5.0 points / Ang**2.
                        Smoothing algorithm: York/Karplus (Gamma=1.0000).
                        Polarization charges: spherical gaussians, with
                                              point-specific exponents (IZeta= 3).
                        Self-potential: point-specific (ISelfS= 7).
                        Self-field    : sphere-specific E.n sum rule (ISelfD= 2).
 1st derivatives      : Analytical E(r).r(x)/FMM algorithm (CHGder, D1EAlg=3).
                        Cavity 1st derivative terms included.
 2nd derivatives      : Analytical E(r).r(xy)/FMM algorithm (CHGder, D2EAlg=3).
                        Cavity 2nd derivative terms included.
 Solvent              : Ethanol, Eps=  24.852000 Eps(inf)=   1.852593
 ------------------------------------------------------------------------------
 Spheres list:
 ISph  on   Nord     Re0    Alpha      Xe            Ye            Ze
    1   O      1    1.7500  1.100      2.356735     -0.003057      0.045367
    2   C      2    1.9255  1.100      1.278444      0.904447      0.296032
    3   C      3    1.9255  1.100     -0.000058      0.267547     -0.283482
    4   O      4    1.7500  1.100     -0.000352     -1.092072     -0.024859
    5   C      5    1.9255  1.100     -1.279175      0.904664      0.294416
    6   O      6    1.7500  1.100     -2.357297     -0.002697      0.042362
    7   H      7    1.4430  1.100      1.855436     -0.851682      0.018500
    8   H      8    1.4430  1.100      1.162967      1.050872      1.380964
    9   H      9    1.4430  1.100      1.514016      1.869435     -0.164266
   10   H     10    1.4430  1.100      0.000652      0.468134     -1.380220
   11   H     11    1.4430  1.100     -1.165043      1.051073      1.379509
   12   H     12    1.4430  1.100     -1.514003      1.869696     -0.166197
   13   H     13    1.4430  1.100     -1.856054     -0.851385      0.016164
 ------------------------------------------------------------------------------
 GePol: Number of generator spheres                  =      13
 GePol: Total number of spheres                      =      13
 GePol: Number of exposed spheres                    =      13 (100.00%)
 GePol: Number of points                             =    1107
 GePol: Average weight of points                     =       0.13
 GePol: Minimum weight of points                     =   0.43D-11
 GePol: Maximum weight of points                     =    0.20322
 GePol: Number of points with low weight             =      78
 GePol: Fraction of low-weight points (<1% of avg)   =       7.05%
 GePol: Cavity surface area                          =    146.224 Ang**2
 GePol: Cavity volume                                =    134.789 Ang**3
 Leave Link  301 at Fri Jun  2 11:18:38 2023, MaxMem=  7381975040 cpu:               0.6 elap:               1.9
 (Enter /software/commercial/gaussian/g16/AVX/g16/l302.exe)
 NPDir=0 NMtPBC=     1 NCelOv=     1 NCel=       1 NClECP=     1 NCelD=      1
         NCelK=      1 NCelE2=     1 NClLst=     1 CellRange=     0.0.
 One-electron integrals computed using PRISM.
 NBasis=   174 RedAO= T EigKep=  5.44D-05  NBF=   174
 NBsUse=   174 1.00D-06 EigRej= -1.00D+00 NBFU=   174
 Precomputing XC quadrature grid using
 IXCGrd= 4 IRadAn=           5 IRanWt=          -1 IRanGd=           0 AccXCQ= 0.00D+00.
 Generated NRdTot=       0 NPtTot=           0 NUsed=           0 NTot=          32
 NSgBfM=   180   180   180   180   180 MxSgAt=    13 MxSgA2=    13.
 Leave Link  302 at Fri Jun  2 11:18:42 2023, MaxMem=  7381975040 cpu:               1.4 elap:               2.7
 (Enter /software/commercial/gaussian/g16/AVX/g16/l303.exe)
 DipDrv:  MaxL=1.
 Leave Link  303 at Fri Jun  2 11:18:47 2023, MaxMem=  7381975040 cpu:               0.2 elap:               3.2
 (Enter /software/commercial/gaussian/g16/AVX/g16/l401.exe)
 Initial guess from the checkpoint file:  "/scratch1/svicchi/G09-659918.pbs02/02-freq/glycerol-H_dissociation-site_index-3-freq.chk"
 B after Tr=     0.000000    0.000000    0.000000
         Rot=    1.000000    0.000000    0.000000    0.000000 Ang=   0.00 deg.
 Guess basis will be translated and rotated to current coordinates.
 JPrj=2 DoOrth=T DoCkMO=T.
 Leave Link  401 at Fri Jun  2 11:18:53 2023, MaxMem=  7381975040 cpu:               2.0 elap:               5.1
 (Enter /software/commercial/gaussian/g16/AVX/g16/l502.exe)
 Keep R1 ints in memory in canonical form, NReq=118873663.
 FoFCou: FMM=F IPFlag=           0 FMFlag=           0 FMFlg1=           0
         NFxFlg=           0 DoJE=F BraDBF=F KetDBF=F FulRan=T
         wScrn=  0.000000 ICntrl=       600 IOpCl=  0 I1Cent=           0 NGrid=           0
         NMat0=    1 NMatS0=  15225 NMatT0=    0 NMatD0=    1 NMtDS0=    0 NMtDT0=    0
 Symmetry not used in FoFCou.
 Two-electron integral symmetry not used.
 Closed shell SCF:
 Using DIIS extrapolation, IDIIS=  1040.
 NGot=  7381975040 LenX=  7265999467 LenY=  7265966626
 Requested convergence on RMS density matrix=1.00D-08 within 350 cycles.
 Requested convergence on MAX density matrix=1.00D-06.
 Requested convergence on             energy=1.00D-06.
 No special actions if energy rises.

 Cycle   1  Pass 1  IDiag  1:
 Inv3:  Mode=1 IEnd=     3676347.
 Iteration    1 A*A^-1 deviation from unit magnitude is 3.33D-15 for   1094.
 Iteration    1 A*A^-1 deviation from orthogonality  is 1.65D-15 for    939    438.
 Iteration    1 A^-1*A deviation from unit magnitude is 3.77D-15 for   1094.
 Iteration    1 A^-1*A deviation from orthogonality  is 3.80D-15 for   1094    460.
 E= -344.436381728564    
 DIIS: error= 9.75D-09 at cycle   1 NSaved=   1.
 NSaved= 1 IEnMin= 1 EnMin= -344.436381728564     IErMin= 1 ErrMin= 9.75D-09
 ErrMax= 9.75D-09  0.00D+00 EMaxC= 1.00D-01 BMatC= 1.68D-14 BMatP= 1.68D-14
 IDIUse=1 WtCom= 1.00D+00 WtEn= 0.00D+00
 Coeff-Com:  0.100D+01
 Coeff:      0.100D+01
 Gap=     0.210 Goal=   None    Shift=    0.000
 RMSDP=2.24D-09 MaxDP=3.74D-08              OVMax= 9.45D-08

 Error on total polarization charges =  0.01872
 SCF Done:  E(RB3LYP) =  -344.436381729     A.U. after    1 cycles
            NFock=  1  Conv=0.22D-08     -V/T= 2.0038
 KE= 3.431192898544D+02 PE=-1.325431378328D+03 EE= 3.849198697467D+02
 Leave Link  502 at Fri Jun  2 11:19:08 2023, MaxMem=  7381975040 cpu:              20.2 elap:              13.8
 (Enter /software/commercial/gaussian/g16/AVX/g16/l508.exe)
 QCSCF skips out because SCF is already converged.
 Leave Link  508 at Fri Jun  2 11:19:11 2023, MaxMem=  7381975040 cpu:               0.0 elap:               2.1
 (Enter /software/commercial/gaussian/g16/AVX/g16/l801.exe)
 DoSCS=F DFT=T ScalE2(SS,OS)=  1.000000  1.000000
 Range of M.O.s used for correlation:     1   174
 NBasis=   174 NAE=    25 NBE=    25 NFC=     0 NFV=     0
 NROrb=    174 NOA=    25 NOB=    25 NVA=   149 NVB=   149

 **** Warning!!: The largest alpha MO coefficient is  0.50597379D+02

 Leave Link  801 at Fri Jun  2 11:19:14 2023, MaxMem=  7381975040 cpu:               0.1 elap:               1.1
 (Enter /software/commercial/gaussian/g16/AVX/g16/l1002.exe)
 Minotr:  Closed shell wavefunction.
 NEqPCM:  Using equilibrium solvation (IEInf=0, Eps=  24.8520, EpsInf=   1.8526)
          Direct CPHF calculation.
          Differentiating once with respect to electric field.
                with respect to dipole field.
          Electric field/nuclear overlap derivatives assumed to be zero.
          Requested convergence is 1.0D-08 RMS, and 1.0D-07 maximum.
          Secondary convergence is 1.0D-12 RMS, and 1.0D-12 maximum.
          NewPWx=F KeepS1=T KeepF1=T KeepIn=T MapXYZ=F SortEE=F KeepMc=T.
         3980 words used for storage of precomputed grid.
 Keep R1 ints in memory in canonical form, NReq=120178561.
 FoFCou: FMM=F IPFlag=           0 FMFlag=           0 FMFlg1=           0
         NFxFlg=           0 DoJE=F BraDBF=F KetDBF=F FulRan=T
         wScrn=  0.000000 ICntrl=       600 IOpCl=  0 I1Cent=           0 NGrid=           0
         NMat0=    1 NMatS0=  15225 NMatT0=    0 NMatD0=    1 NMtDS0=    0 NMtDT0=    0
 Symmetry not used in FoFCou.
 Two-electron integral symmetry not used.
          MDV=    7381975040 using IRadAn=       1.
          Solving linear equations simultaneously, MaxMat=       0.
          There are     3 degrees of freedom in the 1st order CPHF.  IDoFFX=0 NUNeed=     3.
      3 vectors produced by pass  0 Test12= 1.24D-13 3.33D-08 XBig12= 4.28D+01 2.97D+00.
 AX will form     3 AO Fock derivatives at one time.
      3 vectors produced by pass  1 Test12= 1.24D-13 3.33D-08 XBig12= 1.13D+01 8.54D-01.
      3 vectors produced by pass  2 Test12= 1.24D-13 3.33D-08 XBig12= 3.95D+00 4.17D-01.
      3 vectors produced by pass  3 Test12= 1.24D-13 3.33D-08 XBig12= 2.48D-01 1.52D-01.
      3 vectors produced by pass  4 Test12= 1.24D-13 3.33D-08 XBig12= 5.39D-02 5.85D-02.
      3 vectors produced by pass  5 Test12= 1.24D-13 3.33D-08 XBig12= 8.13D-03 2.52D-02.
      3 vectors produced by pass  6 Test12= 1.24D-13 3.33D-08 XBig12= 2.16D-04 2.46D-03.
      3 vectors produced by pass  7 Test12= 1.24D-13 3.33D-08 XBig12= 5.70D-06 4.69D-04.
      3 vectors produced by pass  8 Test12= 1.24D-13 3.33D-08 XBig12= 1.06D-07 5.36D-05.
      3 vectors produced by pass  9 Test12= 1.24D-13 3.33D-08 XBig12= 3.15D-09 8.57D-06.
      3 vectors produced by pass 10 Test12= 1.24D-13 3.33D-08 XBig12= 4.08D-11 1.17D-06.
      3 vectors produced by pass 11 Test12= 1.24D-13 3.33D-08 XBig12= 7.54D-13 1.56D-07.
 InvSVY:  IOpt=1 It=  1 EMax= 4.44D-15
 Solved reduced A of dimension    36 with     3 vectors.
 End of Minotr F.D. properties file   721 does not exist.
 End of Minotr F.D. properties file   722 does not exist.
 End of Minotr F.D. properties file   788 does not exist.
 Leave Link 1002 at Fri Jun  2 11:20:13 2023, MaxMem=  7381975040 cpu:             102.6 elap:              58.8
 (Enter /software/commercial/gaussian/g16/AVX/g16/l1101.exe)
 Using compressed storage, NAtomX=    13.
 Will process     14 centers per pass.
 R6Disp: Adding Grimme-D3(BJ) dispersion energy 1st derivatives to the gradient.
 Leave Link 1101 at Fri Jun  2 11:20:18 2023, MaxMem=  7381975040 cpu:               1.1 elap:               3.4
 (Enter /software/commercial/gaussian/g16/AVX/g16/l1102.exe)
 Symmetrizing basis deriv contribution to polar:
 IMax=3 JMax=2 DiffMx= 0.00D+00
 Leave Link 1102 at Fri Jun  2 11:20:23 2023, MaxMem=  7381975040 cpu:               0.1 elap:               3.2
 (Enter /software/commercial/gaussian/g16/AVX/g16/l1110.exe)
 Forming Gx(P) for the SCF density, NAtomX=    13.
 Integral derivatives from FoFJK, PRISM(SPDF).
 Do as many integral derivatives as possible in FoFJK.
 G2DrvN: MDV=    7381973565.
 G2DrvN: will do    14 centers at a time, making    1 passes.
 PxScal for G2LodP:  IOpCl= 0 ISclPx=1 IMOff=     1 NMtTot=     4 NTT=   15225 ScalPx= 1.01D+01
 Calling FoFCou, ICntrl=  3107 FMM=F I1Cent=   0 AccDes= 0.00D+00.
 FoFJK:  IHMeth= 1 ICntrl=    3107 DoSepK=F KAlg= 0 I1Cent=           0 FoldK=F
 IRaf=         0 NMat=       1 IRICut=       1 DoRegI=T DoRafI=F ISym2E= 0 IDoP0=0 IntGTp=1.
 FoFCou: FMM=F IPFlag=           0 FMFlag=      100000 FMFlg1=           0
         NFxFlg=           0 DoJE=F BraDBF=F KetDBF=F FulRan=T
         wScrn=  0.000000 ICntrl=      3107 IOpCl=  0 I1Cent=           0 NGrid=           0
         NMat0=    1 NMatS0=      1 NMatT0=    0 NMatD0=    4 NMtDS0=    3 NMtDT0=    0
 Symmetry not used in FoFCou.
 PxScal for G2LodP:  IOpCl= 0 ISclPx=0 IMOff=     1 NMtTot=     4 NTT=   15225 ScalPx= 1.00D+00
 NEqPCM:  Using equilibrium solvation (IEInf=0, Eps=  24.8520, EpsInf=   1.8526)
 G2PCM: DoFxE=T DoFxN=T DoGrad=T DoDP/DQ/DG/TGxP=TFFF NFrqRd=   0 IEInf=0 SqF1=F DoCFld=F IF1Alg=4.
 GePol: Maximum number of non-zero 1st derivatives   =     204
 End of G2Drv F.D. properties file   721 does not exist.
 End of G2Drv F.D. properties file   722 does not exist.
 End of G2Drv F.D. properties file   788 does not exist.
 Leave Link 1110 at Fri Jun  2 11:23:06 2023, MaxMem=  7381975040 cpu:             311.2 elap:             161.5
 (Enter /software/commercial/gaussian/g16/AVX/g16/l1002.exe)
 Minotr:  Closed shell wavefunction.
          IDoAtm=1111111111111
 NEqPCM:  Using equilibrium solvation (IEInf=0, Eps=  24.8520, EpsInf=   1.8526)
          Direct CPHF calculation.
          Differentiating once with respect to electric field.
                with respect to dipole field.
          Differentiating once with respect to nuclear coordinates.
          Requested convergence is 1.0D-08 RMS, and 1.0D-07 maximum.
          Secondary convergence is 1.0D-12 RMS, and 1.0D-12 maximum.
          NewPWx=T KeepS1=F KeepF1=F KeepIn=T MapXYZ=F SortEE=F KeepMc=T.
         3980 words used for storage of precomputed grid.
 Keep R1 ints in memory in canonical form, NReq=120178860.
 FoFCou: FMM=F IPFlag=           0 FMFlag=           0 FMFlg1=           0
         NFxFlg=           0 DoJE=F BraDBF=F KetDBF=F FulRan=T
         wScrn=  0.000000 ICntrl=       600 IOpCl=  0 I1Cent=           0 NGrid=           0
         NMat0=    1 NMatS0=  15225 NMatT0=    0 NMatD0=    1 NMtDS0=    0 NMtDT0=    0
 Symmetry not used in FoFCou.
 Two-electron integral symmetry not used.
          MDV=    7381975040 using IRadAn=       1.
          Solving linear equations simultaneously, MaxMat=       0.
          There are    42 degrees of freedom in the 1st order CPHF.  IDoFFX=5 NUNeed=    42.
 Will reuse    3 saved solutions.
     36 vectors produced by pass  0 Test12= 8.87D-15 2.38D-09 XBig12= 1.42D-01 9.06D-02.
 AX will form    36 AO Fock derivatives at one time.
     36 vectors produced by pass  1 Test12= 8.87D-15 2.38D-09 XBig12= 1.69D-02 1.92D-02.
     36 vectors produced by pass  2 Test12= 8.87D-15 2.38D-09 XBig12= 2.08D-04 2.50D-03.
     36 vectors produced by pass  3 Test12= 8.87D-15 2.38D-09 XBig12= 7.21D-07 1.04D-04.
     36 vectors produced by pass  4 Test12= 8.87D-15 2.38D-09 XBig12= 1.89D-09 5.58D-06.
     33 vectors produced by pass  5 Test12= 8.87D-15 2.38D-09 XBig12= 3.88D-12 2.19D-07.
     10 vectors produced by pass  6 Test12= 8.87D-15 2.38D-09 XBig12= 4.69D-15 1.01D-08.
 InvSVY:  IOpt=1 It=  1 EMax= 1.44D-15
 Solved reduced A of dimension   223 with    36 vectors.
 FullF1:  Do perturbations      1 to       3.
 Isotropic polarizability for W=    0.000000       77.91 Bohr**3.
 FullF1:  Do perturbations      1 to       6.
 End of Minotr F.D. properties file   721 does not exist.
 End of Minotr F.D. properties file   722 does not exist.
 End of Minotr F.D. properties file   788 does not exist.
 Leave Link 1002 at Fri Jun  2 11:25:44 2023, MaxMem=  7381975040 cpu:             289.1 elap:             157.2
 (Enter /software/commercial/gaussian/g16/AVX/g16/l601.exe)
 Copying SCF densities to generalized density rwf, IOpCl= 0 IROHF=0.

 **********************************************************************

            Population analysis using the SCF Density.

 **********************************************************************

 Alpha  occ. eigenvalues --  -19.09559 -19.09559 -19.01775 -10.18857 -10.18856
 Alpha  occ. eigenvalues --  -10.17915  -1.00426  -0.99563  -0.89798  -0.70968
 Alpha  occ. eigenvalues --   -0.63760  -0.54693  -0.48391  -0.47997  -0.43037
 Alpha  occ. eigenvalues --   -0.42194  -0.40720  -0.37390  -0.35490  -0.32164
 Alpha  occ. eigenvalues --   -0.29895  -0.26764  -0.25433  -0.21101  -0.19265
 Alpha virt. eigenvalues --    0.01747   0.03110   0.03467   0.03507   0.06724
 Alpha virt. eigenvalues --    0.06932   0.07924   0.08028   0.09608   0.12148
 Alpha virt. eigenvalues --    0.13054   0.13145   0.16889   0.18030   0.18120
 Alpha virt. eigenvalues --    0.19865   0.21401   0.21712   0.22208   0.22736
 Alpha virt. eigenvalues --    0.22925   0.23981   0.24176   0.26196   0.26539
 Alpha virt. eigenvalues --    0.27043   0.28109   0.28954   0.29591   0.30726
 Alpha virt. eigenvalues --    0.32025   0.32673   0.34395   0.35105   0.40486
 Alpha virt. eigenvalues --    0.40631   0.44954   0.47220   0.51762   0.53544
 Alpha virt. eigenvalues --    0.57599   0.59446   0.59524   0.61208   0.63927
 Alpha virt. eigenvalues --    0.65593   0.67475   0.68405   0.71638   0.71993
 Alpha virt. eigenvalues --    0.73612   0.77049   0.88523   0.94089   0.96923
 Alpha virt. eigenvalues --    1.00449   1.02978   1.07253   1.09794   1.10634
 Alpha virt. eigenvalues --    1.15145   1.17067   1.17645   1.19670   1.21022
 Alpha virt. eigenvalues --    1.21961   1.33380   1.35682   1.37618   1.42222
 Alpha virt. eigenvalues --    1.46753   1.50654   1.53995   1.56039   1.58770
 Alpha virt. eigenvalues --    1.60549   1.60965   1.62845   1.64702   1.66816
 Alpha virt. eigenvalues --    1.68777   1.69708   1.73987   1.77504   1.79244
 Alpha virt. eigenvalues --    1.80776   1.91087   1.93854   1.94287   2.01031
 Alpha virt. eigenvalues --    2.06394   2.10434   2.15154   2.17063   2.17307
 Alpha virt. eigenvalues --    2.20037   2.30281   2.30582   2.44496   2.45094
 Alpha virt. eigenvalues --    2.50039   2.52676   2.54544   2.58335   2.61828
 Alpha virt. eigenvalues --    2.72109   2.76434   2.76699   2.83737   2.86134
 Alpha virt. eigenvalues --    2.88528   2.88942   2.98465   3.02894   3.10215
 Alpha virt. eigenvalues --    3.14181   3.14798   3.15696   3.16838   3.22768
 Alpha virt. eigenvalues --    3.25570   3.30406   3.38218   3.39597   3.44598
 Alpha virt. eigenvalues --    3.79024   3.79520   3.84111   3.84540   4.00815
 Alpha virt. eigenvalues --    4.02703   4.05665   4.23523   4.29881   5.04900
 Alpha virt. eigenvalues --    5.06022   5.14721   5.29222   5.42214   5.46010
 Alpha virt. eigenvalues --    5.57356   5.61357   5.69910  23.81118  23.83765
 Alpha virt. eigenvalues --   23.87574  49.92304  49.93164  50.00662
     Molecular Orbital Coefficients:
                           1         2         3         4         5
                           O         O         O         O         O
     Eigenvalues --   -19.09559 -19.09559 -19.01775 -10.18857 -10.18856
   1 1   O  1S          0.53872  -0.11724   0.00001   0.00001  -0.00002
   2        2S          0.45900  -0.09990   0.00001   0.00004  -0.00006
   3        2PX        -0.00112   0.00025  -0.00002   0.00005  -0.00012
   4        2PY        -0.00013   0.00002   0.00001  -0.00001   0.00006
   5        2PZ         0.00014  -0.00003   0.00002  -0.00001   0.00003
   6        3S          0.01325  -0.00283   0.00002  -0.00036   0.00053
   7        3PX        -0.00010  -0.00000   0.00004   0.00003   0.00012
   8        3PY        -0.00009   0.00005  -0.00004  -0.00015   0.00012
   9        3PZ        -0.00001  -0.00001  -0.00007  -0.00001  -0.00000
  10        4S         -0.00980   0.00190   0.00008   0.00091  -0.00084
  11        4PX         0.00155  -0.00013   0.00018  -0.00050   0.00002
  12        4PY        -0.00074   0.00014   0.00011  -0.00003   0.00037
  13        4PZ        -0.00025   0.00006   0.00019   0.00006   0.00001
  14        5S          0.00688  -0.00187   0.00008  -0.00459   0.00884
  15        5PX        -0.00091   0.00037  -0.00012   0.00198  -0.00277
  16        5PY        -0.00017   0.00026  -0.00046   0.00073  -0.00050
  17        5PZ        -0.00002  -0.00008   0.00004  -0.00025   0.00023
  18        6D 0       -0.00005   0.00002   0.00003  -0.00010   0.00017
  19        6D+1        0.00003  -0.00000  -0.00001  -0.00003   0.00006
  20        6D-1       -0.00001  -0.00000  -0.00000   0.00002  -0.00004
  21        6D+2       -0.00010   0.00002  -0.00006   0.00001  -0.00001
  22        6D-2        0.00014  -0.00003  -0.00001  -0.00002   0.00007
  23 2   C  1S          0.00002  -0.00000  -0.00000  -0.27239   0.49272
  24        2S         -0.00006   0.00002   0.00001  -0.22412   0.40547
  25        2PX         0.00010  -0.00003  -0.00008  -0.00043   0.00065
  26        2PY        -0.00009   0.00002  -0.00003   0.00025  -0.00053
  27        2PZ        -0.00005   0.00000  -0.00002   0.00007  -0.00019
  28        3S         -0.00000  -0.00014   0.00009  -0.00914   0.01631
  29        3PX         0.00025  -0.00001   0.00037   0.00048  -0.00020
  30        3PY         0.00002   0.00002   0.00019  -0.00072   0.00165
  31        3PZ         0.00016   0.00001   0.00009  -0.00037   0.00086
  32        4S          0.00553   0.00040  -0.00189   0.00585  -0.01286
  33        4PX         0.00003  -0.00071   0.00073  -0.00056   0.00052
  34        4PY        -0.00184   0.00009   0.00113  -0.00036   0.00220
  35        4PZ        -0.00031   0.00026  -0.00046   0.00018   0.00051
  36        5S         -0.01369  -0.00255   0.01011   0.00906  -0.01607
  37        5PX         0.00148   0.00092  -0.00200  -0.00325   0.00319
  38        5PY         0.00264  -0.00043  -0.00179   0.00032   0.00150
  39        5PZ         0.00164   0.00015  -0.00051   0.00024   0.00040
  40        6D 0        0.00012  -0.00002  -0.00003  -0.00032   0.00069
  41        6D+1       -0.00000  -0.00002  -0.00002   0.00001  -0.00029
  42        6D-1       -0.00004  -0.00001  -0.00011   0.00020  -0.00039
  43        6D+2       -0.00007   0.00002  -0.00011   0.00034  -0.00067
  44        6D-2        0.00013  -0.00001  -0.00012  -0.00034   0.00042
  45 3   C  1S          0.00000   0.00000   0.00001   0.00241   0.00836
  46        2S         -0.00000  -0.00000  -0.00003   0.00198   0.00689
  47        2PX         0.00001  -0.00002  -0.00000  -0.00047   0.00014
  48        2PY         0.00002   0.00001  -0.00017   0.00009   0.00032
  49        2PZ         0.00001   0.00000   0.00009   0.00008   0.00028
  50        3S          0.00020   0.00013  -0.00020   0.00010   0.00035
  51        3PX        -0.00012   0.00019   0.00000   0.00089  -0.00026
  52        3PY        -0.00005  -0.00003  -0.00019  -0.00021  -0.00073
  53        3PZ        -0.00006  -0.00004  -0.00036  -0.00022  -0.00075
  54        4S         -0.00298  -0.00191   0.00584   0.00133   0.00463
  55        4PX        -0.00058   0.00090  -0.00000  -0.00092   0.00026
  56        4PY        -0.00114  -0.00073  -0.00122   0.00031   0.00108
  57        4PZ        -0.00145  -0.00093   0.00179   0.00042   0.00145
  58        5S          0.02053   0.01319  -0.02393   0.00575   0.01996
  59        5PX         0.00096  -0.00150   0.00000  -0.00107   0.00031
  60        5PY         0.00204   0.00131   0.00025   0.00052   0.00182
  61        5PZ         0.00220   0.00141  -0.00395   0.00095   0.00329
  62        6D 0       -0.00001  -0.00000   0.00017   0.00009   0.00030
  63        6D+1       -0.00004   0.00006  -0.00000   0.00057  -0.00017
  64        6D-1       -0.00001  -0.00001   0.00006  -0.00009  -0.00033
  65        6D+2       -0.00013  -0.00009   0.00025  -0.00009  -0.00032
  66        6D-2       -0.00008   0.00012  -0.00000   0.00073  -0.00021
  67 4   O  1S         -0.00001  -0.00001   0.55136   0.00000   0.00000
  68        2S         -0.00001  -0.00001   0.46976   0.00000   0.00001
  69        2PX        -0.00001   0.00002   0.00000   0.00000  -0.00000
  70        2PY         0.00001   0.00001   0.00100   0.00002   0.00006
  71        2PZ        -0.00001  -0.00001  -0.00015  -0.00000  -0.00001
  72        3S          0.00002   0.00001   0.01352  -0.00001  -0.00003
  73        3PX         0.00007  -0.00010  -0.00000   0.00001  -0.00000
  74        3PY        -0.00002  -0.00001   0.00005  -0.00007  -0.00024
  75        3PZ         0.00003   0.00002   0.00001   0.00000   0.00001
  76        4S          0.00031   0.00020  -0.01093  -0.00016  -0.00054
  77        4PX        -0.00024   0.00037  -0.00000  -0.00003   0.00001
  78        4PY        -0.00013  -0.00008  -0.00163  -0.00003  -0.00011
  79        4PZ         0.00009   0.00006   0.00012   0.00002   0.00007
  80        5S         -0.00283  -0.00182   0.00905  -0.00011  -0.00037
  81        5PX         0.00010  -0.00016  -0.00000  -0.00100   0.00029
  82        5PY        -0.00091  -0.00059   0.00118   0.00000   0.00001
  83        5PZ         0.00001   0.00001   0.00010  -0.00003  -0.00009
  84        6D 0        0.00004   0.00003   0.00000   0.00001   0.00002
  85        6D+1       -0.00001   0.00001   0.00000  -0.00006   0.00002
  86        6D-1        0.00002   0.00001   0.00000   0.00002   0.00005
  87        6D+2       -0.00001  -0.00001   0.00001   0.00003   0.00010
  88        6D-2       -0.00002   0.00004  -0.00000  -0.00005   0.00001
  89 5   C  1S          0.00000   0.00002  -0.00000   0.49275   0.27233
  90        2S         -0.00001  -0.00007   0.00001   0.40546   0.22413
  91        2PX        -0.00002  -0.00010   0.00008  -0.00071  -0.00032
  92        2PY        -0.00002  -0.00009  -0.00003  -0.00050  -0.00031
  93        2PZ        -0.00002  -0.00005  -0.00002  -0.00016  -0.00012
  94        3S         -0.00013   0.00006   0.00009   0.01641   0.00895
  95        3PX        -0.00009  -0.00023  -0.00037   0.00051  -0.00008
  96        3PY         0.00003   0.00001   0.00019   0.00149   0.00102
  97        3PZ         0.00008   0.00014   0.00009   0.00077   0.00053
  98        4S          0.00267   0.00486  -0.00189  -0.01179  -0.00778
  99        4PX         0.00064  -0.00032  -0.00073  -0.00075  -0.00014
 100        4PY        -0.00068  -0.00171   0.00113   0.00148   0.00168
 101        4PZ         0.00010  -0.00039  -0.00046   0.00012   0.00053
 102        5S         -0.00801  -0.01139   0.01011  -0.01622  -0.00878
 103        5PX        -0.00145  -0.00097   0.00200  -0.00445  -0.00097
 104        5PY         0.00071   0.00258  -0.00179   0.00053   0.00144
 105        5PZ         0.00081   0.00143  -0.00051   0.00001   0.00046
 106        6D 0        0.00003   0.00012  -0.00003   0.00063   0.00041
 107        6D+1        0.00002  -0.00001   0.00002   0.00016   0.00024
 108        6D-1       -0.00003  -0.00003  -0.00011  -0.00038  -0.00023
 109        6D+2       -0.00001  -0.00007  -0.00011  -0.00064  -0.00039
 110        6D-2       -0.00004  -0.00012   0.00012  -0.00052  -0.00017
 111 6   O  1S          0.11724   0.53872   0.00001  -0.00002  -0.00001
 112        2S          0.09989   0.45900   0.00001  -0.00007  -0.00003
 113        2PX         0.00024   0.00112   0.00002   0.00011   0.00008
 114        2PY        -0.00004  -0.00013   0.00001   0.00005   0.00005
 115        2PZ         0.00004   0.00014   0.00002   0.00002   0.00001
 116        3S          0.00293   0.01323   0.00002   0.00059   0.00025
 117        3PX         0.00004   0.00009  -0.00004  -0.00004  -0.00011
 118        3PY         0.00001  -0.00010  -0.00004   0.00020   0.00002
 119        3PZ        -0.00002  -0.00001  -0.00007   0.00000  -0.00001
 120        4S         -0.00234  -0.00971   0.00008  -0.00121  -0.00023
 121        4PX        -0.00052  -0.00146  -0.00018  -0.00043   0.00025
 122        4PY        -0.00018  -0.00073   0.00011   0.00023   0.00030
 123        4PZ        -0.00005  -0.00026   0.00019  -0.00005   0.00004
 124        5S          0.00116   0.00704   0.00008   0.00859   0.00504
 125        5PX         0.00004   0.00098   0.00012   0.00315   0.00129
 126        5PY         0.00016  -0.00027  -0.00046  -0.00089  -0.00004
 127        5PZ        -0.00008   0.00001   0.00004   0.00033   0.00006
 128        6D 0       -0.00000  -0.00005   0.00003   0.00018   0.00009
 129        6D+1       -0.00001  -0.00003   0.00001  -0.00006  -0.00003
 130        6D-1       -0.00000  -0.00001  -0.00000  -0.00004  -0.00003
 131        6D+2       -0.00002  -0.00010  -0.00006  -0.00001  -0.00000
 132        6D-2       -0.00003  -0.00015   0.00001  -0.00005  -0.00005
 133 7   H  1S          0.00003   0.00001  -0.00017   0.00004  -0.00011
 134        2S          0.00060  -0.00005   0.00053  -0.00075   0.00121
 135        3S         -0.00160   0.00060  -0.00117   0.00315  -0.00407
 136        4PX        -0.00040   0.00014  -0.00024   0.00001  -0.00009
 137        4PY        -0.00043   0.00011   0.00005  -0.00028   0.00044
 138        4PZ        -0.00002   0.00002   0.00001  -0.00006   0.00007
 139 8   H  1S          0.00008   0.00003   0.00001  -0.00008   0.00003
 140        2S         -0.00134  -0.00017   0.00033   0.00134  -0.00248
 141        3S         -0.00010   0.00000   0.00007  -0.00281   0.00352
 142        4PX        -0.00012   0.00003   0.00004   0.00017  -0.00020
 143        4PY         0.00019  -0.00004  -0.00000  -0.00008   0.00006
 144        4PZ         0.00029  -0.00000   0.00001  -0.00099   0.00186
 145 9   H  1S          0.00002   0.00001   0.00001  -0.00004   0.00009
 146        2S         -0.00085   0.00000  -0.00035   0.00162  -0.00292
 147        3S          0.00018   0.00008  -0.00001  -0.00283   0.00301
 148        4PX        -0.00004   0.00005  -0.00001  -0.00015   0.00046
 149        4PY         0.00026  -0.00004   0.00006  -0.00089   0.00167
 150        4PZ        -0.00003  -0.00002  -0.00006   0.00047  -0.00097
 151 10  H  1S          0.00007   0.00005   0.00002  -0.00004  -0.00015
 152        2S         -0.00010  -0.00006  -0.00101  -0.00016  -0.00054
 153        3S         -0.00134  -0.00086   0.00075   0.00004   0.00015
 154        4PX        -0.00006   0.00009   0.00000  -0.00013   0.00004
 155        4PY         0.00005   0.00003   0.00023   0.00003   0.00010
 156        4PZ        -0.00009  -0.00006  -0.00032  -0.00008  -0.00027
 157 11  H  1S          0.00006   0.00006   0.00001   0.00008  -0.00001
 158        2S         -0.00071  -0.00115   0.00033  -0.00246  -0.00139
 159        3S         -0.00004  -0.00009   0.00007   0.00426   0.00149
 160        4PX         0.00002   0.00012  -0.00004   0.00025   0.00008
 161        4PY         0.00005   0.00019  -0.00000   0.00010   0.00001
 162        4PZ         0.00012   0.00027   0.00001   0.00183   0.00105
 163 12  H  1S          0.00002   0.00001   0.00001   0.00008   0.00005
 164        2S         -0.00035  -0.00078  -0.00035  -0.00292  -0.00161
 165        3S          0.00015   0.00013  -0.00001   0.00400   0.00104
 166        4PX        -0.00003   0.00005   0.00001  -0.00037  -0.00031
 167        4PY         0.00007   0.00025   0.00006   0.00164   0.00094
 168        4PZ        -0.00003  -0.00002  -0.00006  -0.00092  -0.00057
 169 13  H  1S          0.00002   0.00002  -0.00017  -0.00009  -0.00007
 170        2S          0.00021   0.00057   0.00053   0.00128   0.00062
 171        3S         -0.00012  -0.00170  -0.00117  -0.00483  -0.00177
 172        4PX         0.00004   0.00042   0.00024   0.00006   0.00007
 173        4PY        -0.00008  -0.00044   0.00005   0.00047   0.00022
 174        4PZ         0.00001  -0.00003   0.00001   0.00009   0.00003
                           6         7         8         9        10
                           O         O         O         O         O
     Eigenvalues --   -10.17915  -1.00426  -0.99563  -0.89798  -0.70968
   1 1   O  1S          0.00000  -0.07329   0.07858   0.03082   0.02244
   2        2S         -0.00000  -0.11721   0.12572   0.04945   0.03622
   3        2PX        -0.00002  -0.03391   0.03490   0.00639  -0.01021
   4        2PY        -0.00000  -0.00357   0.00379   0.00060   0.03605
   5        2PZ        -0.00001   0.00387  -0.00423  -0.00200   0.00369
   6        3S          0.00016   0.33843  -0.36361  -0.14436  -0.10890
   7        3PX         0.00011  -0.05367   0.05559   0.01112  -0.01473
   8        3PY         0.00005  -0.00423   0.00454   0.00122   0.05342
   9        3PZ         0.00004   0.00651  -0.00691  -0.00296   0.00535
  10        4S         -0.00169   0.24953  -0.26895  -0.12040  -0.08680
  11        4PX         0.00089  -0.02482   0.02405   0.00665  -0.01310
  12        4PY        -0.00013   0.00233  -0.00208  -0.00085   0.02633
  13        4PZ        -0.00028   0.00284  -0.00323  -0.00226   0.00346
  14        5S         -0.00084  -0.02503   0.03399   0.00095  -0.01273
  15        5PX         0.00038   0.00534  -0.01009   0.00037   0.00116
  16        5PY        -0.00024  -0.00204   0.00093   0.00376   0.00135
  17        5PZ        -0.00001   0.00014   0.00094  -0.00048   0.00015
  18        6D 0        0.00006  -0.00571   0.00587   0.00146   0.00004
  19        6D+1        0.00006  -0.00141   0.00147   0.00055  -0.00054
  20        6D-1       -0.00002   0.00118  -0.00123  -0.00044   0.00025
  21        6D+2        0.00001   0.00038  -0.00011   0.00112   0.00242
  22        6D-2        0.00001  -0.00053   0.00050   0.00008  -0.00506
  23 2   C  1S         -0.00617  -0.03081   0.02897  -0.00191  -0.05964
  24        2S         -0.00508  -0.04746   0.04460  -0.00297  -0.09278
  25        2PX        -0.00037   0.01797  -0.02354  -0.02211  -0.03216
  26        2PY        -0.00018  -0.02264   0.02238  -0.00004   0.01321
  27        2PZ        -0.00021  -0.00618   0.00583  -0.00128  -0.00374
  28        3S         -0.00034   0.12339  -0.11548   0.00575   0.25062
  29        3PX         0.00078   0.02774  -0.03826  -0.03841  -0.04653
  30        3PY         0.00052  -0.04220   0.04042  -0.00149   0.01279
  31        3PZ         0.00054  -0.01330   0.01182  -0.00325  -0.00949
  32        4S          0.00823   0.02247  -0.02629   0.03486   0.12656
  33        4PX        -0.00224   0.00582  -0.00462  -0.01350  -0.01041
  34        4PY        -0.00216   0.00007   0.00097  -0.01286   0.01492
  35        4PZ        -0.00036  -0.00034  -0.00229  -0.00122  -0.00137
  36        5S          0.00135   0.09099  -0.06458  -0.09108   0.04772
  37        5PX         0.00009  -0.01216   0.00772   0.01657  -0.00882
  38        5PY        -0.00009  -0.01204   0.01365   0.01398  -0.00342
  39        5PZ        -0.00046  -0.00969   0.00540   0.00996  -0.00043
  40        6D 0        0.00023  -0.00896   0.00857   0.00100  -0.00037
  41        6D+1       -0.00055  -0.00199   0.00323   0.00375   0.00355
  42        6D-1       -0.00028   0.00471  -0.00413   0.00124   0.00029
  43        6D+2       -0.00043   0.00149  -0.00057   0.00094   0.00526
  44        6D-2       -0.00038  -0.01181   0.01415   0.00992   0.00414
  45 3   C  1S          0.56300  -0.02456  -0.00001  -0.05421  -0.05296
  46        2S          0.46331  -0.03779  -0.00002  -0.08377  -0.08221
  47        2PX        -0.00000   0.00000  -0.01536  -0.00001  -0.00000
  48        2PY        -0.00039  -0.01095  -0.00001  -0.05477   0.06398
  49        2PZ         0.00024   0.00610  -0.00001   0.01098   0.01026
  50        3S          0.01868   0.09582   0.00005   0.22348   0.21846
  51        3PX         0.00000   0.00000  -0.02771  -0.00002  -0.00000
  52        3PY         0.00056  -0.01446  -0.00001  -0.08390   0.09316
  53        3PZ        -0.00114   0.01375  -0.00001   0.02208   0.02048
  54        4S         -0.02303   0.05927   0.00003   0.04227   0.16629
  55        4PX         0.00000   0.00000  -0.01713   0.00000  -0.00001
  56        4PY         0.00038   0.00462   0.00000  -0.01638   0.03467
  57        4PZ        -0.00417   0.00943  -0.00001  -0.00821   0.01807
  58        5S         -0.00567  -0.14986  -0.00007   0.20194  -0.08361
  59        5PX        -0.00000  -0.00000   0.01635  -0.00002   0.00001
  60        5PY        -0.00053  -0.02161  -0.00001   0.00896  -0.00619
  61        5PZ         0.00072  -0.01605   0.00000   0.02215  -0.01791
  62        6D 0        0.00085  -0.00584  -0.00001  -0.01228   0.00084
  63        6D+1       -0.00000   0.00001  -0.00388  -0.00000   0.00001
  64        6D-1       -0.00022  -0.00093  -0.00000  -0.00786   0.00752
  65        6D+2        0.00011  -0.00032   0.00000  -0.02046   0.01122
  66        6D-2        0.00000   0.00000  -0.00255   0.00001  -0.00001
  67 4   O  1S         -0.00003  -0.02680  -0.00002  -0.10105   0.04197
  68        2S         -0.00005  -0.04271  -0.00003  -0.16146   0.06738
  69        2PX         0.00000   0.00000  -0.00624   0.00001  -0.00000
  70        2PY         0.00024   0.01601   0.00001   0.05096   0.00727
  71        2PZ        -0.00003  -0.00182  -0.00001  -0.00884   0.00228
  72        3S          0.00038   0.12110   0.00007   0.46267  -0.19614
  73        3PX        -0.00000   0.00001  -0.00906   0.00002  -0.00000
  74        3PY        -0.00032   0.02535   0.00002   0.07881   0.00985
  75        3PZ        -0.00000  -0.00295  -0.00001  -0.01355   0.00385
  76        4S          0.00120   0.08851   0.00005   0.37327  -0.18558
  77        4PX        -0.00000   0.00000  -0.00579   0.00001   0.00000
  78        4PY         0.00087   0.01106   0.00001   0.04056   0.00038
  79        4PZ         0.00039  -0.00161  -0.00000  -0.00549   0.00010
  80        5S          0.00686   0.00021  -0.00000  -0.04481  -0.01125
  81        5PX         0.00000   0.00000  -0.00059  -0.00000  -0.00000
  82        5PY         0.00250  -0.00043  -0.00000  -0.01590  -0.00076
  83        5PZ        -0.00058   0.00026  -0.00000   0.00045   0.00114
  84        6D 0        0.00019  -0.00240  -0.00000  -0.00586   0.00026
  85        6D+1        0.00000   0.00000  -0.00003   0.00000  -0.00000
  86        6D-1        0.00017  -0.00095  -0.00000  -0.00327   0.00085
  87        6D+2        0.00032  -0.00216  -0.00000  -0.00805  -0.00116
  88        6D-2       -0.00000   0.00000  -0.00135   0.00000  -0.00000
  89 5   C  1S         -0.00617  -0.03078  -0.02900  -0.00191  -0.05963
  90        2S         -0.00508  -0.04742  -0.04464  -0.00297  -0.09278
  91        2PX         0.00037  -0.01794  -0.02355   0.02211   0.03216
  92        2PY        -0.00018  -0.02262  -0.02240  -0.00004   0.01321
  93        2PZ        -0.00021  -0.00619  -0.00586  -0.00126  -0.00371
  94        3S         -0.00034   0.12328   0.11560   0.00575   0.25062
  95        3PX        -0.00078  -0.02770  -0.03827   0.03842   0.04654
  96        3PY         0.00052  -0.04216  -0.04045  -0.00149   0.01278
  97        3PZ         0.00054  -0.01332  -0.01188  -0.00320  -0.00943
  98        4S          0.00823   0.02245   0.02631   0.03486   0.12656
  99        4PX         0.00224  -0.00581  -0.00463   0.01350   0.01041
 100        4PY        -0.00217   0.00007  -0.00097  -0.01286   0.01492
 101        4PZ        -0.00036  -0.00035   0.00229  -0.00120  -0.00136
 102        5S          0.00135   0.09093   0.06467  -0.09109   0.04772
 103        5PX        -0.00009   0.01217   0.00774  -0.01658   0.00882
 104        5PY        -0.00009  -0.01203  -0.01366   0.01398  -0.00343
 105        5PZ        -0.00046  -0.00967  -0.00540   0.00994  -0.00042
 106        6D 0        0.00023  -0.00895  -0.00857   0.00099  -0.00038
 107        6D+1        0.00055   0.00201   0.00325  -0.00375  -0.00354
 108        6D-1       -0.00028   0.00472   0.00415   0.00123   0.00029
 109        6D+2       -0.00043   0.00149   0.00057   0.00094   0.00526
 110        6D-2        0.00038   0.01179   0.01416  -0.00992  -0.00414
 111 6   O  1S          0.00000  -0.07321  -0.07865   0.03083   0.02244
 112        2S         -0.00000  -0.11709  -0.12583   0.04946   0.03622
 113        2PX         0.00002   0.03387   0.03492  -0.00639   0.01021
 114        2PY        -0.00000  -0.00357  -0.00380   0.00060   0.03605
 115        2PZ        -0.00001   0.00391   0.00428  -0.00201   0.00370
 116        3S          0.00016   0.33808   0.36392  -0.14439  -0.10890
 117        3PX        -0.00011   0.05361   0.05563  -0.01112   0.01473
 118        3PY         0.00005  -0.00423  -0.00456   0.00122   0.05342
 119        3PZ         0.00004   0.00657   0.00699  -0.00298   0.00537
 120        4S         -0.00169   0.24928   0.26919  -0.12043  -0.08680
 121        4PX        -0.00089   0.02479   0.02407  -0.00665   0.01309
 122        4PY        -0.00013   0.00232   0.00208  -0.00085   0.02633
 123        4PZ        -0.00028   0.00287   0.00327  -0.00227   0.00347
 124        5S         -0.00084  -0.02500  -0.03402   0.00095  -0.01273
 125        5PX        -0.00038  -0.00533  -0.01010  -0.00037  -0.00116
 126        5PY        -0.00024  -0.00204  -0.00094   0.00376   0.00135
 127        5PZ        -0.00001   0.00014  -0.00095  -0.00048   0.00015
 128        6D 0        0.00006  -0.00570  -0.00588   0.00146   0.00004
 129        6D+1       -0.00006   0.00142   0.00148  -0.00055   0.00054
 130        6D-1       -0.00002   0.00118   0.00124  -0.00044   0.00026
 131        6D+2        0.00001   0.00038   0.00011   0.00112   0.00242
 132        6D-2       -0.00001   0.00053   0.00049  -0.00008   0.00505
 133 7   H  1S         -0.00011   0.05906  -0.06191  -0.01626  -0.03705
 134        2S          0.00090   0.04729  -0.04885  -0.00679  -0.04262
 135        3S         -0.00088   0.00294  -0.00441   0.00690  -0.00256
 136        4PX        -0.00007   0.00536  -0.00667  -0.00557  -0.00530
 137        4PY         0.00031   0.01490  -0.01564  -0.00416  -0.00554
 138        4PZ        -0.00005   0.00076  -0.00095  -0.00059   0.00004
 139 8   H  1S         -0.00005   0.01175  -0.01075   0.00198   0.04608
 140        2S         -0.00133   0.02092  -0.01749  -0.00269   0.05759
 141        3S          0.00034  -0.00547   0.00658  -0.00124  -0.00137
 142        4PX        -0.00014   0.00102  -0.00120  -0.00073  -0.00093
 143        4PY         0.00005  -0.00155   0.00146   0.00007  -0.00049
 144        4PZ         0.00030  -0.00563   0.00510   0.00012  -0.00968
 145 9   H  1S         -0.00006   0.01111  -0.01062  -0.00037   0.04901
 146        2S         -0.00099   0.01894  -0.01771  -0.00085   0.05850
 147        3S          0.00094  -0.00637   0.00548   0.00148  -0.00516
 148        4PX         0.00006  -0.00052   0.00011  -0.00076  -0.00389
 149        4PY         0.00031  -0.00522   0.00490   0.00017  -0.00830
 150        4PZ        -0.00015   0.00191  -0.00163   0.00009   0.00420
 151 10  H  1S          0.00005   0.00948   0.00001   0.02193   0.03922
 152        2S         -0.00237   0.01151   0.00001   0.03368   0.04378
 153        3S          0.00297   0.00504   0.00000  -0.01459   0.00354
 154        4PX         0.00000  -0.00000  -0.00082  -0.00001  -0.00001
 155        4PY         0.00034  -0.00130  -0.00000  -0.00290   0.00135
 156        4PZ        -0.00197   0.00405   0.00000   0.00840   0.00847
 157 11  H  1S         -0.00005   0.01174   0.01076   0.00198   0.04607
 158        2S         -0.00133   0.02091   0.01751  -0.00269   0.05758
 159        3S          0.00034  -0.00546  -0.00659  -0.00124  -0.00137
 160        4PX         0.00014  -0.00101  -0.00119   0.00073   0.00094
 161        4PY         0.00005  -0.00155  -0.00146   0.00007  -0.00049
 162        4PZ         0.00030  -0.00563  -0.00511   0.00012  -0.00968
 163 12  H  1S         -0.00006   0.01110   0.01063  -0.00037   0.04901
 164        2S         -0.00099   0.01892   0.01773  -0.00086   0.05849
 165        3S          0.00094  -0.00636  -0.00549   0.00148  -0.00516
 166        4PX        -0.00006   0.00051   0.00011   0.00076   0.00388
 167        4PY         0.00031  -0.00521  -0.00490   0.00017  -0.00830
 168        4PZ        -0.00015   0.00191   0.00163   0.00009   0.00420
 169 13  H  1S         -0.00011   0.05900   0.06196  -0.01627  -0.03705
 170        2S          0.00090   0.04725   0.04889  -0.00679  -0.04262
 171        3S         -0.00088   0.00294   0.00441   0.00690  -0.00256
 172        4PX         0.00007  -0.00535  -0.00668   0.00557   0.00529
 173        4PY         0.00031   0.01489   0.01565  -0.00416  -0.00554
 174        4PZ        -0.00005   0.00075   0.00094  -0.00058   0.00005
                          11        12        13        14        15
                           O         O         O         O         O
     Eigenvalues --    -0.63760  -0.54693  -0.48391  -0.47997  -0.43037
   1 1   O  1S          0.02603  -0.00388  -0.00727   0.02416  -0.00341
   2        2S          0.04204  -0.00621  -0.01188   0.03934  -0.00545
   3        2PX        -0.02162  -0.00009   0.01186  -0.06430   0.05443
   4        2PY         0.06789  -0.07411   0.10558  -0.10907  -0.08631
   5        2PZ         0.01018  -0.02664  -0.02304  -0.01132  -0.03991
   6        3S         -0.12608   0.01790   0.03668  -0.12059   0.01448
   7        3PX        -0.03149   0.00090   0.01571  -0.09040   0.08003
   8        3PY         0.10006  -0.10770   0.15314  -0.15708  -0.12540
   9        3PZ         0.01489  -0.03912  -0.03396  -0.01653  -0.05851
  10        4S         -0.11557   0.01476   0.04753  -0.14315   0.02068
  11        4PX        -0.02115  -0.00037   0.01108  -0.06786   0.05994
  12        4PY         0.05627  -0.07068   0.10398  -0.10742  -0.08548
  13        4PZ         0.00905  -0.02842  -0.02836  -0.01375  -0.04566
  14        5S         -0.04176   0.00954  -0.00733  -0.05071   0.01545
  15        5PX         0.00842   0.00227   0.00608   0.01056   0.00294
  16        5PY         0.00549  -0.00230   0.00545   0.00180  -0.01423
  17        5PZ        -0.00023   0.00188   0.00010   0.00100  -0.00220
  18        6D 0       -0.00022  -0.00101   0.00007  -0.00329   0.00036
  19        6D+1       -0.00137   0.00332   0.00313   0.00078   0.00427
  20        6D-1        0.00089  -0.00187  -0.00019  -0.00130  -0.00136
  21        6D+2        0.00301   0.00068  -0.00056   0.00468  -0.00760
  22        6D-2       -0.00833   0.00706  -0.00943   0.00926   0.00713
  23 2   C  1S         -0.07118   0.02850   0.00453  -0.01333  -0.00333
  24        2S         -0.11124   0.04486   0.00681  -0.02077  -0.00470
  25        2PX        -0.00005  -0.05849   0.06886  -0.07587  -0.02359
  26        2PY         0.02099  -0.03060   0.01592  -0.03160   0.11105
  27        2PZ         0.00329  -0.04611  -0.07549  -0.00313  -0.02468
  28        3S          0.30356  -0.12440  -0.01667   0.05702   0.00863
  29        3PX         0.00531  -0.09245   0.10348  -0.11389  -0.03852
  30        3PY         0.02223  -0.04075   0.02144  -0.04777   0.16681
  31        3PZ         0.00091  -0.06713  -0.11125  -0.00694  -0.03323
  32        4S          0.20034  -0.08769  -0.02312   0.04515   0.01509
  33        4PX        -0.00189  -0.03457   0.05940  -0.06154  -0.01504
  34        4PY         0.01437  -0.02629   0.01840  -0.03468   0.10156
  35        4PZ         0.00383  -0.03656  -0.06702   0.01058  -0.02298
  36        5S          0.08179   0.01786  -0.02848  -0.04019   0.03108
  37        5PX        -0.02105  -0.01027   0.01115  -0.01861  -0.00467
  38        5PY        -0.00170  -0.00213   0.00761   0.00699   0.00608
  39        5PZ        -0.00349  -0.00253  -0.00467   0.01801  -0.01072
  40        6D 0        0.00132  -0.00045  -0.00588   0.00467   0.00779
  41        6D+1       -0.00045   0.00936  -0.00234   0.00785   0.00027
  42        6D-1       -0.00071   0.00509   0.00060   0.00555  -0.00836
  43        6D+2       -0.00097   0.00062   0.00426  -0.01324  -0.00853
  44        6D-2        0.00132   0.00754  -0.00644   0.00960   0.01107
  45 3   C  1S          0.00000  -0.06518  -0.00539   0.00000   0.02242
  46        2S          0.00000  -0.10207  -0.00868   0.00000   0.03583
  47        2PX         0.05800   0.00004   0.00001   0.10430   0.00002
  48        2PY        -0.00001   0.03432  -0.01597  -0.00002   0.05140
  49        2PZ         0.00004  -0.04980  -0.09420   0.00002  -0.03339
  50        3S         -0.00001   0.28250   0.02363  -0.00000  -0.10627
  51        3PX         0.09174   0.00006   0.00002   0.14980   0.00003
  52        3PY        -0.00001   0.04284  -0.02467  -0.00003   0.08342
  53        3PZ         0.00006  -0.07014  -0.13945   0.00003  -0.05427
  54        4S         -0.00001   0.21694   0.03390   0.00001  -0.09337
  55        4PX         0.03490   0.00003   0.00001   0.10137   0.00002
  56        4PY        -0.00000   0.02082   0.00129  -0.00001   0.05750
  57        4PZ         0.00002  -0.04248  -0.07960   0.00003  -0.03400
  58        5S          0.00000  -0.04465   0.05998   0.00001  -0.04505
  59        5PX        -0.02074   0.00001  -0.00003   0.06807  -0.00001
  60        5PY         0.00000  -0.01228   0.00351  -0.00001  -0.01202
  61        5PZ        -0.00001  -0.02017  -0.00065   0.00004  -0.00078
  62        6D 0        0.00001   0.00527  -0.00122   0.00001   0.00147
  63        6D+1        0.01000  -0.00000  -0.00001   0.01142  -0.00000
  64        6D-1        0.00001  -0.00062  -0.00577  -0.00001   0.00591
  65        6D+2       -0.00000   0.00382  -0.00223  -0.00001  -0.00448
  66        6D-2        0.01239   0.00000   0.00000  -0.00291  -0.00000
  67 4   O  1S         -0.00000   0.03777  -0.00811  -0.00001  -0.02381
  68        2S         -0.00000   0.06093  -0.01316  -0.00001  -0.03843
  69        2PX         0.00456   0.00002  -0.00001   0.06867  -0.00001
  70        2PY        -0.00000   0.03430  -0.00336  -0.00001  -0.08386
  71        2PZ         0.00000  -0.01963  -0.03702   0.00003  -0.00235
  72        3S          0.00001  -0.18010   0.04047   0.00003   0.11224
  73        3PX         0.00724   0.00003  -0.00001   0.10001  -0.00002
  74        3PY        -0.00000   0.04821  -0.00413  -0.00001  -0.11983
  75        3PZ         0.00000  -0.02832  -0.05469   0.00004  -0.00383
  76        4S          0.00001  -0.19081   0.03882   0.00003   0.15343
  77        4PX         0.00240   0.00002  -0.00001   0.08147  -0.00001
  78        4PY        -0.00000   0.02646  -0.00359  -0.00001  -0.07626
  79        4PZ         0.00000  -0.01897  -0.03917   0.00003  -0.00557
  80        5S          0.00000  -0.04133   0.02428   0.00002   0.06919
  81        5PX        -0.00912  -0.00000   0.00000  -0.00489   0.00000
  82        5PY         0.00000  -0.00011   0.01104   0.00001   0.00088
  83        5PZ        -0.00001   0.00262   0.00068  -0.00000  -0.00199
  84        6D 0       -0.00000  -0.00072   0.00181   0.00000   0.00333
  85        6D+1       -0.00009  -0.00000  -0.00000  -0.00075   0.00000
  86        6D-1        0.00000  -0.00299  -0.00565   0.00000   0.00009
  87        6D+2        0.00000  -0.00203  -0.00061   0.00000   0.00673
  88        6D-2        0.00222   0.00000   0.00000   0.00810  -0.00000
  89 5   C  1S          0.07118   0.02850   0.00451   0.01333  -0.00332
  90        2S          0.11123   0.04487   0.00678   0.02077  -0.00469
  91        2PX        -0.00006   0.05854  -0.06869  -0.07594   0.02363
  92        2PY        -0.02099  -0.03061   0.01591   0.03163   0.11102
  93        2PZ        -0.00329  -0.04604  -0.07558   0.00297  -0.02465
  94        3S         -0.30356  -0.12443  -0.01661  -0.05702   0.00863
  95        3PX         0.00529   0.09252  -0.10323  -0.11398   0.03858
  96        3PY        -0.02223  -0.04077   0.02142   0.04782   0.16675
  97        3PZ        -0.00089  -0.06701  -0.11138   0.00670  -0.03318
  98        4S         -0.20034  -0.08771  -0.02307  -0.04516   0.01507
  99        4PX        -0.00189   0.03461  -0.05925  -0.06157   0.01509
 100        4PY        -0.01437  -0.02630   0.01838   0.03471   0.10153
 101        4PZ        -0.00383  -0.03652  -0.06709  -0.01071  -0.02296
 102        5S         -0.08179   0.01785  -0.02851   0.04018   0.03107
 103        5PX        -0.02105   0.01027  -0.01113  -0.01860   0.00469
 104        5PY         0.00171  -0.00213   0.00762  -0.00698   0.00608
 105        5PZ         0.00346  -0.00252  -0.00467  -0.01804  -0.01071
 106        6D 0       -0.00132  -0.00047  -0.00587  -0.00465   0.00778
 107        6D+1       -0.00044  -0.00936   0.00235   0.00787  -0.00030
 108        6D-1        0.00071   0.00509   0.00062  -0.00554  -0.00838
 109        6D+2        0.00097   0.00063   0.00424   0.01323  -0.00853
 110        6D-2        0.00132  -0.00754   0.00643   0.00960  -0.01105
 111 6   O  1S         -0.02603  -0.00389  -0.00725  -0.02416  -0.00340
 112        2S         -0.04204  -0.00622  -0.01184  -0.03935  -0.00545
 113        2PX        -0.02162   0.00011  -0.01176  -0.06431  -0.05437
 114        2PY        -0.06788  -0.07410   0.10548   0.10918  -0.08628
 115        2PZ        -0.01020  -0.02663  -0.02306   0.01122  -0.03997
 116        3S          0.12608   0.01792   0.03657   0.12062   0.01447
 117        3PX        -0.03149  -0.00087  -0.01557  -0.09042  -0.07994
 118        3PY        -0.10004  -0.10768   0.15299   0.15724  -0.12536
 119        3PZ        -0.01493  -0.03911  -0.03399   0.01638  -0.05859
 120        4S          0.11557   0.01477   0.04740   0.14319   0.02066
 121        4PX        -0.02114   0.00039  -0.01097  -0.06787  -0.05987
 122        4PY        -0.05626  -0.07067   0.10387   0.10753  -0.08545
 123        4PZ        -0.00908  -0.02841  -0.02838   0.01363  -0.04572
 124        5S          0.04176   0.00955  -0.00737   0.05070   0.01544
 125        5PX         0.00842  -0.00227  -0.00609   0.01055  -0.00294
 126        5PY        -0.00549  -0.00230   0.00545  -0.00180  -0.01422
 127        5PZ         0.00024   0.00188   0.00009  -0.00098  -0.00221
 128        6D 0        0.00021  -0.00101   0.00006   0.00329   0.00035
 129        6D+1       -0.00138  -0.00332  -0.00313   0.00076  -0.00428
 130        6D-1       -0.00090  -0.00188  -0.00018   0.00131  -0.00137
 131        6D+2       -0.00301   0.00069  -0.00055  -0.00468  -0.00759
 132        6D-2       -0.00833  -0.00706   0.00942   0.00927  -0.00712
 133 7   H  1S         -0.05272   0.04715  -0.06580   0.08303   0.04701
 134        2S         -0.05818   0.05471  -0.08714   0.11617   0.06731
 135        3S          0.01080   0.01037  -0.02146   0.05286   0.02487
 136        4PX        -0.01004   0.00685  -0.00741   0.00082   0.01125
 137        4PY        -0.00729   0.00828  -0.00994   0.01448   0.00047
 138        4PZ         0.00044  -0.00240  -0.00411   0.00021  -0.00329
 139 8   H  1S          0.06054  -0.05587  -0.06530   0.01395   0.00022
 140        2S          0.07332  -0.07074  -0.08037   0.01305  -0.00164
 141        3S         -0.00041  -0.01087  -0.01632  -0.00242   0.00215
 142        4PX         0.00148  -0.00291   0.00382  -0.00325  -0.00086
 143        4PY        -0.00014  -0.00081   0.00200  -0.00188   0.00583
 144        4PZ        -0.01154   0.00731   0.00527  -0.00177   0.00033
 145 9   H  1S          0.06893  -0.03957   0.03890  -0.01611   0.08910
 146        2S          0.08490  -0.05179   0.04941  -0.01731   0.11735
 147        3S         -0.00099  -0.00976   0.01096   0.00234   0.03975
 148        4PX        -0.00313  -0.00127   0.00091  -0.00236  -0.00430
 149        4PY        -0.01019   0.00419  -0.00511   0.00072  -0.00444
 150        4PZ         0.00582  -0.00571  -0.00088  -0.00201   0.00352
 151 10  H  1S         -0.00000   0.09367   0.06968   0.00003   0.01146
 152        2S         -0.00000   0.11175   0.08525   0.00003   0.01062
 153        3S         -0.00000   0.01736   0.01434   0.00001   0.00095
 154        4PX         0.00280  -0.00001  -0.00001   0.00456   0.00000
 155        4PY        -0.00000  -0.00028  -0.00141  -0.00000   0.00280
 156        4PZ         0.00000   0.01287   0.00599   0.00001  -0.00107
 157 11  H  1S         -0.06054  -0.05588  -0.06528  -0.01400   0.00022
 158        2S         -0.07332  -0.07075  -0.08035  -0.01311  -0.00165
 159        3S          0.00041  -0.01087  -0.01632   0.00241   0.00215
 160        4PX         0.00147   0.00290  -0.00382  -0.00326   0.00086
 161        4PY         0.00014  -0.00081   0.00200   0.00188   0.00582
 162        4PZ         0.01154   0.00731   0.00526   0.00177   0.00033
 163 12  H  1S         -0.06892  -0.03958   0.03889   0.01615   0.08907
 164        2S         -0.08490  -0.05180   0.04940   0.01737   0.11732
 165        3S          0.00099  -0.00976   0.01096  -0.00233   0.03974
 166        4PX        -0.00312   0.00127  -0.00090  -0.00237   0.00429
 167        4PY         0.01019   0.00419  -0.00511  -0.00073  -0.00444
 168        4PZ        -0.00583  -0.00571  -0.00088   0.00201   0.00353
 169 13  H  1S          0.05271   0.04714  -0.06572  -0.08309   0.04700
 170        2S          0.05817   0.05470  -0.08704  -0.11626   0.06730
 171        3S         -0.01080   0.01036  -0.02142  -0.05288   0.02487
 172        4PX        -0.01004  -0.00685   0.00742   0.00083  -0.01124
 173        4PY         0.00729   0.00828  -0.00993  -0.01449   0.00047
 174        4PZ        -0.00045  -0.00241  -0.00410  -0.00021  -0.00331
                          16        17        18        19        20
                           O         O         O         O         O
     Eigenvalues --    -0.42194  -0.40720  -0.37390  -0.35490  -0.32164
   1 1   O  1S          0.00193   0.00632   0.02353  -0.01298   0.00794
   2        2S          0.00310   0.01018   0.03823  -0.02112   0.01301
   3        2PX        -0.04046  -0.07418  -0.15515   0.06135  -0.03001
   4        2PY         0.06673   0.08144  -0.01891   0.03297  -0.04597
   5        2PZ        -0.06816   0.06392  -0.03125  -0.07166  -0.03153
   6        3S         -0.00847  -0.02827  -0.11364   0.06352  -0.04066
   7        3PX        -0.05924  -0.10832  -0.22334   0.08759  -0.04131
   8        3PY         0.09661   0.11788  -0.02557   0.04675  -0.06445
   9        3PZ        -0.10005   0.09364  -0.04595  -0.10522  -0.04579
  10        4S         -0.00900  -0.04139  -0.16345   0.09278  -0.05476
  11        4PX        -0.04613  -0.08228  -0.17841   0.07030  -0.03893
  12        4PY         0.07211   0.08434  -0.01869   0.03721  -0.05297
  13        4PZ        -0.08541   0.07524  -0.04281  -0.08999  -0.04163
  14        5S         -0.03081  -0.03931  -0.07314   0.03236   0.00197
  15        5PX         0.00930  -0.00030  -0.02381   0.01426  -0.01514
  16        5PY         0.01618   0.02107   0.00168   0.00899  -0.02094
  17        5PZ        -0.00293   0.00593  -0.00229  -0.01265  -0.01148
  18        6D 0       -0.00299  -0.00046  -0.00662   0.00059  -0.00192
  19        6D+1        0.00644  -0.00617   0.00184   0.00540   0.00190
  20        6D-1       -0.00193   0.00166  -0.00128  -0.00147   0.00018
  21        6D+2        0.00445   0.00837   0.00753  -0.00115  -0.00159
  22        6D-2       -0.00557  -0.00609   0.00131  -0.00255   0.00290
  23 2   C  1S          0.00503   0.00362  -0.01483   0.00120  -0.00208
  24        2S          0.00770   0.00523  -0.02379   0.00192  -0.00324
  25        2PX         0.00883   0.02743   0.02178  -0.04929   0.04033
  26        2PY        -0.03669  -0.11885  -0.02691  -0.00404   0.05654
  27        2PZ        -0.12525   0.04461  -0.06448  -0.06559   0.00124
  28        3S         -0.01792  -0.01103   0.07106  -0.00272   0.00791
  29        3PX         0.01526   0.04734   0.03587  -0.07415   0.05743
  30        3PY        -0.05688  -0.17841  -0.04911  -0.00193   0.07825
  31        3PZ        -0.18535   0.06302  -0.09574  -0.09497   0.00198
  32        4S         -0.04839  -0.01952   0.06762  -0.02709   0.01745
  33        4PX         0.01102   0.01418   0.00665  -0.03264   0.03823
  34        4PY        -0.02651  -0.11749  -0.03535   0.01232   0.06608
  35        4PZ        -0.11562   0.05257  -0.06237  -0.07840  -0.00228
  36        5S         -0.09953   0.05558   0.03749   0.02416  -0.02725
  37        5PX         0.00901  -0.02330  -0.01709  -0.00631   0.00961
  38        5PY         0.01714  -0.01385  -0.00150  -0.00223   0.01631
  39        5PZ        -0.00230   0.00810  -0.00786  -0.02124   0.00530
  40        6D 0       -0.01309  -0.00570  -0.00978  -0.01185   0.00093
  41        6D+1       -0.00430   0.00209  -0.00554  -0.00723  -0.00680
  42        6D-1        0.00735   0.00864   0.00327  -0.00134  -0.00079
  43        6D+2        0.00257   0.00815  -0.01383   0.01005  -0.01713
  44        6D-2       -0.00202  -0.01844  -0.00956   0.01007   0.00843
  45 3   C  1S          0.00000   0.00000   0.02401  -0.00997   0.00137
  46        2S          0.00000   0.00000   0.03843  -0.01583   0.00152
  47        2PX         0.06981   0.01123  -0.00002  -0.00010  -0.00002
  48        2PY        -0.00000   0.00001   0.03458   0.01427  -0.15270
  49        2PZ         0.00005   0.00000   0.02779   0.15205   0.01115
  50        3S         -0.00001  -0.00001  -0.11371   0.04755  -0.00099
  51        3PX         0.10099   0.01876  -0.00002  -0.00014  -0.00004
  52        3PY        -0.00000   0.00001   0.05860   0.01936  -0.23676
  53        3PZ         0.00007   0.00000   0.03804   0.22288   0.01867
  54        4S         -0.00001  -0.00001  -0.11494   0.06584   0.01673
  55        4PX         0.08909   0.00838  -0.00001  -0.00012  -0.00003
  56        4PY        -0.00000   0.00001   0.01990   0.00747  -0.17383
  57        4PZ         0.00006  -0.00000   0.00860   0.19502   0.01065
  58        5S         -0.00002  -0.00001  -0.08899  -0.05291   0.05004
  59        5PX         0.06915  -0.01795   0.00000  -0.00002   0.00000
  60        5PY        -0.00001  -0.00000  -0.01884  -0.00846  -0.00566
  61        5PZ         0.00004  -0.00001  -0.01213   0.03418   0.00095
  62        6D 0       -0.00001   0.00001  -0.00870  -0.01810  -0.01754
  63        6D+1       -0.00484   0.00853   0.00002   0.00002   0.00000
  64        6D-1        0.00000  -0.00001   0.00037  -0.00513  -0.00691
  65        6D+2        0.00000  -0.00001   0.01636   0.00017  -0.02409
  66        6D-2        0.00267  -0.01048  -0.00000   0.00000   0.00001
  67 4   O  1S         -0.00000  -0.00000  -0.00688  -0.00005   0.02711
  68        2S         -0.00000  -0.00000  -0.01106  -0.00014   0.04382
  69        2PX         0.02020   0.01090  -0.00003  -0.00004   0.00005
  70        2PY        -0.00001  -0.00002  -0.06333   0.04840   0.19247
  71        2PZ         0.00002   0.00001   0.03140   0.07707  -0.05912
  72        3S          0.00000   0.00001   0.03023   0.00301  -0.12601
  73        3PX         0.03044   0.01677  -0.00005  -0.00006   0.00008
  74        3PY        -0.00001  -0.00002  -0.09094   0.06978   0.27351
  75        3PZ         0.00002   0.00001   0.04539   0.11278  -0.08501
  76        4S          0.00001   0.00002   0.05541  -0.01809  -0.20279
  77        4PX         0.02039   0.01088  -0.00004  -0.00005   0.00006
  78        4PY        -0.00001  -0.00001  -0.06191   0.04507   0.20563
  79        4PZ         0.00002   0.00001   0.03736   0.09145  -0.06571
  80        5S          0.00000   0.00001   0.03649  -0.02343  -0.12856
  81        5PX        -0.00546   0.00290  -0.00001  -0.00000   0.00001
  82        5PY         0.00000  -0.00000  -0.00935   0.00924   0.03969
  83        5PZ        -0.00000   0.00000   0.00867   0.00490  -0.01333
  84        6D 0       -0.00000   0.00000   0.00006  -0.00410  -0.00573
  85        6D+1       -0.00136   0.00066   0.00000   0.00000  -0.00000
  86        6D-1        0.00000   0.00000   0.00386   0.00844  -0.00561
  87        6D+2        0.00000   0.00000   0.00655  -0.00473  -0.01021
  88        6D-2        0.00373   0.00189  -0.00000  -0.00000   0.00001
  89 5   C  1S         -0.00503  -0.00362  -0.01483   0.00120  -0.00208
  90        2S         -0.00770  -0.00523  -0.02379   0.00192  -0.00324
  91        2PX         0.00869   0.02752  -0.02170   0.04938  -0.04032
  92        2PY         0.03670   0.11887  -0.02691  -0.00405   0.05655
  93        2PZ         0.12525  -0.04457  -0.06451  -0.06554   0.00119
  94        3S          0.01793   0.01103   0.07105  -0.00272   0.00791
  95        3PX         0.01504   0.04746  -0.03576   0.07427  -0.05742
  96        3PY         0.05689   0.17843  -0.04911  -0.00194   0.07827
  97        3PZ         0.18536  -0.06296  -0.09580  -0.09488   0.00190
  98        4S          0.04840   0.01952   0.06761  -0.02708   0.01744
  99        4PX         0.01088   0.01427  -0.00658   0.03274  -0.03822
 100        4PY         0.02651   0.11751  -0.03535   0.01232   0.06609
 101        4PZ         0.11563  -0.05256  -0.06239  -0.07837  -0.00233
 102        5S          0.09955  -0.05557   0.03748   0.02415  -0.02725
 103        5PX         0.00901  -0.02329   0.01709   0.00633  -0.00962
 104        5PY        -0.01714   0.01385  -0.00150  -0.00223   0.01631
 105        5PZ         0.00231  -0.00814  -0.00784  -0.02123   0.00528
 106        6D 0        0.01308   0.00571  -0.00977  -0.01183   0.00095
 107        6D+1       -0.00433   0.00207   0.00555   0.00726   0.00678
 108        6D-1       -0.00735  -0.00866   0.00329  -0.00135  -0.00080
 109        6D+2       -0.00257  -0.00816  -0.01383   0.01004  -0.01714
 110        6D-2       -0.00201  -0.01843   0.00956  -0.01007  -0.00842
 111 6   O  1S         -0.00193  -0.00632   0.02353  -0.01298   0.00794
 112        2S         -0.00310  -0.01018   0.03823  -0.02112   0.01301
 113        2PX        -0.04056  -0.07412   0.15518  -0.06126   0.03003
 114        2PY        -0.06674  -0.08146  -0.01892   0.03297  -0.04598
 115        2PZ         0.06810  -0.06402  -0.03105  -0.07175  -0.03150
 116        3S          0.00847   0.02827  -0.11364   0.06353  -0.04066
 117        3PX        -0.05938  -0.10822   0.22340  -0.08745   0.04135
 118        3PY        -0.09662  -0.11791  -0.02559   0.04676  -0.06447
 119        3PZ         0.09996  -0.09378  -0.04566  -0.10534  -0.04574
 120        4S          0.00900   0.04139  -0.16345   0.09278  -0.05475
 121        4PX        -0.04625  -0.08220   0.17846  -0.07019   0.03897
 122        4PY        -0.07211  -0.08436  -0.01871   0.03722  -0.05298
 123        4PZ         0.08534  -0.07535  -0.04257  -0.09008  -0.04158
 124        5S          0.03080   0.03931  -0.07315   0.03236   0.00198
 125        5PX         0.00929  -0.00029   0.02381  -0.01424   0.01515
 126        5PY        -0.01618  -0.02107   0.00167   0.00899  -0.02095
 127        5PZ         0.00294  -0.00592  -0.00226  -0.01267  -0.01147
 128        6D 0        0.00301   0.00045  -0.00662   0.00057  -0.00192
 129        6D+1        0.00643  -0.00619  -0.00181  -0.00540  -0.00190
 130        6D-1        0.00192  -0.00167  -0.00128  -0.00147   0.00018
 131        6D+2       -0.00446  -0.00836   0.00753  -0.00115  -0.00159
 132        6D-2       -0.00557  -0.00608  -0.00131   0.00255  -0.00290
 133 7   H  1S         -0.02783  -0.03618   0.05169  -0.03399   0.03370
 134        2S         -0.03623  -0.04836   0.08162  -0.05078   0.05125
 135        3S          0.00703  -0.01054   0.03763  -0.02091   0.00255
 136        4PX        -0.00912  -0.01325  -0.00722  -0.00021   0.00408
[...]
 Beta(0;0,0):
               (au)            (10**-30 esu)      (10**-50 SI)
   || (z)     0.922743D+02      0.797178D+00      0.295865D+00
   _|_(z)     0.307581D+02      0.265726D+00      0.986216D-01
   x         -0.120678D+00     -0.104256D-02     -0.386937D-03
   y          0.215290D+04      0.185994D+02      0.690298D+01
   z          0.461372D+03      0.398589D+01      0.147932D+01
   ||         0.440357D+03      0.380434D+01      0.141194D+01
   xxx       -0.119867D+00     -0.103556D-02     -0.384337D-03
   xxy        0.170838D+03      0.147591D+01      0.547769D+00
   yxy        0.637908D-01      0.551103D-03      0.204536D-03
   yyy        0.393598D+03      0.340038D+01      0.126202D+01
   xxz        0.847767D+02      0.732405D+00      0.271825D+00
   yxz       -0.237934D-02     -0.205556D-04     -0.762902D-05
   yyz       -0.930141D+02     -0.803570D+00     -0.298237D+00
   zxz        0.158503D-01      0.136935D-03      0.508219D-04
   zyz        0.153198D+03      0.132351D+01      0.491208D+00
   zzz        0.162028D+03      0.139980D+01      0.519520D+00

 ----------------------------------------------------------------------

 Dipole orientation:
     8          4.45354614         -0.08787537          0.00115802
     6          2.41489842         -0.46275034          1.73922850
     6         -0.00008231          0.56348729          0.47442748
     8          0.00026296         -0.07001802         -2.06306313
     6         -2.41829873         -0.45755476          1.73721875
     8         -4.45467996         -0.07825797         -0.00262248
     1          3.50695542         -0.12762638         -1.60325026
     1          2.19560356         -2.49390803          2.13153985
     1          2.85966887          0.50880828          3.51078775
     1          0.00205567          2.65416664          0.73545671
     1         -2.20369423         -2.48920993          2.12971915
     1         -2.86245570          0.51499176          3.50841503
     1         -3.50674088         -0.12010862         -1.60619937

 Electric dipole moment (dipole orientation):
 (Debye = 10**-18 statcoulomb cm , SI units = C m)
                  (au)            (Debye)         (10**-30 SI)
   Tot        0.148992D+01      0.378700D+01      0.126321D+02
   x          0.000000D+00      0.000000D+00      0.000000D+00
   y          0.000000D+00      0.000000D+00      0.000000D+00
   z          0.148992D+01      0.378700D+01      0.126321D+02

 Dipole polarizability, Alpha (dipole orientation).
 (esu units = cm**3 , SI units = C**2 m**2 J**-1)
 Alpha(0;0):
               (au)            (10**-24 esu)      (10**-40 SI)
   iso        0.779135D+02      0.115456D+02      0.128462D+02
   aniso      0.723352D+01      0.107190D+01      0.119265D+01
   xx         0.823108D+02      0.121972D+02      0.135712D+02
   yx        -0.913231D-02     -0.135327D-02     -0.150571D-02
   yy         0.740026D+02      0.109661D+02      0.122014D+02
   zx         0.215974D-02      0.320041D-03      0.356094D-03
   zy         0.856548D-01      0.126927D-01      0.141226D-01
   zz         0.774272D+02      0.114735D+02      0.127660D+02

 First dipole hyperpolarizability, Beta (dipole orientation).
 ||, _|_  parallel and perpendicular components, (z) with respect to z axis,
 vector components x,y,z.  Values do not include the 1/n! factor of 1/2.
 (esu units = statvolt**-1 cm**4 , SI units = C**3 m**3 J**-2)
 Beta(0;0,0):
               (au)            (10**-30 esu)      (10**-50 SI)
   || (z)     0.435117D+03      0.375907D+01      0.139514D+01
   _|_(z)     0.145039D+03      0.125302D+01      0.465047D+00
   x         -0.128018D+01     -0.110598D-01     -0.410472D-02
   y         -0.338658D+03     -0.292574D+01     -0.108586D+01
   z          0.217558D+04      0.187953D+02      0.697571D+01
   ||         0.440357D+03      0.380434D+01      0.141194D+01
   xxx       -0.463032D+00     -0.400024D-02     -0.148465D-02
   xxy       -0.749616D+02     -0.647610D+00     -0.240354D+00
   yxy       -0.569718D-01     -0.492192D-03     -0.182672D-03
   yyy       -0.134328D+03     -0.116049D+01     -0.430704D+00
   xxz        0.175367D+03      0.151503D+01      0.562289D+00
   yxz       -0.758564D-01     -0.655340D-03     -0.243223D-03
   yyz        0.172379D+03      0.148922D+01      0.552710D+00
   zxz        0.932772D-01      0.805843D-03      0.299081D-03
   zyz        0.964036D+02      0.832852D+00      0.309105D+00
   zzz        0.377448D+03      0.326086D+01      0.121024D+01

 ----------------------------------------------------------------------
 Unable to Open any file for archive entry.
 1\1\GINC-NODE1727\Freq\RB3LYP\6-311+G(d,p)\C3H7O3(1-)\SVICCHI\02-Jun-2
 023\0\\#p freq=raman scale=0.967 pop=(nbo,full,hirshfeld) guess=read g
 eom=allcheck b3lyp/6-311+G(d,p) int=grid=ultrafine EmpiricalDispersion
 =GD3BJ SCRF=(Solvent=ethanol) scf=(xqc,intrep,maxconventionalcycle=350
 ) nosymm\\glycerol-H_dissociation-site_index-3.gjf\\-1,1\O,2.356735345
 ,-0.0030573427,0.0453666814\C,1.2784440756,0.9044472804,0.2960324666\C
 ,-0.0000578128,0.2675465547,-0.2834821599\O,-0.0003518266,-1.092071618
 8,-0.0248589225\C,-1.2791748905,0.9046640483,0.2944155791\O,-2.3572970
 987,-0.0026968594,0.0423624575\H,1.8554359668,-0.8516817411,0.01850028
 86\H,1.1629665743,1.0508720179,1.3809638797\H,1.514016277,1.8694346471
 ,-0.1642658406\H,0.0006520446,0.4681343551,-1.3802197387\H,-1.16504262
 04,1.0510729555,1.3795088077\H,-1.5140030438,1.8696957803,-0.166196983
 6\H,-1.8560539904,-0.8513850773,0.0161644847\\Version=ES64L-G16RevC.01
 \HF=-344.4363817\RMSD=2.243e-09\RMSF=7.862e-05\ZeroPoint=0.1014473\The
 rmal=0.1079943\ETot=-344.3283874\HTot=-344.3274432\GTot=-344.365331\Di
 pole=0.0001497,1.8069878,0.2166613\DipoleDeriv=-1.2044888,0.2346832,0.
 0682668,0.0802508,-0.8495011,-0.0907433,-0.0068795,-0.0773005,-0.65803
 45,0.5179583,-0.3269642,-0.1588706,-0.3141961,0.6015354,0.0176424,-0.1
 45608,0.0136046,0.535574,0.3870612,0.0002232,-0.0001589,0.0002108,1.07
 01139,-0.2255097,-0.0001703,-0.2569054,0.5833877,-1.3273651,-0.0000772
 ,-0.0002805,-0.0001001,-1.6902825,0.1333173,-0.000303,0.0831807,-0.834
 4926,0.5176795,0.3269572,0.1588596,0.3141949,0.6014251,0.0180259,0.145
 5843,0.0139764,0.535957,-1.2045377,-0.2344813,-0.0689824,-0.0800565,-0
 .8494811,-0.0908331,0.0061716,-0.0775849,-0.6580885,0.7058991,0.059814
 7,0.0309863,0.2415291,0.3633149,0.0103888,0.0757841,0.0219871,0.332580
 6,-0.0219279,0.0504458,0.0708942,0.0389391,-0.0088653,-0.0313353,0.040
 3912,-0.118802,-0.3257527,0.0014826,-0.0837215,0.0155726,-0.0391479,-0
 .2322688,0.0728692,0.0529026,0.1454833,0.0028665,-0.0576377,-0.0001327
 ,0.0003082,-0.0000893,-0.128228,0.1345967,0.0003108,0.2036852,-0.52349
 76,-0.0217942,-0.050294,-0.0705282,-0.0388956,-0.0088504,-0.0313947,-0
 .0400137,-0.118863,-0.3257886,0.0016013,0.0834885,-0.0155562,0.0390208
 ,-0.2322821,0.072918,-0.0528778,0.145597,0.0027773,0.7060694,-0.059941
 7,-0.030511,-0.2416602,0.3633702,0.0100578,-0.0752922,0.0219415,0.3325
 113\Polar=82.310811,-0.0004552,77.4259107,0.0054281,0.1085986,74.00392
 62\PolarDeriv=15.9464647,-1.1812272,2.3945613,-0.1833914,-0.6714582,-2
 .5134962,2.8637891,4.1607936,1.251307,-0.524531,0.1390666,0.3635853,-1
 .9790448,-0.1690279,-0.8187004,1.7268834,-0.4225541,-1.0575195,1.42444
 16,3.3805961,-1.1827527,1.5643016,2.5124589,3.7843159,3.8102171,-2.998
 4526,-9.5294968,1.7452071,3.7910329,-2.6523024,2.9112453,2.7845152,5.7
 356388,0.8135006,-4.7205409,-14.8924155,0.0035514,-9.6452354,0.0032801
 ,-2.652683,-0.0004908,-0.0224425,4.4477391,-0.0014292,1.5834668,0.0081
 31,2.5995947,-7.6143009,-3.3240062,-0.0003726,-1.2290881,-0.024405,-8.
 8661517,29.5040954,-0.0017778,1.6106814,-0.0005728,0.9955529,0.0018217
 ,0.0031652,-1.0113844,0.002892,-5.6381473,-0.0057992,-4.8934601,7.7207
 655,2.2322066,0.0016922,1.0711349,0.0025346,-2.0440293,-2.1917587,-1.4
 293288,3.3885604,1.1716054,1.5681056,-2.5021103,-3.7611868,3.8168167,2
 .9913545,-9.5306863,-1.7370189,3.7959614,-2.6561165,2.9108375,-2.77418
 37,5.7363332,-0.7895435,-4.7271246,-14.899544,-15.9447035,-1.1807746,-
 2.3931681,-0.2050767,0.6704738,2.5143609,2.8622527,-4.1615967,1.251655
 7,0.5282142,0.1336179,0.3635862,-1.9955663,0.1688591,-0.8222281,-1.727
 7361,-0.4214832,-1.0571887,-3.544041,-2.2909151,1.7591088,-0.0188333,-
 0.4696837,2.7621232,-8.369004,-0.6214278,-4.7211217,-0.1331906,-0.4664
 999,-0.595611,0.1604499,-0.1176931,-0.0083769,0.9305534,-0.2479284,0.6
 175575,-2.1059407,0.4051363,-0.0750209,1.9657866,-0.6067788,-2.7208207
 ,-1.2407002,0.1411311,1.8267443,-0.3072576,2.3440771,0.0674071,2.29118
 02,-0.1425375,2.266395,-0.0114634,3.893365,13.9320984,0.7335251,2.6053
 255,1.1226583,-1.2506821,-0.2730815,0.1143974,1.3679678,3.3320138,12.5
 61002,-0.4856496,-2.8354722,1.284787,-2.2617276,-1.2495699,-4.9940243,
 0.5820316,3.3061849,-1.2398122,0.0043047,2.194269,0.0022758,-2.4884893
 ,-0.0031669,0.0108432,-0.3017652,0.0022194,1.2767121,-0.0020524,-3.645
 5452,2.9577826,-1.1473046,-0.0034868,-4.1975484,0.0123026,7.2963607,-2
 2.0087913,2.098126,0.4037436,0.0724847,1.9652204,0.6025611,2.7080543,-
 1.2418282,-0.143547,1.8265579,0.3055998,2.3435744,0.0689015,2.2941899,
 0.1382132,2.2655529,-0.0003633,3.891905,13.9228454,-0.7261438,2.602483
 ,-1.1143308,-1.2506398,0.27202,-0.115933,1.3657651,-3.3269702,12.56259
 9,0.485504,-2.8395751,1.2858681,-2.2605458,1.2480713,-4.995352,-0.5841
 502,3.3076473,-1.2411331,3.5415222,-2.2926429,-1.7601291,-0.0091717,0.
 4674347,-2.7633809,-8.3698655,0.623019,-4.7205928,0.122843,-0.4663722,
 -0.5943523,0.1680859,0.1155205,-0.0097368,-0.9301447,-0.2456509,0.6115
 662\HyperPolar=-0.1198671,170.8382545,0.0637908,393.5978393,84.7767405
 ,-0.0023793,-93.0141463,0.0158503,153.197994,162.0279707\Quadrupole=-1
 0.8616035,5.1317102,5.7298933,0.0003121,-0.0106588,0.0905747\PG=C01 [X
 (C3H7O3)]\NImag=0\\0.36096998,0.07894625,0.47014731,-0.03100161,0.0418
 2721,0.06655447,-0.14339341,0.07128665,0.02170630,0.39855459,0.0284044
 1,-0.12800362,-0.01561951,0.03217139,0.56566897,0.01708574,-0.01439425
 ,-0.07162851,-0.02369525,-0.03716038,0.55167106,-0.04772058,0.00649428
 ,-0.00882073,-0.11931784,-0.01446565,-0.03051033,0.47210653,0.02020276
 ,-0.00849140,0.00848140,-0.03043835,-0.07354526,-0.01649246,0.00000376
 ,0.43053804,0.01166352,0.00030173,0.00611903,-0.03596648,-0.01272325,-
 0.09793140,-0.00003441,-0.00855813,0.52726546,-0.01789332,-0.02827968,
 -0.00143133,-0.01172693,-0.02526796,0.00716302,-0.07058381,-0.00003409
 ,0.00001096,0.09043113,0.00226730,0.00095851,-0.00009622,-0.01520037,-
 0.04447030,0.00311859,-0.00002616,-0.21578245,0.02068724,0.00005188,0.
 34211139,-0.00146859,-0.00041822,0.00546861,0.00390399,-0.00846563,0.0
 0863264,0.00000988,0.03066264,-0.08739772,-0.00001377,-0.04987723,0.06
 995385,-0.00002206,-0.00360197,-0.00049944,-0.02848226,0.00491764,0.00
 701859,-0.11939950,0.03047059,0.03593877,-0.01170865,0.01519154,-0.003
 93359,0.39847201,-0.00660253,0.00213374,-0.00178466,-0.00491842,0.0100
 7483,0.00598158,0.01449423,-0.07355133,-0.01271219,0.02527212,-0.04447
 840,-0.00843464,-0.03211734,0.56565291,-0.00565377,0.00032663,-0.00071
 081,-0.00705755,0.00598914,0.00341768,0.03048232,-0.01646153,-0.097843
 23,-0.00719146,0.00313818,0.00863473,0.02348716,-0.03720959,0.55171321
 ,-0.00776867,-0.00002130,-0.00125840,-0.00002841,0.00660558,0.00565464
 ,-0.04772723,-0.02020415,-0.01173133,-0.01789962,-0.00226276,0.0014395
 0,-0.14333729,-0.02835945,-0.01717644,0.36085878,0.00002248,0.00421182
 ,-0.00005401,0.00360220,0.00213273,0.00033051,-0.00648874,-0.00849192,
 0.00029273,0.02828841,0.00095403,-0.00038341,-0.07124108,-0.12797180,-
 0.01447111,-0.07900420,0.47012332,0.00124799,-0.00005427,0.00060235,0.
 00049972,-0.00177643,-0.00070244,0.00875635,0.00845209,0.00610932,0.00
 140177,-0.00009900,0.00547146,-0.02179838,-0.01564157,-0.07170707,0.03
 138152,0.04169986,0.06667395,-0.13895179,-0.17789430,-0.00086064,0.014
 46886,0.03042095,0.00102476,-0.00946284,0.01507038,-0.00389790,0.01919
 344,-0.00062885,0.00103481,0.00175412,-0.00117630,0.00035575,0.0023806
 9,-0.00415457,-0.00034894,0.12234029,-0.14207879,-0.30524963,-0.011809
 28,0.00355015,-0.04373333,-0.00367310,-0.00139999,0.00292696,0.0004936
 1,0.00680194,-0.00494017,-0.00023113,0.00174322,-0.00285571,-0.0001445
 7,-0.00085162,-0.00219534,0.00001480,0.13274484,0.35712649,0.00177270,
 -0.00963868,-0.01590481,-0.00047044,-0.00828662,0.00345107,-0.00158967
 ,0.00098764,0.00206752,0.00080573,0.00019676,-0.00765223,0.00005676,0.
 00003532,0.00020245,0.00040450,-0.00018840,0.00002071,-0.00018963,0.01
 604421,0.01929184,-0.01206960,0.01679962,0.02855302,-0.04614384,-0.004
 02396,0.01476804,0.00043340,-0.00054890,-0.02656287,0.00160161,0.00076
 805,0.00223311,0.00079815,-0.00085658,-0.00256793,0.00012006,-0.000034
 22,0.00049628,-0.00162437,-0.00098934,0.00073502,0.05996963,0.01420127
 ,-0.00930961,-0.02538498,-0.00428967,-0.05403704,-0.01766336,-0.000157
 55,-0.00017571,-0.01231160,0.00013682,0.00173324,0.00072678,0.00108301
 ,0.00041332,-0.00011397,0.00009545,-0.00007808,0.00030384,0.00115067,0
 .00030387,-0.00107728,-0.00857660,0.05719057,0.01049349,-0.01080650,0.
 00070306,0.01458944,-0.01893885,-0.27840501,-0.00012077,0.00276728,-0.
 01617701,-0.00009156,-0.00144322,0.00266716,0.00166702,-0.00045492,-0.
 00052005,-0.00016230,0.00029957,0.00068035,0.00115421,0.00093591,-0.00
 066645,-0.02411596,0.02978512,0.30449617,0.00275120,0.03294519,-0.0081
 6771,-0.06404587,-0.05952445,0.02770309,0.00166444,-0.01957283,0.01527
 281,-0.00425480,-0.00527435,-0.00321071,-0.00022225,0.00052507,-0.0000
 0271,-0.00032238,0.00060529,-0.00017527,-0.00531423,0.00218380,-0.0009
 6427,0.00131251,-0.00231529,-0.00024448,0.06705269,0.00244268,-0.02549
 026,0.00337646,-0.05199309,-0.23186803,0.09339574,-0.00052924,-0.00716
 409,0.00711143,-0.00281003,-0.00194173,-0.00146064,-0.00020236,-0.0009
 2788,-0.00020472,-0.00092030,0.00034526,-0.00004544,0.00397545,-0.0018
 6263,0.00173886,-0.00078386,0.00416258,-0.00034966,0.05017253,0.263996
 45,-0.00240399,-0.00783127,0.00655772,0.02726712,0.09885385,-0.1013890
 0,-0.00272796,-0.01163093,0.00423471,-0.00200409,-0.00117113,0.0008322
 3,-0.00006718,0.00009991,-0.00013563,0.00032005,0.00024820,-0.00001726
 ,0.00043600,-0.00220625,-0.00014767,0.00833943,0.02679839,-0.01335809,
 -0.02974425,-0.10280554,0.10211245,0.00191853,-0.00025757,0.00175069,-
 0.00221447,-0.00074546,-0.02843060,-0.05260288,-0.00000663,0.00011766,
 0.00630927,-0.00002012,0.00000914,-0.00224738,0.00074828,0.02844443,0.
 00192024,0.00025767,-0.00174822,-0.00010227,0.00027025,-0.00027090,-0.
 00402854,-0.00125038,-0.00305743,0.00121951,0.00030608,0.00065643,0.05
 274410,0.00051867,0.00102235,0.00078846,-0.00114557,0.00115227,-0.0129
 7662,-0.00001463,-0.04185046,0.02212228,-0.00002706,-0.02897596,0.0388
 6093,0.00116320,0.00115171,-0.01298018,-0.00051995,0.00102177,0.000787
 76,-0.00125625,-0.00075281,0.00019672,-0.00210230,-0.00029150,-0.00199
 139,0.00063500,0.00057013,-0.00022981,0.00002164,0.06742747,-0.0011742
 4,0.00032283,0.00155514,0.00087423,-0.00155501,-0.01665900,0.00011380,
 0.00965807,-0.23658982,0.00000859,0.02796959,-0.00245738,-0.00085559,-
 0.00155371,-0.01662690,0.00117701,0.00032281,0.00155482,0.00128481,0.0
 0066267,-0.00028230,-0.00248682,-0.00133939,-0.00090140,-0.00031523,-0
 .00062795,0.00085558,-0.00013967,-0.03255593,0.26987315,0.00012055,0.0
 0003375,-0.00049685,0.00079718,0.00085714,0.00256977,0.00039960,0.0005
 4435,0.02658208,0.00160388,-0.00076534,-0.00223509,-0.04611170,0.00404
 287,-0.01447366,-0.01202552,-0.01678440,-0.02856885,-0.00008507,-0.000
 15991,0.00001847,-0.00021610,-0.00012127,-0.00056712,-0.00006727,-0.00
 006200,-0.00006310,-0.00403490,0.00210552,0.00248255,0.05991823,-0.000
 09575,-0.00007815,0.00030368,-0.00108340,0.00041283,-0.00011508,0.0001
 7291,-0.00017485,-0.01231300,-0.00013685,0.00173219,0.00072608,0.00430
 760,-0.05404240,-0.01764774,-0.01416809,-0.00930518,-0.02539618,-0.000
 04050,0.00002481,-0.00006500,0.00012605,0.00011089,0.00028619,-0.00000
 299,-0.00004727,0.00005472,0.00125267,-0.00029213,-0.00133819,0.008535
 76,0.05719296,0.00016059,0.00030033,0.00068053,-0.00166324,-0.00045348
 ,-0.00052334,0.00014174,0.00276927,-0.01615081,0.00009038,-0.00144377,
 0.00266472,-0.01429568,-0.01892595,-0.27841916,-0.01050722,-0.01082370
 ,0.00065085,-0.00036706,-0.00004345,-0.00014451,0.00056436,0.00028658,
 0.00137731,-0.00008879,-0.00004644,0.00024860,0.00305322,-0.00198920,-
 0.00089402,0.02380358,0.02978169,0.30454503,-0.00032202,-0.00060538,0.
 00017488,-0.00022258,-0.00052535,0.00000229,0.00168372,0.01958674,-0.0
 1527558,-0.00425936,0.00527637,0.00320399,-0.06395911,0.05936433,-0.02
 763756,0.00273176,-0.03293882,0.00816189,0.00066004,0.00050840,0.00008
 779,-0.00006743,0.00000297,0.00008819,-0.00043387,-0.00013144,-0.00002
 502,0.00121969,-0.00063457,0.00031532,0.00132321,0.00228159,0.00026356
 ,0.06696224,0.00092033,0.00034526,-0.00004430,0.00020248,-0.00092784,-
 0.00020454,0.00051906,-0.00716819,0.00711505,0.00281232,-0.00194312,-0
 .00145773,0.05184093,-0.23186979,0.09345881,-0.00245080,-0.02548233,0.
 00337125,-0.00053551,-0.00011955,-0.00007572,0.00006206,-0.00004729,-0
 .00004623,0.00013152,0.00034711,-0.00000690,-0.00030533,0.00057015,-0.
 00062832,0.00078480,0.00416227,-0.00034910,-0.05000476,0.26399498,-0.0
 0032035,0.00024748,-0.00001742,0.00006704,0.00009916,-0.00013551,0.002
 72240,-0.01160625,0.00421925,0.00199767,-0.00116473,0.00083856,-0.0272
 0275,0.09892730,-0.10145809,0.00239671,-0.00787366,0.00656776,-0.00001
 577,-0.00017256,0.00000358,0.00006267,0.00005482,0.00024794,0.00002445
 ,-0.00000709,0.00020285,-0.00065576,-0.00023108,0.00085566,-0.00831584
 ,0.02680094,-0.01336682,0.02968248,-0.10286558,0.10218891,0.00238118,0
 .00415445,0.00035183,0.00175499,0.00117573,-0.00035375,-0.00947299,-0.
 01507362,0.00388277,0.01918717,0.00062282,-0.00097268,0.01446590,-0.03
 041626,-0.00100857,-0.13890241,0.17786997,0.00069414,-0.00525686,-0.00
 232295,-0.00039606,-0.00008546,0.00004058,0.00036727,0.00066032,0.0005
 3557,0.00001655,-0.00010090,0.00125629,-0.00128476,-0.00162209,-0.0011
 4898,-0.00115544,-0.00531630,-0.00397710,-0.00044296,0.12230744,0.0008
 5092,-0.00219632,0.00001576,-0.00174400,-0.00285621,-0.00014661,0.0013
 9772,0.00293066,0.00049410,-0.00680781,-0.00495722,-0.00024781,-0.0035
 5497,-0.04372918,-0.00367934,0.14206159,-0.30526428,-0.01161671,0.0023
 2398,0.00132705,0.00013221,0.00015999,0.00002476,-0.00004330,-0.000508
 50,-0.00011964,-0.00017325,-0.00027109,-0.00075301,0.00066255,0.000988
 73,0.00030403,0.00093722,-0.00218005,-0.00186166,-0.00220874,-0.132716
 50,0.35715102,-0.00040149,-0.00018301,0.00002066,-0.00005487,0.0000370
 1,0.00020175,0.00157739,0.00097089,0.00207471,-0.00074592,0.00018493,-
 0.00765661,0.00048432,-0.00832688,0.00345287,-0.00193823,-0.00939940,-
 0.01590481,0.00038959,0.00012914,-0.00023921,-0.00001835,-0.00006493,-
 0.00014398,-0.00008692,-0.00007500,0.00000352,0.00027102,0.00019808,-0
 .00028353,-0.00073594,-0.00107809,-0.00066838,0.00095776,0.00173331,-0
 .00014666,0.00030164,0.01587395,0.01928966\\0.00022944,0.00003876,0.00
 000440,-0.00008214,0.00002674,-0.00002922,-0.00000225,0.00002493,0.000
 03020,-0.00000136,-0.00006469,0.00010798,0.00009113,0.00002511,-0.0000
 3057,-0.00023895,0.00002972,-0.00000248,-0.00010342,-0.00012992,0.0000
 0633,-0.00002719,0.00003222,0.00005519,0.00001664,0.00006639,-0.000073
 63,0.00000005,-0.00002586,-0.00006307,0.00003010,0.00003411,0.00006535
 ,-0.00001640,0.00007325,-0.00007809,0.00010438,-0.00013076,0.00000761\
 \\@
 The archive entry for this job was punched.


 K N O W I N G  IS A BARRIER WHICH PREVENTS LEARNING

                     -- TEACHING OF THE BENE GESSERIT
 Job cpu time:       0 days  0 hours 17 minutes 46.6 seconds.
 Elapsed time:       0 days  0 hours 10 minutes  5.6 seconds.
 File lengths (MBytes):  RWF=    102 Int=      0 D2E=      0 Chk=     13 Scr=      1
 Normal termination of Gaussian 16 at Fri Jun  2 11:29:04 2023.
