 Entering Gaussian System, Link 0=g16
 Input=IMIDF-isolated-freq.gjf
 Output=IMIDF-isolated-freq.log
 Initial command:
 /software/commercial/gaussian/g16/AVX2/g16/l1.exe "/scratch1/svicchi/G09-1868847.pbs02/Gau-374035.inp" -scrdir="/scratch1/svicchi/G09-1868847.pbs02/"
 Entering Link 1 = /software/commercial/gaussian/g16/AVX2/g16/l1.exe PID=    374036.
  
 Copyright (c) 1988-2021, Gaussian, Inc.  All Rights Reserved.
  
 This is part of the Gaussian(R) 16 program.  It is based on
 the Gaussian(R) 09 system (copyright 2009, Gaussian, Inc.),
 the Gaussian(R) 03 system (copyright 2003, Gaussian, Inc.),
 the Gaussian(R) 98 system (copyright 1998, Gaussian, Inc.),
 the Gaussian(R) 94 system (copyright 1995, Gaussian, Inc.),
 the Gaussian 92(TM) system (copyright 1992, Gaussian, Inc.),
 the Gaussian 90(TM) system (copyright 1990, Gaussian, Inc.),
 the Gaussian 88(TM) system (copyright 1988, Gaussian, Inc.),
 the Gaussian 86(TM) system (copyright 1986, Carnegie Mellon
 University), and the Gaussian 82(TM) system (copyright 1983,
 Carnegie Mellon University). Gaussian is a federally registered
 trademark of Gaussian, Inc.
  
 This software contains proprietary and confidential information,
 including trade secrets, belonging to Gaussian, Inc.
  
 This software is provided under written license and may be
 used, copied, transmitted, or stored only in accord with that
 written license.
  
 The following legend is applicable only to US Government
 contracts under FAR:
  
                    RESTRICTED RIGHTS LEGEND
  
 Use, reproduction and disclosure by the US Government is
 subject to restrictions as set forth in subparagraphs (a)
 and (c) of the Commercial Computer Software - Restricted
 Rights clause in FAR 52.227-19.
  
 Gaussian, Inc.
 340 Quinnipiac St., Bldg. 40, Wallingford CT 06492
  
  
 ---------------------------------------------------------------
 Warning -- This program may not be used in any manner that
 competes with the business of Gaussian, Inc. or will provide
 assistance to any competitor of Gaussian, Inc.  The licensee
 of this program is prohibited from giving any competitor of
 Gaussian, Inc. access to this program.  By using this program,
 the user acknowledges that Gaussian, Inc. is engaged in the
 business of creating and licensing software in the field of
 computational chemistry and represents and warrants to the
 licensee that it is not a competitor of Gaussian, Inc. and that
 it will not use this program in any manner prohibited above.
 ---------------------------------------------------------------
  

 Cite this work as:
 Gaussian 16, Revision C.02,
 M. J. Frisch, G. W. Trucks, H. B. Schlegel, G. E. Scuseria, 
 M. A. Robb, J. R. Cheeseman, G. Scalmani, V. Barone, 
 G. A. Petersson, H. Nakatsuji, X. Li, M. Caricato, A. V. Marenich, 
 J. Bloino, B. G. Janesko, R. Gomperts, B. Mennucci, H. P. Hratchian, 
 J. V. Ortiz, A. F. Izmaylov, J. L. Sonnenberg, D. Williams-Young, 
 F. Ding, F. Lipparini, F. Egidi, J. Goings, B. Peng, A. Petrone, 
 T. Henderson, D. Ranasinghe, V. G. Zakrzewski, J. Gao, N. Rega, 
 G. Zheng, W. Liang, M. Hada, M. Ehara, K. Toyota, R. Fukuda, 
 J. Hasegawa, M. Ishida, T. Nakajima, Y. Honda, O. Kitao, H. Nakai, 
 T. Vreven, K. Throssell, J. A. Montgomery, Jr., J. E. Peralta, 
 F. Ogliaro, M. J. Bearpark, J. J. Heyd, E. N. Brothers, K. N. Kudin, 
 V. N. Staroverov, T. A. Keith, R. Kobayashi, J. Normand, 
 K. Raghavachari, A. P. Rendell, J. C. Burant, S. S. Iyengar, 
 J. Tomasi, M. Cossi, J. M. Millam, M. Klene, C. Adamo, R. Cammi, 
 J. W. Ochterski, R. L. Martin, K. Morokuma, O. Farkas, 
 J. B. Foresman, and D. J. Fox, Gaussian, Inc., Wallingford CT, 2019.
 
 ******************************************
 Gaussian 16:  ES64L-G16RevC.02  7-Dec-2021
                11-Jan-2024 
 ******************************************
 %NProcShared=12
 Will use up to   12 processors via shared memory.
 %mem=110gb
 %chk=/scratch1/svicchi/G09-1868847.pbs02/02-freq/IMIDF-isolated-freq.chk
 ----------------------------------------------------------------------
 #p freq=raman scale=0.967 guess=read geom=allcheck b3lyp/6-311+G(d,p) 
 int=grid=ultrafine EmpiricalDispersion=GD3BJ SCRF=(Solvent=ethanol) sc
 f=(xqc,intrep,maxconventionalcycle=350) nosymm
 ----------------------------------------------------------------------
 1/10=4,29=7,30=1,38=1,114=967000/1,3;
 2/12=2,15=1,40=1/2;
 3/5=4,6=6,7=111,11=2,14=-4,25=1,30=1,70=2201,71=2,72=4,74=-5,75=-5,116=-2,124=41,140=1/1,2,3;
 4/5=1/1;
 5/5=2,8=3,13=1,17=20,38=6,53=4,85=350,98=1/2,8;
 8/6=4,10=90,11=11/1;
 10/13=10,15=4,31=1/2;
 11/6=3,8=1,9=11,15=111,16=1,31=1/1,2,10;
 10/6=1,31=1/2;
 6/7=2,8=2,9=2,10=2,28=1/1;
 7/8=1,10=1,25=1,30=1/1,2,3,16;
 1/10=4,30=1/3;
 99//99;
 Leave Link    1 at Thu Jan 11 13:05:20 2024, MaxMem= 14763950080 cpu:               0.1 elap:               0.1
 (Enter /software/commercial/gaussian/g16/AVX2/g16/l101.exe)
 Structure from the checkpoint file:  "/scratch1/svicchi/G09-1868847.pbs02/02-freq/IMIDF-isolated-freq.chk"
 --------------
 IMIDF-isolated
 --------------
 Charge = -1 Multiplicity = 1
 No Z-Matrix found in chk file; cartesian coordinates used.
  C                                                -2.117639123336      3.299120071465      0.379242145217
  N                                                -1.189837398131      2.360863620405      0.273960166564
  C                                                -1.885909678617      1.360301883798     -0.389214058183
  C                                                -3.179062156128      1.792290691201     -0.623911600547
  H                                                -1.415337388120      0.420805898077     -0.644621794110
  N                                                -3.325604160899      3.074270637588     -0.113415758922
  H                                                -3.998352177197      1.283413339694     -1.112892308738
  F                                                -1.831337917572      4.487583857772      0.990643208719
 Recover connectivity data from disk.
 ITRead=  0  0  0  0  0  0  0  0
 MicOpt= -1 -1 -1 -1 -1 -1 -1 -1
 NAtoms=      8 NQM=        8 NQMF=       0 NMMI=      0 NMMIF=      0
                NMic=       0 NMicF=      0.
                    Isotopes and Nuclear Properties:
 (Nuclear quadrupole moments (NQMom) in fm**2, nuclear magnetic moments (NMagM)
  in nuclear magnetons)

  Atom         1           2           3           4           5           6           7           8
 IAtWgt=          12          14          12          12           1          14           1          19
 AtmWgt=  12.0000000  14.0030740  12.0000000  12.0000000   1.0078250  14.0030740   1.0078250  18.9984032
 NucSpn=           0           2           0           0           1           2           1           1
 AtZEff=   3.6000000   4.5500000   3.6000000   3.6000000   1.0000000   4.5500000   1.0000000   6.7500000
 NQMom=    0.0000000   2.0440000   0.0000000   0.0000000   0.0000000   2.0440000   0.0000000   0.0000000
 NMagM=    0.0000000   0.4037610   0.0000000   0.0000000   2.7928460   0.4037610   2.7928460   2.6288670
 AtZNuc=   6.0000000   7.0000000   6.0000000   6.0000000   1.0000000   7.0000000   1.0000000   9.0000000
 Leave Link  101 at Thu Jan 11 13:05:21 2024, MaxMem= 14763950080 cpu:               0.2 elap:               0.1
 (Enter /software/commercial/gaussian/g16/AVX2/g16/l103.exe)

 GradGradGradGradGradGradGradGradGradGradGradGradGradGradGradGradGradGrad
 Berny optimization.
 Initialization pass.
 Trust Radius=3.00D-01 FncErr=1.00D-07 GrdErr=1.00D-07 EigMax=2.50D+02 EigMin=1.00D-04
 Number of steps in this run=      2 maximum allowed number of steps=      2.
 GradGradGradGradGradGradGradGradGradGradGradGradGradGradGradGradGradGrad

 Leave Link  103 at Thu Jan 11 13:05:21 2024, MaxMem= 14763950080 cpu:               0.1 elap:               0.1
 (Enter /software/commercial/gaussian/g16/AVX2/g16/l202.exe)
                          Input orientation:                          
 ---------------------------------------------------------------------
 Center     Atomic      Atomic             Coordinates (Angstroms)
 Number     Number       Type             X           Y           Z
 ---------------------------------------------------------------------
      1          6           0       -2.117639    3.299120    0.379242
      2          7           0       -1.189837    2.360864    0.273960
      3          6           0       -1.885910    1.360302   -0.389214
      4          6           0       -3.179062    1.792291   -0.623912
      5          1           0       -1.415337    0.420806   -0.644622
      6          7           0       -3.325604    3.074271   -0.113416
      7          1           0       -3.998352    1.283413   -1.112892
      8          9           0       -1.831338    4.487584    0.990643
 ---------------------------------------------------------------------
                    Distance matrix (angstroms):
                    1          2          3          4          5
     1  C    0.000000
     2  N    1.323717   0.000000
     3  C    2.098390   1.387602   0.000000
     4  C    2.098445   2.255319   1.383452   0.000000
     5  H    3.134680   2.158348   1.081353   2.234306   0.000000
     6  N    1.323801   2.284843   2.255321   1.387643   3.312427
     7  H    3.134744   3.312403   2.234286   1.081339   2.763211
     8  F    1.366831   2.334116   3.418607   3.418736   4.402934
                    6          7          8
     6  N    0.000000
     7  H    2.158405   0.000000
     8  F    2.334359   4.403126   0.000000
 Symmetry turned off by external request.
 Stoichiometry    C3H2FN2(1-)
 Framework group  C1[X(C3H2FN2)]
 Deg. of freedom    18
 Full point group                 C1      NOp   1
 Rotational constants (GHZ):           9.7407863           3.7910796           2.7289730
 Leave Link  202 at Thu Jan 11 13:05:21 2024, MaxMem= 14763950080 cpu:               0.0 elap:               0.0
 (Enter /software/commercial/gaussian/g16/AVX2/g16/l301.exe)
 Standard basis: 6-311+G(d,p) (5D, 7F)
 Ernie: Thresh=  0.10000D-02 Tol=  0.10000D-05 Strict=F.
   144 basis functions,   232 primitive gaussians,   150 cartesian basis functions
    22 alpha electrons       22 beta electrons
       nuclear repulsion energy       213.5505548240 Hartrees.
 IExCor=  402 DFT=T Ex+Corr=B3LYP ExCW=0 ScaHFX=  0.200000
 ScaDFX=  0.800000  0.720000  1.000000  0.810000 ScalE2=  1.000000  1.000000
 IRadAn=      5 IRanWt=     -1 IRanGd=            0 ICorTp=0 IEmpDi=141
 NAtoms=    8 NActive=    8 NUniq=    8 SFac= 1.00D+00 NAtFMM=   60 NAOKFM=F Big=F
 Integral buffers will be    131072 words long.
 Raffenetti 2 integral format.
 Two-electron integral symmetry is turned off.
 R6Disp:  Grimme-D3(BJ) Dispersion energy=       -0.0102789281 Hartrees.
 Nuclear repulsion after empirical dispersion term =      213.5402758959 Hartrees.
 Force inversion solution in PCM.
 ------------------------------------------------------------------------------
 Polarizable Continuum Model (PCM)
 =================================
 Model                : PCM.
 Atomic radii         : UFF (Universal Force Field).
 Polarization charges : Total charges.
 Charge compensation  : None.
 Solution method      : Matrix inversion.
 Cavity type          : Scaled VdW (van der Waals Surface) (Alpha=1.100).
 Cavity algorithm     : GePol (No added spheres)
                        Default sphere list used, NSphG=    8.
                        Lebedev-Laikov grids with approx.  5.0 points / Ang**2.
                        Smoothing algorithm: York/Karplus (Gamma=1.0000).
                        Polarization charges: spherical gaussians, with
                                              point-specific exponents (IZeta= 3).
                        Self-potential: point-specific (ISelfS= 7).
                        Self-field    : sphere-specific E.n sum rule (ISelfD= 2).
 1st derivatives      : Analytical E(r).r(x)/FMM algorithm (CHGder, D1EAlg=3).
                        Cavity 1st derivative terms included.
 2nd derivatives      : Analytical E(r).r(xy)/FMM algorithm (CHGder, D2EAlg=3).
                        Cavity 2nd derivative terms included.
 Solvent              : Ethanol, Eps=  24.852000 Eps(inf)=   1.852593
 ------------------------------------------------------------------------------
 Spheres list:
 ISph  on   Nord     Re0    Alpha      Xe            Ye            Ze
    1   C      1    1.9255  1.100     -2.117639      3.299120      0.379242
    2   N      2    1.8300  1.100     -1.189837      2.360864      0.273960
    3   C      3    1.9255  1.100     -1.885910      1.360302     -0.389214
    4   C      4    1.9255  1.100     -3.179062      1.792291     -0.623912
    5   H      5    1.4430  1.100     -1.415337      0.420806     -0.644622
    6   N      6    1.8300  1.100     -3.325604      3.074271     -0.113416
    7   H      7    1.4430  1.100     -3.998352      1.283413     -1.112892
    8   F      8    1.6820  1.100     -1.831338      4.487584      0.990643
 ------------------------------------------------------------------------------
 GePol: Number of generator spheres                  =       8
 GePol: Total number of spheres                      =       8
 GePol: Number of exposed spheres                    =       8 (100.00%)
 GePol: Number of points                             =     911
 GePol: Average weight of points                     =       0.13
 GePol: Minimum weight of points                     =   0.12D-09
 GePol: Maximum weight of points                     =    0.20577
 GePol: Number of points with low weight             =      46
 GePol: Fraction of low-weight points (<1% of avg)   =       5.05%
 GePol: Cavity surface area                          =    122.470 Ang**2
 GePol: Cavity volume                                =    110.451 Ang**3
 Leave Link  301 at Thu Jan 11 13:05:21 2024, MaxMem= 14763950080 cpu:               0.1 elap:               0.1
 (Enter /software/commercial/gaussian/g16/AVX2/g16/l302.exe)
 NPDir=0 NMtPBC=     1 NCelOv=     1 NCel=       1 NClECP=     1 NCelD=      1
         NCelK=      1 NCelE2=     1 NClLst=     1 CellRange=     0.0.
 One-electron integrals computed using PRISM.
 NBasis=   144 RedAO= T EigKep=  5.61D-05  NBF=   144
 NBsUse=   144 1.00D-06 EigRej= -1.00D+00 NBFU=   144
 Precomputing XC quadrature grid using
 IXCGrd= 4 IRadAn=           5 IRanWt=          -1 IRanGd=           0 AccXCQ= 0.00D+00.
 Generated NRdTot=       0 NPtTot=           0 NUsed=           0 NTot=          32
 NSgBfM=   150   150   150   150   150 MxSgAt=     8 MxSgA2=     8.
 Leave Link  302 at Thu Jan 11 13:05:22 2024, MaxMem= 14763950080 cpu:               1.0 elap:               0.2
 (Enter /software/commercial/gaussian/g16/AVX2/g16/l303.exe)
 DipDrv:  MaxL=1.
 Leave Link  303 at Thu Jan 11 13:05:22 2024, MaxMem= 14763950080 cpu:               0.1 elap:               0.1
 (Enter /software/commercial/gaussian/g16/AVX2/g16/l401.exe)
 Initial guess from the checkpoint file:  "/scratch1/svicchi/G09-1868847.pbs02/02-freq/IMIDF-isolated-freq.chk"
 B after Tr=     0.000000    0.000000    0.000000
         Rot=    1.000000    0.000000    0.000000    0.000000 Ang=   0.00 deg.
 Guess basis will be translated and rotated to current coordinates.
 JPrj=2 DoOrth=T DoCkMO=T.
 Leave Link  401 at Thu Jan 11 13:05:22 2024, MaxMem= 14763950080 cpu:               0.3 elap:               0.1
 (Enter /software/commercial/gaussian/g16/AVX2/g16/l502.exe)
 Keep R1 ints in memory in canonical form, NReq=66218610.
 FoFCou: FMM=F IPFlag=           0 FMFlag=           0 FMFlg1=           0
         NFxFlg=           0 DoJE=F BraDBF=F KetDBF=F FulRan=T
         wScrn=  0.000000 ICntrl=       600 IOpCl=  0 I1Cent=           0 NGrid=           0
         NMat0=    1 NMatS0=  10440 NMatT0=    0 NMatD0=    1 NMtDS0=    0 NMtDT0=    0
 Symmetry not used in FoFCou.
 Two-electron integral symmetry not used.
 Closed shell SCF:
 Using DIIS extrapolation, IDIIS=  1040.
 NGot= 14763950080 LenX= 14709399928 LenY= 14709376987
 Requested convergence on RMS density matrix=1.00D-08 within 350 cycles.
 Requested convergence on MAX density matrix=1.00D-06.
 Requested convergence on             energy=1.00D-06.
 No special actions if energy rises.

 Cycle   1  Pass 1  IDiag  1:
 Inv3:  Mode=1 IEnd=     2489763.
 Iteration    1 A*A^-1 deviation from unit magnitude is 2.89D-15 for    381.
 Iteration    1 A*A^-1 deviation from orthogonality  is 1.82D-15 for    667    108.
 Iteration    1 A^-1*A deviation from unit magnitude is 3.22D-15 for    381.
 Iteration    1 A^-1*A deviation from orthogonality  is 1.88D-14 for    782    756.
 E= -325.094444996125    
 DIIS: error= 1.31D-07 at cycle   1 NSaved=   1.
 NSaved= 1 IEnMin= 1 EnMin= -325.094444996125     IErMin= 1 ErrMin= 1.31D-07
 ErrMax= 1.31D-07  0.00D+00 EMaxC= 1.00D-01 BMatC= 7.41D-13 BMatP= 7.41D-13
 IDIUse=1 WtCom= 1.00D+00 WtEn= 0.00D+00
 Coeff-Com:  0.100D+01
 Coeff:      0.100D+01
 Gap=     0.211 Goal=   None    Shift=    0.000
 RMSDP=1.47D-08 MaxDP=3.12D-07              OVMax= 9.13D-07

 Cycle   2  Pass 1  IDiag  1:
 E= -325.094444996125     Delta-E=       -0.000000000000 Rises=F Damp=F
 DIIS: error= 2.74D-07 at cycle   2 NSaved=   2.
 NSaved= 2 IEnMin= 2 EnMin= -325.094444996125     IErMin= 1 ErrMin= 1.31D-07
 ErrMax= 2.74D-07  0.00D+00 EMaxC= 1.00D-01 BMatC= 3.19D-12 BMatP= 7.41D-13
 IDIUse=1 WtCom= 1.00D+00 WtEn= 0.00D+00
 Coeff-Com:  0.675D+00 0.325D+00
 Coeff:      0.675D+00 0.325D+00
 Gap=     0.211 Goal=   None    Shift=    0.000
 RMSDP=9.92D-09 MaxDP=2.07D-07 DE=-2.84D-13 OVMax= 6.16D-07

 Error on total polarization charges =  0.02030
 SCF Done:  E(RB3LYP) =  -325.094444996     A.U. after    2 cycles
            NFock=  2  Conv=0.99D-08     -V/T= 2.0037
 KE= 3.238968348583D+02 PE=-1.200250960559D+03 EE= 3.377194048090D+02
 Leave Link  502 at Thu Jan 11 13:05:25 2024, MaxMem= 14763950080 cpu:              13.8 elap:               1.9
 (Enter /software/commercial/gaussian/g16/AVX2/g16/l508.exe)
 QCSCF skips out because SCF is already converged.
 Leave Link  508 at Thu Jan 11 13:05:25 2024, MaxMem= 14763950080 cpu:               0.1 elap:               0.0
 (Enter /software/commercial/gaussian/g16/AVX2/g16/l801.exe)
 DoSCS=F DFT=T ScalE2(SS,OS)=  1.000000  1.000000
 Range of M.O.s used for correlation:     1   144
 NBasis=   144 NAE=    22 NBE=    22 NFC=     0 NFV=     0
 NROrb=    144 NOA=    22 NOB=    22 NVA=   122 NVB=   122

 **** Warning!!: The largest alpha MO coefficient is  0.53384976D+02

 Leave Link  801 at Thu Jan 11 13:05:25 2024, MaxMem= 14763950080 cpu:               0.1 elap:               0.1
 (Enter /software/commercial/gaussian/g16/AVX2/g16/l1002.exe)
 Minotr:  Closed shell wavefunction.
 NEqPCM:  Using equilibrium solvation (IEInf=0, Eps=  24.8520, EpsInf=   1.8526)
          Direct CPHF calculation.
          Differentiating once with respect to electric field.
                with respect to dipole field.
          Electric field/nuclear overlap derivatives assumed to be zero.
          Requested convergence is 1.0D-08 RMS, and 1.0D-07 maximum.
          Secondary convergence is 1.0D-12 RMS, and 1.0D-12 maximum.
          NewPWx=F KeepS1=T KeepF1=T KeepIn=T MapXYZ=F SortEE=F KeepMc=T.
         2427 words used for storage of precomputed grid.
 Keep R1 ints in memory in canonical form, NReq=66183947.
 FoFCou: FMM=F IPFlag=           0 FMFlag=           0 FMFlg1=           0
         NFxFlg=           0 DoJE=F BraDBF=F KetDBF=F FulRan=T
         wScrn=  0.000000 ICntrl=       600 IOpCl=  0 I1Cent=           0 NGrid=           0
         NMat0=    1 NMatS0=  10440 NMatT0=    0 NMatD0=    1 NMtDS0=    0 NMtDT0=    0
 Symmetry not used in FoFCou.
 Two-electron integral symmetry not used.
          MDV=   14763950080 using IRadAn=       1.
          Solving linear equations simultaneously, MaxMat=       0.
          There are     3 degrees of freedom in the 1st order CPHF.  IDoFFX=0 NUNeed=     3.
      3 vectors produced by pass  0 Test12= 8.95D-14 3.33D-08 XBig12= 6.20D+01 4.66D+00.
 AX will form     3 AO Fock derivatives at one time.
      3 vectors produced by pass  1 Test12= 8.95D-14 3.33D-08 XBig12= 3.80D+01 1.91D+00.
      3 vectors produced by pass  2 Test12= 8.95D-14 3.33D-08 XBig12= 2.55D+00 3.56D-01.
      3 vectors produced by pass  3 Test12= 8.95D-14 3.33D-08 XBig12= 1.11D+00 3.24D-01.
      3 vectors produced by pass  4 Test12= 8.95D-14 3.33D-08 XBig12= 5.99D-02 6.72D-02.
      3 vectors produced by pass  5 Test12= 8.95D-14 3.33D-08 XBig12= 6.12D-03 1.95D-02.
      3 vectors produced by pass  6 Test12= 8.95D-14 3.33D-08 XBig12= 2.70D-04 2.14D-03.
      3 vectors produced by pass  7 Test12= 8.95D-14 3.33D-08 XBig12= 4.62D-06 4.13D-04.
      3 vectors produced by pass  8 Test12= 8.95D-14 3.33D-08 XBig12= 1.63D-07 9.34D-05.
      3 vectors produced by pass  9 Test12= 8.95D-14 3.33D-08 XBig12= 4.01D-09 1.44D-05.
      3 vectors produced by pass 10 Test12= 8.95D-14 3.33D-08 XBig12= 1.06D-10 2.60D-06.
      2 vectors produced by pass 11 Test12= 8.95D-14 3.33D-08 XBig12= 2.04D-12 4.48D-07.
      2 vectors produced by pass 12 Test12= 8.95D-14 3.33D-08 XBig12= 3.07D-14 4.08D-08.
 InvSVY:  IOpt=1 It=  1 EMax= 1.43D-15
 Solved reduced A of dimension    37 with     3 vectors.
 End of Minotr F.D. properties file   721 does not exist.
 End of Minotr F.D. properties file   722 does not exist.
 End of Minotr F.D. properties file   788 does not exist.
 Leave Link 1002 at Thu Jan 11 13:05:32 2024, MaxMem= 14763950080 cpu:              66.7 elap:               6.0
 (Enter /software/commercial/gaussian/g16/AVX2/g16/l1101.exe)
 Using compressed storage, NAtomX=     8.
 Will process      9 centers per pass.
 R6Disp: Adding Grimme-D3(BJ) dispersion energy 1st derivatives to the gradient.
 Leave Link 1101 at Thu Jan 11 13:05:32 2024, MaxMem= 14763950080 cpu:               1.1 elap:               0.2
 (Enter /software/commercial/gaussian/g16/AVX2/g16/l1102.exe)
 Symmetrizing basis deriv contribution to polar:
 IMax=3 JMax=2 DiffMx= 0.00D+00
 Leave Link 1102 at Thu Jan 11 13:05:32 2024, MaxMem= 14763950080 cpu:               0.1 elap:               0.1
 (Enter /software/commercial/gaussian/g16/AVX2/g16/l1110.exe)
 Forming Gx(P) for the SCF density, NAtomX=     8.
 Integral derivatives from FoFJK, PRISM(SPDF).
 Do as many integral derivatives as possible in FoFJK.
 G2DrvN: MDV=   14763949136.
 G2DrvN: will do     9 centers at a time, making    1 passes.
 PxScal for G2LodP:  IOpCl= 0 ISclPx=1 IMOff=     1 NMtTot=     4 NTT=   10440 ScalPx= 5.01D+00
 Calling FoFCou, ICntrl=  3107 FMM=F I1Cent=   0 AccDes= 0.00D+00.
 FoFJK:  IHMeth= 1 ICntrl=    3107 DoSepK=F KAlg= 0 I1Cent=           0 FoldK=F
 IRaf=         0 NMat=       1 IRICut=       1 DoRegI=T DoRafI=F ISym2E= 0 IDoP0=0 IntGTp=1.
 FoFCou: FMM=F IPFlag=           0 FMFlag=      100000 FMFlg1=           0
         NFxFlg=           0 DoJE=F BraDBF=F KetDBF=F FulRan=T
         wScrn=  0.000000 ICntrl=      3107 IOpCl=  0 I1Cent=           0 NGrid=           0
         NMat0=    1 NMatS0=      1 NMatT0=    0 NMatD0=    4 NMtDS0=    3 NMtDT0=    0
 Symmetry not used in FoFCou.
 PxScal for G2LodP:  IOpCl= 0 ISclPx=0 IMOff=     1 NMtTot=     4 NTT=   10440 ScalPx= 1.00D+00
 NEqPCM:  Using equilibrium solvation (IEInf=0, Eps=  24.8520, EpsInf=   1.8526)
 G2PCM: DoFxE=T DoFxN=T DoGrad=T DoDP/DQ/DG/TGxP=TFFF NFrqRd=   0 IEInf=0 SqF1=F DoCFld=F IF1Alg=4.
 GePol: Maximum number of non-zero 1st derivatives   =     221
 End of G2Drv F.D. properties file   721 does not exist.
 End of G2Drv F.D. properties file   722 does not exist.
 End of G2Drv F.D. properties file   788 does not exist.
 Leave Link 1110 at Thu Jan 11 13:05:41 2024, MaxMem= 14763950080 cpu:              97.1 elap:               8.4
 (Enter /software/commercial/gaussian/g16/AVX2/g16/l1002.exe)
 Minotr:  Closed shell wavefunction.
          IDoAtm=11111111
 NEqPCM:  Using equilibrium solvation (IEInf=0, Eps=  24.8520, EpsInf=   1.8526)
          Direct CPHF calculation.
          Differentiating once with respect to electric field.
                with respect to dipole field.
          Differentiating once with respect to nuclear coordinates.
          Requested convergence is 1.0D-08 RMS, and 1.0D-07 maximum.
          Secondary convergence is 1.0D-12 RMS, and 1.0D-12 maximum.
          NewPWx=T KeepS1=F KeepF1=F KeepIn=T MapXYZ=F SortEE=F KeepMc=T.
         2427 words used for storage of precomputed grid.
 Keep R1 ints in memory in canonical form, NReq=66184359.
 FoFCou: FMM=F IPFlag=           0 FMFlag=           0 FMFlg1=           0
         NFxFlg=           0 DoJE=F BraDBF=F KetDBF=F FulRan=T
         wScrn=  0.000000 ICntrl=       600 IOpCl=  0 I1Cent=           0 NGrid=           0
         NMat0=    1 NMatS0=  10440 NMatT0=    0 NMatD0=    1 NMtDS0=    0 NMtDT0=    0
 Symmetry not used in FoFCou.
 Two-electron integral symmetry not used.
          MDV=   14763950080 using IRadAn=       1.
          Solving linear equations simultaneously, MaxMat=       0.
          There are    27 degrees of freedom in the 1st order CPHF.  IDoFFX=5 NUNeed=    27.
 Will reuse    3 saved solutions.
     21 vectors produced by pass  0 Test12= 9.94D-15 3.70D-09 XBig12= 2.21D-01 1.76D-01.
 AX will form    21 AO Fock derivatives at one time.
     21 vectors produced by pass  1 Test12= 9.94D-15 3.70D-09 XBig12= 6.09D-02 1.25D-01.
     21 vectors produced by pass  2 Test12= 9.94D-15 3.70D-09 XBig12= 1.81D-03 9.44D-03.
     21 vectors produced by pass  3 Test12= 9.94D-15 3.70D-09 XBig12= 3.12D-05 9.49D-04.
     21 vectors produced by pass  4 Test12= 9.94D-15 3.70D-09 XBig12= 1.83D-07 6.36D-05.
     21 vectors produced by pass  5 Test12= 9.94D-15 3.70D-09 XBig12= 5.07D-10 4.12D-06.
      9 vectors produced by pass  6 Test12= 9.94D-15 3.70D-09 XBig12= 8.72D-13 2.09D-07.
      1 vectors produced by pass  7 Test12= 9.94D-15 3.70D-09 XBig12= 1.56D-15 7.52D-09.
 InvSVY:  IOpt=1 It=  1 EMax= 1.55D-15
 Solved reduced A of dimension   136 with    21 vectors.
 FullF1:  Do perturbations      1 to       3.
 Isotropic polarizability for W=    0.000000       70.68 Bohr**3.
 FullF1:  Do perturbations      1 to       6.
 End of Minotr F.D. properties file   721 does not exist.
 End of Minotr F.D. properties file   722 does not exist.
 End of Minotr F.D. properties file   788 does not exist.
 Leave Link 1002 at Thu Jan 11 13:05:48 2024, MaxMem= 14763950080 cpu:              78.0 elap:               7.2
 (Enter /software/commercial/gaussian/g16/AVX2/g16/l601.exe)
 Copying SCF densities to generalized density rwf, IOpCl= 0 IROHF=0.

 **********************************************************************

            Population analysis using the SCF Density.

 **********************************************************************

 Alpha  occ. eigenvalues --  -24.67067 -14.26956 -14.26952 -10.24847 -10.15553
 Alpha  occ. eigenvalues --  -10.15495  -1.20699  -0.96279  -0.81765  -0.69266
 Alpha  occ. eigenvalues --   -0.56425  -0.56375  -0.47605  -0.45885  -0.43302
 Alpha  occ. eigenvalues --   -0.42015  -0.36810  -0.36175  -0.28834  -0.25095
 Alpha  occ. eigenvalues --   -0.23943  -0.19262
 Alpha virt. eigenvalues --    0.01809   0.03167   0.04305   0.05516   0.05910
 Alpha virt. eigenvalues --    0.06988   0.07342   0.08559   0.08627   0.10064
 Alpha virt. eigenvalues --    0.11476   0.11730   0.14471   0.15071   0.15782
 Alpha virt. eigenvalues --    0.19723   0.20199   0.21306   0.21374   0.21614
 Alpha virt. eigenvalues --    0.23593   0.23716   0.27893   0.28026   0.28960
 Alpha virt. eigenvalues --    0.29422   0.30535   0.33918   0.34902   0.36573
 Alpha virt. eigenvalues --    0.39457   0.43848   0.45608   0.53214   0.53547
 Alpha virt. eigenvalues --    0.57350   0.59290   0.60177   0.60809   0.67263
 Alpha virt. eigenvalues --    0.74311   0.75774   0.77833   0.79740   0.81901
 Alpha virt. eigenvalues --    0.84054   0.88821   0.88823   0.90649   0.90713
 Alpha virt. eigenvalues --    0.93934   0.95727   1.02435   1.05194   1.05660
 Alpha virt. eigenvalues --    1.22321   1.22806   1.25810   1.27735   1.34990
 Alpha virt. eigenvalues --    1.39170   1.39904   1.43151   1.46640   1.51364
 Alpha virt. eigenvalues --    1.56592   1.67092   1.68742   1.73918   1.77472
 Alpha virt. eigenvalues --    1.80899   1.81323   1.90693   1.93867   1.98375
 Alpha virt. eigenvalues --    2.06661   2.10519   2.12584   2.25608   2.33761
 Alpha virt. eigenvalues --    2.39772   2.45050   2.51558   2.61024   2.63661
 Alpha virt. eigenvalues --    2.65186   2.69540   2.70600   2.77479   2.81072
 Alpha virt. eigenvalues --    2.82789   2.88393   2.88400   2.96446   3.03722
 Alpha virt. eigenvalues --    3.22863   3.23870   3.33001   3.58746   3.61330
 Alpha virt. eigenvalues --    3.65118   3.79207   3.80823   3.92727   3.95608
 Alpha virt. eigenvalues --    3.99669   4.10162   4.12036   4.36003   4.63327
 Alpha virt. eigenvalues --    4.70778   4.94920   5.21755   6.31524   6.40290
 Alpha virt. eigenvalues --    6.73675  23.81857  23.84168  24.14489  35.52960
 Alpha virt. eigenvalues --   35.72853  66.79812
          Condensed to atoms (all electrons):
               1          2          3          4          5          6
     1  C    5.334667   0.267160  -0.171668  -0.171647   0.018516   0.267079
     2  N    0.267160   7.073413   0.358925  -0.128522  -0.065646   0.009777
     3  C   -0.171668   0.358925   5.325447   0.413445   0.443809  -0.128605
     4  C   -0.171647  -0.128522   0.413445   5.325196  -0.061866   0.359071
     5  H    0.018516  -0.065646   0.443809  -0.061866   0.551616   0.006275
     6  N    0.267079   0.009777  -0.128605   0.359071   0.006275   7.073471
     7  H    0.018509   0.006272  -0.061854   0.443796   0.000493  -0.065618
     8  F    0.158693  -0.105853   0.018218   0.018219  -0.000183  -0.105824
               7          8
     1  C    0.018509   0.158693
     2  N    0.006272  -0.105853
     3  C   -0.061854   0.018218
     4  C    0.443796   0.018219
     5  H    0.000493  -0.000183
     6  N   -0.065618  -0.105824
     7  H    0.551618  -0.000183
     8  F   -0.000183   9.282995
 Mulliken charges:
               1
     1  C    0.278689
     2  N   -0.415526
     3  C   -0.197716
     4  C   -0.197693
     5  H    0.106987
     6  N   -0.415626
     7  H    0.106967
     8  F   -0.266082
 Sum of Mulliken charges =  -1.00000
 Mulliken charges with hydrogens summed into heavy atoms:
               1
     1  C    0.278689
     2  N   -0.415526
     3  C   -0.090729
     4  C   -0.090725
     6  N   -0.415626
     8  F   -0.266082
 APT charges:
               1
     1  C    1.069929
     2  N   -0.755977
     3  C    0.052560
     4  C    0.050558
     5  H    0.046369
     6  N   -0.756026
     7  H    0.046920
     8  F   -0.754333
 Sum of APT charges =  -1.00000
 APT charges with hydrogens summed into heavy atoms:
               1
     1  C    1.069929
     2  N   -0.755977
     3  C    0.098929
     4  C    0.097478
     6  N   -0.756026
     8  F   -0.754333
 Electronic spatial extent (au):  <R**2>=           2442.1668
 Charge=             -1.0000 electrons
 Dipole moment (field-independent basis, Debye):
    X=             10.3997    Y=            -14.9002    Z=             -1.3355  Tot=             18.2196
 Quadrupole moment (field-independent basis, Debye-Ang):
   XX=            -68.4129   YY=            -86.1748   ZZ=            -39.2470
   XY=             34.5729   XZ=              1.4651   YZ=             -4.0410
 Traceless Quadrupole moment (field-independent basis, Debye-Ang):
   XX=             -3.8013   YY=            -21.5633   ZZ=             25.3646
   XY=             34.5729   XZ=              1.4651   YZ=             -4.0410
 Octapole moment (field-independent basis, Debye-Ang**2):
  XXX=            358.7265  YYY=           -468.2173  ZZZ=             -2.1806  XYY=            205.2415
  XXY=           -205.6746  XXZ=             -5.0791  XZZ=             87.4596  YZZ=           -104.3779
  YYZ=            -19.8638  XYZ=              3.1384
 Hexadecapole moment (field-independent basis, Debye-Ang**3):
 XXXX=          -1720.2730 YYYY=          -2499.6032 ZZZZ=           -115.6737 XXXY=           1039.3153
 XXXZ=              1.0569 YYYX=           1103.1153 YYYZ=           -152.6481 ZZZX=            -22.6146
 ZZZY=            -63.1599 XXYY=           -911.0568 XXZZ=           -247.0124 YYZZ=           -347.9461
 XXYZ=            -21.1894 YYXZ=             13.4679 ZZXY=            232.6273
 N-N= 2.135402758959D+02 E-N=-1.200250959266D+03  KE= 3.238968348583D+02
  Exact polarizability:      80.605      -4.663      74.404       7.751       8.808      57.046
 Approx polarizability:      92.496      -6.218      83.769       9.971      11.054      61.787
 No NMR shielding tensors so no spin-rotation constants.
 Leave Link  601 at Thu Jan 11 13:05:49 2024, MaxMem= 14763950080 cpu:               1.0 elap:               0.2
 (Enter /software/commercial/gaussian/g16/AVX2/g16/l701.exe)
 ... and contract with generalized density number  0.
 Compute integral second derivatives.
 R6Disp: Adding Grimme-D3(BJ) dispersion energy 2nd derivatives to the Hessian.
 D2PCM: PCM CHGder 2nd derivatives, FixD1E=F FixD2E=F DoIter=F DoCFld=F I1PDM=0
 GePol: Maximum number of non-zero 2nd derivatives   =     221
 Leave Link  701 at Thu Jan 11 13:05:51 2024, MaxMem= 14763950080 cpu:              20.1 elap:               1.9
 (Enter /software/commercial/gaussian/g16/AVX2/g16/l702.exe)
 L702 exits ... SP integral derivatives will be done elsewhere.
 Leave Link  702 at Thu Jan 11 13:05:51 2024, MaxMem= 14763950080 cpu:               0.1 elap:               0.1
 (Enter /software/commercial/gaussian/g16/AVX2/g16/l703.exe)
 Integral derivatives from FoFJK, PRISM(SPDF).
 Compute integral second derivatives, UseDBF=F ICtDFT=           0.
 Calling FoFJK, ICntrl=    100127 FMM=F ISym2X=0 I1Cent= 0 IOpClX= 0 NMat=1 NMatS=1 NMatT=0.
 FoFJK:  IHMeth= 1 ICntrl=  100127 DoSepK=F KAlg= 0 I1Cent=           0 FoldK=F
 IRaf=         0 NMat=       1 IRICut=       1 DoRegI=T DoRafI=F ISym2E= 0 IDoP0=0 IntGTp=1.
 FoFCou: FMM=F IPFlag=           0 FMFlag=      100000 FMFlg1=         800
         NFxFlg=           0 DoJE=F BraDBF=F KetDBF=F FulRan=T
         wScrn=  0.000000 ICntrl=    100127 IOpCl=  0 I1Cent=           0 NGrid=           0
         NMat0=    1 NMatS0=      1 NMatT0=    0 NMatD0=    1 NMtDS0=    0 NMtDT0=    0
 Symmetry not used in FoFCou.
 Leave Link  703 at Thu Jan 11 13:05:59 2024, MaxMem= 14763950080 cpu:              94.8 elap:               8.0
 (Enter /software/commercial/gaussian/g16/AVX2/g16/l716.exe)
 Dipole        = 4.09155319D+00-5.86219497D+00-5.25413192D-01
 Polarizability= 8.06047245D+01-4.66304646D+00 7.44036818D+01
                 7.75127480D+00 8.80810933D+00 5.70464222D+01
 HyperPolar    =-6.65972468D+01-9.90109080D+01-4.52577358D+01
                -2.53121505D+02-2.75521262D+01 5.08299795D+01
                 8.27413995D+01-3.89222822D+00-1.32682081D+02
                -3.04763135D+02
 Full mass-weighted force constant matrix:
 Low frequencies ---  -17.6100   -9.9606    0.0007    0.0007    0.0011    9.0618
 Low frequencies ---  314.1079  464.1808  658.2265
 Diagonal vibrational polarizability:
        5.4242969       9.5847484       8.4906046
 Diagonal vibrational hyperpolarizability:
        7.5175860      20.2031028      46.1765472
 Harmonic frequencies (cm**-1), IR intensities (KM/Mole), Raman scattering
 activities (A**4/AMU), depolarization ratios for plane and unpolarized
 incident light, reduced masses (AMU), force constants (mDyne/A),
 and normal coordinates:
                      1                      2                      3
                      A                      A                      A
 Frequencies --    314.1062               464.1795               658.2258
 Red. masses --      7.4833                 9.2473                 4.1425
 Frc consts  --      0.4350                 1.1739                 1.0575
 IR Inten    --      3.5231                 2.3926                 0.0032
 Raman Activ --      3.8443                 2.7555                 0.2549
 Depolar (P) --      0.7500                 0.7500                 0.7462
 Depolar (U) --      0.8571                 0.8571                 0.8547
  Atom  AN      X      Y      Z        X      Y      Z        X      Y      Z
     1   6     0.11   0.15  -0.35    -0.30   0.10  -0.05    -0.00  -0.00   0.00
     2   7     0.08   0.10  -0.24    -0.20   0.26   0.05    -0.06  -0.08   0.18
     3   6    -0.06  -0.08   0.19     0.12   0.11   0.09     0.09   0.12  -0.26
     4   6    -0.06  -0.08   0.19     0.05  -0.17  -0.06    -0.09  -0.12   0.26
     5   1    -0.14  -0.19   0.44     0.35   0.20   0.20     0.17   0.23  -0.53
     6   7     0.08   0.10  -0.24    -0.29  -0.10  -0.14     0.06   0.08  -0.18
     7   1    -0.14  -0.19   0.44     0.21  -0.39  -0.10    -0.17  -0.23   0.54
     8   9    -0.09  -0.12   0.28     0.41  -0.14   0.07    -0.00  -0.00  -0.00
                      4                      5                      6
                      A                      A                      A
 Frequencies --    675.1231               707.3541               740.6067
 Red. masses --     14.3679                 3.6369                 1.5579
 Frc consts  --      3.8584                 1.0722                 0.5035
 IR Inten    --     35.2437                69.6714                69.3803
 Raman Activ --     12.5616                14.3552                 7.8175
 Depolar (P) --      0.4408                 0.7500                 0.7500
 Depolar (U) --      0.6119                 0.8571                 0.8571
  Atom  AN      X      Y      Z        X      Y      Z        X      Y      Z
     1   6     0.03   0.12   0.06    -0.11  -0.15   0.34     0.03   0.04  -0.09
     2   7    -0.17  -0.17  -0.13     0.05   0.07  -0.17    -0.02  -0.03   0.07
     3   6    -0.08  -0.28  -0.15     0.00   0.00  -0.01     0.03   0.04  -0.10
     4   6    -0.06  -0.28  -0.14     0.00   0.01  -0.01     0.03   0.04  -0.10
     5   1     0.05  -0.23  -0.09    -0.18  -0.24   0.55    -0.20  -0.26   0.60
     6   7     0.06  -0.25  -0.09     0.05   0.07  -0.16    -0.02  -0.03   0.07
     7   1    -0.14  -0.17  -0.12    -0.18  -0.24   0.55    -0.20  -0.27   0.61
     8   9     0.15   0.61   0.32     0.01   0.01  -0.02    -0.00  -0.00   0.01
                      7                      8                      9
                      A                      A                      A
 Frequencies --    808.8201               939.6738              1000.6134
 Red. masses --      1.3102                 8.1902                 3.3691
 Frc consts  --      0.5050                 4.2609                 1.9875
 IR Inten    --      0.0124                12.6291                58.1395
 Raman Activ --     19.5135                 2.4323                 2.5489
 Depolar (P) --      0.7500                 0.7500                 0.7034
 Depolar (U) --      0.8571                 0.8571                 0.8259
  Atom  AN      X      Y      Z        X      Y      Z        X      Y      Z
     1   6     0.00   0.00  -0.00    -0.12   0.04  -0.02     0.03   0.11   0.06
     2   7    -0.00  -0.00   0.00    -0.26  -0.15  -0.15    -0.26   0.09  -0.05
     3   6     0.03   0.05  -0.10     0.24  -0.35  -0.08     0.02  -0.03  -0.01
     4   6    -0.03  -0.04   0.10     0.36   0.15   0.18    -0.03  -0.01  -0.01
     5   1    -0.20  -0.27   0.62     0.22  -0.37  -0.09     0.56   0.17   0.26
     6   7    -0.00  -0.00   0.00    -0.16   0.28   0.07     0.26  -0.08   0.05
     7   1     0.20   0.26  -0.60     0.35   0.18   0.19    -0.40   0.49   0.08
     8   9    -0.00   0.00   0.00    -0.03   0.01  -0.00    -0.02  -0.08  -0.04
                     10                     11                     12
                      A                      A                      A
 Frequencies --   1110.3937              1134.5804              1186.3687
 Red. masses --      1.7790                 2.1711                 7.1514
 Frc consts  --      1.2924                 1.6466                 5.9303
 IR Inten    --      4.8981                65.0664                17.0989
 Raman Activ --     37.7957                 4.2029                24.1596
 Depolar (P) --      0.1078                 0.7488                 0.1851
 Depolar (U) --      0.1945                 0.8564                 0.3124
  Atom  AN      X      Y      Z        X      Y      Z        X      Y      Z
     1   6    -0.02  -0.07  -0.03    -0.05   0.02  -0.01    -0.03  -0.12  -0.06
     2   7     0.11  -0.00   0.03     0.05   0.13   0.08    -0.08  -0.29  -0.15
     3   6     0.10  -0.08  -0.00    -0.01  -0.13  -0.06     0.11   0.30   0.17
     4   6    -0.12  -0.01  -0.04     0.05   0.11   0.07     0.04   0.33   0.16
     5   1     0.62   0.10   0.25    -0.52  -0.31  -0.31     0.23   0.37   0.24
     6   7    -0.09   0.06  -0.00    -0.01  -0.15  -0.07    -0.06  -0.29  -0.15
     7   1    -0.49   0.48   0.05    -0.29   0.58   0.16    -0.03   0.45   0.19
     8   9     0.01   0.03   0.01     0.02  -0.01   0.00     0.01   0.06   0.03
                     13                     14                     15
                      A                      A                      A
 Frequencies --   1314.1210              1385.4787              1471.0655
 Red. masses --      2.4479                12.2244                 3.5773
 Frc consts  --      2.4907                13.8254                 4.5611
 IR Inten    --     11.0735               443.6706                 3.8702
 Raman Activ --     27.7310                87.7890                72.9758
 Depolar (P) --      0.7499                 0.0111                 0.0948
 Depolar (U) --      0.8571                 0.0219                 0.1732
  Atom  AN      X      Y      Z        X      Y      Z        X      Y      Z
     1   6     0.16  -0.05   0.03     0.18   0.74   0.38    -0.01  -0.01  -0.01
     2   7    -0.02   0.10   0.04     0.17  -0.25  -0.06    -0.06   0.03  -0.01
     3   6    -0.11  -0.12  -0.09     0.08  -0.06  -0.00     0.32  -0.07   0.07
     4   6    -0.04   0.17   0.06    -0.10  -0.00  -0.03    -0.30   0.14  -0.04
     5   1     0.59   0.14   0.26     0.10  -0.08  -0.00    -0.39  -0.38  -0.29
     6   7    -0.07  -0.07  -0.05    -0.25  -0.11  -0.13     0.07  -0.01   0.02
     7   1     0.44  -0.49  -0.07    -0.12  -0.00  -0.04     0.17  -0.57  -0.19
     8   9    -0.00   0.00  -0.00    -0.04  -0.15  -0.08     0.00   0.00   0.00
                     16                     17                     18
                      A                      A                      A
 Frequencies --   1492.0360              3192.4722              3214.3305
 Red. masses --      5.6329                 1.0876                 1.1036
 Frc consts  --      7.3882                 6.5307                 6.7180
 IR Inten    --    220.9663                11.8188                46.9051
 Raman Activ --     17.3215               172.2524               244.3767
 Depolar (P) --      0.7498                 0.7500                 0.1832
 Depolar (U) --      0.8570                 0.8571                 0.3097
  Atom  AN      X      Y      Z        X      Y      Z        X      Y      Z
     1   6     0.46  -0.15   0.08    -0.00   0.00  -0.00     0.00   0.00   0.00
     2   7    -0.21   0.10  -0.03     0.00  -0.00  -0.00     0.00   0.00   0.00
     3   6     0.11   0.09   0.08     0.03  -0.05  -0.01     0.03  -0.06  -0.01
     4   6     0.04  -0.14  -0.05     0.05   0.03   0.03    -0.05  -0.03  -0.03
     5   1    -0.50  -0.12  -0.21    -0.31   0.61   0.17    -0.31   0.61   0.16
     6   7    -0.22   0.04  -0.05     0.00   0.00   0.00    -0.00   0.00   0.00
     7   1    -0.37   0.39   0.05    -0.53  -0.33  -0.32     0.54   0.33   0.32
     8   9    -0.02   0.01  -0.00     0.00  -0.00   0.00    -0.00  -0.00  -0.00

 -------------------
 - Thermochemistry -
 -------------------
 Temperature   298.150 Kelvin.  Pressure   1.00000 Atm.
 Thermochemistry will use frequencies scaled by 0.9670.
 Atom     1 has atomic number  6 and mass  12.00000
 Atom     2 has atomic number  7 and mass  14.00307
 Atom     3 has atomic number  6 and mass  12.00000
 Atom     4 has atomic number  6 and mass  12.00000
 Atom     5 has atomic number  1 and mass   1.00783
 Atom     6 has atomic number  7 and mass  14.00307
 Atom     7 has atomic number  1 and mass   1.00783
 Atom     8 has atomic number  9 and mass  18.99840
 Molecular mass:    85.02020 amu.
 Principal axes and moments of inertia in atomic units:
                           1         2         3
     Eigenvalues --   185.27675 476.04941 661.32615
           X            0.20947   0.93473  -0.28707
           Y            0.86956  -0.31234  -0.38250
           Z            0.44720   0.16951   0.87823
 This molecule is an asymmetric top.
 Rotational symmetry number  1.
 Rotational temperatures (Kelvin)      0.46748     0.18194     0.13097
 Rotational constants (GHZ):           9.74079     3.79108     2.72897
 Zero-point vibrational energy     126145.2 (Joules/Mol)
                                   30.14943 (Kcal/Mol)
 Warning -- explicit consideration of   2 degrees of freedom as
           vibrations may cause significant error
 Vibrational temperatures:    437.02   645.81   915.79   939.30   984.14
          (Kelvin)           1030.40  1125.31  1307.37  1392.15  1544.89
                             1578.54  1650.59  1828.33  1927.61  2046.69
                             2075.87  4441.68  4472.09
 
 Zero-point correction=                           0.048046 (Hartree/Particle)
 Thermal correction to Energy=                    0.052345
 Thermal correction to Enthalpy=                  0.053289
 Thermal correction to Gibbs Free Energy=         0.020456
 Sum of electronic and zero-point Energies=           -325.046399
 Sum of electronic and thermal Energies=              -325.042100
 Sum of electronic and thermal Enthalpies=            -325.041156
 Sum of electronic and thermal Free Energies=         -325.073989
 
                     E (Thermal)             CV                S
                      KCal/Mol        Cal/Mol-Kelvin    Cal/Mol-Kelvin
 Total                   32.847             15.421             69.104
 Electronic               0.000              0.000              0.000
 Translational            0.889              2.981             39.234
 Rotational               0.889              2.981             25.570
 Vibrational             31.070              9.459              4.300
 Vibration     1          0.695              1.667              1.396
 Vibration     2          0.808              1.363              0.799
                       Q            Log10(Q)             Ln(Q)
 Total Bot       0.389984D-09         -9.408954        -21.664917
 Total V=0       0.490608D+13         12.690734         29.221495
 Vib (Bot)       0.146393D-21        -21.834481        -50.275750
 Vib (Bot)    1  0.624790D+00         -0.204266         -0.470339
 Vib (Bot)    2  0.382402D+00         -0.417480         -0.961284
 Vib (V=0)       0.184165D+01          0.265207          0.610662
 Vib (V=0)    1  0.130023D+01          0.114019          0.262539
 Vib (V=0)    2  0.112947D+01          0.052874          0.121747
 Electronic      0.100000D+01          0.000000          0.000000
 Translational   0.308132D+08          7.488737         17.243454
 Rotational      0.864550D+05          4.936790         11.367379
 
                                                            IMIDF-isolated
                                                             IR Spectrum
 
     33                                                                  11   1  1    1 11   1                                       
     21                                                                  44   3  3    1 11   0 9     8 7766       4     3            
     19                                                                  97   8  1    8 31   0 4     0 4075       6     1            
     42                                                                  21   5  4    6 50   1 0     9 1758       4     4            
 
     XX                                                                  XX   X  X    X XX   X X       XXX        X     X            
     X                                                                   X    X         X    X         XXX                           
                                                                         X    X         X    X         XX                            
                                                                         X    X                                                      
                                                                         X    X                                                      
                                                                         X    X                                                      
                                                                         X    X                                                      
                                                                         X    X                                                      
                                                                         X    X                                                      
                                                                         X    X                                                      
                                                                              X                                                      
                                                                              X                                                      
                                                                              X                                                      
                                                                              X                                                      
                                                                              X                                                      
                                                                              X                                                      
                                                                              X                                                      
                                                                              X                                                      
                                                                              X                                                      
                                                                              X                                                      
 
 
                                                            IMIDF-isolated
                                                            Raman Spectrum
 
     33                                                                  11   1  1    1 11   1                                       
     21                                                                  44   3  3    1 11   0 9     8 7766       4     3            
     19                                                                  97   8  1    8 31   0 4     0 4075       6     1            
     42                                                                  21   5  4    6 50   1 0     9 1758       4     4            
 
     XX                                                                  XX   X  X    X XX   X X     X XXXX       X     X            
     XX                                                                   X   X  X    X  X           X                               
     XX                                                                   X   X          X                                           
     XX                                                                   X   X                                                      
     XX                                                                   X   X                                                      
     XX                                                                   X   X                                                      
     XX                                                                       X                                                      
     XX                                                                                                                              
     XX                                                                                                                              
     XX                                                                                                                              
     XX                                                                                                                              
     XX                                                                                                                              
     XX                                                                                                                              
     XX                                                                                                                              
     X                                                                                                                               
     X                                                                                                                               
     X                                                                                                                               
     X                                                                                                                               
     X                                                                                                                               
     X                                                                                                                               
 
 -------------------------------------------------------------------
 Center     Atomic                   Forces (Hartrees/Bohr)
 Number     Number              X              Y              Z
 -------------------------------------------------------------------
      1        6           0.000000364    0.000001719    0.000002541
      2        7           0.000150381    0.000178169    0.000156962
      3        6          -0.000150067   -0.000226504   -0.000133546
      4        6           0.000032413   -0.000278271   -0.000129416
      5        1          -0.000064062   -0.000002110   -0.000008446
      6        7          -0.000046064    0.000270564    0.000073240
      7        1           0.000059509   -0.000032412   -0.000009852
      8        9           0.000017526    0.000088845    0.000048516
 -------------------------------------------------------------------
 Cartesian Forces:  Max     0.000278271 RMS     0.000123493
 Force constants in Cartesian coordinates: 
                1             2             3             4             5 
      1  0.632443D+00
      2 -0.542548D-01  0.612191D+00
      3  0.134667D+00  0.186137D+00  0.269830D+00
      4 -0.231130D+00  0.119784D+00  0.149875D-02  0.481857D+00
      5  0.128594D+00 -0.196373D+00 -0.115899D-01 -0.812360D-01  0.433022D+00
      6  0.542275D-02 -0.145567D-01 -0.783135D-01  0.904205D-01  0.121077D+00
      7  0.111650D-01 -0.167540D-02 -0.725373D-03 -0.131525D+00 -0.728288D-01
      8  0.451224D-01 -0.901229D-01 -0.293758D-01 -0.494849D-01 -0.166700D+00
      9  0.196124D-01 -0.446493D-01 -0.180922D-02 -0.432166D-01 -0.681569D-01
     10 -0.254484D-01 -0.247954D-01 -0.226824D-01 -0.586979D-01 -0.460382D-01
     11 -0.714908D-01 -0.392823D-01 -0.452544D-01  0.701052D-02 -0.124179D-01
     12 -0.430298D-01 -0.298839D-01 -0.161885D-01 -0.221714D-01 -0.285375D-01
     13 -0.319342D-02 -0.185995D-02 -0.294175D-02  0.103693D-01 -0.173183D-01
     14 -0.246190D-02 -0.947026D-03 -0.266920D-02  0.808543D-02 -0.161043D-01
     15 -0.320226D-02 -0.247374D-02  0.120904D-02  0.883817D-02 -0.100806D-01
     16 -0.305939D+00 -0.153600D-01 -0.824230D-01 -0.798388D-01  0.629110D-01
     17 -0.241945D-01 -0.914791D-01 -0.157106D-01 -0.594161D-03 -0.233479D-02
     18 -0.862905D-01 -0.129147D-01 -0.107462D+00 -0.352824D-01  0.768478D-02
     19 -0.608325D-03  0.247378D-02 -0.208603D-03 -0.436777D-02  0.760729D-03
     20  0.307448D-02 -0.453355D-02 -0.242159D-02  0.317088D-02  0.257489D-02
     21  0.606042D-04 -0.262202D-02  0.220945D-02 -0.269917D-02 -0.215265D-02
     22 -0.772883D-01 -0.243126D-01 -0.271847D-01  0.133338D-01  0.251560D-01
     23 -0.243885D-01 -0.189453D+00 -0.791155D-01 -0.673607D-02 -0.416679D-01
     24 -0.272403D-01 -0.790367D-01 -0.694759D-01  0.261208D-02 -0.824436D-02
                6             7             8             9            10 
      6  0.177381D+00
      7 -0.534192D-01  0.593163D+00
      8 -0.604028D-01 -0.189917D+00  0.676776D+00
      9 -0.109264D+00  0.733021D-01  0.182191D+00  0.219847D+00
     10 -0.453032D-01 -0.319078D+00  0.832748D-01 -0.477531D-01  0.717115D+00
     11 -0.111827D-01  0.801935D-01 -0.106649D+00  0.681412D-02  0.470368D-01
     12 -0.120101D-02 -0.490741D-01  0.780452D-02 -0.749744D-01  0.216652D+00
     13 -0.222073D-02 -0.115015D+00  0.118054D+00  0.210166D-01  0.220100D-02
     14 -0.179506D-02  0.114324D+00 -0.260710D+00 -0.665304D-01 -0.263219D-02
     15 -0.745733D-02  0.194111D-01 -0.653400D-01 -0.442313D-01  0.267072D-03
     16 -0.763638D-02 -0.287800D-01  0.111453D-01 -0.106162D-01 -0.870601D-01
     17 -0.131051D-01  0.641750D-01 -0.539500D-01 -0.105618D-01  0.353989D-01
     18  0.190971D-01  0.124754D-01 -0.279113D-01  0.104320D-01  0.846352D-02
     19 -0.374769D-02 -0.517018D-02 -0.167036D-01 -0.824579D-02 -0.224919D+00
     20 -0.136934D-02  0.518335D-02  0.874176D-02  0.643568D-02 -0.920105D-01
     21  0.628847D-02  0.125462D-02 -0.720527D-03 -0.205478D-02 -0.106306D+00
     22  0.164839D-01 -0.475986D-02 -0.149049D-02 -0.409938D-02 -0.411253D-02
     23 -0.186655D-01  0.545620D-03 -0.738649D-02 -0.554191D-02 -0.234218D-03
     24 -0.653068D-02 -0.322450D-02 -0.624463D-02  0.205497D-02 -0.333729D-02
               11            12            13            14            15 
     11  0.504761D+00
     12  0.184647D+00  0.267716D+00
     13  0.192353D-01  0.980321D-02  0.108316D+00
     14 -0.147730D-02 -0.572206D-03 -0.120750D+00  0.280076D+00
     15  0.658430D-02  0.811631D-03 -0.235098D-01  0.740326D-01  0.440406D-01
     16  0.119335D-01 -0.175355D-02 -0.352765D-02  0.238786D-02 -0.276730D-02
     17 -0.228408D+00 -0.596328D-01  0.480394D-02  0.139521D-02 -0.135164D-02
     18 -0.672836D-01 -0.918050D-01 -0.171402D-02 -0.214323D-02  0.661668D-02
     19 -0.957145D-01 -0.107959D+00 -0.414571D-03  0.354432D-03  0.731250D-03
     20 -0.108245D+00 -0.675758D-01 -0.798019D-03 -0.574681D-03  0.438241D-03
     21 -0.687700D-01 -0.866407D-01  0.230078D-03  0.816448D-03 -0.175383D-02
     22  0.179578D-02 -0.246699D-02  0.126458D-02  0.692221D-03  0.231831D-03
     23 -0.828144D-02 -0.624973D-02 -0.136675D-02 -0.165838D-02 -0.180912D-02
     24 -0.555504D-02  0.228177D-02 -0.663574D-03 -0.113897D-02  0.764553D-03
               16            17            18            19            20 
     16  0.503548D+00
     17 -0.384510D-01  0.401612D+00
     18  0.116687D+00  0.121294D+00  0.185653D+00
     19  0.737298D-02  0.232672D-02  0.537367D-02  0.227151D+00
     20 -0.230542D-01 -0.119180D-01 -0.101198D-01  0.106391D+00  0.115184D+00
     21 -0.569445D-02 -0.184229D-02 -0.861747D-02  0.114177D+00  0.764321D-01
     22 -0.577577D-02 -0.434649D-01 -0.197123D-01  0.956239D-03 -0.195675D-02
     23 -0.115125D-01 -0.149167D-01 -0.860657D-02  0.111753D-03 -0.122898D-02
     24 -0.579574D-02 -0.190900D-01 -0.139148D-01 -0.121001D-03 -0.181956D-02
               21            22            23            24 
     21  0.899237D-01
     22 -0.102262D-02  0.763818D-01
     23 -0.114108D-02  0.435807D-01  0.264593D+00
     24  0.645226D-03  0.377703D-01  0.121129D+00  0.841748D-01
 Leave Link  716 at Thu Jan 11 13:06:00 2024, MaxMem= 14763950080 cpu:               0.1 elap:               0.1
 (Enter /software/commercial/gaussian/g16/AVX2/g16/l103.exe)

 GradGradGradGradGradGradGradGradGradGradGradGradGradGradGradGradGradGrad
 Berny optimization.
 Search for a local minimum.
 Step number   1 out of a maximum of    2
 All quantities printed in internal units (Hartrees-Bohrs-Radians)
 Second derivative matrix not updated -- analytic derivatives used.
 ITU=  0
     Eigenvalues ---    0.02598   0.03623   0.05101   0.06601   0.07549
     Eigenvalues ---    0.18008   0.21267   0.21366   0.22429   0.24870
     Eigenvalues ---    0.37221   0.57983   0.65067   0.78034   0.93090
     Eigenvalues ---    0.96222   1.04769   1.23058
 Angle between quadratic step and forces=  57.23 degrees.
 Linear search not attempted -- first point.
 B after Tr=     0.000034    0.000139    0.000057
         Rot=    1.000000   -0.000001   -0.000001   -0.000000 Ang=  -0.00 deg.
 Variable       Old X    -DE/DX   Delta X   Delta X   Delta X     New X
                                 (Linear)    (Quad)   (Total)
    X1       -4.00176   0.00000   0.00000   0.00003   0.00006  -4.00169
    Y1        6.23443   0.00000   0.00000   0.00013   0.00027   6.23470
    Z1        0.71666   0.00000   0.00000   0.00007   0.00014   0.71680
    X2       -2.24847   0.00015   0.00000   0.00026   0.00030  -2.24817
    Y2        4.46139   0.00018   0.00000   0.00027   0.00041   4.46179
    Z2        0.51771   0.00016   0.00000   0.00020   0.00026   0.51797
    X3       -3.56385  -0.00015   0.00000  -0.00024  -0.00021  -3.56406
    Y3        2.57060  -0.00023   0.00000  -0.00027  -0.00013   2.57047
    Z3       -0.73551  -0.00013   0.00000  -0.00021  -0.00014  -0.73565
    X4       -6.00756   0.00003   0.00000   0.00009   0.00012  -6.00744
    Y4        3.38694  -0.00028   0.00000  -0.00039  -0.00025   3.38669
    Z4       -1.17902  -0.00013   0.00000  -0.00014  -0.00007  -1.17909
    X5       -2.67460  -0.00006   0.00000  -0.00110  -0.00107  -2.67567
    Y5        0.79521  -0.00000   0.00000  -0.00051  -0.00037   0.79483
    Z5       -1.21816  -0.00001   0.00000  -0.00055  -0.00049  -1.21865
    X6       -6.28448  -0.00005   0.00000  -0.00011  -0.00008  -6.28456
    Y6        5.80953   0.00027   0.00000   0.00040   0.00054   5.81007
    Z6       -0.21432   0.00007   0.00000   0.00014   0.00021  -0.21411
    X7       -7.55579   0.00006   0.00000   0.00072   0.00075  -7.55504
    Y7        2.42530  -0.00003   0.00000  -0.00112  -0.00098   2.42432
    Z7       -2.10306  -0.00001   0.00000  -0.00026  -0.00019  -2.10325
    X8       -3.46073   0.00002   0.00000   0.00010   0.00013  -3.46060
    Y8        8.48030   0.00009   0.00000   0.00038   0.00052   8.48082
    Z8        1.87204   0.00005   0.00000   0.00020   0.00028   1.87232
         Item               Value     Threshold  Converged?
 Maximum Force            0.000278     0.000450     YES
 RMS     Force            0.000123     0.000300     YES
 Maximum Displacement     0.001069     0.001800     YES
 RMS     Displacement     0.000427     0.001200     YES
 Predicted change in Energy=-3.495619D-07
 Optimization completed.
    -- Stationary point found.
 GradGradGradGradGradGradGradGradGradGradGradGradGradGradGradGradGradGrad

 Leave Link  103 at Thu Jan 11 13:06:00 2024, MaxMem= 14763950080 cpu:               0.1 elap:               0.1
 (Enter /software/commercial/gaussian/g16/AVX2/g16/l9999.exe)

 ----------------------------------------------------------------------

 Electric dipole moment (input orientation):
 (Debye = 10**-18 statcoulomb cm , SI units = C m)
                  (au)            (Debye)         (10**-30 SI)
   Tot        0.716814D+01      0.182196D+02      0.607740D+02
   x          0.409155D+01      0.103997D+02      0.346896D+02
   y         -0.586219D+01     -0.149002D+02     -0.497018D+02
   z         -0.525413D+00     -0.133547D+01     -0.445464D+01

 Dipole polarizability, Alpha (input orientation).
 (esu units = cm**3 , SI units = C**2 m**2 J**-1)
 Alpha(0;0):
               (au)            (10**-24 esu)      (10**-40 SI)
   iso        0.706849D+02      0.104744D+02      0.116544D+02
   aniso      0.304235D+02      0.450829D+01      0.501615D+01
   xx         0.806047D+02      0.119444D+02      0.132899D+02
   yx        -0.466305D+01     -0.690992D+00     -0.768833D+00
   yy         0.744037D+02      0.110255D+02      0.122675D+02
   zx         0.775127D+01      0.114862D+01      0.127801D+01
   zy         0.880811D+01      0.130523D+01      0.145226D+01
   zz         0.570464D+02      0.845341D+01      0.940568D+01

 First dipole hyperpolarizability, Beta (input orientation).
 ||, _|_  parallel and perpendicular components, (z) with respect to z axis,
 vector components x,y,z.  Values do not include the 1/n! factor of 1/2.
 (esu units = statvolt**-1 cm**4 , SI units = C**3 m**3 J**-2)
 Beta(0;0,0):
               (au)            (10**-30 esu)      (10**-50 SI)
   || (z)    -0.149744D+03     -0.129367D+01     -0.480134D+00
   _|_(z)    -0.499148D+02     -0.431225D+00     -0.160045D+00
   x         -0.347242D+03     -0.299990D+01     -0.111338D+01
   y         -0.145444D+04     -0.125653D+02     -0.466347D+01
   z         -0.748722D+03     -0.646837D+01     -0.240067D+01
   ||         0.334459D+03      0.288946D+01      0.107240D+01
   xxx       -0.665972D+02     -0.575348D+00     -0.213535D+00
   xxy       -0.990109D+02     -0.855377D+00     -0.317465D+00
   yxy       -0.452577D+02     -0.390992D+00     -0.145113D+00
   yyy       -0.253122D+03     -0.218677D+01     -0.811599D+00
   xxz       -0.275521D+02     -0.238029D+00     -0.883421D-01
   yxz        0.508300D+02      0.439131D+00      0.162979D+00
   yyz        0.827414D+02      0.714821D+00      0.265299D+00
   zxz       -0.389223D+01     -0.336258D-01     -0.124799D-01
   zyz       -0.132682D+03     -0.114627D+01     -0.425427D+00
   zzz       -0.304763D+03     -0.263292D+01     -0.977181D+00

 ----------------------------------------------------------------------

 Dipole orientation:
     6          0.13656655          0.30522653         -7.43532245
     7          0.49386514          0.53229471         -4.96994446
     6         -0.59616684         -1.68137010         -4.08259384
     6         -1.51634403         -3.04787087         -6.11255826
     1         -0.63837496         -2.12220460         -2.08769646
     7         -1.02622755         -1.72426164         -8.32256268
     1         -2.47721508         -4.85105679         -6.14211459
     9          0.95920151          2.14762781         -9.04789329

 Electric dipole moment (dipole orientation):
 (Debye = 10**-18 statcoulomb cm , SI units = C m)
                  (au)            (Debye)         (10**-30 SI)
   Tot        0.716814D+01      0.182196D+02      0.607740D+02
   x          0.000000D+00      0.000000D+00      0.000000D+00
   y          0.000000D+00      0.000000D+00      0.000000D+00
   z          0.716814D+01      0.182196D+02      0.607740D+02

 Dipole polarizability, Alpha (dipole orientation).
 (esu units = cm**3 , SI units = C**2 m**2 J**-1)
 Alpha(0;0):
               (au)            (10**-24 esu)      (10**-40 SI)
   iso        0.706849D+02      0.104744D+02      0.116544D+02
   aniso      0.304235D+02      0.450829D+01      0.501615D+01
   xx         0.575067D+02      0.852162D+01      0.948158D+01
   yx         0.122144D+02      0.180999D+01      0.201388D+01
   yy         0.734565D+02      0.108851D+02      0.121113D+02
   zx         0.359352D+01      0.532505D+00      0.592491D+00
   zy         0.126517D+01      0.187478D+00      0.208598D+00
   zz         0.810916D+02      0.120165D+02      0.133702D+02

 First dipole hyperpolarizability, Beta (dipole orientation).
 ||, _|_  parallel and perpendicular components, (z) with respect to z axis,
 vector components x,y,z.  Values do not include the 1/n! factor of 1/2.
 (esu units = statvolt**-1 cm**4 , SI units = C**3 m**3 J**-2)
 Beta(0;0,0):
               (au)            (10**-30 esu)      (10**-50 SI)
   || (z)     0.209228D+03      0.180756D+01      0.670859D+00
   _|_(z)     0.697425D+02      0.602521D+00      0.223620D+00
   x         -0.530434D+03     -0.458254D+01     -0.170076D+01
   y         -0.119197D+04     -0.102977D+02     -0.382190D+01
   z          0.104614D+04      0.903782D+01      0.335430D+01
   ||         0.334459D+03      0.288946D+01      0.107240D+01
   xxx       -0.219849D+03     -0.189932D+01     -0.704915D+00
   xxy       -0.112584D+03     -0.972639D+00     -0.360985D+00
   yxy        0.786578D+02      0.679542D+00      0.252205D+00
   yyy       -0.251420D+03     -0.217207D+01     -0.806144D+00
   xxz        0.148913D+03      0.128649D+01      0.477470D+00
   yxz       -0.520533D+02     -0.449700D+00     -0.166902D+00
   yyz        0.443498D+02      0.383148D+00      0.142201D+00
   zxz       -0.356203D+02     -0.307732D+00     -0.114212D+00
   zyz       -0.333203D+02     -0.287862D+00     -0.106837D+00
   zzz        0.155450D+03      0.134296D+01      0.498428D+00

 ----------------------------------------------------------------------
 Unable to Open any file for archive entry.
 1\1\GINC-NODE2003\Freq\RB3LYP\6-311+G(d,p)\C3H2F1N2(1-)\SVICCHI\11-Jan
 -2024\0\\#p freq=raman scale=0.967 guess=read geom=allcheck b3lyp/6-31
 1+G(d,p) int=grid=ultrafine EmpiricalDispersion=GD3BJ SCRF=(Solvent=et
 hanol) scf=(xqc,intrep,maxconventionalcycle=350) nosymm\\IMIDF-isolate
 d\\-1,1\C,-2.1176391233,3.2991200715,0.3792421452\N,-1.1898373981,2.36
 08636204,0.2739601666\C,-1.8859096786,1.3603018838,-0.3892140582\C,-3.
 1790621561,1.7922906912,-0.6239116005\H,-1.4153373881,0.4208058981,-0.
 6446217941\N,-3.3256041609,3.0742706376,-0.1134157589\H,-3.9983521772,
 1.2834133397,-1.1128923087\F,-1.8313379176,4.4875838578,0.9906432087\\
 Version=ES64L-G16RevC.02\HF=-325.094445\RMSD=9.920e-09\RMSF=1.235e-04\
 ZeroPoint=0.0480462\Thermal=0.052345\ETot=-325.0420999\HTot=-325.04115
 58\GTot=-325.0739893\Dipole=-0.153716,-0.6391374,-0.3285835\DipoleDeri
 v=1.1042982,0.0257985,0.323194,0.0263607,1.5755194,0.6297803,0.3258953
 ,0.6296523,0.5299709,-1.0569074,0.1939877,-0.1402593,-0.1043671,-0.714
 8967,-0.1865129,-0.2714795,-0.0890671,-0.4961276,0.2626284,0.1314374,0
 .2546202,0.2113907,0.0494327,0.2418909,0.2899696,0.2167847,-0.1543798,
 0.0428657,-0.2067055,0.0371643,-0.2868031,0.3538892,0.2118854,0.000865
 ,0.2365965,-0.245081,0.0508787,0.1294909,-0.0058344,0.0959244,-0.09980
 21,-0.1171538,-0.0205977,-0.1059308,0.188029,-0.9718011,0.0630832,-0.1
 687408,0.3601286,-0.8361326,-0.0860515,-0.039732,-0.1821272,-0.4601455
 ,-0.0490802,-0.0964625,-0.1367949,-0.0632353,0.0402515,-0.1083384,-0.1
 221139,-0.1190287,0.1495885,-0.3828822,-0.2406297,-0.163349,-0.239399,
 -1.3682614,-0.5855001,-0.1628066,-0.5868796,-0.5118545\Polar=80.604724
 5,-4.6630465,74.4036818,7.7512748,8.8081093,57.0464222\PolarDeriv=-1.4
 650929,-9.5198408,11.6003788,-5.9343462,-1.4338969,-1.7026966,16.59105
 53,3.0097844,10.9062634,3.0507196,-1.3549007,7.5086457,5.5391764,-5.06
 11017,2.0423837,-0.0659206,4.6987983,10.4574944,11.8422775,1.2709952,0
 .1851882,2.2393375,0.1237489,2.7342269,-0.3016455,-4.9578977,-2.068150
 6,-3.8218091,-1.3534149,-3.1838661,0.8222691,-3.0852522,0.5894669,3.28
 28038,-2.5200938,0.9574322,6.7121819,5.7536637,5.2207106,-1.2888528,1.
 1335608,13.0229057,-5.0191583,1.4329265,-4.3199976,-1.6958287,4.450263
 3,-3.9627394,-3.8462797,2.3416268,6.3774637,5.2182736,-4.5656362,-0.04
 62641,-6.1363426,0.3113456,-11.5120789,5.1985407,1.7506374,-9.5238308,
 -6.0231985,-1.3579747,4.9943855,0.2511946,1.7262407,5.2488459,0.869466
 ,4.0564298,0.7246838,-5.375225,0.3325967,-8.8188141,2.9759406,-3.40332
 88,4.6711915,-0.061544,0.4225885,-0.2899916,-2.8999665,4.7332026,-10.5
 731189,1.6200673,-3.8573746,-1.4587573,0.41555,0.7906708,-4.741147,-0.
 5545412,0.1541123,0.2367525,-5.9891531,5.5325031,-7.5367391,2.7183629,
 -0.9001767,-1.5759852,6.0916048,-2.0552962,-2.4134501,2.9018112,-2.509
 7674,0.695029,3.6602076,2.4394326,-4.7162826,-2.0356277,0.3510938,-1.9
 535073,-7.9716507,-3.1538444,-2.2247272,-4.6313893,-2.4083828,-2.67159
 42,-2.6497124,-2.936441,-2.815566,-2.8398051,-2.4893479,-2.7134335,-4.
 9145187,-3.3981926,-2.7826336,-1.2882743,-1.3384265,-0.0409804,0.03183
 92,3.2085063,-0.403924,1.7598912,1.3119209,0.0069657,-5.7889789,2.1316
 961,6.2896343,0.5336502,5.3883014,-2.1337243,-2.5458707,1.9163865,2.50
 60652,0.8185116,2.8875554,-0.7921133\HyperPolar=-66.5972468,-99.010908
 ,-45.2577358,-253.1215054,-27.5521262,50.8299795,82.7413995,-3.8922282
 ,-132.6820808,-304.7631345\Quadrupole=-2.8261845,-16.0317749,18.857959
 4,25.7040755,1.0892754,-3.0044024\PG=C01 [X(C3H2F1N2)]\NImag=0\\0.6324
 4293,-0.05425480,0.61219070,0.13466709,0.18613707,0.26983033,-0.231130
 30,0.11978428,0.00149875,0.48185688,0.12859353,-0.19637253,-0.01158991
 ,-0.08123600,0.43302225,0.00542275,-0.01455668,-0.07831355,0.09042054,
 0.12107715,0.17738148,0.01116501,-0.00167540,-0.00072537,-0.13152517,-
 0.07282878,-0.05341920,0.59316337,0.04512244,-0.09012292,-0.02937585,-
 0.04948487,-0.16669969,-0.06040278,-0.18991743,0.67677586,0.01961238,-
 0.04464934,-0.00180922,-0.04321662,-0.06815691,-0.10926448,0.07330211,
 0.18219055,0.21984727,-0.02544837,-0.02479538,-0.02268237,-0.05869794,
 -0.04603823,-0.04530316,-0.31907843,0.08327477,-0.04775312,0.71711526,
 -0.07149080,-0.03928234,-0.04525443,0.00701052,-0.01241789,-0.01118271
 ,0.08019351,-0.10664865,0.00681412,0.04703682,0.50476130,-0.04302977,-
 0.02988389,-0.01618846,-0.02217136,-0.02853749,-0.00120101,-0.04907411
 ,0.00780452,-0.07497440,0.21665155,0.18464739,0.26771617,-0.00319342,-
 0.00185995,-0.00294175,0.01036926,-0.01731829,-0.00222073,-0.11501474,
 0.11805382,0.02101661,0.00220100,0.01923526,0.00980321,0.10831555,-0.0
 0246190,-0.00094703,-0.00266920,0.00808543,-0.01610433,-0.00179506,0.1
 1432415,-0.26070990,-0.06653036,-0.00263219,-0.00147730,-0.00057221,-0
 .12075000,0.28007640,-0.00320226,-0.00247374,0.00120904,0.00883817,-0.
 01008062,-0.00745733,0.01941106,-0.06534000,-0.04423134,0.00026707,0.0
 0658430,0.00081163,-0.02350982,0.07403258,0.04404059,-0.30593919,-0.01
 535999,-0.08242303,-0.07983880,0.06291101,-0.00763638,-0.02877999,0.01
 114533,-0.01061619,-0.08706005,0.01193345,-0.00175355,-0.00352765,0.00
 238786,-0.00276730,0.50354847,-0.02419449,-0.09147913,-0.01571060,-0.0
 0059416,-0.00233479,-0.01310512,0.06417498,-0.05394998,-0.01056184,0.0
 3539890,-0.22840835,-0.05963279,0.00480394,0.00139521,-0.00135164,-0.0
 3845097,0.40161171,-0.08629050,-0.01291467,-0.10746171,-0.03528238,0.0
 0768478,0.01909711,0.01247540,-0.02791128,0.01043198,0.00846352,-0.067
 28359,-0.09180496,-0.00171402,-0.00214323,0.00661668,0.11668664,0.1212
 9432,0.18565314,-0.00060833,0.00247378,-0.00020860,-0.00436777,0.00076
 073,-0.00374769,-0.00517018,-0.01670358,-0.00824579,-0.22491893,-0.095
 71454,-0.10795897,-0.00041457,0.00035443,0.00073125,0.00737298,0.00232
 672,0.00537367,0.22715056,0.00307448,-0.00453355,-0.00242159,0.0031708
 8,0.00257489,-0.00136934,0.00518335,0.00874176,0.00643568,-0.09201047,
 -0.10824532,-0.06757581,-0.00079802,-0.00057468,0.00043824,-0.02305417
 ,-0.01191796,-0.01011976,0.10639070,0.11518384,0.00006060,-0.00262202,
 0.00220945,-0.00269917,-0.00215265,0.00628847,0.00125462,-0.00072053,-
 0.00205478,-0.10630619,-0.06877004,-0.08664073,0.00023008,0.00081645,-
 0.00175383,-0.00569445,-0.00184229,-0.00861747,0.11417713,0.07643215,0
 .08992366,-0.07728834,-0.02431255,-0.02718470,0.01333384,0.02515605,0.
 01648387,-0.00475986,-0.00149049,-0.00409938,-0.00411253,0.00179578,-0
 .00246699,0.00126458,0.00069222,0.00023183,-0.00577577,-0.04346491,-0.
 01971234,0.00095624,-0.00195675,-0.00102262,0.07638185,-0.02438846,-0.
 18945321,-0.07911547,-0.00673607,-0.04166790,-0.01866546,0.00054562,-0
 .00738649,-0.00554191,-0.00023422,-0.00828144,-0.00624973,-0.00136675,
 -0.00165838,-0.00180912,-0.01151253,-0.01491670,-0.00860657,0.00011175
 ,-0.00122898,-0.00114108,0.04358066,0.26459310,-0.02724029,-0.07903672
 ,-0.06947587,0.00261208,-0.00824436,-0.00653068,-0.00322450,-0.0062446
 3,0.00205497,-0.00333729,-0.00555504,0.00228177,-0.00066357,-0.0011389
 7,0.00076455,-0.00579574,-0.01909004,-0.01391477,-0.00012100,-0.001819
 56,0.00064523,0.03777032,0.12112933,0.08417481\\-0.00000036,-0.0000017
 2,-0.00000254,-0.00015038,-0.00017817,-0.00015696,0.00015007,0.0002265
 0,0.00013355,-0.00003241,0.00027827,0.00012942,0.00006406,0.00000211,0
 .00000845,0.00004606,-0.00027056,-0.00007324,-0.00005951,0.00003241,0.
 00000985,-0.00001753,-0.00008884,-0.00004852\\\@
 The archive entry for this job was punched.


    THE DOUGHNUT CREED
 AS YOU RAMBLE ON THROUGH LIFE, BROTHER
 WHATEVER BE YOUR GOAL
 KEEP YOUR EYE UPON THE DOUGHNUT
 AND NOT UPON THE HOLE.
 Job cpu time:       0 days  0 hours  6 minutes 15.3 seconds.
 Elapsed time:       0 days  0 hours  0 minutes 35.1 seconds.
 File lengths (MBytes):  RWF=     75 Int=      0 D2E=      0 Chk=     10 Scr=      1
 Normal termination of Gaussian 16 at Thu Jan 11 13:06:00 2024.
