 Entering Gaussian System, Link 0=g16
 Input=glycerol-isolated-freq.gjf
 Output=glycerol-isolated-freq.log
 Initial command:
 /software/commercial/gaussian/g16/AVX/g16/l1.exe "/scratch1/svicchi/G09-659916.pbs02/Gau-559852.inp" -scrdir="/scratch1/svicchi/G09-659916.pbs02/"
 Entering Link 1 = /software/commercial/gaussian/g16/AVX/g16/l1.exe PID=    559853.
  
 Copyright (c) 1988-2019, Gaussian, Inc.  All Rights Reserved.
  
 This is part of the Gaussian(R) 16 program.  It is based on
 the Gaussian(R) 09 system (copyright 2009, Gaussian, Inc.),
 the Gaussian(R) 03 system (copyright 2003, Gaussian, Inc.),
 the Gaussian(R) 98 system (copyright 1998, Gaussian, Inc.),
 the Gaussian(R) 94 system (copyright 1995, Gaussian, Inc.),
 the Gaussian 92(TM) system (copyright 1992, Gaussian, Inc.),
 the Gaussian 90(TM) system (copyright 1990, Gaussian, Inc.),
 the Gaussian 88(TM) system (copyright 1988, Gaussian, Inc.),
 the Gaussian 86(TM) system (copyright 1986, Carnegie Mellon
 University), and the Gaussian 82(TM) system (copyright 1983,
 Carnegie Mellon University). Gaussian is a federally registered
 trademark of Gaussian, Inc.
  
 This software contains proprietary and confidential information,
 including trade secrets, belonging to Gaussian, Inc.
  
 This software is provided under written license and may be
 used, copied, transmitted, or stored only in accord with that
 written license.
  
 The following legend is applicable only to US Government
 contracts under FAR:
  
                    RESTRICTED RIGHTS LEGEND
  
 Use, reproduction and disclosure by the US Government is
 subject to restrictions as set forth in subparagraphs (a)
 and (c) of the Commercial Computer Software - Restricted
 Rights clause in FAR 52.227-19.
  
 Gaussian, Inc.
 340 Quinnipiac St., Bldg. 40, Wallingford CT 06492
  
  
 ---------------------------------------------------------------
 Warning -- This program may not be used in any manner that
 competes with the business of Gaussian, Inc. or will provide
 assistance to any competitor of Gaussian, Inc.  The licensee
 of this program is prohibited from giving any competitor of
 Gaussian, Inc. access to this program.  By using this program,
 the user acknowledges that Gaussian, Inc. is engaged in the
 business of creating and licensing software in the field of
 computational chemistry and represents and warrants to the
 licensee that it is not a competitor of Gaussian, Inc. and that
 it will not use this program in any manner prohibited above.
 ---------------------------------------------------------------
  

 Cite this work as:
 Gaussian 16, Revision C.01,
 M. J. Frisch, G. W. Trucks, H. B. Schlegel, G. E. Scuseria, 
 M. A. Robb, J. R. Cheeseman, G. Scalmani, V. Barone, 
 G. A. Petersson, H. Nakatsuji, X. Li, M. Caricato, A. V. Marenich, 
 J. Bloino, B. G. Janesko, R. Gomperts, B. Mennucci, H. P. Hratchian, 
 J. V. Ortiz, A. F. Izmaylov, J. L. Sonnenberg, D. Williams-Young, 
 F. Ding, F. Lipparini, F. Egidi, J. Goings, B. Peng, A. Petrone, 
 T. Henderson, D. Ranasinghe, V. G. Zakrzewski, J. Gao, N. Rega, 
 G. Zheng, W. Liang, M. Hada, M. Ehara, K. Toyota, R. Fukuda, 
 J. Hasegawa, M. Ishida, T. Nakajima, Y. Honda, O. Kitao, H. Nakai, 
 T. Vreven, K. Throssell, J. A. Montgomery, Jr., J. E. Peralta, 
 F. Ogliaro, M. J. Bearpark, J. J. Heyd, E. N. Brothers, K. N. Kudin, 
 V. N. Staroverov, T. A. Keith, R. Kobayashi, J. Normand, 
 K. Raghavachari, A. P. Rendell, J. C. Burant, S. S. Iyengar, 
 J. Tomasi, M. Cossi, J. M. Millam, M. Klene, C. Adamo, R. Cammi, 
 J. W. Ochterski, R. L. Martin, K. Morokuma, O. Farkas, 
 J. B. Foresman, and D. J. Fox, Gaussian, Inc., Wallingford CT, 2019.
 
 ******************************************
 Gaussian 16:  ES64L-G16RevC.01  3-Jul-2019
                 2-Jun-2023 
 ******************************************
 %NProcShared=2
 Will use up to    2 processors via shared memory.
 %mem=55gb
 %chk=/scratch1/svicchi/G09-659916.pbs02/02-freq/glycerol-isolated-freq.chk
 ----------------------------------------------------------------------
 #p freq=raman scale=0.967 pop=(nbo,full,hirshfeld) guess=read geom=all
 check b3lyp/6-311+G(d,p) int=grid=ultrafine EmpiricalDispersion=GD3BJ 
 SCRF=(Solvent=ethanol) scf=(xqc,intrep,maxconventionalcycle=350) nosym
 m
 ----------------------------------------------------------------------
 1/10=4,29=7,30=1,38=1,114=967000/1,3;
 2/12=2,15=1,40=1/2;
 3/5=4,6=6,7=111,11=2,14=-4,25=1,30=1,70=2201,71=2,72=4,74=-5,75=-5,116=-2,124=41,140=1/1,2,3;
 4/5=1/1;
 5/5=2,8=3,13=1,17=20,38=6,53=4,85=350,98=1/2,8;
 8/6=4,10=90,11=11/1;
 10/13=10,15=4,31=1/2;
 11/6=3,8=1,9=11,15=111,16=1,31=1/1,2,10;
 10/6=1,31=1/2;
 6/7=3,28=1,40=1,79=1/1,7;
 7/8=1,10=1,25=1,30=1/1,2,3,16;
 1/10=4,30=1/3;
 99//99;
 Leave Link    1 at Fri Jun  2 11:30:12 2023, MaxMem=  7381975040 cpu:               2.5 elap:               3.2
 (Enter /software/commercial/gaussian/g16/AVX/g16/l101.exe)
 Structure from the checkpoint file:  "/scratch1/svicchi/G09-659916.pbs02/02-freq/glycerol-isolated-freq.chk"
 ---------------------
 glycerol-isolated.gjf
 ---------------------
 Charge =  0 Multiplicity = 1
 No Z-Matrix found in chk file; cartesian coordinates used.
  O                                                 2.388839316669      0.093670938486     -0.355677048320
  C                                                 1.253428556059      0.662168051772      0.297810281427
  C                                                 0.000090725957     -0.051344498449     -0.193592587906
  O                                                 0.000044690737     -1.437765446061      0.156721430380
  C                                                -1.253489310660      0.662121013305      0.297256859766
  O                                                -2.388594679368      0.093593512001     -0.356732028627
  H                                                 3.181012312129      0.515688312470     -0.007506346546
  H                                                 1.340356494375      0.552581206558      1.386776363233
  H                                                 1.173356313827      1.730737590924      0.067398105989
  H                                                 0.000332432491     -0.038949126292     -1.287024313898
  H                                                -0.000198591839     -1.510270474778      1.119193506877
  H                                                -1.340896408683      0.552520734834      1.386180579475
  H                                                -1.173346511102      1.730694625237      0.066889426708
  H                                                -3.180937340594      0.515582559992     -0.008890228556
 Recover connectivity data from disk.
 ITRead=  0  0  0  0  0  0  0  0  0  0  0  0  0  0
 MicOpt= -1 -1 -1 -1 -1 -1 -1 -1 -1 -1 -1 -1 -1 -1
 NAtoms=     14 NQM=       14 NQMF=       0 NMMI=      0 NMMIF=      0
                NMic=       0 NMicF=      0.
                    Isotopes and Nuclear Properties:
 (Nuclear quadrupole moments (NQMom) in fm**2, nuclear magnetic moments (NMagM)
  in nuclear magnetons)

  Atom         1           2           3           4           5           6           7           8           9          10
 IAtWgt=          16          12          12          16          12          16           1           1           1           1
 AtmWgt=  15.9949146  12.0000000  12.0000000  15.9949146  12.0000000  15.9949146   1.0078250   1.0078250   1.0078250   1.0078250
 NucSpn=           0           0           0           0           0           0           1           1           1           1
 AtZEff=   5.6000000   3.6000000   3.6000000   5.6000000   3.6000000   5.6000000   1.0000000   1.0000000   1.0000000   1.0000000
 NQMom=    0.0000000   0.0000000   0.0000000   0.0000000   0.0000000   0.0000000   0.0000000   0.0000000   0.0000000   0.0000000
 NMagM=    0.0000000   0.0000000   0.0000000   0.0000000   0.0000000   0.0000000   2.7928460   2.7928460   2.7928460   2.7928460
 AtZNuc=   8.0000000   6.0000000   6.0000000   8.0000000   6.0000000   8.0000000   1.0000000   1.0000000   1.0000000   1.0000000

  Atom        11          12          13          14
 IAtWgt=           1           1           1           1
 AtmWgt=   1.0078250   1.0078250   1.0078250   1.0078250
 NucSpn=           1           1           1           1
 AtZEff=   1.0000000   1.0000000   1.0000000   1.0000000
 NQMom=    0.0000000   0.0000000   0.0000000   0.0000000
 NMagM=    2.7928460   2.7928460   2.7928460   2.7928460
 AtZNuc=   1.0000000   1.0000000   1.0000000   1.0000000
 Leave Link  101 at Fri Jun  2 11:30:14 2023, MaxMem=  7381975040 cpu:               0.3 elap:               0.9
 (Enter /software/commercial/gaussian/g16/AVX/g16/l103.exe)

 GradGradGradGradGradGradGradGradGradGradGradGradGradGradGradGradGradGrad
 Berny optimization.
 Initialization pass.
 Trust Radius=3.00D-01 FncErr=1.00D-07 GrdErr=1.00D-07 EigMax=2.50D+02 EigMin=1.00D-04
 Number of steps in this run=      2 maximum allowed number of steps=      2.
 GradGradGradGradGradGradGradGradGradGradGradGradGradGradGradGradGradGrad

 Leave Link  103 at Fri Jun  2 11:30:17 2023, MaxMem=  7381975040 cpu:               0.1 elap:               1.8
 (Enter /software/commercial/gaussian/g16/AVX/g16/l202.exe)
                          Input orientation:                          
 ---------------------------------------------------------------------
 Center     Atomic      Atomic             Coordinates (Angstroms)
 Number     Number       Type             X           Y           Z
 ---------------------------------------------------------------------
      1          8           0        2.388839    0.093671   -0.355677
      2          6           0        1.253429    0.662168    0.297810
      3          6           0        0.000091   -0.051344   -0.193593
      4          8           0        0.000045   -1.437765    0.156721
      5          6           0       -1.253489    0.662121    0.297257
      6          8           0       -2.388595    0.093594   -0.356732
      7          1           0        3.181012    0.515688   -0.007506
      8          1           0        1.340356    0.552581    1.386776
      9          1           0        1.173356    1.730738    0.067398
     10          1           0        0.000332   -0.038949   -1.287024
     11          1           0       -0.000199   -1.510270    1.119194
     12          1           0       -1.340896    0.552521    1.386181
     13          1           0       -1.173347    1.730695    0.066889
     14          1           0       -3.180937    0.515583   -0.008890
 ---------------------------------------------------------------------
                    Distance matrix (angstroms):
                    1          2          3          4          5
     1  O    0.000000
     2  C    1.428073   0.000000
     3  C    2.398629   1.523625   0.000000
     4  O    2.883434   2.449612   1.429994   0.000000
     5  C    3.743797   2.506918   1.523624   2.449616   0.000000
     6  O    4.777434   3.743800   2.398633   2.883452   1.428072
     7  H    0.962735   1.957103   3.236420   3.736510   4.447373
     8  H    2.084720   1.097913   2.158380   2.696470   2.815508
     9  H    2.082397   1.096058   2.149531   3.379948   2.661645
    10  H    2.567092   2.138578   1.093502   2.010246   2.138578
    11  H    3.233477   2.639269   1.962619   0.965199   2.639243
    12  H    4.141925   2.815510   2.158375   2.696467   1.097910
    13  H    3.943042   2.661637   2.149528   3.379949   1.096057
    14  H    5.596488   4.447376   3.236427   3.736528   1.957104
                    6          7          8          9         10
     6  O    0.000000
     7  H    5.596485   0.000000
     8  H    4.141928   2.309415   0.000000
     9  H    3.943047   2.347901   1.776711   0.000000
    10  H    2.567096   3.472969   3.048735   2.518380   0.000000
    11  H    3.233446   3.936250   2.474681   3.603837   2.820403
    12  H    2.084713   4.731953   2.681253   3.073898   3.048730
    13  H    2.082398   4.521307   3.073883   2.346703   2.518381
    14  H    0.962744   6.361950   4.731950   4.521316   3.472983
                   11         12         13         14
    11  H    0.000000
    12  H    2.474643   0.000000
    13  H    3.603814   1.776709   0.000000
    14  H    3.936210   2.309402   2.347906   0.000000
 Symmetry turned off by external request.
 Stoichiometry    C3H8O3
 Framework group  C1[X(C3H8O3)]
 Deg. of freedom    36
 Full point group                 C1      NOp   1
 Rotational constants (GHZ):           7.5198225           1.9373955           1.6822438
 Leave Link  202 at Fri Jun  2 11:30:20 2023, MaxMem=  7381975040 cpu:               0.0 elap:               2.2
 (Enter /software/commercial/gaussian/g16/AVX/g16/l301.exe)
 Standard basis: 6-311+G(d,p) (5D, 7F)
 Ernie: Thresh=  0.10000D-02 Tol=  0.10000D-05 Strict=F.
   180 basis functions,   280 primitive gaussians,   186 cartesian basis functions
    25 alpha electrons       25 beta electrons
       nuclear repulsion energy       258.6632381360 Hartrees.
 IExCor=  402 DFT=T Ex+Corr=B3LYP ExCW=0 ScaHFX=  0.200000
 ScaDFX=  0.800000  0.720000  1.000000  0.810000 ScalE2=  1.000000  1.000000
 IRadAn=      5 IRanWt=     -1 IRanGd=            0 ICorTp=0 IEmpDi=141
 NAtoms=   14 NActive=   14 NUniq=   14 SFac= 1.00D+00 NAtFMM=   60 NAOKFM=F Big=F
 Integral buffers will be    131072 words long.
 Raffenetti 2 integral format.
 Two-electron integral symmetry is turned off.
 R6Disp:  Grimme-D3(BJ) Dispersion energy=       -0.0156952371 Hartrees.
 Nuclear repulsion after empirical dispersion term =      258.6475428988 Hartrees.
 Force inversion solution in PCM.
 ------------------------------------------------------------------------------
 Polarizable Continuum Model (PCM)
 =================================
 Model                : PCM.
 Atomic radii         : UFF (Universal Force Field).
 Polarization charges : Total charges.
 Charge compensation  : None.
 Solution method      : Matrix inversion.
 Cavity type          : Scaled VdW (van der Waals Surface) (Alpha=1.100).
 Cavity algorithm     : GePol (No added spheres)
                        Default sphere list used, NSphG=   14.
                        Lebedev-Laikov grids with approx.  5.0 points / Ang**2.
                        Smoothing algorithm: York/Karplus (Gamma=1.0000).
                        Polarization charges: spherical gaussians, with
                                              point-specific exponents (IZeta= 3).
                        Self-potential: point-specific (ISelfS= 7).
                        Self-field    : sphere-specific E.n sum rule (ISelfD= 2).
 1st derivatives      : Analytical E(r).r(x)/FMM algorithm (CHGder, D1EAlg=3).
                        Cavity 1st derivative terms included.
 2nd derivatives      : Analytical E(r).r(xy)/FMM algorithm (CHGder, D2EAlg=3).
                        Cavity 2nd derivative terms included.
 Solvent              : Ethanol, Eps=  24.852000 Eps(inf)=   1.852593
 ------------------------------------------------------------------------------
 Spheres list:
 ISph  on   Nord     Re0    Alpha      Xe            Ye            Ze
    1   O      1    1.7500  1.100      2.388839      0.093671     -0.355677
    2   C      2    1.9255  1.100      1.253429      0.662168      0.297810
    3   C      3    1.9255  1.100      0.000091     -0.051344     -0.193593
    4   O      4    1.7500  1.100      0.000045     -1.437765      0.156721
    5   C      5    1.9255  1.100     -1.253489      0.662121      0.297257
    6   O      6    1.7500  1.100     -2.388595      0.093594     -0.356732
    7   H      7    1.4430  1.100      3.181012      0.515688     -0.007506
    8   H      8    1.4430  1.100      1.340356      0.552581      1.386776
    9   H      9    1.4430  1.100      1.173356      1.730738      0.067398
   10   H     10    1.4430  1.100      0.000332     -0.038949     -1.287024
   11   H     11    1.4430  1.100     -0.000199     -1.510270      1.119194
   12   H     12    1.4430  1.100     -1.340896      0.552521      1.386181
   13   H     13    1.4430  1.100     -1.173347      1.730695      0.066889
   14   H     14    1.4430  1.100     -3.180937      0.515583     -0.008890
 ------------------------------------------------------------------------------
 GePol: Number of generator spheres                  =      14
 GePol: Total number of spheres                      =      14
 GePol: Number of exposed spheres                    =      14 (100.00%)
 GePol: Number of points                             =    1157
 GePol: Average weight of points                     =       0.13
 GePol: Minimum weight of points                     =   0.14D-06
 GePol: Maximum weight of points                     =    0.20322
 GePol: Number of points with low weight             =      72
 GePol: Fraction of low-weight points (<1% of avg)   =       6.22%
 GePol: Cavity surface area                          =    155.647 Ang**2
 GePol: Cavity volume                                =    142.218 Ang**3
 Leave Link  301 at Fri Jun  2 11:30:24 2023, MaxMem=  7381975040 cpu:               1.0 elap:               2.3
 (Enter /software/commercial/gaussian/g16/AVX/g16/l302.exe)
 NPDir=0 NMtPBC=     1 NCelOv=     1 NCel=       1 NClECP=     1 NCelD=      1
         NCelK=      1 NCelE2=     1 NClLst=     1 CellRange=     0.0.
 One-electron integrals computed using PRISM.
 NBasis=   180 RedAO= T EigKep=  3.81D-05  NBF=   180
 NBsUse=   180 1.00D-06 EigRej= -1.00D+00 NBFU=   180
 Precomputing XC quadrature grid using
 IXCGrd= 4 IRadAn=           5 IRanWt=          -1 IRanGd=           0 AccXCQ= 0.00D+00.
 Generated NRdTot=       0 NPtTot=           0 NUsed=           0 NTot=          32
 NSgBfM=   186   186   186   186   186 MxSgAt=    14 MxSgA2=    14.
 Leave Link  302 at Fri Jun  2 11:30:29 2023, MaxMem=  7381975040 cpu:               0.9 elap:               3.7
 (Enter /software/commercial/gaussian/g16/AVX/g16/l303.exe)
 DipDrv:  MaxL=1.
 Leave Link  303 at Fri Jun  2 11:30:33 2023, MaxMem=  7381975040 cpu:               0.2 elap:               2.7
 (Enter /software/commercial/gaussian/g16/AVX/g16/l401.exe)
 Initial guess from the checkpoint file:  "/scratch1/svicchi/G09-659916.pbs02/02-freq/glycerol-isolated-freq.chk"
 B after Tr=     0.000000    0.000000    0.000000
         Rot=    1.000000    0.000000    0.000000    0.000000 Ang=   0.00 deg.
 Guess basis will be translated and rotated to current coordinates.
 JPrj=2 DoOrth=T DoCkMO=T.
 Leave Link  401 at Fri Jun  2 11:30:38 2023, MaxMem=  7381975040 cpu:               1.2 elap:               3.4
 (Enter /software/commercial/gaussian/g16/AVX/g16/l502.exe)
 Keep R1 ints in memory in canonical form, NReq=135960719.
 FoFCou: FMM=F IPFlag=           0 FMFlag=           0 FMFlg1=           0
         NFxFlg=           0 DoJE=F BraDBF=F KetDBF=F FulRan=T
         wScrn=  0.000000 ICntrl=       600 IOpCl=  0 I1Cent=           0 NGrid=           0
         NMat0=    1 NMatS0=  16290 NMatT0=    0 NMatD0=    1 NMtDS0=    0 NMtDT0=    0
 Symmetry not used in FoFCou.
 Two-electron integral symmetry not used.
 Closed shell SCF:
 Using DIIS extrapolation, IDIIS=  1040.
 NGot=  7381975040 LenX=  7249212685 LenY=  7249177648
 Requested convergence on RMS density matrix=1.00D-08 within 350 cycles.
 Requested convergence on MAX density matrix=1.00D-06.
 Requested convergence on             energy=1.00D-06.
 No special actions if energy rises.

 Cycle   1  Pass 1  IDiag  1:
 Inv3:  Mode=1 IEnd=     4015947.
 Iteration    1 A*A^-1 deviation from unit magnitude is 4.66D-15 for   1149.
 Iteration    1 A*A^-1 deviation from orthogonality  is 1.90D-15 for   1143    431.
 Iteration    1 A^-1*A deviation from unit magnitude is 4.44D-15 for   1149.
 Iteration    1 A^-1*A deviation from orthogonality  is 2.35D-15 for   1154    504.
 E= -344.925361204870    
 DIIS: error= 3.91D-08 at cycle   1 NSaved=   1.
 NSaved= 1 IEnMin= 1 EnMin= -344.925361204870     IErMin= 1 ErrMin= 3.91D-08
 ErrMax= 3.91D-08  0.00D+00 EMaxC= 1.00D-01 BMatC= 5.00D-13 BMatP= 5.00D-13
 IDIUse=1 WtCom= 1.00D+00 WtEn= 0.00D+00
 Coeff-Com:  0.100D+01
 Coeff:      0.100D+01
 Gap=     0.287 Goal=   None    Shift=    0.000
 RMSDP=7.00D-09 MaxDP=3.53D-07              OVMax= 2.62D-07

 Error on total polarization charges =  0.01091
 SCF Done:  E(RB3LYP) =  -344.925361205     A.U. after    1 cycles
            NFock=  1  Conv=0.70D-08     -V/T= 2.0038
 KE= 3.436309231407D+02 PE=-1.327737109715D+03 EE= 3.805332824704D+02
 Leave Link  502 at Fri Jun  2 11:30:53 2023, MaxMem=  7381975040 cpu:              20.1 elap:              13.7
 (Enter /software/commercial/gaussian/g16/AVX/g16/l508.exe)
 QCSCF skips out because SCF is already converged.
 Leave Link  508 at Fri Jun  2 11:30:55 2023, MaxMem=  7381975040 cpu:               0.0 elap:               1.1
 (Enter /software/commercial/gaussian/g16/AVX/g16/l801.exe)
 DoSCS=F DFT=T ScalE2(SS,OS)=  1.000000  1.000000
 Range of M.O.s used for correlation:     1   180
 NBasis=   180 NAE=    25 NBE=    25 NFC=     0 NFV=     0
 NROrb=    180 NOA=    25 NOB=    25 NVA=   155 NVB=   155

 **** Warning!!: The largest alpha MO coefficient is  0.50603281D+02

 Leave Link  801 at Fri Jun  2 11:30:59 2023, MaxMem=  7381975040 cpu:               0.3 elap:               2.6
 (Enter /software/commercial/gaussian/g16/AVX/g16/l1002.exe)
 Minotr:  Closed shell wavefunction.
 NEqPCM:  Using equilibrium solvation (IEInf=0, Eps=  24.8520, EpsInf=   1.8526)
          Direct CPHF calculation.
          Differentiating once with respect to electric field.
                with respect to dipole field.
          Electric field/nuclear overlap derivatives assumed to be zero.
          Requested convergence is 1.0D-08 RMS, and 1.0D-07 maximum.
          Secondary convergence is 1.0D-12 RMS, and 1.0D-12 maximum.
          NewPWx=F KeepS1=T KeepF1=T KeepIn=T MapXYZ=F SortEE=F KeepMc=T.
         4299 words used for storage of precomputed grid.
 Keep R1 ints in memory in canonical form, NReq=137214243.
 FoFCou: FMM=F IPFlag=           0 FMFlag=           0 FMFlg1=           0
         NFxFlg=           0 DoJE=F BraDBF=F KetDBF=F FulRan=T
         wScrn=  0.000000 ICntrl=       600 IOpCl=  0 I1Cent=           0 NGrid=           0
         NMat0=    1 NMatS0=  16290 NMatT0=    0 NMatD0=    1 NMtDS0=    0 NMtDT0=    0
 Symmetry not used in FoFCou.
 Two-electron integral symmetry not used.
          MDV=    7381975040 using IRadAn=       1.
          Solving linear equations simultaneously, MaxMat=       0.
          There are     3 degrees of freedom in the 1st order CPHF.  IDoFFX=0 NUNeed=     3.
      3 vectors produced by pass  0 Test12= 1.29D-13 3.33D-08 XBig12= 2.89D+01 1.90D+00.
 AX will form     3 AO Fock derivatives at one time.
      3 vectors produced by pass  1 Test12= 1.29D-13 3.33D-08 XBig12= 4.88D+00 4.22D-01.
      3 vectors produced by pass  2 Test12= 1.29D-13 3.33D-08 XBig12= 1.06D+00 1.83D-01.
      3 vectors produced by pass  3 Test12= 1.29D-13 3.33D-08 XBig12= 9.22D-02 4.96D-02.
      3 vectors produced by pass  4 Test12= 1.29D-13 3.33D-08 XBig12= 1.65D-02 2.30D-02.
      3 vectors produced by pass  5 Test12= 1.29D-13 3.33D-08 XBig12= 7.68D-04 5.18D-03.
      3 vectors produced by pass  6 Test12= 1.29D-13 3.33D-08 XBig12= 4.11D-05 1.05D-03.
      3 vectors produced by pass  7 Test12= 1.29D-13 3.33D-08 XBig12= 9.92D-07 1.79D-04.
      3 vectors produced by pass  8 Test12= 1.29D-13 3.33D-08 XBig12= 3.24D-08 4.11D-05.
      3 vectors produced by pass  9 Test12= 1.29D-13 3.33D-08 XBig12= 7.36D-10 6.52D-06.
      3 vectors produced by pass 10 Test12= 1.29D-13 3.33D-08 XBig12= 1.75D-11 7.02D-07.
      3 vectors produced by pass 11 Test12= 1.29D-13 3.33D-08 XBig12= 3.09D-13 9.62D-08.
 InvSVY:  IOpt=1 It=  1 EMax= 8.88D-16
 Solved reduced A of dimension    36 with     3 vectors.
 End of Minotr F.D. properties file   721 does not exist.
 End of Minotr F.D. properties file   722 does not exist.
 End of Minotr F.D. properties file   788 does not exist.
 Leave Link 1002 at Fri Jun  2 11:31:58 2023, MaxMem=  7381975040 cpu:             104.2 elap:              58.0
 (Enter /software/commercial/gaussian/g16/AVX/g16/l1101.exe)
 Using compressed storage, NAtomX=    14.
 Will process     15 centers per pass.
 R6Disp: Adding Grimme-D3(BJ) dispersion energy 1st derivatives to the gradient.
 Leave Link 1101 at Fri Jun  2 11:32:00 2023, MaxMem=  7381975040 cpu:               0.4 elap:               0.7
 (Enter /software/commercial/gaussian/g16/AVX/g16/l1102.exe)
 Symmetrizing basis deriv contribution to polar:
 IMax=3 JMax=2 DiffMx= 0.00D+00
 Leave Link 1102 at Fri Jun  2 11:32:02 2023, MaxMem=  7381975040 cpu:               0.2 elap:               1.4
 (Enter /software/commercial/gaussian/g16/AVX/g16/l1110.exe)
 Forming Gx(P) for the SCF density, NAtomX=    14.
 Integral derivatives from FoFJK, PRISM(SPDF).
 Do as many integral derivatives as possible in FoFJK.
 G2DrvN: MDV=    7381973462.
 G2DrvN: will do    15 centers at a time, making    1 passes.
 PxScal for G2LodP:  IOpCl= 0 ISclPx=1 IMOff=     1 NMtTot=     4 NTT=   16290 ScalPx= 2.27D+01
 Calling FoFCou, ICntrl=  3107 FMM=F I1Cent=   0 AccDes= 0.00D+00.
 FoFJK:  IHMeth= 1 ICntrl=    3107 DoSepK=F KAlg= 0 I1Cent=           0 FoldK=F
 IRaf=         0 NMat=       1 IRICut=       1 DoRegI=T DoRafI=F ISym2E= 0 IDoP0=0 IntGTp=1.
 FoFCou: FMM=F IPFlag=           0 FMFlag=      100000 FMFlg1=           0
         NFxFlg=           0 DoJE=F BraDBF=F KetDBF=F FulRan=T
         wScrn=  0.000000 ICntrl=      3107 IOpCl=  0 I1Cent=           0 NGrid=           0
         NMat0=    1 NMatS0=      1 NMatT0=    0 NMatD0=    4 NMtDS0=    3 NMtDT0=    0
 Symmetry not used in FoFCou.
 PxScal for G2LodP:  IOpCl= 0 ISclPx=0 IMOff=     1 NMtTot=     4 NTT=   16290 ScalPx= 1.00D+00
 NEqPCM:  Using equilibrium solvation (IEInf=0, Eps=  24.8520, EpsInf=   1.8526)
 G2PCM: DoFxE=T DoFxN=T DoGrad=T DoDP/DQ/DG/TGxP=TFFF NFrqRd=   0 IEInf=0 SqF1=F DoCFld=F IF1Alg=4.
 GePol: Maximum number of non-zero 1st derivatives   =     194
 End of G2Drv F.D. properties file   721 does not exist.
 End of G2Drv F.D. properties file   722 does not exist.
 End of G2Drv F.D. properties file   788 does not exist.
 Leave Link 1110 at Fri Jun  2 11:34:48 2023, MaxMem=  7381975040 cpu:             322.5 elap:             164.0
 (Enter /software/commercial/gaussian/g16/AVX/g16/l1002.exe)
 Minotr:  Closed shell wavefunction.
          IDoAtm=11111111111111
 NEqPCM:  Using equilibrium solvation (IEInf=0, Eps=  24.8520, EpsInf=   1.8526)
          Direct CPHF calculation.
          Differentiating once with respect to electric field.
                with respect to dipole field.
          Differentiating once with respect to nuclear coordinates.
          Requested convergence is 1.0D-08 RMS, and 1.0D-07 maximum.
          Secondary convergence is 1.0D-12 RMS, and 1.0D-12 maximum.
          NewPWx=T KeepS1=F KeepF1=F KeepIn=T MapXYZ=F SortEE=F KeepMc=T.
         4299 words used for storage of precomputed grid.
 Keep R1 ints in memory in canonical form, NReq=137214565.
 FoFCou: FMM=F IPFlag=           0 FMFlag=           0 FMFlg1=           0
         NFxFlg=           0 DoJE=F BraDBF=F KetDBF=F FulRan=T
         wScrn=  0.000000 ICntrl=       600 IOpCl=  0 I1Cent=           0 NGrid=           0
         NMat0=    1 NMatS0=  16290 NMatT0=    0 NMatD0=    1 NMtDS0=    0 NMtDT0=    0
 Symmetry not used in FoFCou.
 Two-electron integral symmetry not used.
          MDV=    7381975040 using IRadAn=       1.
          Solving linear equations simultaneously, MaxMat=       0.
          There are    45 degrees of freedom in the 1st order CPHF.  IDoFFX=5 NUNeed=    45.
 Will reuse    3 saved solutions.
     39 vectors produced by pass  0 Test12= 8.61D-15 2.22D-09 XBig12= 1.01D-01 6.68D-02.
 AX will form    39 AO Fock derivatives at one time.
     39 vectors produced by pass  1 Test12= 8.61D-15 2.22D-09 XBig12= 8.58D-03 2.15D-02.
     39 vectors produced by pass  2 Test12= 8.61D-15 2.22D-09 XBig12= 2.22D-04 1.91D-03.
     39 vectors produced by pass  3 Test12= 8.61D-15 2.22D-09 XBig12= 9.32D-07 1.40D-04.
     39 vectors produced by pass  4 Test12= 8.61D-15 2.22D-09 XBig12= 1.78D-09 6.80D-06.
     29 vectors produced by pass  5 Test12= 8.61D-15 2.22D-09 XBig12= 1.60D-12 1.73D-07.
      6 vectors produced by pass  6 Test12= 8.61D-15 2.22D-09 XBig12= 1.34D-15 4.15D-09.
 InvSVY:  IOpt=1 It=  1 EMax= 1.89D-15
 Solved reduced A of dimension   230 with    39 vectors.
 FullF1:  Do perturbations      1 to       3.
 Isotropic polarizability for W=    0.000000       63.12 Bohr**3.
 FullF1:  Do perturbations      1 to       6.
 End of Minotr F.D. properties file   721 does not exist.
 End of Minotr F.D. properties file   722 does not exist.
 End of Minotr F.D. properties file   788 does not exist.
 Leave Link 1002 at Fri Jun  2 11:37:54 2023, MaxMem=  7381975040 cpu:             352.0 elap:             185.3
 (Enter /software/commercial/gaussian/g16/AVX/g16/l601.exe)
 Copying SCF densities to generalized density rwf, IOpCl= 0 IROHF=0.

 **********************************************************************

            Population analysis using the SCF Density.

 **********************************************************************

 Alpha  occ. eigenvalues --  -19.13410 -19.13410 -19.13215 -10.23149 -10.22560
 Alpha  occ. eigenvalues --  -10.22558  -1.04696  -1.03314  -1.02141  -0.77873
 Alpha  occ. eigenvalues --   -0.68325  -0.61780  -0.53245  -0.52306  -0.50498
 Alpha  occ. eigenvalues --   -0.48593  -0.45362  -0.42315  -0.40088  -0.38917
 Alpha  occ. eigenvalues --   -0.36194  -0.33434  -0.29667  -0.29133  -0.28722
 Alpha virt. eigenvalues --   -0.00063   0.00908   0.02313   0.02940   0.03513
 Alpha virt. eigenvalues --    0.06336   0.06986   0.07101   0.07333   0.10635
 Alpha virt. eigenvalues --    0.11804   0.12201   0.14804   0.15485   0.16394
 Alpha virt. eigenvalues --    0.16807   0.17366   0.19195   0.19419   0.20494
 Alpha virt. eigenvalues --    0.20766   0.21700   0.22529   0.22936   0.24462
 Alpha virt. eigenvalues --    0.24667   0.25778   0.26703   0.26937   0.27218
 Alpha virt. eigenvalues --    0.28364   0.30113   0.31765   0.33026   0.33737
 Alpha virt. eigenvalues --    0.35377   0.38299   0.43289   0.46786   0.50355
 Alpha virt. eigenvalues --    0.51041   0.52102   0.53563   0.54440   0.58869
 Alpha virt. eigenvalues --    0.60853   0.62577   0.63185   0.66895   0.67065
 Alpha virt. eigenvalues --    0.69000   0.70546   0.70801   0.73057   0.85154
 Alpha virt. eigenvalues --    0.92073   0.93879   0.97837   0.99858   1.05302
 Alpha virt. eigenvalues --    1.06395   1.07405   1.09943   1.10164   1.14417
 Alpha virt. eigenvalues --    1.16648   1.21002   1.26366   1.29163   1.29166
 Alpha virt. eigenvalues --    1.32755   1.36450   1.41611   1.43787   1.46653
 Alpha virt. eigenvalues --    1.47258   1.49942   1.51032   1.54703   1.56924
 Alpha virt. eigenvalues --    1.58935   1.60457   1.63005   1.65419   1.65922
 Alpha virt. eigenvalues --    1.67982   1.71589   1.71988   1.74704   1.83929
 Alpha virt. eigenvalues --    1.84485   1.89415   1.96517   1.98933   2.03413
 Alpha virt. eigenvalues --    2.06928   2.08647   2.10381   2.10479   2.15491
 Alpha virt. eigenvalues --    2.21156   2.30894   2.34086   2.43828   2.45675
 Alpha virt. eigenvalues --    2.47085   2.51092   2.52951   2.55087   2.56224
 Alpha virt. eigenvalues --    2.60984   2.61136   2.64148   2.77138   2.83355
 Alpha virt. eigenvalues --    2.84931   2.87794   2.90979   2.97747   3.04074
 Alpha virt. eigenvalues --    3.08959   3.12398   3.12712   3.16591   3.17906
 Alpha virt. eigenvalues --    3.21419   3.24449   3.27098   3.34757   3.46468
 Alpha virt. eigenvalues --    3.77210   3.77617   3.83935   3.85307   3.88538
 Alpha virt. eigenvalues --    3.95161   3.96864   4.01113   4.17437   4.26244
 Alpha virt. eigenvalues --    4.99145   5.00330   5.08467   5.35511   5.36197
 Alpha virt. eigenvalues --    5.38371   5.63585   5.63762   5.66264  23.78038
 Alpha virt. eigenvalues --   23.80432  23.83830  49.89197  49.89209  49.94343
     Molecular Orbital Coefficients:
                           1         2         3         4         5
                           O         O         O         O         O
     Eigenvalues --   -19.13410 -19.13410 -19.13215 -10.23149 -10.22560
   1 1   O  1S          0.32901   0.44240  -0.00062   0.00000  -0.00002
   2        2S          0.28030   0.37693  -0.00055  -0.00000  -0.00006
   3        2PX         0.00004   0.00003   0.00002  -0.00001  -0.00005
   4        2PY         0.00056   0.00074   0.00000   0.00001   0.00004
   5        2PZ         0.00053   0.00071   0.00001   0.00001   0.00005
   6        3S          0.00822   0.01086   0.00010   0.00017   0.00045
   7        3PX        -0.00000   0.00008  -0.00011   0.00002  -0.00016
   8        3PY        -0.00002   0.00002  -0.00001  -0.00003   0.00001
   9        3PZ         0.00001   0.00002  -0.00003  -0.00004   0.00002
  10        4S         -0.00614  -0.00749   0.00007  -0.00176  -0.00057
  11        4PX         0.00129   0.00121   0.00077   0.00006  -0.00008
  12        4PY        -0.00022  -0.00031   0.00011  -0.00063  -0.00027
  13        4PZ        -0.00044  -0.00046   0.00008  -0.00061  -0.00022
  14        5S          0.00426   0.00519  -0.00133  -0.00041   0.00546
  15        5PX        -0.00021  -0.00031   0.00029   0.00079  -0.00044
  16        5PY         0.00008   0.00008   0.00008   0.00035   0.00130
  17        5PZ         0.00040   0.00008  -0.00018  -0.00003   0.00114
  18        6D 0       -0.00005  -0.00007   0.00001   0.00002   0.00004
  19        6D+1        0.00009   0.00012   0.00004   0.00002   0.00007
  20        6D-1        0.00002   0.00004   0.00000  -0.00006  -0.00009
  21        6D+2        0.00006   0.00009   0.00000  -0.00004  -0.00008
  22        6D-2        0.00011   0.00014   0.00002   0.00001   0.00005
  23 2   C  1S          0.00001   0.00001  -0.00000   0.01089   0.41697
  24        2S         -0.00002  -0.00005   0.00001   0.00899   0.34309
  25        2PX         0.00005   0.00010  -0.00005  -0.00039   0.00056
  26        2PY        -0.00008  -0.00008  -0.00006  -0.00025  -0.00037
  27        2PZ        -0.00006  -0.00008  -0.00002  -0.00023  -0.00038
  28        3S         -0.00023   0.00014  -0.00003   0.00018   0.01392
  29        3PX         0.00022   0.00011   0.00027   0.00093  -0.00070
  30        3PY         0.00022   0.00014   0.00028   0.00080   0.00117
  31        3PZ         0.00010   0.00009   0.00013   0.00069   0.00103
  32        4S          0.00523   0.00294   0.00002   0.00729  -0.01037
  33        4PX        -0.00069   0.00102   0.00031  -0.00189   0.00056
  34        4PY        -0.00121  -0.00105   0.00054  -0.00139   0.00049
  35        4PZ        -0.00089  -0.00092  -0.00044  -0.00102   0.00040
  36        5S         -0.01549  -0.00594   0.00518  -0.00536  -0.01739
  37        5PX         0.00242   0.00053  -0.00099   0.00138   0.00405
  38        5PY         0.00233   0.00136  -0.00126   0.00092   0.00070
  39        5PZ         0.00149   0.00125   0.00014  -0.00002   0.00042
  40        6D 0        0.00005   0.00003   0.00003   0.00024   0.00035
  41        6D+1        0.00010   0.00009  -0.00002  -0.00045   0.00034
  42        6D-1       -0.00009  -0.00007  -0.00006  -0.00038  -0.00037
  43        6D+2       -0.00001  -0.00006  -0.00004  -0.00046  -0.00060
  44        6D-2        0.00005   0.00008  -0.00016  -0.00054   0.00017
  45 3   C  1S          0.00000   0.00000   0.00001   0.56284  -0.00075
  46        2S         -0.00001  -0.00000  -0.00003   0.46316  -0.00062
  47        2PX        -0.00001   0.00005  -0.00000  -0.00000   0.00058
  48        2PY         0.00003   0.00000  -0.00014  -0.00081   0.00002
  49        2PZ         0.00000   0.00000   0.00005   0.00047   0.00001
  50        3S          0.00019   0.00003  -0.00023   0.01890  -0.00002
  51        3PX         0.00005  -0.00033   0.00000   0.00000  -0.00132
  52        3PY        -0.00017  -0.00003  -0.00024   0.00084  -0.00004
  53        3PZ        -0.00006  -0.00001  -0.00024  -0.00154  -0.00005
  54        4S         -0.00325  -0.00048   0.00449  -0.02140   0.00027
  55        4PX         0.00007  -0.00046   0.00000   0.00000   0.00210
  56        4PY        -0.00319  -0.00047  -0.00220  -0.00118   0.00009
  57        4PZ        -0.00094  -0.00014   0.00008  -0.00279  -0.00001
  58        5S          0.03108   0.00457  -0.01234   0.00916   0.00155
  59        5PX         0.00001  -0.00008   0.00000  -0.00000   0.00442
  60        5PY         0.00343   0.00050   0.00067   0.00069   0.00017
  61        5PZ         0.00332   0.00049  -0.00265   0.00255   0.00013
  62        6D 0        0.00011   0.00002   0.00018   0.00107   0.00003
  63        6D+1        0.00001  -0.00009  -0.00000  -0.00000  -0.00057
  64        6D-1       -0.00007  -0.00001   0.00004   0.00011  -0.00001
  65        6D+2       -0.00018  -0.00003   0.00007   0.00027  -0.00001
  66        6D-2        0.00001  -0.00009  -0.00000  -0.00000  -0.00086
  67 4   O  1S          0.00087   0.00013   0.55133  -0.00002   0.00000
  68        2S          0.00072   0.00011   0.46972  -0.00005   0.00000
  69        2PX         0.00000  -0.00002  -0.00000  -0.00000   0.00002
  70        2PY        -0.00003  -0.00000   0.00096   0.00015   0.00000
  71        2PZ         0.00001   0.00000   0.00083  -0.00001  -0.00000
  72        3S          0.00030   0.00004   0.01377   0.00037  -0.00001
  73        3PX        -0.00002   0.00011  -0.00000   0.00000  -0.00010
  74        3PY         0.00018   0.00003  -0.00000  -0.00002  -0.00001
  75        3PZ        -0.00005  -0.00001   0.00013  -0.00020   0.00000
  76        4S         -0.00094  -0.00014  -0.01042  -0.00001  -0.00001
  77        4PX         0.00006  -0.00043  -0.00000   0.00000   0.00011
  78        4PY        -0.00099  -0.00015  -0.00191   0.00037   0.00001
  79        4PZ        -0.00015  -0.00002   0.00078  -0.00037   0.00003
  80        5S         -0.00545  -0.00080   0.00949   0.00650   0.00017
  81        5PX        -0.00005   0.00036  -0.00000  -0.00000  -0.00005
  82        5PY        -0.00142  -0.00021   0.00137   0.00218   0.00006
  83        5PZ        -0.00023  -0.00003   0.00146   0.00107   0.00007
  84        6D 0       -0.00004  -0.00001   0.00027  -0.00004   0.00000
  85        6D+1        0.00000  -0.00000  -0.00000   0.00000   0.00004
  86        6D-1        0.00003   0.00000  -0.00001   0.00011   0.00000
  87        6D+2        0.00004   0.00001   0.00004   0.00022   0.00000
  88        6D-2        0.00001  -0.00004   0.00000  -0.00000   0.00003
  89 5   C  1S          0.00001  -0.00001  -0.00000   0.01089  -0.37835
  90        2S         -0.00004   0.00005   0.00001   0.00899  -0.31131
  91        2PX        -0.00008   0.00008   0.00005   0.00039   0.00051
  92        2PY        -0.00010   0.00005  -0.00006  -0.00025   0.00033
  93        2PZ        -0.00008   0.00006  -0.00002  -0.00023   0.00034
  94        3S         -0.00018  -0.00020  -0.00003   0.00018  -0.01264
  95        3PX        -0.00025   0.00004  -0.00027  -0.00093  -0.00066
  96        3PY         0.00025  -0.00007   0.00028   0.00080  -0.00105
  97        3PZ         0.00013  -0.00006   0.00013   0.00069  -0.00091
  98        4S          0.00586  -0.00131   0.00002   0.00729   0.00927
  99        4PX         0.00037   0.00118  -0.00031   0.00189   0.00055
 100        4PY        -0.00146   0.00065   0.00054  -0.00139  -0.00031
 101        4PZ        -0.00111   0.00063  -0.00044  -0.00102  -0.00026
 102        5S         -0.01654   0.00123   0.00518  -0.00536   0.01561
 103        5PX        -0.00247  -0.00019   0.00099  -0.00138   0.00378
 104        5PY         0.00262  -0.00063  -0.00126   0.00092  -0.00049
 105        5PZ         0.00179  -0.00077   0.00015  -0.00002  -0.00027
 106        6D 0        0.00006  -0.00002   0.00003   0.00024  -0.00032
 107        6D+1       -0.00012   0.00005   0.00002   0.00045   0.00032
 108        6D-1       -0.00010   0.00004  -0.00006  -0.00038   0.00033
 109        6D+2       -0.00003   0.00006  -0.00004  -0.00046   0.00054
 110        6D-2       -0.00007   0.00006   0.00016   0.00054   0.00017
 111 6   O  1S          0.44240  -0.32901  -0.00062   0.00000   0.00002
 112        2S          0.37692  -0.28032  -0.00055  -0.00000   0.00005
 113        2PX        -0.00004   0.00002  -0.00002   0.00001  -0.00004
 114        2PY         0.00075  -0.00055   0.00000   0.00001  -0.00004
 115        2PZ         0.00072  -0.00053   0.00001   0.00001  -0.00004
 116        3S          0.01100  -0.00804   0.00010   0.00017  -0.00043
 117        3PX        -0.00002   0.00008   0.00011  -0.00002  -0.00016
 118        3PY        -0.00001  -0.00002  -0.00001  -0.00003  -0.00001
 119        3PZ         0.00002  -0.00002  -0.00003  -0.00004  -0.00002
 120        4S         -0.00803   0.00541   0.00007  -0.00176   0.00060
 121        4PX        -0.00158   0.00079  -0.00077  -0.00006   0.00001
 122        4PY        -0.00030   0.00024   0.00011  -0.00063   0.00027
 123        4PZ        -0.00055   0.00031   0.00008  -0.00061   0.00022
 124        5S          0.00557  -0.00375  -0.00133  -0.00041  -0.00482
 125        5PX         0.00029  -0.00023  -0.00029  -0.00079  -0.00047
 126        5PY         0.00010  -0.00005   0.00008   0.00035  -0.00117
 127        5PZ         0.00041   0.00004  -0.00018  -0.00003  -0.00103
 128        6D 0       -0.00006   0.00005   0.00001   0.00002  -0.00004
 129        6D+1       -0.00013   0.00009  -0.00004  -0.00002   0.00006
 130        6D-1        0.00003  -0.00003   0.00000  -0.00006   0.00008
 131        6D+2        0.00008  -0.00007   0.00000  -0.00004   0.00007
 132        6D-2       -0.00014   0.00011  -0.00002  -0.00001   0.00005
 133 7   H  1S          0.00001  -0.00000   0.00003  -0.00007  -0.00003
 134        2S         -0.00011  -0.00010  -0.00047   0.00109   0.00048
 135        3S         -0.00077  -0.00104   0.00021  -0.00076  -0.00221
 136        4PX         0.00032   0.00052   0.00005  -0.00028  -0.00020
 137        4PY         0.00028   0.00034   0.00004  -0.00007  -0.00003
 138        4PZ         0.00023   0.00029   0.00009  -0.00001  -0.00000
 139 8   H  1S          0.00007   0.00000   0.00004  -0.00011   0.00003
 140        2S         -0.00105  -0.00058  -0.00011  -0.00103  -0.00201
 141        3S          0.00007   0.00006  -0.00003   0.00053   0.00368
 142        4PX        -0.00004  -0.00012   0.00007  -0.00009   0.00007
 143        4PY         0.00005   0.00010   0.00006  -0.00009  -0.00024
 144        4PZ         0.00026   0.00022   0.00010   0.00033   0.00152
 145 9   H  1S          0.00004  -0.00000   0.00001  -0.00006   0.00007
 146        2S         -0.00087  -0.00052  -0.00035  -0.00131  -0.00215
 147        3S          0.00012   0.00011   0.00015   0.00063   0.00375
 148        4PX        -0.00008  -0.00012  -0.00006  -0.00012  -0.00016
 149        4PY         0.00021   0.00020   0.00008   0.00042   0.00154
 150        4PZ         0.00003   0.00008  -0.00000  -0.00014  -0.00041
 151 10  H  1S          0.00005   0.00001   0.00009  -0.00007  -0.00001
 152        2S         -0.00021  -0.00003  -0.00163  -0.00248  -0.00006
 153        3S         -0.00144  -0.00021  -0.00005   0.00324  -0.00006
 154        4PX         0.00003  -0.00017   0.00000   0.00000   0.00010
 155        4PY         0.00010   0.00001   0.00017   0.00001   0.00000
 156        4PZ        -0.00016  -0.00002  -0.00036  -0.00223  -0.00002
 157 11  H  1S         -0.00006  -0.00001   0.00009  -0.00023   0.00000
 158        2S          0.00092   0.00013  -0.00036   0.00150  -0.00004
 159        3S          0.00026   0.00004  -0.00311  -0.00350  -0.00013
 160        4PX        -0.00000   0.00003  -0.00000   0.00000   0.00002
 161        4PY         0.00013   0.00002   0.00003   0.00038  -0.00000
 162        4PZ        -0.00014  -0.00002   0.00084  -0.00039   0.00001
 163 12  H  1S          0.00006   0.00002   0.00004  -0.00011  -0.00003
 164        2S         -0.00117   0.00025  -0.00011  -0.00103   0.00181
 165        3S          0.00008  -0.00004  -0.00003   0.00053  -0.00347
 166        4PX         0.00007  -0.00010  -0.00007   0.00009   0.00005
 167        4PY         0.00008  -0.00008   0.00006  -0.00009   0.00021
 168        4PZ         0.00031  -0.00014   0.00010   0.00033  -0.00137
 169 13  H  1S          0.00003   0.00001   0.00001  -0.00006  -0.00006
 170        2S         -0.00098   0.00024  -0.00035  -0.00131   0.00193
 171        3S          0.00015  -0.00007   0.00015   0.00063  -0.00352
 172        4PX         0.00012  -0.00009   0.00006   0.00012  -0.00015
 173        4PY         0.00026  -0.00013   0.00008   0.00042  -0.00139
 174        4PZ         0.00005  -0.00007  -0.00000  -0.00014   0.00036
 175 14  H  1S          0.00001   0.00001   0.00003  -0.00007   0.00003
 176        2S         -0.00013   0.00006  -0.00047   0.00109  -0.00044
 177        3S         -0.00104   0.00078   0.00021  -0.00076   0.00198
 178        4PX        -0.00046   0.00041  -0.00005   0.00028  -0.00018
 179        4PY         0.00037  -0.00024   0.00004  -0.00007   0.00002
 180        4PZ         0.00031  -0.00021   0.00009  -0.00001   0.00000
                           6         7         8         9        10
                           O         O         O         O         O
     Eigenvalues --   -10.22558  -1.04696  -1.03314  -1.02141  -0.77873
   1 1   O  1S         -0.00001  -0.05403  -0.07937   0.05749   0.02222
   2        2S         -0.00004  -0.08638  -0.12699   0.09201   0.03581
   3        2PX        -0.00008  -0.00312  -0.00025  -0.00256  -0.03915
   4        2PY         0.00005   0.01595   0.02437  -0.01839  -0.00335
   5        2PZ         0.00006   0.01646   0.02385  -0.01704  -0.00125
   6        3S          0.00023   0.24907   0.36778  -0.26659  -0.10712
   7        3PX         0.00002  -0.00542  -0.00221  -0.00262  -0.05775
   8        3PY        -0.00004   0.02557   0.03865  -0.02913  -0.00522
   9        3PZ        -0.00005   0.02643   0.03802  -0.02694  -0.00206
  10        4S          0.00033   0.18238   0.26766  -0.19942  -0.08541
  11        4PX        -0.00088  -0.01092  -0.00660   0.00309  -0.02964
  12        4PY        -0.00004   0.00971   0.01597  -0.01287  -0.00102
  13        4PZ         0.00007   0.01108   0.01589  -0.01233   0.00020
  14        5S          0.00641  -0.02048  -0.03284   0.02544  -0.00631
  15        5PX         0.00030   0.00173   0.00570  -0.00445  -0.00048
  16        5PY         0.00126  -0.00275  -0.00285   0.00092  -0.00102
  17        5PZ         0.00108  -0.00276  -0.00270   0.00378   0.00099
  18        6D 0        0.00003  -0.00172  -0.00229   0.00157   0.00003
  19        6D+1        0.00007  -0.00095  -0.00069   0.00008  -0.00338
  20        6D-1       -0.00008   0.00331   0.00489  -0.00359  -0.00067
  21        6D+2       -0.00005   0.00297   0.00386  -0.00257   0.00045
  22        6D-2        0.00005   0.00008   0.00039  -0.00038  -0.00371
  23 2   C  1S          0.37819  -0.02620  -0.02830   0.01536  -0.05417
  24        2S          0.31121  -0.04039  -0.04356   0.02364  -0.08414
  25        2PX         0.00047   0.01213   0.02672  -0.02351  -0.04134
  26        2PY        -0.00035  -0.01254  -0.01182   0.00365  -0.00303
  27        2PZ        -0.00038  -0.01011  -0.01372   0.00953  -0.00381
  28        3S          0.01258   0.10516   0.11261  -0.06261   0.22648
  29        3PX        -0.00037   0.01737   0.04524  -0.04090  -0.06050
  30        3PY         0.00117  -0.02552  -0.02188   0.00636  -0.01008
  31        3PZ         0.00114  -0.02077  -0.02470   0.01533  -0.01140
  32        4S         -0.01087   0.01511   0.02765   0.00193   0.10750
  33        4PX         0.00010   0.00802   0.00616  -0.01043  -0.01393
  34        4PY         0.00184  -0.00034   0.00279  -0.00917   0.00506
  35        4PZ         0.00141   0.00299   0.00134  -0.00277   0.00023
  36        5S         -0.01753   0.06363   0.05684  -0.12069   0.08231
  37        5PX         0.00256  -0.00594  -0.00141   0.01827  -0.01759
  38        5PY         0.00211  -0.00769  -0.01081   0.01956  -0.00936
  39        5PZ         0.00148  -0.00935  -0.01014   0.00837  -0.00130
  40        6D 0        0.00033  -0.00454  -0.00406   0.00199  -0.00185
  41        6D+1        0.00019  -0.00567  -0.01017   0.00824   0.00543
  42        6D-1       -0.00041   0.00514   0.00512  -0.00242   0.00229
  43        6D+2       -0.00062   0.00729   0.00844  -0.00570   0.00315
  44        6D-2       -0.00002  -0.00244  -0.00853   0.00885   0.00500
  45 3   C  1S         -0.01543  -0.03654   0.00000  -0.02264  -0.07142
  46        2S         -0.01267  -0.05636   0.00000  -0.03494  -0.11091
  47        2PX        -0.00003  -0.00000   0.01240  -0.00000  -0.00000
  48        2PY         0.00039  -0.02552   0.00000  -0.03396   0.04448
  49        2PZ         0.00030   0.01028   0.00000   0.00962   0.00590
  50        3S         -0.00046   0.14532  -0.00001   0.09325   0.29661
  51        3PX         0.00006  -0.00000   0.02534  -0.00000  -0.00000
  52        3PY        -0.00082  -0.04094   0.00000  -0.05781   0.06390
  53        3PZ        -0.00096   0.02258   0.00000   0.01822   0.01497
  54        4S          0.00554   0.06726  -0.00000  -0.00490   0.19767
  55        4PX        -0.00010  -0.00000   0.01321  -0.00000  -0.00001
  56        4PY         0.00192   0.01429   0.00000  -0.01581   0.03076
  57        4PZ        -0.00026   0.01551   0.00000   0.00482   0.02029
  58        5S          0.03183  -0.09093  -0.00000   0.24658  -0.16458
  59        5PX        -0.00022  -0.00000  -0.01565  -0.00001   0.00000
  60        5PY         0.00353  -0.01873  -0.00000   0.01615  -0.01314
  61        5PZ         0.00273  -0.00101  -0.00000   0.03379  -0.02872
  62        6D 0        0.00052  -0.00879   0.00000  -0.00450  -0.00242
  63        6D+1        0.00003   0.00000   0.00281  -0.00000   0.00000
  64        6D-1       -0.00029  -0.00750   0.00000  -0.00928   0.00774
  65        6D+2       -0.00023  -0.00891  -0.00000  -0.01643   0.00581
  66        6D-2        0.00004   0.00000   0.00387   0.00000  -0.00000
  67 4   O  1S          0.00000  -0.07547   0.00000  -0.08146   0.03333
  68        2S          0.00002  -0.12064   0.00001  -0.13036   0.05370
  69        2PX        -0.00000  -0.00001   0.00227  -0.00001   0.00001
  70        2PY         0.00006   0.02828  -0.00000   0.02557   0.02982
  71        2PZ        -0.00000   0.01914  -0.00000   0.02312  -0.03188
  72        3S         -0.00011   0.34728  -0.00002   0.37797  -0.16011
  73        3PX         0.00000  -0.00001   0.00299  -0.00001   0.00001
  74        3PY        -0.00030   0.04536  -0.00000   0.04218   0.04361
  75        3PZ         0.00001   0.02945  -0.00000   0.03523  -0.04713
  76        4S         -0.00023   0.25876  -0.00002   0.27874  -0.13379
  77        4PX        -0.00001  -0.00000   0.00357  -0.00000   0.00000
  78        4PY         0.00025   0.02705  -0.00000   0.02012   0.02184
  79        4PZ         0.00063   0.00841   0.00000   0.00856  -0.02111
  80        5S          0.00354  -0.03151   0.00000  -0.07193  -0.02529
  81        5PX         0.00000   0.00000  -0.00215   0.00000   0.00000
  82        5PY         0.00126  -0.00783   0.00000  -0.01835  -0.00583
  83        5PZ         0.00141  -0.00934  -0.00000  -0.00807  -0.01456
  84        6D 0        0.00006   0.00277  -0.00000   0.00360  -0.00610
  85        6D+1       -0.00000  -0.00000  -0.00001  -0.00000   0.00000
  86        6D-1        0.00006  -0.00154   0.00000  -0.00127   0.00001
  87        6D+2        0.00005  -0.00582   0.00000  -0.00545  -0.00287
  88        6D-2       -0.00000   0.00000   0.00069   0.00000  -0.00000
  89 5   C  1S          0.41683  -0.02620   0.02830   0.01536  -0.05417
  90        2S          0.34300  -0.04039   0.04356   0.02365  -0.08414
  91        2PX        -0.00053  -0.01212   0.02671   0.02351   0.04134
  92        2PY        -0.00038  -0.01254   0.01182   0.00365  -0.00303
  93        2PZ        -0.00042  -0.01011   0.01373   0.00954  -0.00379
  94        3S          0.01387   0.10516  -0.11261  -0.06261   0.22648
  95        3PX         0.00044  -0.01736   0.04522   0.04089   0.06050
  96        3PY         0.00127  -0.02552   0.02188   0.00636  -0.01008
  97        3PZ         0.00124  -0.02078   0.02472   0.01535  -0.01138
  98        4S         -0.01183   0.01511  -0.02765   0.00193   0.10750
  99        4PX        -0.00015  -0.00802   0.00616   0.01043   0.01393
 100        4PY         0.00188  -0.00034  -0.00279  -0.00917   0.00506
 101        4PZ         0.00144   0.00299  -0.00134  -0.00277   0.00024
 102        5S         -0.01914   0.06362  -0.05684  -0.12070   0.08230
 103        5PX        -0.00294   0.00594  -0.00142  -0.01828   0.01759
 104        5PY         0.00217  -0.00769   0.01081   0.01956  -0.00936
 105        5PZ         0.00151  -0.00935   0.01014   0.00836  -0.00129
 106        6D 0        0.00037  -0.00454   0.00405   0.00199  -0.00185
 107        6D+1       -0.00022   0.00567  -0.01017  -0.00825  -0.00542
 108        6D-1       -0.00044   0.00514  -0.00512  -0.00242   0.00229
 109        6D+2       -0.00068   0.00729  -0.00843  -0.00569   0.00315
 110        6D-2        0.00001   0.00244  -0.00853  -0.00885  -0.00500
 111 6   O  1S         -0.00002  -0.05403   0.07937   0.05750   0.02222
 112        2S         -0.00004  -0.08637   0.12699   0.09202   0.03581
 113        2PX         0.00009   0.00311  -0.00024   0.00257   0.03915
 114        2PY         0.00005   0.01594  -0.02437  -0.01840  -0.00335
 115        2PZ         0.00006   0.01646  -0.02385  -0.01704  -0.00123
 116        3S          0.00028   0.24905  -0.36778  -0.26661  -0.10712
 117        3PX        -0.00001   0.00540  -0.00219   0.00263   0.05775
 118        3PY        -0.00004   0.02557  -0.03865  -0.02913  -0.00522
 119        3PZ        -0.00004   0.02643  -0.03803  -0.02695  -0.00204
 120        4S          0.00027   0.18236  -0.26766  -0.19944  -0.08541
 121        4PX         0.00088   0.01091  -0.00659  -0.00309   0.02963
 122        4PY        -0.00007   0.00971  -0.01597  -0.01287  -0.00102
 123        4PZ         0.00005   0.01109  -0.01589  -0.01233   0.00021
 124        5S          0.00691  -0.02047   0.03284   0.02544  -0.00631
 125        5PX        -0.00025  -0.00172   0.00570   0.00445   0.00048
 126        5PY         0.00138  -0.00275   0.00285   0.00092  -0.00102
 127        5PZ         0.00118  -0.00276   0.00270   0.00378   0.00099
 128        6D 0        0.00003  -0.00172   0.00228   0.00157   0.00004
 129        6D+1       -0.00007   0.00095  -0.00069  -0.00008   0.00339
 130        6D-1       -0.00009   0.00331  -0.00488  -0.00359  -0.00067
 131        6D+2       -0.00006   0.00297  -0.00386  -0.00257   0.00045
 132        6D-2       -0.00006  -0.00008   0.00039   0.00038   0.00371
 133 7   H  1S         -0.00001   0.04264   0.06518  -0.04891  -0.03999
 134        2S          0.00041   0.03564   0.05222  -0.03810  -0.03939
 135        3S         -0.00227   0.00144   0.00174  -0.00217  -0.00282
 136        4PX        -0.00016  -0.01015  -0.01538   0.01107   0.00638
 137        4PY        -0.00006  -0.00417  -0.00600   0.00448   0.00421
 138        4PZ        -0.00002  -0.00336  -0.00460   0.00329   0.00353
 139 8   H  1S          0.00005   0.01073   0.01091  -0.00510   0.03540
 140        2S         -0.00195   0.01824   0.01666  -0.00992   0.04278
 141        3S          0.00201  -0.00580  -0.00583   0.00241  -0.00511
 142        4PX         0.00021  -0.00039   0.00036  -0.00069  -0.00240
 143        4PY        -0.00031  -0.00045  -0.00012  -0.00049   0.00078
 144        4PZ         0.00142  -0.00528  -0.00505   0.00270  -0.00796
 145 9   H  1S          0.00004   0.00945   0.01081  -0.00685   0.03999
 146        2S         -0.00218   0.01802   0.01635  -0.01044   0.04735
 147        3S          0.00217  -0.00600  -0.00610   0.00242  -0.00795
 148        4PX        -0.00004   0.00063   0.00106  -0.00073  -0.00159
 149        4PY         0.00144  -0.00517  -0.00499   0.00268  -0.00879
 150        4PZ        -0.00047   0.00065   0.00042  -0.00016   0.00177
 151 10  H  1S         -0.00016   0.01491  -0.00000   0.00728   0.04822
 152        2S         -0.00121   0.02552  -0.00000   0.01872   0.05644
 153        3S         -0.00121   0.00374   0.00000  -0.00803   0.00112
 154        4PX        -0.00000  -0.00000   0.00136  -0.00000  -0.00000
 155        4PY         0.00007  -0.00134   0.00000  -0.00084   0.00190
 156        4PZ        -0.00043   0.00733  -0.00000   0.00424   0.01087
 157 11  H  1S          0.00001   0.06074  -0.00000   0.06748  -0.04805
 158        2S         -0.00073   0.04485  -0.00000   0.05986  -0.05181
 159        3S         -0.00274   0.01592  -0.00000   0.01304   0.02720
 160        4PX        -0.00000   0.00000   0.00010   0.00000  -0.00000
 161        4PY        -0.00009   0.00323  -0.00000   0.00426   0.00098
 162        4PZ         0.00013  -0.01500   0.00000  -0.01787   0.01112
 163 12  H  1S          0.00005   0.01073  -0.01091  -0.00510   0.03540
 164        2S         -0.00214   0.01824  -0.01666  -0.00992   0.04278
 165        3S          0.00236  -0.00580   0.00583   0.00241  -0.00511
 166        4PX        -0.00022   0.00039   0.00035   0.00069   0.00240
 167        4PY        -0.00033  -0.00045   0.00012  -0.00049   0.00078
 168        4PZ         0.00156  -0.00528   0.00505   0.00270  -0.00796
 169 13  H  1S          0.00005   0.00945  -0.01081  -0.00685   0.03999
 170        2S         -0.00238   0.01802  -0.01635  -0.01044   0.04735
 171        3S          0.00252  -0.00600   0.00610   0.00242  -0.00795
 172        4PX         0.00005  -0.00063   0.00106   0.00073   0.00159
 173        4PY         0.00158  -0.00517   0.00499   0.00268  -0.00879
 174        4PZ        -0.00051   0.00065  -0.00042  -0.00016   0.00177
 175 14  H  1S         -0.00002   0.04263  -0.06518  -0.04891  -0.03999
 176        2S          0.00045   0.03564  -0.05222  -0.03810  -0.03939
 177        3S         -0.00247   0.00144  -0.00174  -0.00217  -0.00282
 178        4PX         0.00017   0.01016  -0.01538  -0.01108  -0.00638
 179        4PY        -0.00006  -0.00417   0.00600   0.00448   0.00421
 180        4PZ        -0.00002  -0.00336   0.00459   0.00328   0.00353
                          11        12        13        14        15
                           O         O         O         O         O
     Eigenvalues --    -0.68325  -0.61780  -0.53245  -0.52306  -0.50498
   1 1   O  1S          0.02363  -0.01103   0.00543   0.01745  -0.00434
   2        2S          0.03813  -0.01785   0.00896   0.02843  -0.00704
   3        2PX        -0.08092   0.02181   0.15794   0.11087   0.01803
   4        2PY         0.00128  -0.01542   0.01181   0.04625   0.01543
   5        2PZ         0.00894  -0.01943   0.00399   0.03396  -0.04811
   6        3S         -0.11429   0.05379  -0.02906  -0.08736   0.02111
   7        3PX        -0.11910   0.03217   0.22915   0.16009   0.02619
   8        3PY         0.00183  -0.02234   0.01524   0.06572   0.02331
   9        3PZ         0.01348  -0.02821   0.00412   0.04791  -0.07101
  10        4S         -0.10131   0.04940  -0.04081  -0.10940   0.02295
  11        4PX        -0.06238   0.01609   0.14824   0.10922   0.01662
  12        4PY         0.00347  -0.01810   0.01025   0.04867   0.01713
  13        4PZ         0.00848  -0.02153   0.00407   0.03599  -0.05468
  14        5S         -0.02835   0.00826   0.01317  -0.03130   0.01649
  15        5PX         0.00831   0.00454   0.00269  -0.01785   0.01384
  16        5PY         0.00012   0.00084   0.00239  -0.01066   0.00697
  17        5PZ        -0.00048   0.00109   0.00293  -0.00919   0.00368
  18        6D 0        0.00075  -0.00159  -0.00043   0.00123  -0.00504
  19        6D+1       -0.00694   0.00280   0.00998   0.00592   0.00383
  20        6D-1        0.00043  -0.00214   0.00073   0.00468  -0.00187
  21        6D+2       -0.00006   0.00207  -0.00016  -0.00354  -0.00045
  22        6D-2       -0.00698   0.00285   0.01076   0.00570  -0.00041
  23 2   C  1S         -0.07044   0.03779   0.00627  -0.01866   0.00748
  24        2S         -0.11005   0.05910   0.01044  -0.02908   0.01197
  25        2PX        -0.00875  -0.01715  -0.07032  -0.00498  -0.03916
  26        2PY        -0.00066  -0.03281   0.03177   0.07471   0.04917
  27        2PZ         0.00317  -0.03641   0.05128   0.07006  -0.07817
  28        3S          0.30034  -0.16194  -0.03405   0.07718  -0.03513
  29        3PX        -0.00670  -0.03227  -0.10920  -0.00991  -0.05954
  30        3PY        -0.00745  -0.04787   0.05249   0.11129   0.07469
  31        3PZ        -0.00251  -0.05175   0.08067   0.10516  -0.11356
  32        4S          0.20063  -0.09835  -0.02642   0.09485  -0.01558
  33        4PX        -0.00487  -0.01606  -0.04103   0.01401  -0.03828
  34        4PY        -0.00057  -0.02803   0.02593   0.05735   0.04274
  35        4PZ         0.00631  -0.03207   0.03833   0.05371  -0.07315
  36        5S          0.05669   0.05138   0.00532   0.14606  -0.01616
  37        5PX        -0.02649  -0.01308   0.00247   0.00113  -0.00107
  38        5PY         0.00299  -0.00731  -0.00230  -0.02408   0.01222
  39        5PZ         0.00600  -0.00297  -0.00145  -0.01788  -0.00228
  40        6D 0        0.00208  -0.00109  -0.00143   0.00198  -0.00346
  41        6D+1       -0.00035   0.00521   0.01450   0.00864   0.00446
  42        6D-1        0.00249   0.00637  -0.01099  -0.01425  -0.00042
  43        6D+2       -0.00316   0.00108   0.00117  -0.00164  -0.00106
  44        6D-2       -0.00041   0.00629   0.01443   0.00677   0.00158
  45 3   C  1S          0.00000  -0.05779  -0.02275   0.00000  -0.00982
  46        2S          0.00000  -0.09112  -0.03568   0.00000  -0.01497
  47        2PX         0.07508   0.00001  -0.00001  -0.04618   0.00001
  48        2PY         0.00000  -0.04954   0.01855   0.00000   0.09991
  49        2PZ         0.00002  -0.05961   0.03917  -0.00001  -0.07324
  50        3S         -0.00000   0.25895   0.09818  -0.00000   0.04114
  51        3PX         0.11691   0.00002  -0.00001  -0.06560   0.00002
  52        3PY         0.00000  -0.08441   0.02181   0.00000   0.15644
  53        3PZ         0.00003  -0.08374   0.05755  -0.00002  -0.10922
  54        4S         -0.00000   0.14833   0.09672  -0.00000   0.00655
  55        4PX         0.04028   0.00001  -0.00001  -0.05064   0.00002
  56        4PY         0.00000  -0.03678   0.02041   0.00000   0.07253
  57        4PZ         0.00001  -0.05362   0.05273  -0.00002  -0.08614
  58        5S          0.00000  -0.12901  -0.01156  -0.00000   0.03411
  59        5PX         0.01461   0.00001  -0.00001  -0.13103   0.00001
  60        5PY         0.00000  -0.02190   0.00612  -0.00000  -0.01814
  61        5PZ         0.00000  -0.03424   0.01044  -0.00003  -0.01142
  62        6D 0        0.00000  -0.00059   0.00375   0.00000   0.00881
  63        6D+1        0.01167  -0.00000  -0.00000   0.00207  -0.00000
  64        6D-1        0.00000  -0.00286   0.00151   0.00000   0.00366
  65        6D+2       -0.00000  -0.01144  -0.00936   0.00000   0.00950
  66        6D-2        0.01182  -0.00000  -0.00000   0.00425  -0.00000
  67 4   O  1S         -0.00000   0.00903   0.00627  -0.00000  -0.00339
  68        2S         -0.00000   0.01449   0.01014  -0.00000  -0.00541
  69        2PX         0.01791   0.00002  -0.00000  -0.02786  -0.00002
  70        2PY         0.00000   0.07712   0.02842  -0.00000  -0.10652
  71        2PZ         0.00000  -0.10921   0.00572  -0.00000   0.08724
  72        3S          0.00000  -0.04267  -0.02924   0.00000   0.01529
  73        3PX         0.02671   0.00004  -0.00000  -0.04119  -0.00003
  74        3PY         0.00000   0.11396   0.04148  -0.00001  -0.15590
  75        3PZ         0.00001  -0.15878   0.00826  -0.00001   0.12588
  76        4S          0.00000  -0.03082  -0.04161   0.00000   0.01231
  77        4PX         0.01823   0.00002  -0.00000  -0.03330  -0.00002
  78        4PY         0.00000   0.06771   0.02439  -0.00000  -0.10395
  79        4PZ         0.00000  -0.09180   0.00518  -0.00001   0.07836
  80        5S          0.00000  -0.02404  -0.03084   0.00000   0.06655
  81        5PX        -0.00578   0.00000   0.00000   0.00625  -0.00001
  82        5PY         0.00000  -0.00452  -0.00283   0.00000   0.01309
  83        5PZ        -0.00000  -0.00181  -0.01610   0.00000   0.03132
  84        6D 0        0.00000  -0.01100  -0.00156   0.00000   0.01195
  85        6D+1        0.00033   0.00000  -0.00000  -0.00013  -0.00000
  86        6D-1        0.00000  -0.00541   0.00252  -0.00000  -0.00112
  87        6D+2       -0.00000  -0.00621  -0.00264   0.00000   0.00704
  88        6D-2        0.00363   0.00000  -0.00000  -0.00332   0.00000
  89 5   C  1S          0.07044   0.03779   0.00627   0.01866   0.00748
  90        2S          0.11005   0.05910   0.01045   0.02908   0.01197
  91        2PX        -0.00875   0.01717   0.07029  -0.00495   0.03919
  92        2PY         0.00066  -0.03281   0.03177  -0.07471   0.04918
  93        2PZ        -0.00317  -0.03641   0.05130  -0.07007  -0.07815
  94        3S         -0.30034  -0.16194  -0.03406  -0.07717  -0.03513
  95        3PX        -0.00671   0.03230   0.10916  -0.00987   0.05959
  96        3PY         0.00745  -0.04787   0.05248  -0.11130   0.07470
  97        3PZ         0.00251  -0.05174   0.08071  -0.10517  -0.11353
  98        4S         -0.20063  -0.09835  -0.02643  -0.09485  -0.01558
  99        4PX        -0.00487   0.01607   0.04102   0.01403   0.03831
 100        4PY         0.00057  -0.02803   0.02592  -0.05735   0.04274
 101        4PZ        -0.00631  -0.03206   0.03835  -0.05371  -0.07313
 102        5S         -0.05670   0.05138   0.00530  -0.14606  -0.01614
 103        5PX        -0.02649   0.01308  -0.00247   0.00112   0.00107
 104        5PY        -0.00299  -0.00731  -0.00230   0.02408   0.01222
 105        5PZ        -0.00601  -0.00296  -0.00145   0.01788  -0.00228
 106        6D 0       -0.00208  -0.00109  -0.00144  -0.00197  -0.00347
 107        6D+1       -0.00035  -0.00521  -0.01450   0.00864  -0.00446
 108        6D-1       -0.00249   0.00636  -0.01100   0.01426  -0.00043
 109        6D+2        0.00316   0.00108   0.00118   0.00163  -0.00106
 110        6D-2       -0.00041  -0.00629  -0.01442   0.00677  -0.00159
 111 6   O  1S         -0.02363  -0.01103   0.00543  -0.01745  -0.00434
 112        2S         -0.03814  -0.01785   0.00896  -0.02843  -0.00703
 113        2PX        -0.08091  -0.02180  -0.15793   0.11090  -0.01802
 114        2PY        -0.00128  -0.01542   0.01180  -0.04625   0.01543
 115        2PZ        -0.00898  -0.01944   0.00392  -0.03392  -0.04811
 116        3S          0.11430   0.05379  -0.02905   0.08737   0.02110
 117        3PX        -0.11910  -0.03215  -0.22914   0.16013  -0.02617
 118        3PY        -0.00184  -0.02234   0.01523  -0.06571   0.02332
 119        3PZ        -0.01354  -0.02823   0.00402  -0.04784  -0.07101
 120        4S          0.10132   0.04940  -0.04080   0.10940   0.02294
 121        4PX        -0.06237  -0.01608  -0.14823   0.10925  -0.01661
 122        4PY        -0.00347  -0.01810   0.01024  -0.04866   0.01714
 123        4PZ        -0.00851  -0.02154   0.00400  -0.03594  -0.05469
 124        5S          0.02835   0.00826   0.01318   0.03130   0.01648
 125        5PX         0.00831  -0.00454  -0.00269  -0.01785  -0.01384
 126        5PY        -0.00012   0.00084   0.00240   0.01066   0.00697
 127        5PZ         0.00048   0.00109   0.00293   0.00918   0.00367
 128        6D 0       -0.00075  -0.00159  -0.00044  -0.00123  -0.00505
 129        6D+1       -0.00694  -0.00280  -0.00998   0.00592  -0.00383
 130        6D-1       -0.00043  -0.00214   0.00072  -0.00467  -0.00187
 131        6D+2        0.00006   0.00207  -0.00016   0.00353  -0.00045
 132        6D-2       -0.00698  -0.00285  -0.01076   0.00570   0.00041
 133 7   H  1S         -0.06413   0.01409   0.10267   0.07991   0.00849
 134        2S         -0.07105   0.01908   0.13248   0.10403   0.01257
 135        3S         -0.00760  -0.00058   0.03077   0.04949  -0.01191
 136        4PX         0.00796  -0.00040  -0.01079  -0.01149   0.00037
 137        4PY         0.00753  -0.00346  -0.00980  -0.00369   0.00040
 138        4PZ         0.00690  -0.00363  -0.00825  -0.00280  -0.00558
 139 8   H  1S          0.05758  -0.05581   0.02508   0.06267  -0.07009
 140        2S          0.06884  -0.06956   0.02823   0.07720  -0.08863
 141        3S         -0.00963   0.00321   0.00555   0.01590  -0.01902
 142        4PX        -0.00187   0.00095  -0.00339  -0.00119   0.00007
 143        4PY         0.00104  -0.00210   0.00162   0.00484   0.00100
 144        4PZ        -0.01097   0.00799  -0.00037  -0.00572   0.00719
 145 9   H  1S          0.05530  -0.04847   0.01340   0.05954   0.04319
 146        2S          0.06733  -0.06034   0.01374   0.07299   0.05065
 147        3S         -0.00607  -0.00323   0.00326   0.01432   0.01293
 148        4PX         0.00029  -0.00042  -0.00314   0.00048  -0.00265
 149        4PY        -0.01092   0.00630   0.00059  -0.00518  -0.00322
 150        4PZ         0.00257  -0.00358   0.00262   0.00557  -0.00294
 151 10  H  1S         -0.00000   0.08628  -0.00636   0.00000   0.06749
 152        2S         -0.00000   0.10519  -0.00619   0.00000   0.07907
 153        3S         -0.00000   0.00886   0.00809  -0.00000   0.00363
 154        4PX         0.00387  -0.00000  -0.00000  -0.00442  -0.00000
 155        4PY         0.00000  -0.00086   0.00066   0.00000   0.00481
 156        4PZ         0.00000   0.01318   0.00031  -0.00000   0.00568
 157 11  H  1S         -0.00000  -0.09298  -0.00304   0.00000   0.07903
 158        2S         -0.00000  -0.11330   0.00032   0.00000   0.10465
 159        3S         -0.00000  -0.00499   0.01882  -0.00000  -0.00854
 160        4PX         0.00227  -0.00000  -0.00000  -0.00162   0.00000
 161        4PY        -0.00000   0.00119   0.00408  -0.00000  -0.00820
 162        4PZ         0.00000   0.01633   0.00038  -0.00000  -0.01377
 163 12  H  1S         -0.05758  -0.05581   0.02507  -0.06268  -0.07009
 164        2S         -0.06885  -0.06956   0.02822  -0.07721  -0.08863
 165        3S          0.00963   0.00321   0.00555  -0.01590  -0.01902
 166        4PX        -0.00188  -0.00095   0.00339  -0.00119  -0.00007
 167        4PY        -0.00104  -0.00210   0.00162  -0.00484   0.00100
 168        4PZ         0.01097   0.00799  -0.00037   0.00572   0.00719
 169 13  H  1S         -0.05530  -0.04847   0.01340  -0.05954   0.04319
 170        2S         -0.06734  -0.06034   0.01373  -0.07299   0.05066
 171        3S          0.00607  -0.00323   0.00326  -0.01432   0.01293
 172        4PX         0.00029   0.00043   0.00314   0.00048   0.00266
 173        4PY         0.01092   0.00630   0.00059   0.00518  -0.00322
 174        4PZ        -0.00257  -0.00358   0.00262  -0.00557  -0.00294
 175 14  H  1S          0.06413   0.01409   0.10266  -0.07992   0.00850
 176        2S          0.07105   0.01908   0.13247  -0.10404   0.01258
 177        3S          0.00760  -0.00058   0.03077  -0.04950  -0.01190
 178        4PX         0.00796   0.00041   0.01079  -0.01150  -0.00036
 179        4PY        -0.00753  -0.00346  -0.00980   0.00369   0.00040
 180        4PZ        -0.00689  -0.00363  -0.00825   0.00280  -0.00558
                          16        17        18        19        20
                           O         O         O         O         O
     Eigenvalues --    -0.48593  -0.45362  -0.42315  -0.40088  -0.38917
   1 1   O  1S         -0.01366  -0.00042  -0.00268  -0.00942   0.02047
   2        2S         -0.02226  -0.00072  -0.00424  -0.01536   0.03332
   3        2PX        -0.01075  -0.04263   0.08927  -0.01766  -0.00452
   4        2PY        -0.05959   0.07061  -0.02708   0.01934   0.11671
   5        2PZ        -0.01644  -0.04733  -0.08692  -0.08061   0.08354
   6        3S          0.06880   0.00277   0.00987   0.04696  -0.09965
   7        3PX        -0.01561  -0.06143   0.12915  -0.02519  -0.00791
   8        3PY        -0.08661   0.10419  -0.03982   0.02975   0.16849
   9        3PZ        -0.02270  -0.06978  -0.12716  -0.11738   0.12040
  10        4S          0.07519   0.00670   0.01882   0.06556  -0.15027
  11        4PX        -0.00961  -0.04481   0.09093  -0.02002  -0.00705
  12        4PY        -0.06844   0.08584  -0.03236   0.02541   0.13748
  13        4PZ        -0.01922  -0.05476  -0.10533  -0.09643   0.09506
  14        5S          0.01323  -0.00553   0.05018   0.02582  -0.07631
  15        5PX         0.00816  -0.01070   0.04545   0.00725  -0.00903
  16        5PY         0.00014  -0.00283   0.01788   0.00720   0.01304
  17        5PZ        -0.00051  -0.00743   0.00665  -0.01088   0.00692
  18        6D 0        0.00097  -0.00594  -0.00634  -0.00589   0.00010
  19        6D+1       -0.00106  -0.00001   0.00691   0.00018  -0.00007
  20        6D-1       -0.00465   0.00145  -0.00572  -0.00287   0.00804
  21        6D+2        0.00475  -0.00482   0.00314  -0.00181  -0.00359
  22        6D-2        0.00159  -0.00596   0.00559  -0.00241  -0.00060
  23 2   C  1S          0.01145  -0.00035  -0.00695   0.00082   0.00189
  24        2S          0.01813  -0.00078  -0.01054   0.00127   0.00261
  25        2PX        -0.05003   0.02782  -0.11570  -0.02342   0.05042
  26        2PY        -0.08878   0.09185   0.02098   0.04598  -0.01320
  27        2PZ         0.00091  -0.08881  -0.03791  -0.05534  -0.03691
  28        3S         -0.04889   0.00480   0.02806  -0.00222  -0.00279
  29        3PX        -0.07485   0.04150  -0.17501  -0.03647   0.07885
  30        3PY        -0.12613   0.13247   0.03518   0.06607  -0.01915
  31        3PZ         0.00183  -0.13137  -0.05353  -0.08051  -0.05718
  32        4S         -0.06052  -0.01030   0.02403  -0.01145  -0.06629
  33        4PX        -0.03428   0.02656  -0.10977  -0.02675   0.09898
  34        4PY        -0.08596   0.10662   0.01557   0.05911   0.00215
  35        4PZ        -0.00846  -0.09415  -0.04098  -0.07712  -0.03400
  36        5S          0.09135   0.07610  -0.16241   0.02947  -0.17246
  37        5PX        -0.02090  -0.00900   0.00921  -0.01157   0.04763
  38        5PY        -0.02368   0.00836   0.02780   0.00419   0.01858
  39        5PZ        -0.00911  -0.02328   0.01344  -0.01120   0.00666
  40        6D 0        0.00006  -0.00676   0.00125  -0.00903  -0.00752
  41        6D+1        0.00151  -0.01267   0.01293  -0.01205  -0.00274
  42        6D-1        0.00511  -0.00150  -0.00158  -0.00165  -0.00081
  43        6D+2        0.00617  -0.00194  -0.01395  -0.00701   0.01229
  44        6D-2        0.00138  -0.00094   0.01801   0.00606   0.00289
  45 3   C  1S         -0.02392  -0.00000   0.00000   0.00659  -0.01938
  46        2S         -0.03733  -0.00000   0.00000   0.00999  -0.03089
  47        2PX        -0.00002  -0.05384   0.13088  -0.00003   0.00001
  48        2PY         0.05978  -0.00000   0.00000  -0.05204  -0.03309
  49        2PZ         0.06873  -0.00001   0.00003   0.13105  -0.02151
  50        3S          0.10368   0.00000  -0.00000  -0.02357   0.08694
  51        3PX        -0.00003  -0.07938   0.18889  -0.00004   0.00001
  52        3PY         0.08950  -0.00000   0.00001  -0.08165  -0.05586
  53        3PZ         0.10612  -0.00002   0.00004   0.19489  -0.02754
  54        4S          0.08471  -0.00000  -0.00000  -0.06920   0.17106
  55        4PX        -0.00002  -0.03756   0.13350  -0.00004  -0.00001
  56        4PY         0.04039  -0.00000   0.00000  -0.04918   0.02331
  57        4PZ         0.09717  -0.00001   0.00003   0.16531   0.04387
  58        5S         -0.19734  -0.00000   0.00000  -0.08387   0.36259
  59        5PX        -0.00000  -0.07048   0.13657  -0.00000  -0.00001
  60        5PY        -0.01182  -0.00000   0.00000  -0.01390   0.06578
  61        5PZ        -0.00797  -0.00002   0.00003   0.00960   0.06267
  62        6D 0        0.00729  -0.00001   0.00000  -0.02564   0.00500
  63        6D+1        0.00000  -0.01679   0.00763   0.00001  -0.00000
  64        6D-1       -0.00473   0.00000   0.00000  -0.01340  -0.02141
  65        6D+2        0.02026   0.00000  -0.00000  -0.01846   0.00173
  66        6D-2        0.00000   0.01227   0.00618   0.00000   0.00001
  67 4   O  1S          0.02895   0.00000  -0.00000   0.00368   0.02330
  68        2S          0.04719   0.00000  -0.00000   0.00584   0.03794
  69        2PX        -0.00004  -0.06468   0.08320  -0.00000  -0.00003
  70        2PY         0.01042  -0.00000   0.00000   0.13846   0.10314
  71        2PZ         0.14126  -0.00002   0.00002   0.00004   0.11137
  72        3S         -0.14531  -0.00000   0.00000  -0.01351  -0.11363
  73        3PX        -0.00005  -0.09408   0.12260  -0.00000  -0.00004
  74        3PY         0.01387  -0.00000   0.00000   0.20139   0.14896
  75        3PZ         0.20312  -0.00002   0.00003   0.00221   0.15864
  76        4S         -0.17988  -0.00000   0.00000  -0.03341  -0.16624
  77        4PX        -0.00004  -0.08192   0.09943  -0.00000  -0.00003
  78        4PY         0.01439  -0.00000   0.00000   0.15765   0.12273
  79        4PZ         0.14279  -0.00002   0.00002   0.01027   0.12115
  80        5S         -0.04785   0.00000   0.00000   0.01857  -0.06947
  81        5PX         0.00000   0.00783   0.00765   0.00000  -0.00000
  82        5PY        -0.00384   0.00000   0.00000   0.03625   0.02247
  83        5PZ        -0.00684   0.00000   0.00000  -0.00428   0.00436
  84        6D 0        0.00604  -0.00000   0.00000  -0.00717   0.00355
  85        6D+1       -0.00000  -0.00237   0.00159   0.00000  -0.00000
  86        6D-1        0.00892  -0.00000   0.00000   0.00801   0.00599
  87        6D+2       -0.00038   0.00000  -0.00000  -0.00792  -0.00536
  88        6D-2       -0.00000  -0.00585   0.00801  -0.00000  -0.00000
  89 5   C  1S          0.01145   0.00035   0.00695   0.00082   0.00189
  90        2S          0.01813   0.00078   0.01054   0.00127   0.00261
  91        2PX         0.05004   0.02778  -0.11571   0.02345  -0.05041
  92        2PY        -0.08878  -0.09185  -0.02099   0.04598  -0.01320
  93        2PZ         0.00093   0.08882   0.03786  -0.05532  -0.03693
  94        3S         -0.04889  -0.00480  -0.02805  -0.00221  -0.00279
  95        3PX         0.07485   0.04144  -0.17503   0.03650  -0.07883
  96        3PY        -0.12613  -0.13247  -0.03518   0.06607  -0.01915
  97        3PZ         0.00186   0.13138   0.05345  -0.08049  -0.05722
  98        4S         -0.06052   0.01031  -0.02403  -0.01144  -0.06630
  99        4PX         0.03429   0.02651  -0.10979   0.02679  -0.09897
 100        4PY        -0.08596  -0.10662  -0.01558   0.05911   0.00215
 101        4PZ        -0.00845   0.09416   0.04093  -0.07711  -0.03405
 102        5S          0.09134  -0.07610   0.16241   0.02946  -0.17246
 103        5PX         0.02090  -0.00901   0.00922   0.01158  -0.04763
 104        5PY        -0.02368  -0.00836  -0.02780   0.00420   0.01858
 105        5PZ        -0.00910   0.02328  -0.01343  -0.01119   0.00663
 106        6D 0        0.00005   0.00675  -0.00124  -0.00902  -0.00752
 107        6D+1       -0.00151  -0.01267   0.01294   0.01205   0.00275
 108        6D-1        0.00511   0.00149   0.00158  -0.00165  -0.00081
 109        6D+2        0.00617   0.00194   0.01394  -0.00702   0.01229
 110        6D-2       -0.00138  -0.00094   0.01801  -0.00606  -0.00289
 111 6   O  1S         -0.01366   0.00042   0.00268  -0.00942   0.02047
[...]
     1         -0.00023451         -3.47316601         -0.74532866
     1         -2.53339928         -1.27692202          2.51477728
     1         -2.21702960          2.06554458          2.53912237
     1         -6.01102798          0.65580414          0.72135525

 Electric dipole moment (dipole orientation):
 (Debye = 10**-18 statcoulomb cm , SI units = C m)
                  (au)            (Debye)         (10**-30 SI)
   Tot        0.254522D+01      0.646929D+01      0.215792D+02
   x          0.000000D+00      0.000000D+00      0.000000D+00
   y          0.000000D+00      0.000000D+00      0.000000D+00
   z          0.254522D+01      0.646929D+01      0.215792D+02

 Dipole polarizability, Alpha (dipole orientation).
 (esu units = cm**3 , SI units = C**2 m**2 J**-1)
 Alpha(0;0):
               (au)            (10**-24 esu)      (10**-40 SI)
   iso        0.631215D+02      0.935365D+01      0.104073D+02
   aniso      0.713295D+01      0.105699D+01      0.117606D+01
   xx         0.677366D+02      0.100375D+02      0.111683D+02
   yx        -0.507595D-03     -0.752179D-04     -0.836912D-04
   yy         0.603519D+02      0.894323D+01      0.995069D+01
   zx        -0.100796D-03     -0.149365D-04     -0.166191D-04
   zy         0.878529D+00      0.130185D+00      0.144850D+00
   zz         0.612761D+02      0.908018D+01      0.101031D+02

 First dipole hyperpolarizability, Beta (dipole orientation).
 ||, _|_  parallel and perpendicular components, (z) with respect to z axis,
 vector components x,y,z.  Values do not include the 1/n! factor of 1/2.
 (esu units = statvolt**-1 cm**4 , SI units = C**3 m**3 J**-2)
 Beta(0;0,0):
               (au)            (10**-30 esu)      (10**-50 SI)
   || (z)     0.124930D+03      0.107930D+01      0.400570D+00
   _|_(z)     0.416433D+02      0.359766D+00      0.133523D+00
   x          0.147745D-01      0.127640D-03      0.473723D-04
   y          0.572363D+02      0.494477D+00      0.183520D+00
   z          0.624649D+03      0.539648D+01      0.200285D+01
   ||         0.125453D+03      0.108382D+01      0.402248D+00
   xxx       -0.333283D-02     -0.287930D-04     -0.106862D-04
   xxy       -0.190078D+02     -0.164213D+00     -0.609460D-01
   yxy        0.585297D-02      0.505651D-04      0.187667D-04
   yyy        0.671966D+01      0.580526D-01      0.215457D-01
   xxz        0.539471D+02      0.466061D+00      0.172974D+00
   yxz        0.285292D-02      0.246470D-04      0.914750D-05
   yyz        0.763069D+02      0.659232D+00      0.244668D+00
   zxz        0.240469D-02      0.207746D-04      0.771030D-05
   zyz        0.313670D+02      0.270986D+00      0.100574D+00
   zzz        0.779625D+02      0.673535D+00      0.249976D+00

 ----------------------------------------------------------------------
 Unable to Open any file for archive entry.
 1\1\GINC-NODE1762\Freq\RB3LYP\6-311+G(d,p)\C3H8O3\SVICCHI\02-Jun-2023\
 0\\#p freq=raman scale=0.967 pop=(nbo,full,hirshfeld) guess=read geom=
 allcheck b3lyp/6-311+G(d,p) int=grid=ultrafine EmpiricalDispersion=GD3
 BJ SCRF=(Solvent=ethanol) scf=(xqc,intrep,maxconventionalcycle=350) no
 symm\\glycerol-isolated.gjf\\0,1\O,2.3888393167,0.0936709385,-0.355677
 0483\C,1.2534285561,0.6621680518,0.2978102814\C,0.000090726,-0.0513444
 984,-0.1935925879\O,0.0000446907,-1.4377654461,0.1567214304\C,-1.25348
 93107,0.6621210133,0.2972568598\O,-2.3885946794,0.093593512,-0.3567320
 286\H,3.1810123121,0.5156883125,-0.0075063465\H,1.3403564944,0.5525812
 066,1.3867763632\H,1.1733563138,1.7307375909,0.067398106\H,0.000332432
 5,-0.0389491263,-1.2870243139\H,-0.0001985918,-1.5102704748,1.11919350
 69\H,-1.3408964087,0.5525207348,1.3861805795\H,-1.1733465111,1.7306946
 252,0.0668894267\H,-3.1809373406,0.51558256,-0.0088902286\\Version=ES6
 4L-G16RevC.01\HF=-344.9253612\RMSD=6.997e-09\RMSF=3.277e-06\ZeroPoint=
 0.1132793\Thermal=0.1214683\ETot=-344.8038929\HTot=-344.8029487\GTot=-
 344.8447704\Dipole=-0.0004344,1.9107282,1.6814391\DipoleDeriv=-1.10975
 04,0.2193141,0.2465332,0.198286,-0.5637923,0.0575189,0.2418777,0.05558
 22,-0.6350785,0.8057664,-0.2960354,-0.2718966,-0.197092,0.3399002,0.03
 86741,-0.2508988,-0.0343078,0.5222014,0.3897615,0.0000402,0.0000094,0.
 0000205,1.0076971,-0.1209213,0.0000128,-0.2141245,0.3492984,-0.7565522
 ,-0.0000417,-0.0000885,-0.000012,-1.1811958,0.1278952,-0.0000867,0.259
 0653,-0.394964,0.8055363,0.2960601,0.2720168,0.1970908,0.3399274,0.038
 7453,0.2510277,-0.0341979,0.5224369,-1.1095316,-0.2193637,-0.2467474,-
 0.198352,-0.5638403,0.0574145,-0.2420992,0.0554715,-0.6353113,0.294008
 5,-0.0229009,-0.0158876,-0.0394261,0.3195622,-0.100632,-0.0285766,-0.1
 060417,0.3240547,-0.0298351,0.0038122,0.0263774,0.0302209,0.0468412,0.
 0509948,0.0395345,-0.0009222,-0.2403536,-0.0195909,0.0319697,0.0260805
 ,0.0701842,-0.2154495,0.0151212,0.0307322,0.0699602,0.0413639,0.046439
 9,-0.0000025,0.0000438,0.0000093,0.0034524,-0.0238687,0.0000452,0.0223
 023,-0.1491706,0.4391329,0.0000089,0.0000691,0.000028,0.3159486,-0.106
 3933,0.0000681,-0.0357256,0.170578,-0.0298062,-0.0038126,-0.0262821,-0
 .0302461,0.0468357,0.0509838,-0.0394441,-0.0009183,-0.240476,-0.019562
 9,-0.0319956,-0.0261072,-0.0701855,-0.2154506,0.0150822,-0.0307616,0.0
 698871,0.0413511,0.293984,0.0229472,0.0158792,0.0394739,0.3195637,-0.1
 006148,0.0285687,-0.1060306,0.3240694\Polar=67.7366376,-0.0000078,61.7
 441502,0.001628,0.3466376,59.8838494\PolarDeriv=0.0517194,-3.5568693,-
 1.212831,-3.4590866,-0.6189446,-0.8189406,-6.1217018,0.675694,-2.58184
 51,-0.0398186,-1.9046554,-1.6416519,-5.9416856,-0.2951708,-1.4531505,1
 .6673508,-1.3167687,-2.1680361,-0.1189613,2.7721139,2.3640772,2.049398
 1,0.0054521,0.101695,3.9996112,1.1866026,-9.8647235,-0.5475092,1.86228
 56,1.4862973,2.8312123,-1.0648809,2.508166,-1.078244,-0.0298902,-12.06
 98626,0.0008879,-4.4220445,0.000034,-2.2500504,-0.0009177,-0.004537,-2
 .9665557,-0.0000945,7.0270292,-0.0000884,-0.75005,-2.5378448,0.8568361
 ,-0.0008664,-2.043069,-0.003803,-0.3816629,16.0358418,0.0000986,-1.736
 2877,0.000867,0.7563311,-0.0004603,0.0026146,-1.922987,0.0007206,-9.86
 1797,-0.0008361,-1.1999572,2.0579279,-0.627152,-0.0002932,-2.1954772,0
 .0023566,0.3105477,-9.66971,0.1157151,2.7717762,-2.3645523,2.0489121,-
 0.0043031,-0.0945613,3.9992491,-1.1868264,-9.8649763,0.548492,1.861332
 7,1.4866627,2.8302629,1.0660387,2.5064243,1.0857399,-0.0295733,-12.069
 3299,-0.045684,-3.5574328,1.2131617,-3.4589646,0.6177849,0.81668,-6.12
 18336,-0.6755534,-2.5820888,0.0377351,-1.9050712,-1.6422414,-5.9405313
 ,0.2939822,-1.4527449,-1.6705148,-1.3165202,-2.1691544,10.5589994,1.95
 38795,1.2825057,1.0467363,0.6701112,1.1728009,3.4555213,1.9165564,0.90
 09498,0.4949761,0.5402887,0.9643081,3.1127801,0.7007237,0.9655524,1.47
 12853,0.4527444,0.500313,-0.022834,-0.5194019,0.1411861,2.1505263,-0.0
 74526,0.0831316,-1.3578201,0.0304505,0.7268498,0.0614475,1.6950137,-1.
 3718208,2.0672426,0.3811329,1.271436,0.7309171,0.4191241,12.7907916,-1
 .5553157,2.1364725,-0.9550789,-0.590593,-0.1765242,0.2432964,1.769263,
 -0.147636,13.3183071,-0.0793369,-1.033471,1.0685185,-1.4962587,0.14456
 24,-2.1208848,0.0484748,2.0969619,-0.0331157,0.0011785,0.954009,0.0004
 735,-1.4447315,0.0003761,0.0027345,1.1723943,0.0004638,-0.6668639,0.00
 03127,-1.8866366,0.515772,-2.5210705,0.0002444,-1.8828638,0.0021559,-0
 .1134543,-13.8683464,-0.000619,-0.3676288,-0.0010007,0.5469835,0.00069
 92,-0.0021256,0.2277393,-0.0003321,-1.4967129,0.0002582,1.5201594,-1.0
 463881,1.1463225,0.0005528,3.7834286,-0.0018202,-3.0597802,9.4685002,0
 .0201236,-0.5193029,-0.1418043,2.1508745,0.0741237,-0.0868141,-1.35777
 65,-0.0312478,0.7267393,-0.0614517,1.6948574,-1.3720092,2.0679329,-0.3
 815185,1.2708368,-0.7347312,0.4187653,12.7872915,1.5563423,2.1364652,0
 .9557598,-0.5897687,0.1765878,-0.2438114,1.7692725,0.1478413,13.318417
 3,0.0796706,-1.0335122,1.0686687,-1.4954911,-0.1445432,-2.1225512,-0.0
 494398,2.0973832,-0.0337335,-10.5616509,1.9542515,-1.2827977,1.0434327
 ,-0.669459,-1.172163,3.4556239,-1.9166391,0.9007151,-0.4938514,0.53941
 61,0.9638012,3.1095997,-0.6999641,0.9648974,-1.4697274,0.4521233,0.498
 5504\HyperPolar=-0.0353553,27.941697,-0.000012,144.9586102,49.9083541,
 0.0072821,-0.7115459,0.0062263,-3.9853342,74.0340284\Quadrupole=3.0942
 058,-2.687906,-0.4062998,0.0007161,0.0007812,-1.5478406\PG=C01 [X(C3H8
 O3)]\NImag=0\\0.57920478,0.10990172,0.21979623,0.06509093,0.16278719,0
 .19787092,-0.15728366,0.02499554,0.02976523,0.45837450,0.05462850,-0.1
 0092652,-0.04379835,0.00220269,0.55860191,0.05999193,-0.04049664,-0.10
 465455,0.02842716,-0.03331551,0.55596831,-0.04220588,-0.01196516,-0.00
 674078,-0.14254338,-0.02773941,-0.03153519,0.48430341,0.01982996,0.006
 71276,0.00493829,-0.04878790,-0.09248497,-0.02274938,-0.00000202,0.446
 21532,0.02000317,0.00790079,0.00714067,-0.03983642,-0.01845209,-0.1014
 5834,-0.00003598,0.00839752,0.63270401,0.00070534,-0.00121096,0.000419
 51,0.00193259,-0.03021739,0.00775188,-0.05947149,-0.00000868,0.0000110
 1,0.05969841,-0.00078810,0.00314942,0.00068901,-0.00145704,-0.04312739
 ,0.00924870,0.00000402,-0.18816984,-0.00177770,0.00000614,0.32608132,0
 .00039962,0.00070307,0.00095194,0.00074985,-0.00730929,0.00325310,0.00
 000889,0.04654813,-0.10209203,-0.00013852,-0.06721376,0.60355076,-0.00
 031007,-0.00148590,-0.00186969,-0.02863964,0.00449858,0.00889129,-0.14
 257874,0.04879675,0.03981930,0.00193517,0.00145352,-0.00075019,0.45839
 999,-0.00661748,-0.00245423,-0.00131355,-0.00450259,0.01387162,0.00674
 583,0.02774589,-0.09248360,-0.01843808,0.03022293,-0.04312651,-0.00729
 667,-0.00218936,0.55860043,-0.00323394,-0.00111318,-0.00072801,-0.0089
 0535,0.00674752,0.00461868,0.03151858,-0.02272662,-0.10142735,-0.00775
 290,0.00924867,0.00324907,-0.02847108,-0.03331532,0.55595001,-0.005067
 58,-0.00093888,-0.00054486,-0.00031249,0.00661816,0.00323448,-0.042198
 17,-0.01983341,-0.02002488,0.00070635,0.00079214,-0.00039848,-0.157241
 70,-0.05461084,-0.06001558,0.57924265,0.00093835,0.00082889,0.00016224
 ,0.00148673,-0.00245380,-0.00111231,0.01196035,0.00671470,0.00790731,0
 .00121371,0.00315559,0.00070816,-0.02497930,-0.10092593,-0.04051095,-0
 .10994906,0.21977103,0.00054235,0.00016182,0.00042243,0.00187015,-0.00
 131049,-0.00072566,0.00671967,0.00493200,0.00713745,-0.00041870,0.0006
 9353,0.00095080,-0.02978800,-0.04382433,-0.10469404,-0.06492433,0.1627
 2788,0.19781868,-0.35320531,-0.15907971,-0.12624610,-0.02718609,-0.015
 03722,-0.01263213,-0.00466531,0.00392704,0.00359667,0.00101537,0.00055
 475,-0.00009028,-0.00026020,-0.00135547,-0.00069733,-0.00049476,0.0002
 5836,0.00020925,0.38114947,-0.19582648,-0.11917879,-0.10050833,0.02078
 277,0.00521258,0.00485320,0.00198440,-0.00243272,-0.00127335,-0.000551
 89,0.00065848,-0.00000705,0.00038128,0.00049038,0.00025627,0.00040544,
 -0.00006222,-0.00007561,0.17188721,0.11457379,-0.16311851,-0.10383090,
 -0.09038921,0.02230524,0.00799063,0.00389424,0.00241101,-0.00173513,-0
 .00221932,-0.00013308,0.00012691,0.00004192,0.00018516,0.00053357,0.00
 093799,0.00055078,-0.00016701,-0.00007160,0.13711876,0.09725162,0.0863
 9046,-0.00959687,0.00406031,0.03755672,-0.05249021,0.00080542,-0.03258
 096,-0.00300869,0.00373131,-0.02993144,0.00171018,0.00221215,0.0014614
 4,0.00135080,-0.00036264,-0.00089161,-0.00026802,-0.00000743,0.0003712
 6,0.00193994,0.00022471,0.00060376,0.06335624,0.00374381,0.00256236,-0
 .01911182,0.00347953,-0.05772854,0.03367583,-0.00388501,0.00049209,-0.
 01603566,0.00115192,0.00250467,-0.00082495,0.00064158,-0.00026163,-0.0
 0017167,0.00003890,-0.00001111,0.00014864,-0.00100572,0.00020575,0.000
 44030,-0.00601179,0.05473001,0.01270627,-0.00473397,-0.01626369,-0.029
 40137,0.03107899,-0.28367433,-0.00251100,0.00358035,-0.01205110,0.0008
 8388,-0.00028393,0.00263589,0.00067429,-0.00050226,-0.00061993,-0.0004
 4124,-0.00005316,0.00034264,-0.00032621,-0.00083981,0.00067902,0.02349
 053,-0.02827689,0.31410138,-0.01472101,0.03536501,0.00305492,-0.049782
 00,0.00444026,-0.00608393,0.00543519,-0.02208592,0.00895704,-0.0052593
 7,-0.00655978,-0.00168269,-0.00075195,-0.00041342,0.00039564,0.0004294
 7,0.00021721,0.00002182,0.00145560,0.00074310,0.00001011,0.00227652,0.
 00435010,-0.00252013,0.06131555,0.01311318,-0.01158179,-0.00453640,0.0
 0514643,-0.28150839,0.05771953,0.00172378,-0.01379844,0.00636919,-0.00
 322215,-0.00277416,-0.00118716,0.00105327,-0.00127861,0.00009721,0.000
 11099,0.00074965,-0.00009802,-0.00034471,0.00052760,-0.00070290,-0.001
 07967,-0.00258120,0.00199136,-0.01710768,0.30937135,0.00752203,-0.0216
 3419,0.00431910,-0.00395104,0.06128729,-0.06816197,-0.00021943,-0.0103
 9078,0.00217693,-0.00126847,-0.00163280,0.00099539,0.00012036,0.000360
 98,0.00042633,0.00027299,-0.00007770,-0.00016801,-0.00115514,0.0002534
 1,0.00018309,-0.00043281,0.03073927,-0.00657729,-0.00105261,-0.0583891
 8,0.06577600,0.00291823,0.00068123,0.00070309,-0.00276003,-0.00227846,
 -0.02943331,-0.04939476,0.00000018,0.00005668,0.00160719,-0.00000157,0
 .00000185,-0.00277348,0.00227897,0.02943800,0.00291969,-0.00068148,-0.
 00070252,0.00051584,-0.00001831,0.00010833,-0.00420942,-0.00219812,-0.
 00157886,0.00070518,0.00021986,0.00067799,0.05260885,0.00099277,0.0005
 0087,0.00127015,-0.00062833,0.00041388,-0.01666261,0.00000238,-0.04563
 030,-0.01081974,-0.00000946,-0.01423490,0.04263178,0.00063537,0.000414
 01,-0.01666154,-0.00099335,0.00050106,0.00127004,0.00029084,-0.0000859
 7,-0.00000466,-0.00287478,-0.00069117,-0.00074706,0.00073756,0.0004018
 5,0.00019360,0.00000058,0.06518378,0.00067684,0.00065570,0.00151164,-0
 .00100972,-0.00205264,-0.01234305,0.00005652,-0.00106038,-0.30480291,0
 .00000276,0.00834173,-0.01048641,0.00101389,-0.00205182,-0.01232961,-0
 .00067636,0.00065558,0.00151059,0.00026457,0.00005433,0.00045032,-0.00
 099562,-0.00128808,0.00039364,-0.00044319,-0.00041313,0.00031893,-0.00
 006184,-0.00249462,0.33279065,-0.00010520,0.00014494,-0.00058627,0.000
 35226,-0.00005293,0.00277525,-0.00142506,0.00000077,0.00000126,-0.0020
 4528,-0.00001002,0.00012949,0.00035397,0.00005322,-0.00277642,-0.00010
 523,-0.00014470,0.00058642,-0.00013419,-0.00007717,0.00001238,-0.00018
 574,-0.00022613,-0.00056775,0.00013480,0.00032761,-0.00055201,0.000852
 16,-0.00000018,-0.00000042,0.00249443,0.00063912,-0.00008552,-0.000553
 07,-0.00064206,0.00117979,0.00191247,-0.00001123,-0.00939589,0.0471610
 0,0.00000291,-0.04450623,-0.00473411,0.00064109,0.00118016,0.00191318,
 -0.00063905,-0.00008577,-0.00055359,-0.00013207,0.00001720,-0.00002570
 ,-0.00070439,-0.00033360,-0.00109992,0.00040232,0.00045510,-0.00065614
 ,-0.00000014,-0.00639785,0.00129930,0.00000760,0.05783573,-0.00019983,
 -0.00010084,-0.00028255,0.00096666,-0.00126017,0.00253787,0.00000296,-
 0.00119633,-0.01302344,0.00012773,0.04434879,-0.50672374,-0.00096764,-
 0.00125983,0.00253670,0.00019982,-0.00010081,-0.00028237,0.00000650,-0
 .00002153,0.00006550,0.00091135,0.00053220,-0.00042190,-0.00067910,-0.
 00057902,0.00003428,-0.00000021,0.00258196,0.00182262,-0.00012936,-0.0
 4287458,0.51406825,-0.00026799,0.00000735,-0.00037169,0.00135064,0.000
 36287,0.00089274,-0.00302288,-0.00373287,0.02993682,0.00171132,-0.0022
 1203,-0.00146172,-0.05251636,-0.00082001,0.03268270,-0.00957458,-0.004
 05839,-0.03755362,-0.00005663,-0.00001059,-0.00011483,-0.00071700,0.00
 005039,-0.00027044,-0.00010112,-0.00004719,-0.00006558,-0.00421079,0.0
 0287501,0.00099367,-0.00018701,0.00070589,-0.00091157,0.06337661,-0.00
 003892,-0.00001113,0.00014849,-0.00064132,-0.00026163,-0.00017189,0.00
 389188,0.00049162,-0.01603292,-0.00115173,0.00250461,-0.00082569,-0.00
 349531,-0.05772928,0.03367684,-0.00373560,0.00256240,-0.01911468,0.000
 03913,-0.00000476,0.00009852,-0.00005107,0.00099907,0.00009041,0.00009
 021,0.00011800,-0.00001874,0.00219857,-0.00069102,-0.00128707,0.000227
 24,-0.00033546,0.00053081,0.00602494,0.05473332,0.00044209,-0.00005328
 ,0.00034154,-0.00067350,-0.00050202,-0.00061818,0.00251557,0.00357954,
 -0.01203570,-0.00088442,-0.00028539,0.00263450,0.02950321,0.03108109,-
 0.28364909,-0.01270440,-0.00473630,-0.01628723,0.00010786,-0.00002612,
 -0.00002963,0.00025707,0.00009336,0.00146750,0.00002989,-0.00017792,0.
 00001736,0.00157687,-0.00074582,0.00039451,0.00056781,-0.00110689,-0.0
 0043136,-0.02358880,-0.02827225,0.31409277,0.00042964,-0.00021719,-0.0
 0002158,-0.00075205,0.00041374,-0.00039598,0.00543820,0.02209123,-0.00
 895541,-0.00526108,0.00656043,0.00168000,-0.04978635,-0.00446042,0.006
 08965,-0.01471475,-0.03535584,-0.00306329,0.00001371,-0.00000078,-0.00
 003125,-0.00010111,-0.00009026,-0.00002993,-0.00115051,0.00018017,0.00
 003960,0.00070530,-0.00073761,0.00044341,0.00013429,-0.00040209,0.0006
 7923,0.00227531,-0.00436357,0.00252391,0.06131433,-0.00011105,0.000749
 71,-0.00009805,-0.00105302,-0.00127890,0.00009667,-0.00172599,-0.01379
 796,0.00636803,0.00322271,-0.00277362,-0.00118571,-0.00516485,-0.28150
 991,0.05771538,-0.01311132,-0.01158315,-0.00454236,0.00007390,0.000025
 45,-0.00000481,0.00004726,0.00011806,-0.00017809,-0.00017972,0.0018736
 0,-0.00008839,-0.00021964,0.00040174,-0.00041324,-0.00032738,0.0004551
 4,-0.00057915,0.00107891,-0.00258157,0.00199198,0.01712517,0.30937395,
 -0.00027200,-0.00007842,-0.00016831,-0.00012116,0.00036195,0.00042569,
 0.00022133,-0.01038027,0.00217309,0.00126582,-0.00163049,0.00099676,0.
 00395717,0.06128431,-0.06815642,-0.00753047,-0.02165082,0.00431429,-0.
 00006421,0.00005339,0.00000168,0.00006550,-0.00001902,0.00001785,-0.00
 003903,-0.00008871,0.00065809,-0.00067783,0.00019326,0.00031884,0.0005
 5208,-0.00065634,0.00003463,0.00043578,0.03073743,-0.00657570,0.001051
 26,-0.05837947,0.06577614,-0.00049443,-0.00025829,-0.00020942,-0.00026
 046,0.00135520,0.00069676,-0.00466244,-0.00392645,-0.00359782,0.001015
 31,-0.00055460,0.00009072,-0.02718144,0.01503121,0.01261965,-0.3533208
 8,0.15910149,0.12612953,-0.00008744,0.00007631,0.00009214,-0.00005661,
 -0.00003920,-0.00010803,0.00001366,-0.00007389,0.00006411,0.00051603,-
 0.00029079,-0.00026450,-0.00013420,0.00013211,-0.00000655,0.00194048,0
 .00100554,0.00032686,0.00145509,0.00034501,0.00115576,0.38125733,-0.00
 040537,-0.00006225,-0.00007580,-0.00038143,0.00049036,0.00025611,-0.00
 198388,-0.00243278,-0.00127431,0.00055194,0.00065856,-0.00000675,-0.02
 078673,0.00521311,0.00484422,0.19584589,-0.11916135,-0.10041484,-0.000
 07633,0.00005323,0.00002955,0.00001060,-0.00000475,-0.00002602,0.00000
 076,0.00002545,0.00005337,0.00001831,-0.00008598,0.00005436,0.00007714
 ,0.00001720,-0.00002151,-0.00022429,0.00020583,-0.00083997,-0.00074297
 ,0.00052746,0.00025318,-0.17190364,0.11455590,-0.00055095,-0.00016715,
 -0.00007194,-0.00018573,0.00053416,0.00093819,-0.00241215,-0.00173694,
 -0.00222197,0.00013348,0.00012673,0.00004202,-0.02231806,0.00799608,0.
 00388567,0.16300253,-0.10375211,-0.09026797,-0.00009221,0.00002958,0.0
 0006553,0.00011481,0.00009848,-0.00002968,0.00003125,-0.00000485,0.000
 00178,-0.00010824,-0.00000473,0.00045024,-0.00001245,-0.00002562,0.000
 06550,-0.00060346,0.00044074,0.00067871,-0.00000962,-0.00070280,0.0001
 8337,-0.13698920,0.09716841,0.08628054\\0.00000377,0.00000511,-0.00000
 088,-0.00000071,-0.00000196,0.00000318,-0.00000021,0.00000234,-0.00000
 150,0.00000027,-0.00000105,-0.00001393,0.00000015,-0.00000168,0.000003
 57,0.00000357,0.00000230,-0.00000263,-0.00000280,-0.00000183,-0.000000
 28,-0.00000013,-0.00000371,0.00000235,0.00000008,0.00000080,0.00000395
 ,-0.00000013,0.00000388,-0.00000047,-0.00000013,-0.00000288,-0.0000032
 5,-0.00000014,-0.00000402,0.00000231,0.00000021,0.00000057,0.00000465,
 -0.00000378,0.00000213,0.00000294\\\@
 The archive entry for this job was punched.


 Everywhere is walking distance if you have the time.
                                    -- Steven Wright
 Job cpu time:       0 days  0 hours 19 minutes 27.0 seconds.
 Elapsed time:       0 days  0 hours 10 minutes 49.8 seconds.
 File lengths (MBytes):  RWF=    108 Int=      0 D2E=      0 Chk=     14 Scr=      1
 Normal termination of Gaussian 16 at Fri Jun  2 11:41:28 2023.
