 Entering Gaussian System, Link 0=g16
 Input=MEA-isolated-freq.gjf
 Output=MEA-isolated-freq.log
 Initial command:
 /software/commercial/gaussian/g16/AVX/g16/l1.exe "/scratch1/svicchi/G09-659873.pbs02/Gau-1889245.inp" -scrdir="/scratch1/svicchi/G09-659873.pbs02/"
 Entering Link 1 = /software/commercial/gaussian/g16/AVX/g16/l1.exe PID=   1889246.
  
 Copyright (c) 1988-2019, Gaussian, Inc.  All Rights Reserved.
  
 This is part of the Gaussian(R) 16 program.  It is based on
 the Gaussian(R) 09 system (copyright 2009, Gaussian, Inc.),
 the Gaussian(R) 03 system (copyright 2003, Gaussian, Inc.),
 the Gaussian(R) 98 system (copyright 1998, Gaussian, Inc.),
 the Gaussian(R) 94 system (copyright 1995, Gaussian, Inc.),
 the Gaussian 92(TM) system (copyright 1992, Gaussian, Inc.),
 the Gaussian 90(TM) system (copyright 1990, Gaussian, Inc.),
 the Gaussian 88(TM) system (copyright 1988, Gaussian, Inc.),
 the Gaussian 86(TM) system (copyright 1986, Carnegie Mellon
 University), and the Gaussian 82(TM) system (copyright 1983,
 Carnegie Mellon University). Gaussian is a federally registered
 trademark of Gaussian, Inc.
  
 This software contains proprietary and confidential information,
 including trade secrets, belonging to Gaussian, Inc.
  
 This software is provided under written license and may be
 used, copied, transmitted, or stored only in accord with that
 written license.
  
 The following legend is applicable only to US Government
 contracts under FAR:
  
                    RESTRICTED RIGHTS LEGEND
  
 Use, reproduction and disclosure by the US Government is
 subject to restrictions as set forth in subparagraphs (a)
 and (c) of the Commercial Computer Software - Restricted
 Rights clause in FAR 52.227-19.
  
 Gaussian, Inc.
 340 Quinnipiac St., Bldg. 40, Wallingford CT 06492
  
  
 ---------------------------------------------------------------
 Warning -- This program may not be used in any manner that
 competes with the business of Gaussian, Inc. or will provide
 assistance to any competitor of Gaussian, Inc.  The licensee
 of this program is prohibited from giving any competitor of
 Gaussian, Inc. access to this program.  By using this program,
 the user acknowledges that Gaussian, Inc. is engaged in the
 business of creating and licensing software in the field of
 computational chemistry and represents and warrants to the
 licensee that it is not a competitor of Gaussian, Inc. and that
 it will not use this program in any manner prohibited above.
 ---------------------------------------------------------------
  

 Cite this work as:
 Gaussian 16, Revision C.01,
 M. J. Frisch, G. W. Trucks, H. B. Schlegel, G. E. Scuseria, 
 M. A. Robb, J. R. Cheeseman, G. Scalmani, V. Barone, 
 G. A. Petersson, H. Nakatsuji, X. Li, M. Caricato, A. V. Marenich, 
 J. Bloino, B. G. Janesko, R. Gomperts, B. Mennucci, H. P. Hratchian, 
 J. V. Ortiz, A. F. Izmaylov, J. L. Sonnenberg, D. Williams-Young, 
 F. Ding, F. Lipparini, F. Egidi, J. Goings, B. Peng, A. Petrone, 
 T. Henderson, D. Ranasinghe, V. G. Zakrzewski, J. Gao, N. Rega, 
 G. Zheng, W. Liang, M. Hada, M. Ehara, K. Toyota, R. Fukuda, 
 J. Hasegawa, M. Ishida, T. Nakajima, Y. Honda, O. Kitao, H. Nakai, 
 T. Vreven, K. Throssell, J. A. Montgomery, Jr., J. E. Peralta, 
 F. Ogliaro, M. J. Bearpark, J. J. Heyd, E. N. Brothers, K. N. Kudin, 
 V. N. Staroverov, T. A. Keith, R. Kobayashi, J. Normand, 
 K. Raghavachari, A. P. Rendell, J. C. Burant, S. S. Iyengar, 
 J. Tomasi, M. Cossi, J. M. Millam, M. Klene, C. Adamo, R. Cammi, 
 J. W. Ochterski, R. L. Martin, K. Morokuma, O. Farkas, 
 J. B. Foresman, and D. J. Fox, Gaussian, Inc., Wallingford CT, 2019.
 
 ******************************************
 Gaussian 16:  ES64L-G16RevC.01  3-Jul-2019
                 2-Jun-2023 
 ******************************************
 %NProcShared=2
 Will use up to    2 processors via shared memory.
 %mem=55gb
 %chk=/scratch1/svicchi/G09-659873.pbs02/02-freq/MEA-isolated-freq.chk
 ----------------------------------------------------------------------
 #p freq=raman scale=0.967 pop=(nbo,full,hirshfeld) guess=read geom=all
 check b3lyp/6-311+G(d,p) int=grid=ultrafine EmpiricalDispersion=GD3BJ 
 SCRF=(Solvent=ethanol) scf=(xqc,intrep,maxconventionalcycle=350) nosym
 m
 ----------------------------------------------------------------------
 1/10=4,29=7,30=1,38=1,114=967000/1,3;
 2/12=2,15=1,40=1/2;
 3/5=4,6=6,7=111,11=2,14=-4,25=1,30=1,70=2201,71=2,72=4,74=-5,75=-5,116=-2,124=41,140=1/1,2,3;
 4/5=1/1;
 5/5=2,8=3,13=1,17=20,38=6,53=4,85=350,98=1/2,8;
 8/6=4,10=90,11=11/1;
 10/13=10,15=4,31=1/2;
 11/6=3,8=1,9=11,15=111,16=1,31=1/1,2,10;
 10/6=1,31=1/2;
 6/7=3,28=1,40=1,79=1/1,7;
 7/8=1,10=1,25=1,30=1/1,2,3,16;
 1/10=4,30=1/3;
 99//99;
 Leave Link    1 at Fri Jun  2 11:17:22 2023, MaxMem=  7381975040 cpu:               1.0 elap:               1.1
 (Enter /software/commercial/gaussian/g16/AVX/g16/l101.exe)
 Structure from the checkpoint file:  "/scratch1/svicchi/G09-659873.pbs02/02-freq/MEA-isolated-freq.chk"
 ----------------
 MEA-isolated.gjf
 ----------------
 Charge =  0 Multiplicity = 1
 No Z-Matrix found in chk file; cartesian coordinates used.
  O                                                 2.140809796863     -0.808116045213      0.093118485149
  C                                                 3.093717500089      0.261905719692      0.078183468023
  C                                                 4.479591547001     -0.346306784052     -0.069310993619
  H                                                 3.042300314844      0.842678495714      1.005760362469
  H                                                 2.894055593731      0.939865365779     -0.761834088685
  N                                                 5.486875638132      0.721034705192     -0.135449534099
  H                                                 4.481998663580     -1.007574949412     -0.947173376560
  H                                                 4.690471869387     -0.965978972592      0.806283822486
  H                                                 1.261825187699     -0.432984943348      0.207882194505
  H                                                 5.435938020929      1.197499926858     -1.031346087037
  H                                                 6.419165867745      0.325567481382     -0.074724252633
 Recover connectivity data from disk.
 ITRead=  0  0  0  0  0  0  0  0  0  0  0
 MicOpt= -1 -1 -1 -1 -1 -1 -1 -1 -1 -1 -1
 NAtoms=     11 NQM=       11 NQMF=       0 NMMI=      0 NMMIF=      0
                NMic=       0 NMicF=      0.
                    Isotopes and Nuclear Properties:
 (Nuclear quadrupole moments (NQMom) in fm**2, nuclear magnetic moments (NMagM)
  in nuclear magnetons)

  Atom         1           2           3           4           5           6           7           8           9          10
 IAtWgt=          16          12          12           1           1          14           1           1           1           1
 AtmWgt=  15.9949146  12.0000000  12.0000000   1.0078250   1.0078250  14.0030740   1.0078250   1.0078250   1.0078250   1.0078250
 NucSpn=           0           0           0           1           1           2           1           1           1           1
 AtZEff=   5.6000000   3.6000000   3.6000000   1.0000000   1.0000000   4.5500000   1.0000000   1.0000000   1.0000000   1.0000000
 NQMom=    0.0000000   0.0000000   0.0000000   0.0000000   0.0000000   2.0440000   0.0000000   0.0000000   0.0000000   0.0000000
 NMagM=    0.0000000   0.0000000   0.0000000   2.7928460   2.7928460   0.4037610   2.7928460   2.7928460   2.7928460   2.7928460
 AtZNuc=   8.0000000   6.0000000   6.0000000   1.0000000   1.0000000   7.0000000   1.0000000   1.0000000   1.0000000   1.0000000

  Atom        11
 IAtWgt=           1
 AtmWgt=   1.0078250
 NucSpn=           1
 AtZEff=   1.0000000
 NQMom=    0.0000000
 NMagM=    2.7928460
 AtZNuc=   1.0000000
 Leave Link  101 at Fri Jun  2 11:17:25 2023, MaxMem=  7381975040 cpu:               0.5 elap:               1.7
 (Enter /software/commercial/gaussian/g16/AVX/g16/l103.exe)

 GradGradGradGradGradGradGradGradGradGradGradGradGradGradGradGradGradGrad
 Berny optimization.
 Initialization pass.
 Trust Radius=3.00D-01 FncErr=1.00D-07 GrdErr=1.00D-07 EigMax=2.50D+02 EigMin=1.00D-04
 Number of steps in this run=      2 maximum allowed number of steps=      2.
 GradGradGradGradGradGradGradGradGradGradGradGradGradGradGradGradGradGrad

 Leave Link  103 at Fri Jun  2 11:17:27 2023, MaxMem=  7381975040 cpu:               0.1 elap:               1.1
 (Enter /software/commercial/gaussian/g16/AVX/g16/l202.exe)
                          Input orientation:                          
 ---------------------------------------------------------------------
 Center     Atomic      Atomic             Coordinates (Angstroms)
 Number     Number       Type             X           Y           Z
 ---------------------------------------------------------------------
      1          8           0        2.140810   -0.808116    0.093118
      2          6           0        3.093718    0.261906    0.078183
      3          6           0        4.479592   -0.346307   -0.069311
      4          1           0        3.042300    0.842678    1.005760
      5          1           0        2.894056    0.939865   -0.761834
      6          7           0        5.486876    0.721035   -0.135450
      7          1           0        4.481999   -1.007575   -0.947173
      8          1           0        4.690472   -0.965979    0.806284
      9          1           0        1.261825   -0.432985    0.207882
     10          1           0        5.435938    1.197500   -1.031346
     11          1           0        6.419166    0.325567   -0.074724
 ---------------------------------------------------------------------
                    Distance matrix (angstroms):
                    1          2          3          4          5
     1  O    0.000000
     2  C    1.432900   0.000000
     3  C    2.389467   1.520633   0.000000
     4  H    2.090627   1.095600   2.152968   0.000000
     5  H    2.086567   1.097781   2.155864   1.776461   0.000000
     6  N    3.686014   2.446149   1.469086   2.700575   2.676371
     7  H    2.569661   2.142490   1.099056   3.051249   2.519611
     8  H    2.652226   2.141835   1.093220   2.455097   3.052597
     9  H    0.962553   1.963549   3.230847   2.331098   2.342914
    10  H    4.018057   2.755429   2.055103   3.163100   2.569081
    11  H    4.429192   3.329571   2.052655   3.583026   3.643609
                    6          7          8          9         10
     6  N    0.000000
     7  H    2.157954   0.000000
     8  H    2.089769   1.766297   0.000000
     9  H    4.393255   3.468980   3.521049   0.000000
    10  H    1.015994   2.404047   2.934833   4.649450   0.000000
    11  H    1.014518   2.508197   2.330805   5.220482   1.625463
                   11
    11  H    0.000000
 Symmetry turned off by external request.
 Stoichiometry    C2H7NO
 Framework group  C1[X(C2H7NO)]
 Deg. of freedom    27
 Full point group                 C1      NOp   1
 Rotational constants (GHZ):          28.8776746           3.8701913           3.6072787
 Leave Link  202 at Fri Jun  2 11:17:30 2023, MaxMem=  7381975040 cpu:               0.0 elap:               0.7
 (Enter /software/commercial/gaussian/g16/AVX/g16/l301.exe)
 Standard basis: 6-311+G(d,p) (5D, 7F)
 Ernie: Thresh=  0.10000D-02 Tol=  0.10000D-05 Strict=F.
   130 basis functions,   200 primitive gaussians,   134 cartesian basis functions
    17 alpha electrons       17 beta electrons
       nuclear repulsion energy       130.6927544132 Hartrees.
 IExCor=  402 DFT=T Ex+Corr=B3LYP ExCW=0 ScaHFX=  0.200000
 ScaDFX=  0.800000  0.720000  1.000000  0.810000 ScalE2=  1.000000  1.000000
 IRadAn=      5 IRanWt=     -1 IRanGd=            0 ICorTp=0 IEmpDi=141
 NAtoms=   11 NActive=   11 NUniq=   11 SFac= 1.00D+00 NAtFMM=   60 NAOKFM=F Big=F
 Integral buffers will be    131072 words long.
 Raffenetti 2 integral format.
 Two-electron integral symmetry is turned off.
 R6Disp:  Grimme-D3(BJ) Dispersion energy=       -0.0102374482 Hartrees.
 Nuclear repulsion after empirical dispersion term =      130.6825169650 Hartrees.
 Force inversion solution in PCM.
 ------------------------------------------------------------------------------
 Polarizable Continuum Model (PCM)
 =================================
 Model                : PCM.
 Atomic radii         : UFF (Universal Force Field).
 Polarization charges : Total charges.
 Charge compensation  : None.
 Solution method      : Matrix inversion.
 Cavity type          : Scaled VdW (van der Waals Surface) (Alpha=1.100).
 Cavity algorithm     : GePol (No added spheres)
                        Default sphere list used, NSphG=   11.
                        Lebedev-Laikov grids with approx.  5.0 points / Ang**2.
                        Smoothing algorithm: York/Karplus (Gamma=1.0000).
                        Polarization charges: spherical gaussians, with
                                              point-specific exponents (IZeta= 3).
                        Self-potential: point-specific (ISelfS= 7).
                        Self-field    : sphere-specific E.n sum rule (ISelfD= 2).
 1st derivatives      : Analytical E(r).r(x)/FMM algorithm (CHGder, D1EAlg=3).
                        Cavity 1st derivative terms included.
 2nd derivatives      : Analytical E(r).r(xy)/FMM algorithm (CHGder, D2EAlg=3).
                        Cavity 2nd derivative terms included.
 Solvent              : Ethanol, Eps=  24.852000 Eps(inf)=   1.852593
 ------------------------------------------------------------------------------
 Spheres list:
 ISph  on   Nord     Re0    Alpha      Xe            Ye            Ze
    1   O      1    1.7500  1.100      2.140810     -0.808116      0.093118
    2   C      2    1.9255  1.100      3.093718      0.261906      0.078183
    3   C      3    1.9255  1.100      4.479592     -0.346307     -0.069311
    4   H      4    1.4430  1.100      3.042300      0.842678      1.005760
    5   H      5    1.4430  1.100      2.894056      0.939865     -0.761834
    6   N      6    1.8300  1.100      5.486876      0.721035     -0.135450
    7   H      7    1.4430  1.100      4.481999     -1.007575     -0.947173
    8   H      8    1.4430  1.100      4.690472     -0.965979      0.806284
    9   H      9    1.4430  1.100      1.261825     -0.432985      0.207882
   10   H     10    1.4430  1.100      5.435938      1.197500     -1.031346
   11   H     11    1.4430  1.100      6.419166      0.325567     -0.074724
 ------------------------------------------------------------------------------
 GePol: Number of generator spheres                  =      11
 GePol: Total number of spheres                      =      11
 GePol: Number of exposed spheres                    =      11 (100.00%)
 GePol: Number of points                             =     949
 GePol: Average weight of points                     =       0.13
 GePol: Minimum weight of points                     =   0.12D-06
 GePol: Maximum weight of points                     =    0.20577
 GePol: Number of points with low weight             =      56
 GePol: Fraction of low-weight points (<1% of avg)   =       5.90%
 GePol: Cavity surface area                          =    127.736 Ang**2
 GePol: Cavity volume                                =    110.221 Ang**3
 Leave Link  301 at Fri Jun  2 11:17:33 2023, MaxMem=  7381975040 cpu:               1.7 elap:               2.3
 (Enter /software/commercial/gaussian/g16/AVX/g16/l302.exe)
 NPDir=0 NMtPBC=     1 NCelOv=     1 NCel=       1 NClECP=     1 NCelD=      1
         NCelK=      1 NCelE2=     1 NClLst=     1 CellRange=     0.0.
 One-electron integrals computed using PRISM.
 NBasis=   130 RedAO= T EigKep=  8.57D-05  NBF=   130
 NBsUse=   130 1.00D-06 EigRej= -1.00D+00 NBFU=   130
 Precomputing XC quadrature grid using
 IXCGrd= 4 IRadAn=           5 IRanWt=          -1 IRanGd=           0 AccXCQ= 0.00D+00.
 Generated NRdTot=       0 NPtTot=           0 NUsed=           0 NTot=          32
 NSgBfM=   134   134   134   134   134 MxSgAt=    11 MxSgA2=    11.
 Leave Link  302 at Fri Jun  2 11:17:36 2023, MaxMem=  7381975040 cpu:               0.6 elap:               1.8
 (Enter /software/commercial/gaussian/g16/AVX/g16/l303.exe)
 DipDrv:  MaxL=1.
 Leave Link  303 at Fri Jun  2 11:17:39 2023, MaxMem=  7381975040 cpu:               0.1 elap:               2.1
 (Enter /software/commercial/gaussian/g16/AVX/g16/l401.exe)
 Initial guess from the checkpoint file:  "/scratch1/svicchi/G09-659873.pbs02/02-freq/MEA-isolated-freq.chk"
 B after Tr=     0.000000    0.000000    0.000000
         Rot=    1.000000    0.000000    0.000000    0.000000 Ang=   0.00 deg.
 Guess basis will be translated and rotated to current coordinates.
 JPrj=2 DoOrth=T DoCkMO=T.
 Leave Link  401 at Fri Jun  2 11:17:42 2023, MaxMem=  7381975040 cpu:               0.8 elap:               1.3
 (Enter /software/commercial/gaussian/g16/AVX/g16/l502.exe)
 Keep R1 ints in memory in canonical form, NReq=38177834.
 FoFCou: FMM=F IPFlag=           0 FMFlag=           0 FMFlg1=           0
         NFxFlg=           0 DoJE=F BraDBF=F KetDBF=F FulRan=T
         wScrn=  0.000000 ICntrl=       600 IOpCl=  0 I1Cent=           0 NGrid=           0
         NMat0=    1 NMatS0=   8515 NMatT0=    0 NMatD0=    1 NMtDS0=    0 NMtDT0=    0
 Symmetry not used in FoFCou.
 Two-electron integral symmetry not used.
 Closed shell SCF:
 Using DIIS extrapolation, IDIIS=  1040.
 NGot=  7381975040 LenX=  7345680024 LenY=  7345661627
 Requested convergence on RMS density matrix=1.00D-08 within 350 cycles.
 Requested convergence on MAX density matrix=1.00D-06.
 Requested convergence on             energy=1.00D-06.
 No special actions if energy rises.

 Cycle   1  Pass 1  IDiag  1:
 Inv3:  Mode=1 IEnd=     2701803.
 Iteration    1 A*A^-1 deviation from unit magnitude is 2.44D-15 for    580.
 Iteration    1 A*A^-1 deviation from orthogonality  is 1.75D-15 for    850    438.
 Iteration    1 A^-1*A deviation from unit magnitude is 2.00D-15 for    922.
 Iteration    1 A^-1*A deviation from orthogonality  is 1.82D-14 for    916    880.
 E= -210.477897796620    
 DIIS: error= 3.12D-08 at cycle   1 NSaved=   1.
 NSaved= 1 IEnMin= 1 EnMin= -210.477897796620     IErMin= 1 ErrMin= 3.12D-08
 ErrMax= 3.12D-08  0.00D+00 EMaxC= 1.00D-01 BMatC= 9.84D-14 BMatP= 9.84D-14
 IDIUse=1 WtCom= 1.00D+00 WtEn= 0.00D+00
 Coeff-Com:  0.100D+01
 Coeff:      0.100D+01
 Gap=     0.261 Goal=   None    Shift=    0.000
 RMSDP=3.73D-09 MaxDP=1.07D-07              OVMax= 1.54D-07

 Error on total polarization charges =  0.01172
 SCF Done:  E(RB3LYP) =  -210.477897797     A.U. after    1 cycles
            NFock=  1  Conv=0.37D-08     -V/T= 2.0042
 KE= 2.096005254682D+02 PE=-7.537838676729D+02 EE= 2.030229274431D+02
 Leave Link  502 at Fri Jun  2 11:17:50 2023, MaxMem=  7381975040 cpu:              11.1 elap:               7.0
 (Enter /software/commercial/gaussian/g16/AVX/g16/l508.exe)
 QCSCF skips out because SCF is already converged.
 Leave Link  508 at Fri Jun  2 11:17:52 2023, MaxMem=  7381975040 cpu:               0.0 elap:               1.0
 (Enter /software/commercial/gaussian/g16/AVX/g16/l801.exe)
 DoSCS=F DFT=T ScalE2(SS,OS)=  1.000000  1.000000
 Range of M.O.s used for correlation:     1   130
 NBasis=   130 NAE=    17 NBE=    17 NFC=     0 NFV=     0
 NROrb=    130 NOA=    17 NOB=    17 NVA=   113 NVB=   113

 **** Warning!!: The largest alpha MO coefficient is  0.32050195D+02

 Leave Link  801 at Fri Jun  2 11:17:56 2023, MaxMem=  7381975040 cpu:               0.2 elap:               1.1
 (Enter /software/commercial/gaussian/g16/AVX/g16/l1002.exe)
 Minotr:  Closed shell wavefunction.
 NEqPCM:  Using equilibrium solvation (IEInf=0, Eps=  24.8520, EpsInf=   1.8526)
          Direct CPHF calculation.
          Differentiating once with respect to electric field.
                with respect to dipole field.
          Electric field/nuclear overlap derivatives assumed to be zero.
          Requested convergence is 1.0D-08 RMS, and 1.0D-07 maximum.
          Secondary convergence is 1.0D-12 RMS, and 1.0D-12 maximum.
          NewPWx=F KeepS1=T KeepF1=T KeepIn=T MapXYZ=F SortEE=F KeepMc=T.
         3349 words used for storage of precomputed grid.
 Keep R1 ints in memory in canonical form, NReq=39790179.
 FoFCou: FMM=F IPFlag=           0 FMFlag=           0 FMFlg1=           0
         NFxFlg=           0 DoJE=F BraDBF=F KetDBF=F FulRan=T
         wScrn=  0.000000 ICntrl=       600 IOpCl=  0 I1Cent=           0 NGrid=           0
         NMat0=    1 NMatS0=   8515 NMatT0=    0 NMatD0=    1 NMtDS0=    0 NMtDT0=    0
 Symmetry not used in FoFCou.
 Two-electron integral symmetry not used.
          MDV=    7381975040 using IRadAn=       1.
          Solving linear equations simultaneously, MaxMat=       0.
          There are     3 degrees of freedom in the 1st order CPHF.  IDoFFX=0 NUNeed=     3.
      3 vectors produced by pass  0 Test12= 6.40D-14 3.33D-08 XBig12= 2.38D+01 1.34D+00.
 AX will form     3 AO Fock derivatives at one time.
      3 vectors produced by pass  1 Test12= 6.40D-14 3.33D-08 XBig12= 2.97D+00 4.21D-01.
      3 vectors produced by pass  2 Test12= 6.40D-14 3.33D-08 XBig12= 5.79D-01 1.07D-01.
      3 vectors produced by pass  3 Test12= 6.40D-14 3.33D-08 XBig12= 4.38D-02 4.22D-02.
      3 vectors produced by pass  4 Test12= 6.40D-14 3.33D-08 XBig12= 4.24D-03 1.03D-02.
      3 vectors produced by pass  5 Test12= 6.40D-14 3.33D-08 XBig12= 6.38D-05 1.72D-03.
      3 vectors produced by pass  6 Test12= 6.40D-14 3.33D-08 XBig12= 1.39D-06 1.99D-04.
      3 vectors produced by pass  7 Test12= 6.40D-14 3.33D-08 XBig12= 4.54D-08 4.46D-05.
      3 vectors produced by pass  8 Test12= 6.40D-14 3.33D-08 XBig12= 8.34D-10 7.12D-06.
      3 vectors produced by pass  9 Test12= 6.40D-14 3.33D-08 XBig12= 1.24D-11 6.23D-07.
      2 vectors produced by pass 10 Test12= 6.40D-14 3.33D-08 XBig12= 4.07D-13 1.45D-07.
 InvSVY:  IOpt=1 It=  1 EMax= 3.55D-15
 Solved reduced A of dimension    32 with     3 vectors.
 End of Minotr F.D. properties file   721 does not exist.
 End of Minotr F.D. properties file   722 does not exist.
 End of Minotr F.D. properties file   788 does not exist.
 Leave Link 1002 at Fri Jun  2 11:18:26 2023, MaxMem=  7381975040 cpu:              50.6 elap:              29.4
 (Enter /software/commercial/gaussian/g16/AVX/g16/l1101.exe)
 Using compressed storage, NAtomX=    11.
 Will process     12 centers per pass.
 R6Disp: Adding Grimme-D3(BJ) dispersion energy 1st derivatives to the gradient.
 Leave Link 1101 at Fri Jun  2 11:18:28 2023, MaxMem=  7381975040 cpu:               0.5 elap:               1.1
 (Enter /software/commercial/gaussian/g16/AVX/g16/l1102.exe)
 Symmetrizing basis deriv contribution to polar:
 IMax=3 JMax=2 DiffMx= 0.00D+00
 Leave Link 1102 at Fri Jun  2 11:18:32 2023, MaxMem=  7381975040 cpu:               0.3 elap:               1.6
 (Enter /software/commercial/gaussian/g16/AVX/g16/l1110.exe)
 Forming Gx(P) for the SCF density, NAtomX=    11.
 Integral derivatives from FoFJK, PRISM(SPDF).
 Do as many integral derivatives as possible in FoFJK.
 G2DrvN: MDV=    7381973771.
 G2DrvN: will do    12 centers at a time, making    1 passes.
 PxScal for G2LodP:  IOpCl= 0 ISclPx=1 IMOff=     1 NMtTot=     4 NTT=    8515 ScalPx= 3.67D+00
 Calling FoFCou, ICntrl=  3107 FMM=F I1Cent=   0 AccDes= 0.00D+00.
 FoFJK:  IHMeth= 1 ICntrl=    3107 DoSepK=F KAlg= 0 I1Cent=           0 FoldK=F
 IRaf=         0 NMat=       1 IRICut=       1 DoRegI=T DoRafI=F ISym2E= 0 IDoP0=0 IntGTp=1.
 FoFCou: FMM=F IPFlag=           0 FMFlag=      100000 FMFlg1=           0
         NFxFlg=           0 DoJE=F BraDBF=F KetDBF=F FulRan=T
         wScrn=  0.000000 ICntrl=      3107 IOpCl=  0 I1Cent=           0 NGrid=           0
         NMat0=    1 NMatS0=      1 NMatT0=    0 NMatD0=    4 NMtDS0=    3 NMtDT0=    0
 Symmetry not used in FoFCou.
 PxScal for G2LodP:  IOpCl= 0 ISclPx=0 IMOff=     1 NMtTot=     4 NTT=    8515 ScalPx= 1.00D+00
 NEqPCM:  Using equilibrium solvation (IEInf=0, Eps=  24.8520, EpsInf=   1.8526)
 G2PCM: DoFxE=T DoFxN=T DoGrad=T DoDP/DQ/DG/TGxP=TFFF NFrqRd=   0 IEInf=0 SqF1=F DoCFld=F IF1Alg=4.
 GePol: Maximum number of non-zero 1st derivatives   =     200
 End of G2Drv F.D. properties file   721 does not exist.
 End of G2Drv F.D. properties file   722 does not exist.
 End of G2Drv F.D. properties file   788 does not exist.
 Leave Link 1110 at Fri Jun  2 11:19:58 2023, MaxMem=  7381975040 cpu:             159.9 elap:              84.1
 (Enter /software/commercial/gaussian/g16/AVX/g16/l1002.exe)
 Minotr:  Closed shell wavefunction.
          IDoAtm=11111111111
 NEqPCM:  Using equilibrium solvation (IEInf=0, Eps=  24.8520, EpsInf=   1.8526)
          Direct CPHF calculation.
          Differentiating once with respect to electric field.
                with respect to dipole field.
          Differentiating once with respect to nuclear coordinates.
          Requested convergence is 1.0D-08 RMS, and 1.0D-07 maximum.
          Secondary convergence is 1.0D-12 RMS, and 1.0D-12 maximum.
          NewPWx=T KeepS1=F KeepF1=F KeepIn=T MapXYZ=F SortEE=F KeepMc=T.
         3349 words used for storage of precomputed grid.
 Keep R1 ints in memory in canonical form, NReq=39790432.
 FoFCou: FMM=F IPFlag=           0 FMFlag=           0 FMFlg1=           0
         NFxFlg=           0 DoJE=F BraDBF=F KetDBF=F FulRan=T
         wScrn=  0.000000 ICntrl=       600 IOpCl=  0 I1Cent=           0 NGrid=           0
         NMat0=    1 NMatS0=   8515 NMatT0=    0 NMatD0=    1 NMtDS0=    0 NMtDT0=    0
 Symmetry not used in FoFCou.
 Two-electron integral symmetry not used.
          MDV=    7381975040 using IRadAn=       1.
          Solving linear equations simultaneously, MaxMat=       0.
          There are    36 degrees of freedom in the 1st order CPHF.  IDoFFX=5 NUNeed=    36.
 Will reuse    3 saved solutions.
     30 vectors produced by pass  0 Test12= 5.34D-15 2.78D-09 XBig12= 8.27D-02 6.28D-02.
 AX will form    30 AO Fock derivatives at one time.
     30 vectors produced by pass  1 Test12= 5.34D-15 2.78D-09 XBig12= 1.03D-02 2.28D-02.
     30 vectors produced by pass  2 Test12= 5.34D-15 2.78D-09 XBig12= 1.64D-04 2.12D-03.
     30 vectors produced by pass  3 Test12= 5.34D-15 2.78D-09 XBig12= 6.36D-07 1.19D-04.
     30 vectors produced by pass  4 Test12= 5.34D-15 2.78D-09 XBig12= 1.34D-09 5.04D-06.
     19 vectors produced by pass  5 Test12= 5.34D-15 2.78D-09 XBig12= 1.20D-12 1.84D-07.
      4 vectors produced by pass  6 Test12= 5.34D-15 2.78D-09 XBig12= 7.55D-16 3.93D-09.
 InvSVY:  IOpt=1 It=  1 EMax= 1.44D-15
 Solved reduced A of dimension   173 with    30 vectors.
 FullF1:  Do perturbations      1 to       3.
 Isotropic polarizability for W=    0.000000       48.61 Bohr**3.
 FullF1:  Do perturbations      1 to       6.
 End of Minotr F.D. properties file   721 does not exist.
 End of Minotr F.D. properties file   722 does not exist.
 End of Minotr F.D. properties file   788 does not exist.
 Leave Link 1002 at Fri Jun  2 11:21:15 2023, MaxMem=  7381975040 cpu:             130.0 elap:              74.2
 (Enter /software/commercial/gaussian/g16/AVX/g16/l601.exe)
 Copying SCF densities to generalized density rwf, IOpCl= 0 IROHF=0.

 **********************************************************************

            Population analysis using the SCF Density.

 **********************************************************************

 Alpha  occ. eigenvalues --  -19.13086 -14.30069 -10.21707 -10.19488  -1.02908
 Alpha  occ. eigenvalues --   -0.88845  -0.72824  -0.60758  -0.52693  -0.50186
 Alpha  occ. eigenvalues --   -0.46362  -0.43083  -0.40489  -0.37337  -0.34374
 Alpha  occ. eigenvalues --   -0.28715  -0.25490
 Alpha virt. eigenvalues --    0.00569   0.00669   0.03239   0.04101   0.06498
 Alpha virt. eigenvalues --    0.07036   0.07780   0.10374   0.12124   0.12626
 Alpha virt. eigenvalues --    0.13689   0.16413   0.17726   0.17877   0.17950
 Alpha virt. eigenvalues --    0.19528   0.20528   0.22351   0.23670   0.24196
 Alpha virt. eigenvalues --    0.24690   0.26009   0.27400   0.28005   0.32588
 Alpha virt. eigenvalues --    0.34225   0.41266   0.42827   0.48468   0.52020
 Alpha virt. eigenvalues --    0.54610   0.55083   0.56762   0.61028   0.63226
 Alpha virt. eigenvalues --    0.65539   0.66630   0.68696   0.69984   0.77294
 Alpha virt. eigenvalues --    0.79976   0.83201   0.88012   0.94304   1.00568
 Alpha virt. eigenvalues --    1.02352   1.05807   1.11241   1.16155   1.20167
 Alpha virt. eigenvalues --    1.25757   1.32786   1.36112   1.39656   1.44714
 Alpha virt. eigenvalues --    1.49213   1.53299   1.54907   1.59197   1.61333
 Alpha virt. eigenvalues --    1.63810   1.65573   1.66970   1.70677   1.75503
 Alpha virt. eigenvalues --    1.77657   1.80310   1.83561   1.94308   2.02398
 Alpha virt. eigenvalues --    2.05236   2.06793   2.09399   2.17318   2.23503
 Alpha virt. eigenvalues --    2.31217   2.39590   2.43601   2.48261   2.50755
 Alpha virt. eigenvalues --    2.51683   2.56527   2.57904   2.62326   2.64228
 Alpha virt. eigenvalues --    2.68245   2.73988   2.76507   2.80088   2.87849
 Alpha virt. eigenvalues --    2.93116   2.96095   3.09623   3.10736   3.17490
 Alpha virt. eigenvalues --    3.20108   3.30087   3.51335   3.79078   3.81654
 Alpha virt. eigenvalues --    3.85878   3.96523   4.06883   4.24707   4.71945
 Alpha virt. eigenvalues --    4.83031   4.99228   5.35547   5.64388  23.82384
 Alpha virt. eigenvalues --   23.85095  35.57938  49.89229
     Molecular Orbital Coefficients:
                           1         2         3         4         5
                           O         O         O         O         O
     Eigenvalues --   -19.13086 -14.30069 -10.21707 -10.19488  -1.02908
   1 1   O  1S          0.55133   0.00000  -0.00002   0.00000  -0.11180
   2        2S          0.46974   0.00001  -0.00007   0.00000  -0.17888
   3        2PX        -0.00029   0.00002   0.00007   0.00000  -0.00904
   4        2PY         0.00122   0.00001   0.00011   0.00003   0.04630
   5        2PZ         0.00012  -0.00000   0.00000  -0.00000   0.00431
   6        3S          0.01348  -0.00011   0.00055   0.00011   0.51781
   7        3PX        -0.00012  -0.00008   0.00014   0.00000  -0.01198
   8        3PY         0.00003  -0.00004  -0.00001  -0.00008   0.07417
   9        3PZ         0.00001   0.00000  -0.00002   0.00001   0.00664
  10        4S         -0.00912   0.00051  -0.00050  -0.00120   0.37851
  11        4PX        -0.00125   0.00038   0.00050  -0.00006   0.00451
  12        4PY        -0.00101   0.00023  -0.00011  -0.00053   0.03310
  13        4PZ         0.00006  -0.00001  -0.00003  -0.00006   0.00199
  14        5S          0.00715   0.00120   0.00765  -0.00142  -0.04560
  15        5PX        -0.00017   0.00038   0.00039   0.00067  -0.00427
  16        5PY         0.00075   0.00048   0.00205  -0.00028  -0.00918
  17        5PZ         0.00007   0.00000   0.00011  -0.00001  -0.00024
  18        6D 0       -0.00011  -0.00000   0.00015   0.00005  -0.00893
  19        6D+1       -0.00005  -0.00000   0.00002   0.00001  -0.00166
  20        6D-1        0.00002   0.00000  -0.00001  -0.00001   0.00089
  21        6D+2        0.00018   0.00001   0.00001   0.00002   0.00192
  22        6D-2       -0.00017  -0.00000  -0.00012  -0.00003   0.00112
  23 2   C  1S          0.00002  -0.00000   0.56304  -0.00297  -0.04050
  24        2S         -0.00007   0.00001   0.46330  -0.00243  -0.06232
  25        2PX        -0.00007   0.00005  -0.00063   0.00047  -0.02991
  26        2PY        -0.00016  -0.00004  -0.00089  -0.00027  -0.03166
  27        2PZ        -0.00000  -0.00001  -0.00004  -0.00005   0.00055
  28        3S          0.00008   0.00009   0.01857  -0.00007   0.16167
  29        3PX        -0.00030  -0.00033   0.00033  -0.00113  -0.04869
  30        3PY         0.00020   0.00018   0.00239   0.00085  -0.05768
  31        3PZ         0.00003   0.00004   0.00016   0.00015   0.00047
  32        4S          0.00464  -0.00245  -0.01412   0.00496   0.02941
  33        4PX         0.00009  -0.00026  -0.00067   0.00165  -0.01446
  34        4PY        -0.00162   0.00105   0.00158  -0.00094   0.00234
  35        4PZ        -0.00018  -0.00000  -0.00000  -0.00020   0.00146
  36        5S         -0.01476   0.00287  -0.01605   0.00947   0.11988
  37        5PX        -0.00240   0.00062  -0.00317   0.00204   0.01410
  38        5PY         0.00280  -0.00007   0.00056  -0.00119  -0.02175
  39        5PZ         0.00035   0.00004   0.00022  -0.00039  -0.00221
  40        6D 0        0.00015   0.00004   0.00097   0.00048  -0.01349
  41        6D+1        0.00001   0.00001   0.00014   0.00014  -0.00089
  42        6D-1       -0.00000  -0.00001  -0.00001  -0.00007  -0.00035
  43        6D+2        0.00004  -0.00011  -0.00042  -0.00046   0.00097
  44        6D-2       -0.00016   0.00011  -0.00056   0.00059   0.01970
  45 3   C  1S          0.00000   0.00001   0.00294   0.56301  -0.00971
  46        2S         -0.00000  -0.00002   0.00243   0.46328  -0.01494
  47        2PX        -0.00003   0.00021  -0.00047   0.00033  -0.00805
  48        2PY         0.00002   0.00029   0.00028   0.00064   0.00118
  49        2PZ         0.00000  -0.00001   0.00004  -0.00002   0.00065
  50        3S          0.00014   0.00003   0.00018   0.01868   0.03695
  51        3PX         0.00021  -0.00024   0.00113  -0.00017  -0.01688
  52        3PY        -0.00013  -0.00075  -0.00091  -0.00220   0.00507
  53        3PZ        -0.00002  -0.00002  -0.00009   0.00013   0.00153
  54        4S         -0.00252   0.00533   0.00392  -0.01384   0.03859
  55        4PX         0.00074   0.00066  -0.00156   0.00109  -0.01110
  56        4PY        -0.00086   0.00185   0.00072  -0.00148   0.00562
  57        4PZ         0.00004   0.00021   0.00039  -0.00028   0.00069
  58        5S          0.01323  -0.00688   0.01177  -0.01643  -0.09570
  59        5PX        -0.00292  -0.00040  -0.00206   0.00097   0.02522
  60        5PY         0.00135  -0.00199   0.00168  -0.00149  -0.00882
  61        5PZ         0.00034  -0.00020   0.00046  -0.00003  -0.00282
  62        6D 0        0.00003   0.00035   0.00048   0.00084  -0.00249
  63        6D+1        0.00002   0.00005   0.00018   0.00026  -0.00080
  64        6D-1        0.00000   0.00007  -0.00006   0.00003   0.00001
  65        6D+2       -0.00011  -0.00000  -0.00049  -0.00048   0.00404
  66        6D-2        0.00007  -0.00044   0.00060  -0.00037  -0.00163
  67 4   H  1S          0.00004   0.00004   0.00006  -0.00008   0.01544
  68        2S         -0.00101  -0.00019  -0.00297  -0.00091   0.02581
  69        3S          0.00039  -0.00051   0.00400   0.00027  -0.00934
  70        4PX         0.00008  -0.00013  -0.00010   0.00005  -0.00038
  71        4PY         0.00027  -0.00002   0.00102   0.00014  -0.00481
  72        4PZ         0.00017   0.00011   0.00195   0.00029  -0.00584
  73 5   H  1S          0.00004   0.00005   0.00007  -0.00008   0.01553
  74        2S         -0.00106  -0.00027  -0.00297  -0.00086   0.02596
  75        3S          0.00032  -0.00041   0.00377   0.00015  -0.00893
  76        4PX         0.00005  -0.00014  -0.00040   0.00001   0.00064
  77        4PY         0.00029  -0.00001   0.00121   0.00016  -0.00539
  78        4PZ        -0.00015  -0.00009  -0.00176  -0.00027   0.00526
  79 6   N  1S         -0.00000   0.55739   0.00000  -0.00003  -0.00328
  80        2S          0.00001   0.46575   0.00001  -0.00005  -0.00514
  81        2PX        -0.00003   0.00009  -0.00002  -0.00017  -0.00144
  82        2PY         0.00000  -0.00083  -0.00005  -0.00019  -0.00142
  83        2PZ         0.00001  -0.00086  -0.00000   0.00000  -0.00050
  84        3S         -0.00015   0.01556   0.00006   0.00044   0.01418
  85        3PX         0.00013   0.00062   0.00011   0.00015  -0.00325
  86        3PY        -0.00001  -0.00003   0.00018   0.00019  -0.00258
  87        3PZ        -0.00003  -0.00070   0.00001   0.00007  -0.00068
  88        4S          0.00095  -0.00848  -0.00100   0.00010   0.00450
  89        4PX        -0.00049   0.00222  -0.00002  -0.00046   0.00081
  90        4PY        -0.00017   0.00140   0.00033  -0.00030   0.00019
  91        4PZ        -0.00007  -0.00073  -0.00030   0.00024  -0.00043
  92        5S         -0.00122   0.00591   0.00061   0.01002   0.00271
  93        5PX        -0.00020  -0.00143  -0.00120  -0.00040  -0.00014
  94        5PY         0.00005  -0.00085   0.00060  -0.00208   0.00150
  95        5PZ        -0.00003   0.00053  -0.00057  -0.00026   0.00039
  96        6D 0        0.00000   0.00006   0.00005   0.00016  -0.00036
  97        6D+1        0.00001   0.00008   0.00001  -0.00000   0.00002
  98        6D-1       -0.00003  -0.00057   0.00000   0.00006  -0.00009
  99        6D+2        0.00002   0.00033   0.00004   0.00007   0.00018
 100        6D-2       -0.00000  -0.00037  -0.00009  -0.00033   0.00070
 101 7   H  1S          0.00002   0.00001  -0.00010   0.00009   0.00496
 102        2S         -0.00002  -0.00114  -0.00069  -0.00289   0.00461
 103        3S         -0.00058   0.00011   0.00007   0.00365   0.00276
 104        4PX         0.00011  -0.00010  -0.00008  -0.00000  -0.00089
 105        4PY         0.00000  -0.00033  -0.00015  -0.00115   0.00078
 106        4PZ        -0.00010  -0.00026  -0.00028  -0.00181   0.00174
 107 8   H  1S          0.00004  -0.00000  -0.00009   0.00006   0.00465
 108        2S         -0.00008  -0.00118  -0.00084  -0.00291   0.00445
 109        3S         -0.00068  -0.00000   0.00005   0.00384   0.00317
 110        4PX         0.00013   0.00004  -0.00001   0.00042  -0.00113
 111        4PY        -0.00001  -0.00024  -0.00015  -0.00110   0.00069
 112        4PZ         0.00008   0.00022   0.00030   0.00186  -0.00149
 113 9   H  1S         -0.00001  -0.00000  -0.00003  -0.00003   0.09197
 114        2S         -0.00005  -0.00000   0.00057   0.00056   0.07396
 115        3S         -0.00187  -0.00022  -0.00237   0.00100   0.00459
 116        4PX        -0.00072  -0.00003   0.00027   0.00019   0.02303
 117        4PY         0.00044  -0.00005  -0.00001  -0.00001  -0.00630
 118        4PZ         0.00011  -0.00000  -0.00002  -0.00002  -0.00276
 119 10  H  1S         -0.00001  -0.00000  -0.00000  -0.00014   0.00214
 120        2S         -0.00016  -0.00185  -0.00007   0.00056   0.00179
 121        3S          0.00000   0.00081  -0.00128  -0.00081   0.00032
 122        4PX         0.00001  -0.00022   0.00007  -0.00011  -0.00004
 123        4PY         0.00001   0.00073   0.00003  -0.00017  -0.00030
 124        4PZ        -0.00004  -0.00148  -0.00004   0.00010   0.00046
 125 11  H  1S          0.00002  -0.00002  -0.00002  -0.00013   0.00163
 126        2S         -0.00018  -0.00189   0.00023   0.00042   0.00266
 127        3S          0.00047   0.00078   0.00095  -0.00236  -0.00046
 128        4PX         0.00007   0.00147  -0.00010  -0.00003  -0.00091
 129        4PY         0.00003  -0.00079  -0.00001  -0.00004  -0.00002
 130        4PZ         0.00001   0.00016   0.00002  -0.00001  -0.00006
                           6         7         8         9        10
                           O         O         O         O         O
     Eigenvalues --    -0.88845  -0.72824  -0.60758  -0.52693  -0.50186
   1 1   O  1S          0.01196   0.02854  -0.01733  -0.01512   0.00756
   2        2S          0.01921   0.04604  -0.02803  -0.02471   0.01227
   3        2PX         0.00944   0.07112  -0.05772   0.19391  -0.00123
   4        2PY        -0.00258   0.01316  -0.04560  -0.00601   0.02861
   5        2PZ        -0.00114  -0.00585   0.00413  -0.01996   0.04357
   6        3S         -0.05655  -0.13786   0.08457   0.07702  -0.03682
   7        3PX         0.01410   0.10458  -0.08471   0.28029  -0.00114
   8        3PY        -0.00401   0.01937  -0.06677  -0.00571   0.04161
   9        3PZ        -0.00171  -0.00860   0.00613  -0.02869   0.06406
  10        4S         -0.04501  -0.11827   0.07446   0.09816  -0.04797
  11        4PX         0.00604   0.05479  -0.04502   0.18635  -0.00393
  12        4PY        -0.00231   0.01127  -0.04927  -0.00914   0.02906
  13        4PZ        -0.00092  -0.00447   0.00258  -0.01917   0.05135
  14        5S         -0.00157  -0.01619   0.02397  -0.00156  -0.03007
  15        5PX        -0.00279  -0.00978  -0.01167  -0.00075   0.01420
  16        5PY        -0.00114  -0.00038   0.00394  -0.00059  -0.00473
  17        5PZ         0.00024   0.00081   0.00077  -0.00017  -0.00188
  18        6D 0        0.00055   0.00015   0.00108   0.00168  -0.00080
  19        6D+1        0.00020   0.00096  -0.00088   0.00177   0.00217
  20        6D-1       -0.00020  -0.00062   0.00023  -0.00166   0.00492
  21        6D+2       -0.00016  -0.00284   0.00729  -0.00278  -0.00299
  22        6D-2        0.00125   0.00836  -0.00661   0.01616   0.00019
  23 2   C  1S         -0.01614  -0.07625   0.06058   0.00841  -0.01096
  24        2S         -0.02494  -0.11872   0.09501   0.01263  -0.01731
  25        2PX         0.02140   0.03831   0.04331  -0.03656  -0.02826
  26        2PY         0.00146  -0.00216  -0.04409  -0.11909   0.02162
  27        2PZ        -0.00227  -0.00292  -0.00153  -0.00600   0.08943
  28        3S          0.06497   0.32160  -0.26308  -0.03042   0.04634
  29        3PX         0.03573   0.05549   0.07142  -0.05748  -0.04188
  30        3PY        -0.00147  -0.01549  -0.05628  -0.18286   0.03087
  31        3PZ        -0.00371  -0.00523  -0.00227  -0.00905   0.13200
  32        4S          0.04393   0.18837  -0.16546  -0.03593   0.07377
  33        4PX         0.01102   0.01351   0.03495  -0.00894  -0.02157
  34        4PY        -0.00244  -0.00070  -0.04212  -0.08814   0.01238
  35        4PZ        -0.00002  -0.00002  -0.00101  -0.00911   0.07219
  36        5S         -0.03493   0.00434  -0.08541   0.02861   0.06107
  37        5PX        -0.00512   0.00534  -0.01975   0.01797   0.00485
  38        5PY         0.00698   0.01027   0.00202  -0.00016  -0.01225
  39        5PZ         0.00080   0.00229   0.00274  -0.00498   0.00382
  40        6D 0       -0.00207  -0.00331  -0.00523  -0.01541   0.00354
  41        6D+1       -0.00105  -0.00069  -0.00105   0.00026   0.00240
  42        6D-1        0.00027   0.00071   0.00112   0.00150   0.00110
  43        6D+2        0.00439   0.00002   0.00510  -0.01635   0.00044
  44        6D-2       -0.00457  -0.00711  -0.01050   0.01685   0.00289
  45 3   C  1S         -0.05590  -0.05953  -0.06905   0.00961   0.00685
  46        2S         -0.08621  -0.09239  -0.10792   0.01511   0.01068
  47        2PX         0.02649  -0.05301   0.03294  -0.02182   0.04130
  48        2PY         0.03100  -0.00484  -0.04788  -0.05654  -0.01586
  49        2PZ        -0.00316   0.00806   0.00608  -0.00391   0.09974
  50        3S          0.22566   0.24690   0.29633  -0.04206  -0.02829
  51        3PX         0.04282  -0.08190   0.05328  -0.03251   0.06024
  52        3PY         0.05606  -0.00018  -0.06446  -0.08373  -0.02421
  53        3PZ        -0.00568   0.01241   0.00852  -0.00567   0.14817
  54        4S          0.08625   0.15845   0.18715  -0.05087  -0.02818
  55        4PX         0.00976  -0.02265   0.02680  -0.01822   0.05462
  56        4PY         0.00446   0.00171  -0.04461  -0.05297  -0.01667
  57        4PZ        -0.00544   0.00021   0.00096   0.00362   0.09630
  58        5S          0.06980   0.02574   0.09571  -0.05489  -0.04217
  59        5PX        -0.00423  -0.00664  -0.01319  -0.01389   0.02985
  60        5PY         0.01028  -0.00448   0.00638  -0.02099   0.00384
  61        5PZ         0.00029  -0.00386   0.00009   0.00516   0.00658
  62        6D 0       -0.00992  -0.00138   0.00694   0.00303   0.00037
  63        6D+1       -0.00202   0.00014   0.00359  -0.00010   0.00256
  64        6D-1       -0.00254   0.00172   0.00013   0.00026   0.00007
  65        6D+2        0.00064   0.00322  -0.00391   0.00940   0.00859
  66        6D-2        0.01346  -0.01279   0.00618   0.00036   0.00114
  67 4   H  1S          0.00940   0.05422  -0.06945  -0.05584   0.07548
  68        2S          0.00996   0.06506  -0.08670  -0.06607   0.09332
  69        3S         -0.00134  -0.00741  -0.00239  -0.01412   0.02271
  70        4PX         0.00122   0.00254   0.00120  -0.00208  -0.00031
  71        4PY        -0.00101  -0.00617   0.00435  -0.00183  -0.00502
  72        4PZ        -0.00224  -0.00994   0.01074   0.00629  -0.00559
  73 5   H  1S          0.00990   0.05373  -0.07454  -0.05332  -0.02678
  74        2S          0.01174   0.06445  -0.09406  -0.06438  -0.03794
  75        3S         -0.00048  -0.00408  -0.00287  -0.02011  -0.00973
  76        4PX         0.00188   0.00409  -0.00151  -0.00329  -0.00354
  77        4PY        -0.00135  -0.00705   0.00597  -0.00133   0.00410
  78        4PZ         0.00193   0.00856  -0.01049  -0.00589   0.00136
  79 6   N  1S         -0.10038   0.04381   0.02163  -0.00401  -0.00451
  80        2S         -0.15766   0.06919   0.03429  -0.00631  -0.00723
  81        2PX        -0.00315  -0.04242  -0.03890   0.07676   0.08552
  82        2PY        -0.02980  -0.00948  -0.05334   0.01042  -0.07447
  83        2PZ        -0.02538   0.02330   0.03347  -0.00912   0.10639
  84        3S          0.43215  -0.19401  -0.09734   0.01685   0.02174
  85        3PX        -0.00827  -0.06268  -0.05762   0.11198   0.12354
  86        3PY        -0.04864  -0.01390  -0.07914   0.01609  -0.10840
  87        3PZ        -0.03825   0.03447   0.04886  -0.01327   0.15554
  88        4S          0.29817  -0.15194  -0.07480   0.02581   0.01537
  89        4PX        -0.00989  -0.02734  -0.02934   0.07049   0.07836
  90        4PY        -0.02193  -0.00316  -0.04916   0.00237  -0.06280
  91        4PZ        -0.01321   0.01483   0.02589  -0.00961   0.10036
  92        5S         -0.02989  -0.04707  -0.03634   0.07636  -0.03111
  93        5PX         0.01506   0.00568  -0.00488   0.00616   0.00327
  94        5PY         0.00722   0.00170   0.00722  -0.01408   0.00279
  95        5PZ        -0.00274   0.00824   0.00519  -0.00777   0.00514
  96        6D 0       -0.00327  -0.00274  -0.00636   0.00115  -0.01420
  97        6D+1        0.00103   0.00047   0.00065  -0.00199  -0.00646
  98        6D-1       -0.00437   0.00278   0.00369  -0.00043  -0.00014
  99        6D+2        0.00182  -0.00111  -0.00607   0.00111   0.00101
 100        6D-2        0.00339   0.00650   0.00737  -0.00795  -0.00768
 101 7   H  1S          0.02709   0.04238   0.07490   0.01702  -0.05851
 102        2S          0.03356   0.04783   0.09244   0.02574  -0.07001
 103        3S         -0.01039  -0.00376   0.00507   0.00171  -0.00898
 104        4PX         0.00068  -0.00259   0.00120  -0.00238   0.00222
 105        4PY         0.00565   0.00475   0.00553  -0.00050  -0.00592
 106        4PZ         0.00627   0.00717   0.01081   0.00277  -0.00214
 107 8   H  1S          0.02765   0.04421   0.08449   0.00861   0.06437
 108        2S          0.03674   0.05167   0.10474   0.01142   0.07748
 109        3S         -0.00663  -0.00079   0.00703  -0.00631   0.01268
 110        4PX        -0.00072  -0.00457  -0.00152  -0.00200  -0.00039
 111        4PY         0.00569   0.00489   0.00601  -0.00201   0.00520
 112        4PZ        -0.00641  -0.00671  -0.01159  -0.00182  -0.00307
 113 9   H  1S         -0.01481  -0.06431   0.04316  -0.12830   0.00551
 114        2S         -0.01239  -0.06520   0.05590  -0.16453   0.00753
 115        3S         -0.00016  -0.01233  -0.00511  -0.04663   0.01920
 116        4PX        -0.00292  -0.01057   0.00531  -0.01723   0.00270
 117        4PY         0.00127   0.00709  -0.00922   0.00920   0.00299
 118        4PZ         0.00038   0.00159  -0.00106   0.00237   0.00385
 119 10  H  1S          0.07777  -0.05033  -0.05799   0.00993  -0.10193
 120        2S          0.07303  -0.05577  -0.06888   0.01343  -0.13094
 121        3S         -0.00391   0.01131  -0.00498  -0.01045  -0.02972
 122        4PX         0.00067  -0.00325  -0.00301   0.00564   0.00612
 123        4PY        -0.01038   0.00479   0.00244  -0.00013   0.00632
 124        4PZ         0.01437  -0.00827  -0.00795   0.00116  -0.00974
 125 11  H  1S          0.07712  -0.05770  -0.02946   0.05466   0.09671
 126        2S          0.07405  -0.06023  -0.03997   0.06586   0.12696
 127        3S         -0.00720   0.00397   0.00440  -0.00098   0.03994
 128        4PX        -0.01688   0.00870   0.00270  -0.00484  -0.01262
 129        4PY         0.00512  -0.00529  -0.00638   0.00428   0.00097
 130        4PZ        -0.00261   0.00251   0.00290  -0.00177   0.00555
                          11        12        13        14        15
                           O         O         O         O         O
     Eigenvalues --    -0.46362  -0.43083  -0.40489  -0.37337  -0.34374
   1 1   O  1S         -0.01302  -0.01533   0.01482   0.01183   0.02423
   2        2S         -0.02119  -0.02504   0.02403   0.01927   0.03945
   3        2PX         0.03964   0.06478   0.05195  -0.02099  -0.05608
   4        2PY        -0.05221  -0.02238   0.16449   0.09361   0.16045
   5        2PZ         0.06985  -0.06502   0.04165  -0.08515   0.03717
   6        3S          0.06470   0.07795  -0.07019  -0.05784  -0.11734
   7        3PX         0.05687   0.09323   0.07614  -0.02982  -0.07774
   8        3PY        -0.07555  -0.03090   0.23932   0.13493   0.23011
   9        3PZ         0.10310  -0.09514   0.06108  -0.12492   0.05351
  10        4S          0.08406   0.10166  -0.09850  -0.08380  -0.19237
  11        4PX         0.04434   0.06551   0.05085  -0.02454  -0.06115
  12        4PY        -0.05669  -0.02318   0.19314   0.11387   0.19282
  13        4PZ         0.08342  -0.07763   0.05140  -0.10929   0.04669
  14        5S          0.04152   0.02873  -0.07522  -0.03094  -0.08331
  15        5PX        -0.00923   0.01193   0.03998   0.00385  -0.00627
  16        5PY         0.00055  -0.00520   0.01369   0.01841   0.04175
  17        5PZ         0.00495  -0.00689   0.00142  -0.01715   0.00897
  18        6D 0        0.00250   0.00158  -0.00453  -0.00409  -0.00661
  19        6D+1        0.00281  -0.00043   0.00114  -0.00048  -0.00164
  20        6D-1        0.00691  -0.00605   0.00433  -0.00664   0.00277
  21        6D+2        0.00449  -0.00089  -0.01347  -0.00423  -0.00003
  22        6D-2        0.00306   0.00526   0.00297  -0.00220  -0.00432
  23 2   C  1S          0.00834   0.00521   0.00873   0.00396  -0.00972
  24        2S          0.01318   0.00806   0.01320   0.00613  -0.01586
  25        2PX         0.05581  -0.00387  -0.13713  -0.03255   0.07836
  26        2PY        -0.04338  -0.01965  -0.02030  -0.02613  -0.12403
  27        2PZ         0.11799  -0.07525   0.04853  -0.07172  -0.00649
  28        3S         -0.03494  -0.02051  -0.03457  -0.01658   0.05437
  29        3PX         0.08243  -0.00546  -0.20810  -0.05205   0.11053
  30        3PY        -0.06349  -0.02944  -0.03504  -0.04050  -0.18366
  31        3PZ         0.17414  -0.11066   0.07150  -0.10331  -0.00998
  32        4S         -0.05383  -0.02079  -0.05665  -0.03621   0.01579
  33        4PX         0.06000   0.01334  -0.14894  -0.04270   0.05313
  34        4PY        -0.03360  -0.01696  -0.00654  -0.01325  -0.12284
  35        4PZ         0.12147  -0.08325   0.06496  -0.08964  -0.00550
  36        5S         -0.04559   0.01965  -0.02358  -0.08040  -0.06439
  37        5PX         0.00181   0.00696  -0.02682  -0.02694  -0.01903
  38        5PY         0.00755  -0.00413  -0.00879   0.00473  -0.00710
  39        5PZ         0.01760  -0.00902   0.01132  -0.01427   0.00294
  40        6D 0       -0.00486  -0.00764  -0.00684  -0.00885  -0.01646
  41        6D+1       -0.00526   0.00774  -0.00602   0.01854  -0.00941
  42        6D-1        0.00485  -0.00493   0.00157  -0.00915   0.00149
  43        6D+2       -0.00105   0.00095   0.00622   0.00731   0.02412
  44        6D-2        0.00209   0.01310   0.02580   0.00213   0.00197
  45 3   C  1S          0.00215   0.00630  -0.00355  -0.00250  -0.01153
  46        2S          0.00338   0.00967  -0.00579  -0.00387  -0.01848
  47        2PX        -0.02549   0.05480   0.12054  -0.00254  -0.11705
  48        2PY         0.06250   0.13544  -0.01057  -0.04676   0.06758
  49        2PZ         0.07021   0.02036  -0.04585   0.14906  -0.02763
  50        3S         -0.00703  -0.02030   0.01567   0.00775   0.05735
  51        3PX        -0.03655   0.08404   0.17529  -0.00695  -0.17618
  52        3PY         0.09361   0.20182  -0.01414  -0.06925   0.09748
  53        3PZ         0.10278   0.02964  -0.06678   0.21413  -0.03846
  54        4S         -0.02002  -0.04663   0.05317   0.04815   0.08436
  55        4PX        -0.03370   0.05204   0.10236   0.00227  -0.10857
  56        4PY         0.05091   0.11032   0.00526  -0.02872   0.09897
  57        4PZ         0.04966   0.02307  -0.06200   0.17719  -0.02814
  58        5S          0.04134  -0.01221   0.03605   0.10003   0.04968
  59        5PX        -0.01531   0.02100   0.02198  -0.00390  -0.00786
  60        5PY         0.00442   0.01073   0.01754   0.01665   0.01998
  61        5PZ        -0.00252  -0.00237  -0.01028   0.02623  -0.00356
  62        6D 0       -0.00504  -0.01871   0.00248   0.00594  -0.00839
  63        6D+1       -0.00968   0.00757  -0.00498   0.01047  -0.00164
  64        6D-1       -0.00434  -0.00177   0.00045  -0.02107   0.00810
  65        6D+2       -0.00715   0.00222  -0.00587  -0.00547   0.01287
  66        6D-2        0.00291   0.01719   0.01869  -0.00508  -0.00460
  67 4   H  1S          0.04805  -0.06624   0.01878  -0.07005  -0.06117
  68        2S          0.05911  -0.08263   0.02453  -0.09502  -0.09018
  69        3S          0.01001  -0.03040   0.00471  -0.04571  -0.04423
  70        4PX         0.00362   0.00007  -0.00572  -0.00087   0.00512
  71        4PY        -0.00602   0.00352  -0.00238   0.00241  -0.00360
  72        4PZ        -0.00012   0.00316  -0.00132   0.00338   0.00594
  73 5   H  1S         -0.10595   0.02930  -0.03275   0.03672  -0.07360
  74        2S         -0.13273   0.03560  -0.03838   0.04828  -0.11163
  75        3S         -0.03143   0.01289  -0.01555   0.02925  -0.06157
  76        4PX        -0.00006   0.00053  -0.00606  -0.00004   0.00327
  77        4PY         0.00708  -0.00367   0.00070  -0.00366  -0.00230
  78        4PZ        -0.00612   0.00000   0.00071  -0.00064  -0.00732
  79 6   N  1S         -0.00913  -0.01458  -0.00008  -0.00513  -0.00387
  80        2S         -0.01467  -0.02354  -0.00022  -0.00826  -0.00631
  81        2PX        -0.09922  -0.09946  -0.09854  -0.01996   0.03530
  82        2PY         0.06419  -0.09096  -0.04574   0.09314   0.00258
  83        2PZ        -0.03047   0.09597  -0.03830  -0.00912   0.04008
  84        3S          0.04386   0.07313   0.00360   0.02486   0.02068
  85        3PX        -0.14474  -0.14626  -0.14335  -0.02899   0.04816
  86        3PY         0.09336  -0.13386  -0.07011   0.13499   0.00489
  87        3PZ        -0.04336   0.13843  -0.05697  -0.00933   0.05763
  88        4S          0.04788   0.07555  -0.00797   0.01129  -0.00010
  89        4PX        -0.09700  -0.10577  -0.09825  -0.01854   0.04396
  90        4PY         0.06310  -0.08515  -0.04930   0.11211   0.01865
  91        4PZ        -0.02012   0.10100  -0.04209  -0.00104   0.04558
  92        5S         -0.02710  -0.07888  -0.02772  -0.04289  -0.01683
  93        5PX        -0.00208  -0.00576  -0.02619  -0.00559   0.00884
  94        5PY         0.01110   0.00851   0.00361   0.02658   0.00505
  95        5PZ         0.00080   0.02356  -0.00449  -0.00449   0.00987
  96        6D 0        0.00868  -0.01231   0.00284   0.00852  -0.00495
  97        6D+1        0.00033   0.00275   0.00443  -0.00387  -0.00010
  98        6D-1       -0.00737   0.00274   0.00421  -0.01353   0.00179
  99        6D+2        0.00049  -0.00072  -0.01152  -0.00154   0.00985
 100        6D-2        0.00847   0.00967   0.01016   0.00146  -0.00201
 101 7   H  1S         -0.07463  -0.08539   0.03953  -0.07930  -0.00763
 102        2S         -0.10123  -0.11317   0.04911  -0.10679  -0.01341
 103        3S         -0.02931  -0.03763   0.01566  -0.04698  -0.00211
 104        4PX        -0.00074   0.00114   0.00700   0.00032  -0.00562
 105        4PY        -0.00431  -0.00037   0.00170  -0.00859   0.00374
 106        4PZ        -0.00562  -0.00862   0.00243  -0.00001  -0.00216
 107 8   H  1S          0.01022  -0.05053  -0.00398   0.13528  -0.06836
 108        2S          0.01904  -0.07147   0.00045   0.18506  -0.10427
 109        3S          0.00909  -0.01886   0.00375   0.08780  -0.05377
 110        4PX        -0.00297   0.00354   0.00600  -0.00247  -0.00438
 111        4PY         0.00518   0.00323  -0.00112   0.00699  -0.00102
 112        4PZ         0.00220   0.00689  -0.00300  -0.00602   0.00541
 113 9   H  1S         -0.02585  -0.04983  -0.00367   0.02554   0.07836
 114        2S         -0.03594  -0.07334  -0.00881   0.03853   0.12652
 115        3S         -0.02652  -0.02166   0.03356   0.02278   0.06496
 116        4PX        -0.00450  -0.00730   0.00785   0.00565   0.01603
 117        4PY        -0.00376   0.00163   0.01766   0.00701   0.00642
 118        4PZ         0.00796  -0.00515   0.00436  -0.01072   0.00113
 119 10  H  1S          0.06162  -0.08951   0.01401   0.06002  -0.03287
 120        2S          0.08467  -0.12458   0.01798   0.09611  -0.05115
 121        3S          0.03524  -0.02348   0.00141   0.04873  -0.02666
 122        4PX        -0.00545  -0.00866  -0.00695  -0.00053   0.00313
 123        4PY        -0.00116   0.00257  -0.00566   0.00304   0.00233
 124        4PZ         0.00839  -0.00745  -0.00039   0.00882  -0.00157
 125 11  H  1S         -0.08841  -0.02626  -0.07047  -0.04445   0.03925
 126        2S         -0.11746  -0.03375  -0.10220  -0.05827   0.06522
 127        3S         -0.02740   0.00824  -0.03285  -0.01643   0.03356
 128        4PX         0.00939  -0.00264   0.00305   0.00497  -0.00341
 129        4PY        -0.00080  -0.00806  -0.00891   0.00386   0.00441
 130        4PZ        -0.00038   0.00818  -0.00173   0.00119   0.00216
                          16        17        18        19        20
                           O         O         V         V         V
     Eigenvalues --    -0.28715  -0.25490   0.00569   0.00669   0.03239
   1 1   O  1S         -0.00006  -0.00103   0.01204  -0.02794   0.00928
   2        2S         -0.00009  -0.00162   0.02017  -0.04641   0.01567
   3        2PX         0.02572   0.01282   0.03563  -0.03185  -0.01527
   4        2PY        -0.01894   0.00155   0.00772   0.03927   0.01213
   5        2PZ         0.25927   0.02016  -0.00285   0.00635  -0.00032
   6        3S          0.00019   0.00350  -0.07207   0.15688  -0.05887
   7        3PX         0.03730   0.01706   0.05153  -0.04667  -0.02421
   8        3PY        -0.02756   0.00163   0.00677   0.05975   0.02202
   9        3PZ         0.37529   0.02929  -0.00377   0.01002  -0.00161
  10        4S          0.00187   0.02233  -0.09253   0.28571  -0.02783
  11        4PX         0.03548   0.02237   0.06239  -0.06028  -0.02254
  12        4PY        -0.02526   0.00883   0.01394   0.10246  -0.00892
  13        4PZ         0.36360   0.03039  -0.00841   0.01123   0.00416
  14        5S          0.00006   0.02915  -0.86417   1.07495  -0.62104
  15        5PX         0.01574   0.01474  -0.06954   0.12155  -0.28665
  16        5PY        -0.01043  -0.00132  -0.20308   0.24434   0.02286
  17        5PZ         0.11699   0.00950  -0.00247   0.01703  -0.00585
  18        6D 0        0.00205   0.00048   0.00148   0.00038  -0.00044
  19        6D+1       -0.00481  -0.00057   0.00013   0.00021  -0.00020
  20        6D-1        0.00908   0.00144   0.00002   0.00055  -0.00043
  21        6D+2        0.00019  -0.00200   0.00179  -0.00268  -0.00232
  22        6D-2        0.00131  -0.00009  -0.00033  -0.00148   0.00060
  23 2   C  1S          0.00037   0.01115   0.01763  -0.00119  -0.01920
  24        2S          0.00063   0.01798   0.02981  -0.00262  -0.03145
  25        2PX        -0.00998  -0.04140   0.00974   0.03326  -0.00836
  26        2PY         0.00658   0.01914  -0.05257   0.04195   0.01979
  27        2PZ        -0.10017   0.00461   0.00117   0.00391  -0.00981
  28        3S         -0.00261  -0.05663  -0.11310   0.02689   0.09523
  29        3PX        -0.01406  -0.06446   0.02047   0.03718  -0.01529
  30        3PY         0.00879   0.02733  -0.07483   0.05318   0.04266
  31        3PZ        -0.13591   0.00578   0.00233   0.00733  -0.01701
  32        4S          0.00362  -0.07879  -0.04020  -0.12420   0.28571
  33        4PX        -0.00059  -0.03388  -0.01367   0.22707  -0.07642
  34        4PY         0.00647   0.05306  -0.18275   0.20531   0.01153
  35        4PZ        -0.08410  -0.01420   0.01145   0.00529  -0.02009
  36        5S          0.01632  -0.03551   0.33041   1.18141   3.87656
  37        5PX         0.00114  -0.01322  -0.67644   1.37002   1.08725
  38        5PY        -0.00557   0.00784  -0.15752   0.11004  -1.27928
  39        5PZ        -0.00082   0.00619   0.03501  -0.12721  -0.01559
  40        6D 0       -0.00133   0.00105   0.00357  -0.00321   0.00971
  41        6D+1       -0.01313  -0.00463   0.00003  -0.00036   0.00143
  42        6D-1       -0.03673   0.00283   0.00056  -0.00076  -0.00219
  43        6D+2       -0.00380  -0.00525  -0.00000   0.00277   0.00421
  44        6D-2       -0.00219   0.00242   0.00201   0.01999   0.00425
  45 3   C  1S          0.00037   0.00639   0.01479   0.00062   0.02457
  46        2S          0.00063   0.01035   0.02524   0.00146   0.04047
  47        2PX         0.00450  -0.00105  -0.00255   0.02365  -0.00984
  48        2PY        -0.00283  -0.05455   0.05093   0.02162   0.03311
  49        2PZ         0.02329  -0.05686   0.00232  -0.00174  -0.00631
  50        3S         -0.00250  -0.03616  -0.09661  -0.01898  -0.12672
  51        3PX         0.00606  -0.00272  -0.01381   0.02220  -0.01132
  52        3PY        -0.00472  -0.08097   0.07106   0.02504   0.05932
  53        3PZ         0.03077  -0.07819   0.00389  -0.00077  -0.01086
  54        4S         -0.00158   0.01781  -0.07698   0.07377  -0.34252
  55        4PX         0.00774   0.00338   0.07646   0.17126  -0.10744
  56        4PY        -0.00359  -0.05334   0.15825   0.11386   0.05307
  57        4PZ        -0.01219  -0.05379  -0.02067  -0.02847  -0.01913
  58        5S          0.00227   0.08793   3.53153  -0.89423  -3.80740
  59        5PX         0.01925   0.02190   0.51030   1.00744   1.18983
  60        5PY         0.00699   0.00708   0.83097   0.07032  -1.40494
  61        5PZ        -0.01342  -0.03216  -0.08204  -0.16221  -0.09327
  62        6D 0       -0.00124   0.00564   0.00452   0.00403  -0.00907
  63        6D+1        0.00748   0.01413   0.00079   0.00067  -0.00151
  64        6D-1       -0.00919   0.02451  -0.00055   0.00208   0.00084
  65        6D+2        0.00008  -0.01954   0.00132  -0.00258  -0.00373
  66        6D-2       -0.00114   0.00373   0.00160  -0.01881  -0.00376
  67 4   H  1S         -0.09258   0.01043  -0.00937   0.00210   0.00137
  68        2S         -0.15763   0.02587   0.03347  -0.01457  -0.03980
  69        3S         -0.11794   0.02757  -0.18959  -0.02050   0.06845
  70        4PX        -0.00191  -0.00024   0.00029   0.00969   0.00208
  71        4PY         0.00627   0.00121   0.00249   0.00067  -0.00696
  72        4PZ         0.00346  -0.00000   0.01159  -0.00590  -0.00124
  73 5   H  1S          0.09468   0.00190  -0.01340  -0.00219   0.00416
  74        2S          0.16118  -0.00924   0.03680  -0.01400  -0.06189
  75        3S          0.12858  -0.00086  -0.20081  -0.04067   0.14511
  76        4PX         0.00267  -0.00264  -0.00108   0.01113   0.00275
  77        4PY        -0.00663   0.00177   0.00379   0.00037  -0.00807
  78        4PZ         0.00248   0.00036  -0.01193   0.00364   0.00184
  79 6   N  1S          0.00059  -0.03084   0.02112   0.02840  -0.00988
  80        2S          0.00096  -0.04983   0.03490   0.04656  -0.01623
  81        2PX         0.00068  -0.03852  -0.03193  -0.01154  -0.02593
  82        2PY         0.00131   0.15498  -0.02293   0.01335   0.02109
  83        2PZ         0.00299   0.18539   0.01936   0.01515  -0.01086
  84        3S         -0.00239   0.14650  -0.11716  -0.14751   0.05133
  85        3PX         0.00151  -0.05536  -0.04307  -0.01639  -0.03780
  86        3PY         0.00175   0.22442  -0.02623   0.02327   0.03392
  87        3PZ         0.00482   0.26741   0.02887   0.02380  -0.01665
  88        4S         -0.01145   0.21502  -0.21003  -0.34550   0.10343
  89        4PX        -0.00258  -0.05821  -0.07383  -0.04193  -0.06283
  90        4PY         0.00084   0.23831  -0.06059   0.04826   0.01645
  91        4PZ         0.01437   0.28288   0.07294   0.06112  -0.04072
  92        5S         -0.08076  -0.10285  -2.26945  -1.24706   0.71207
  93        5PX        -0.00318  -0.01343   0.31457   0.46560  -0.37335
  94        5PY         0.01321   0.11361   0.44673   0.20849  -0.03792
  95        5PZ         0.01181   0.12464  -0.00478  -0.00212   0.09878
  96        6D 0       -0.00043  -0.00538   0.00059  -0.00191   0.00213
  97        6D+1        0.00016   0.00454   0.00170  -0.00003   0.00161
  98        6D-1       -0.00187  -0.00881   0.00100   0.00044  -0.00071
  99        6D+2       -0.00014   0.00309   0.00123   0.00028   0.00369
 100        6D-2       -0.00017   0.00247  -0.00108   0.00137  -0.00236
 101 7   H  1S         -0.02379   0.08911  -0.01338   0.00579  -0.00586
 102        2S         -0.05504   0.14773   0.03759   0.02367   0.04867
 103        3S         -0.04183   0.14151  -0.25037   0.01938  -0.16440
 104        4PX         0.00203  -0.00118  -0.00078   0.00765   0.00276
 105        4PY        -0.00263   0.00124  -0.00199   0.00020  -0.00894
 106        4PZ        -0.00084   0.00324  -0.01153  -0.00427  -0.00434
 107 8   H  1S          0.02690  -0.02675  -0.01226   0.00482  -0.00590
 108        2S          0.05850  -0.05268   0.04051   0.01685   0.07778
 109        3S          0.05790  -0.02446  -0.19578   0.06961  -0.21708
 110        4PX        -0.00189   0.00135   0.00228   0.00843   0.00359
 111        4PY         0.00204  -0.00522  -0.00069   0.00076  -0.00864
 112        4PZ        -0.00115  -0.00072   0.01089   0.00212   0.00456
 113 9   H  1S         -0.00009  -0.00751   0.01099  -0.02251   0.00187
 114        2S         -0.00097  -0.01261   0.06900  -0.11977   0.00650
 115        3S          0.00424  -0.00419   0.17835  -0.27762  -0.09452
 116        4PX         0.00262  -0.00021  -0.01114   0.01958  -0.00076
 117        4PY        -0.00199   0.00172   0.00786  -0.00783  -0.00112
 118        4PZ         0.02731   0.00291   0.00184  -0.00235   0.00039
 119 10  H  1S          0.00071  -0.04408   0.00271   0.00498  -0.00017
 120        2S          0.00805  -0.06079   0.06446   0.05873  -0.04370
 121        3S          0.03184   0.01334   0.16533   0.16777   0.00258
 122        4PX        -0.00103  -0.00543  -0.00391  -0.00017  -0.00131
 123        4PY         0.00018   0.01954   0.00174   0.00461  -0.00441
 124        4PZ         0.00077   0.00860  -0.01206  -0.00725   0.00554
 125 11  H  1S          0.00013  -0.03989   0.00655   0.00740  -0.00173
 126        2S          0.00241  -0.05583   0.04565   0.08811  -0.00919
 127        3S          0.02560   0.01311   0.23056  -0.00387   0.08809
 128        4PX        -0.00048   0.00544   0.01042   0.01016   0.00237
 129        4PY        -0.00001   0.01083  -0.00760  -0.00405  -0.00400
 130        4PZ         0.00017   0.01905   0.00106  -0.00037   0.00086
                          21        22        23        24        25
                           V         V         V         V         V
     Eigenvalues --     0.04101   0.06498   0.07036   0.07780   0.10374
   1 1   O  1S         -0.00347   0.01172   0.00572   0.00102   0.00780
   2        2S         -0.00580   0.01951   0.00967   0.00175   0.01287
   3        2PX         0.00205   0.03883  -0.02733  -0.00481  -0.00964
   4        2PY         0.00178  -0.05094   0.00382   0.00042   0.03137
   5        2PZ        -0.01965  -0.00770   0.00072   0.00975  -0.00989
   6        3S          0.02049  -0.06868  -0.03632  -0.00738  -0.03988
   7        3PX         0.00314   0.05792  -0.04038  -0.00571  -0.02073
   8        3PY         0.00190  -0.07895   0.01075   0.00119   0.03865
   9        3PZ        -0.03512  -0.01210  -0.00059   0.02373  -0.01238
  10        4S          0.02635  -0.09393  -0.04111  -0.00039  -0.10777
  11        4PX         0.00298   0.04200  -0.06232  -0.02060   0.03802
  12        4PY         0.01132  -0.07170  -0.02440  -0.00277   0.06394
  13        4PZ        -0.00468  -0.00680   0.00946  -0.02572  -0.02837
  14        5S          0.14520  -1.10141  -0.28219  -0.11968   0.00912
  15        5PX         0.09484   0.59377  -0.61076  -0.09037  -0.51765
  16        5PY         0.00384  -0.49522   0.15919   0.00748  -0.21430
  17        5PZ        -0.13830  -0.08873   0.01625   0.25493   0.08356
  18        6D 0        0.00011  -0.00260   0.00296   0.00040  -0.00205
  19        6D+1       -0.00222  -0.00047  -0.00025   0.00364   0.00132
  20        6D-1       -0.00356  -0.00028  -0.00097   0.00152  -0.00059
  21        6D+2        0.00021   0.00131  -0.00232   0.00003  -0.00458
  22        6D-2       -0.00074   0.00413   0.00303   0.00050   0.00121
  23 2   C  1S          0.00543  -0.02117  -0.00031   0.00094  -0.00823
  24        2S          0.00899  -0.03445  -0.00079   0.00148  -0.01260
  25        2PX         0.00104  -0.03539  -0.03261  -0.00210  -0.01765
  26        2PY        -0.00014   0.01818  -0.00429  -0.00548   0.00921
  27        2PZ        -0.06808   0.00043  -0.01589   0.06054   0.00737
  28        3S         -0.02906   0.09702   0.00508  -0.00324   0.01684
  29        3PX        -0.00168  -0.05833  -0.04823  -0.00115  -0.01288
  30        3PY        -0.00311   0.03244   0.00310  -0.00743   0.01932
  31        3PZ        -0.12023   0.00203  -0.02888   0.11563   0.00998
  32        4S         -0.06409   0.47346  -0.07539  -0.03402   0.47246
  33        4PX         0.03439  -0.09651  -0.13301  -0.01903  -0.15736
  34        4PY         0.02103   0.05346  -0.18291  -0.05882   0.09567
  35        4PZ        -0.17177  -0.02408  -0.04396   0.14764  -0.01524
  36        5S         -0.22107   0.83544  -3.01584  -0.01410   0.84692
  37        5PX        -0.03290  -1.16789  -0.17599  -0.18899   0.98029
  38        5PY         0.19738  -1.61577  -1.20145  -0.29680   0.68857
  39        5PZ         0.81261   0.01436   0.46029  -2.48574  -0.30849
  40        6D 0       -0.00254   0.00136   0.02089   0.00532  -0.00629
  41        6D+1       -0.00073  -0.00080   0.00332  -0.00455  -0.00116
  42        6D-1       -0.00239   0.00091  -0.00210   0.00422  -0.00371
  43        6D+2       -0.00143  -0.00237   0.00315  -0.00016   0.00418
  44        6D-2        0.00040  -0.00991   0.00004   0.00096   0.00147
  45 3   C  1S         -0.00247  -0.01792   0.00348   0.00069  -0.01453
  46        2S         -0.00382  -0.02916   0.00556   0.00119  -0.02332
  47        2PX        -0.00639   0.03041   0.02208  -0.00210   0.02219
  48        2PY         0.00046  -0.00990  -0.00007  -0.00111   0.01212
  49        2PZ        -0.06732  -0.00482  -0.00208  -0.06011  -0.00815
  50        3S          0.00577   0.08366  -0.01749  -0.00774   0.05781
  51        3PX        -0.01554   0.05421   0.02820  -0.00689   0.02733
  52        3PY        -0.00373  -0.02685  -0.00248  -0.00277   0.02933
  53        3PZ        -0.11633  -0.01156  -0.00039  -0.11263  -0.01972
  54        4S          0.08794   0.37622  -0.08679   0.01372   0.44911
  55        4PX         0.02817   0.06334   0.10165   0.02208   0.01941
  56        4PY         0.02661   0.00051   0.12078   0.03080  -0.13099
  57        4PZ        -0.25162   0.02151  -0.03555  -0.18074   0.08656
  58        5S          0.64194  -1.41019   4.61866   0.48362  -2.10819
  59        5PX         0.19872   2.20557  -1.57848   0.21901  -1.52106
  60        5PY         0.24379   1.20078   2.28037   0.43268  -1.91006
  61        5PZ         0.73279  -0.01286  -0.17962   2.59144   0.79006
  62        6D 0        0.00027  -0.00033   0.01832   0.00350  -0.00931
  63        6D+1        0.00019   0.00094   0.00520  -0.00500  -0.00470
  64        6D-1        0.00237   0.00067   0.00003   0.00513  -0.00413
  65        6D+2       -0.00123  -0.00054   0.00368  -0.00119  -0.00125
  66        6D-2       -0.00006  -0.00576   0.00592   0.00264   0.00785
  67 4   H  1S         -0.00639   0.00199   0.01290   0.01856  -0.01220
  68        2S          0.09382  -0.07851   0.05895  -0.04893  -0.02887
  69        3S         -0.28445   0.43422   0.02622   0.36897  -0.21766
  70        4PX        -0.00141  -0.00720   0.00285   0.00477   0.00135
  71        4PY         0.00395  -0.00691  -0.00777  -0.00475   0.00051
  72        4PZ         0.00639  -0.00515   0.00817  -0.00326  -0.00455
  73 5   H  1S          0.00314   0.00144   0.01654  -0.01184  -0.00770
  74        2S         -0.07369  -0.09243   0.01554   0.07140  -0.04692
  75        3S          0.18773   0.37096   0.17604  -0.32366  -0.24520
  76        4PX         0.00237  -0.00625   0.00343  -0.00383  -0.00016
  77        4PY        -0.00018  -0.00712  -0.00940   0.00194   0.00606
  78        4PZ         0.00429   0.00604  -0.00711  -0.00567   0.00282
  79 6   N  1S          0.00249   0.01372   0.00328   0.00108   0.00792
  80        2S          0.00419   0.02259   0.00552   0.00176   0.01275
  81        2PX        -0.00586  -0.04238   0.02804  -0.00494   0.00521
  82        2PY         0.00493   0.03450  -0.02377   0.00122  -0.05459
  83        2PZ        -0.04091   0.01310   0.02176  -0.01681   0.00785
  84        3S         -0.01452  -0.07154  -0.02184  -0.00345  -0.02547
  85        3PX        -0.00800  -0.05860   0.03625  -0.00704   0.00753
  86        3PY         0.00575   0.05425  -0.03688  -0.00157  -0.06285
  87        3PZ        -0.06257   0.02527   0.02842  -0.02931   0.02274
  88        4S         -0.01243  -0.17013  -0.01711  -0.03295  -0.19576
  89        4PX        -0.01745  -0.12531   0.14222  -0.00966  -0.03973
  90        4PY         0.03078   0.06137  -0.05267   0.02157  -0.19723
  91        4PZ        -0.06283   0.03294   0.08784   0.00532   0.01640
  92        5S         -0.70930  -0.37561  -1.63579  -0.56320   3.81458
  93        5PX         0.06287  -0.07672   0.65480  -0.01036   0.69680
  94        5PY         0.11822   0.62131  -0.10312   0.07421   0.74443
  95        5PZ        -0.07364  -0.25891   0.10763  -0.34864  -1.08233
  96        6D 0        0.00032  -0.00405   0.00534  -0.00020  -0.01195
  97        6D+1        0.00316   0.00086  -0.00048   0.00567  -0.00336
  98        6D-1        0.00551  -0.00018  -0.00149   0.00225   0.00952
  99        6D+2        0.00097  -0.00304  -0.00291   0.00077  -0.00480
 100        6D-2        0.00039   0.00939   0.00355   0.00025   0.01091
 101 7   H  1S          0.00312   0.00076   0.01071   0.01677  -0.01179
 102        2S         -0.11465  -0.05555   0.03652  -0.07561  -0.02099
 103        3S          0.23965   0.39728  -0.09505   0.38722  -0.19731
 104        4PX        -0.00038   0.00628  -0.00574  -0.00446  -0.00342
 105        4PY         0.00118   0.00543   0.00722   0.00383  -0.00130
 106        4PZ         0.00448   0.00480  -0.00785   0.00297   0.00686
 107 8   H  1S         -0.00185  -0.00034   0.01167  -0.01195  -0.01413
 108        2S          0.10419  -0.06700   0.03855   0.07894  -0.07142
 109        3S         -0.15424   0.35929  -0.01602  -0.36021  -0.25533
 110        4PX         0.00100   0.00622  -0.00426   0.00309  -0.00660
 111        4PY        -0.00091   0.00390   0.00857  -0.00237  -0.00816
 112        4PZ         0.00470  -0.00570   0.00874   0.00539  -0.00200
 113 9   H  1S         -0.00079   0.00786  -0.01257  -0.00386   0.00119
 114        2S         -0.00465  -0.00319  -0.01643  -0.00643   0.02829
 115        3S          0.04434   1.08900  -0.66682  -0.14453  -0.25005
 116        4PX         0.00091  -0.02259   0.00143  -0.00097   0.00701
 117        4PY         0.00053   0.00350  -0.00722  -0.00094  -0.00292
 118        4PZ         0.00224   0.00264   0.00190  -0.00816  -0.00320
 119 10  H  1S         -0.00502   0.00100   0.01131  -0.00090  -0.02501
 120        2S         -0.01518   0.07041   0.05250   0.01873   0.08001
 121        3S         -0.00112  -0.33917   0.30156  -0.06430  -1.19145
 122        4PX        -0.00023   0.00676   0.00141  -0.00632   0.01236
 123        4PY        -0.00421   0.00499  -0.00216  -0.00162   0.00840
 124        4PZ         0.00763   0.00206  -0.01093   0.00521   0.00529
 125 11  H  1S          0.00220  -0.01332  -0.01361   0.00436  -0.00564
 126        2S          0.01075   0.01737  -0.05306   0.01755   0.06332
 127        3S          0.16481   0.17520  -0.37284   0.14368  -0.70035
 128        4PX         0.00206   0.01363  -0.00169   0.00053  -0.00583
 129        4PY        -0.00130   0.00089   0.00638  -0.00060   0.01479
 130        4PZ        -0.00052  -0.00015   0.00227   0.00686  -0.00750
                          26        27        28        29        30
                           V         V         V         V         V
     Eigenvalues --     0.12124   0.12626   0.13689   0.16413   0.17726
   1 1   O  1S         -0.00508  -0.00108   0.00865   0.02458  -0.01791
   2        2S         -0.00903  -0.00209   0.01402   0.03997  -0.02931
   3        2PX         0.02327  -0.00891   0.05042  -0.06063  -0.04460
   4        2PY        -0.02212  -0.01990   0.00594  -0.10407  -0.00068
   5        2PZ        -0.02353   0.04193   0.01597  -0.01101   0.03506
   6        3S          0.04511   0.01462  -0.03744  -0.11110   0.08851
   7        3PX         0.03317  -0.01402   0.06402  -0.08005  -0.05588
   8        3PY        -0.03132  -0.03001   0.00202  -0.14746   0.01232
   9        3PZ        -0.02949   0.05157   0.01821  -0.01330   0.04200
  10        4S         -0.08681  -0.06512  -0.17665  -0.58208   0.30161
  11        4PX         0.08383   0.01273   0.14756  -0.16122  -0.18125
  12        4PY        -0.05193  -0.03213   0.00982  -0.27800  -0.06594
  13        4PZ        -0.06626   0.11511   0.04815  -0.03901   0.12118
  14        5S          1.84312   1.40422  -0.89093   0.66001   0.46541
  15        5PX         0.23274   0.06457  -0.17287   0.50470  -0.58656
  16        5PY         0.36762   0.30322  -0.61186   0.34131   0.56875
  17        5PZ         0.11158  -0.20859  -0.14990   0.00193   0.01651
  18        6D 0       -0.00207  -0.00028  -0.00353  -0.00228   0.00773
  19        6D+1        0.00055  -0.00184  -0.00204   0.00029  -0.00098
  20        6D-1       -0.00096   0.00234   0.00080  -0.00083  -0.00076
  21        6D+2        0.00098  -0.00268   0.00481   0.00705  -0.00542
  22        6D-2       -0.00141  -0.00116   0.00558   0.00344   0.00478
  23 2   C  1S         -0.01229  -0.00601  -0.02001  -0.01278  -0.01006
  24        2S         -0.02106  -0.01008  -0.03166  -0.02246  -0.01595
  25        2PX         0.01609  -0.01823   0.02611  -0.06819   0.03160
  26        2PY         0.03559   0.03055  -0.02042  -0.08569   0.00988
  27        2PZ         0.00847  -0.01721  -0.01663   0.01803  -0.06594
  28        3S          0.08068   0.03296   0.06156   0.11458   0.03161
  29        3PX         0.01527  -0.04165   0.05746  -0.12414   0.02583
  30        3PY         0.05222   0.03577  -0.01682  -0.15491   0.02097
  31        3PZ         0.01168  -0.01811  -0.02250   0.01953  -0.06812
[...]
    Z5       -1.43966  -0.00000   0.00000  -0.00021  -0.00007  -1.43973
    X6       10.36869  -0.00000   0.00000   0.00005   0.00004  10.36873
    Y6        1.36256   0.00002   0.00000   0.00004   0.00007   1.36263
    Z6       -0.25596   0.00000   0.00000   0.00016   0.00011  -0.25585
    X7        8.46975   0.00000   0.00000  -0.00006  -0.00009   8.46966
    Y7       -1.90404   0.00000   0.00000   0.00042   0.00037  -1.90367
    Z7       -1.78990  -0.00000   0.00000  -0.00052  -0.00037  -1.79027
    X8        8.86371   0.00000   0.00000  -0.00012  -0.00002   8.86368
    Y8       -1.82544   0.00000   0.00000  -0.00025  -0.00017  -1.82560
    Z8        1.52366  -0.00000   0.00000  -0.00050  -0.00037   1.52329
    X9        2.38450  -0.00001   0.00000  -0.00013  -0.00009   2.38441
    Y9       -0.81822   0.00001   0.00000  -0.00001  -0.00005  -0.81828
    Z9        0.39284  -0.00000   0.00000  -0.00104  -0.00069   0.39215
   X10       10.27243   0.00000   0.00000   0.00051   0.00042  10.27286
   Y10        2.26295  -0.00001   0.00000  -0.00006  -0.00009   2.26286
   Z10       -1.94896   0.00001   0.00000   0.00010   0.00003  -1.94894
   X11       12.13047  -0.00000   0.00000  -0.00005  -0.00005  12.13042
   Y11        0.61523  -0.00000   0.00000  -0.00017  -0.00011   0.61513
   Z11       -0.14121  -0.00000   0.00000   0.00044   0.00035  -0.14086
         Item               Value     Threshold  Converged?
 Maximum Force            0.000018     0.000450     YES
 RMS     Force            0.000007     0.000300     YES
 Maximum Displacement     0.001114     0.001800     YES
 RMS     Displacement     0.000320     0.001200     YES
 Predicted change in Energy=-4.301625D-09
 Optimization completed.
    -- Stationary point found.
 GradGradGradGradGradGradGradGradGradGradGradGradGradGradGradGradGradGrad

 Leave Link  103 at Fri Jun  2 11:23:02 2023, MaxMem=  7381975040 cpu:               1.3 elap:               3.0
 (Enter /software/commercial/gaussian/g16/AVX/g16/l9999.exe)

 ----------------------------------------------------------------------

 Electric dipole moment (input orientation):
 (Debye = 10**-18 statcoulomb cm , SI units = C m)
                  (au)            (Debye)         (10**-30 SI)
   Tot        0.584724D+00      0.148622D+01      0.495750D+01
   x          0.336379D-02      0.854991D-02      0.285194D-01
   y          0.372985D+00      0.948034D+00      0.316230D+01
   z         -0.450304D+00     -0.114456D+01     -0.381783D+01

 Dipole polarizability, Alpha (input orientation).
 (esu units = cm**3 , SI units = C**2 m**2 J**-1)
 Alpha(0;0):
               (au)            (10**-24 esu)      (10**-40 SI)
   iso        0.486067D+02      0.720277D+01      0.801416D+01
   aniso      0.717598D+01      0.106337D+01      0.118316D+01
   xx         0.509607D+02      0.755159D+01      0.840228D+01
   yx         0.257246D+01      0.381199D+00      0.424141D+00
   yy         0.497628D+02      0.737409D+01      0.820478D+01
   zx        -0.423350D+00     -0.627341D-01     -0.698010D-01
   zy         0.876838D+00      0.129934D+00      0.144571D+00
   zz         0.450966D+02      0.668263D+01      0.743543D+01

 First dipole hyperpolarizability, Beta (input orientation).
 ||, _|_  parallel and perpendicular components, (z) with respect to z axis,
 vector components x,y,z.  Values do not include the 1/n! factor of 1/2.
 (esu units = statvolt**-1 cm**4 , SI units = C**3 m**3 J**-2)
 Beta(0;0,0):
               (au)            (10**-30 esu)      (10**-50 SI)
   || (z)     0.177846D+02      0.153645D+00      0.570240D-01
   _|_(z)     0.592821D+01      0.512152D-01      0.190080D-01
   x          0.200878D+02      0.173543D+00      0.644087D-01
   y          0.216875D+03      0.187363D+01      0.695379D+00
   z          0.889232D+02      0.768227D+00      0.285120D+00
   ||         0.470513D+02      0.406486D+00      0.150863D+00
   xxx       -0.362244D+01     -0.312951D-01     -0.116149D-01
   xxy        0.531771D+01      0.459409D-01      0.170505D-01
   yxy       -0.630342D+01     -0.544567D-01     -0.202111D-01
   yyy        0.509561D+02      0.440221D+00      0.163384D+00
   xxz        0.119732D+02      0.103439D+00      0.383905D-01
   yxz       -0.475187D+01     -0.410524D-01     -0.152362D-01
   yyz       -0.369315D+01     -0.319060D-01     -0.118416D-01
   zxz        0.166218D+02      0.143599D+00      0.532955D-01
   zyz        0.160178D+02      0.138382D+00      0.513589D-01
   zzz        0.213610D+02      0.184542D+00      0.684911D-01

 ----------------------------------------------------------------------

 Dipole orientation:
     8          4.04964672          1.07222103         -1.08636351
     6          5.84599339         -0.46328540          0.23555884
     6          8.46564609          0.60509127         -0.26787904
     1          5.75663946         -2.42682899         -0.41482806
     1          5.45690619         -0.43815156          2.27309513
     7         10.36420118         -0.86457955          1.12592016
     1          8.46324196          2.62566382          0.21259449
     1          8.87609106          0.45228786         -2.28680802
     1          2.38841561          0.38449655         -0.81074354
     1         10.25633879         -0.47826295          3.00350818
     1         12.12815087         -0.35858868          0.57097661

 Electric dipole moment (dipole orientation):
 (Debye = 10**-18 statcoulomb cm , SI units = C m)
                  (au)            (Debye)         (10**-30 SI)
   Tot        0.584724D+00      0.148622D+01      0.495750D+01
   x          0.000000D+00      0.000000D+00      0.000000D+00
   y          0.000000D+00      0.000000D+00      0.000000D+00
   z          0.584724D+00      0.148622D+01      0.495750D+01

 Dipole polarizability, Alpha (dipole orientation).
 (esu units = cm**3 , SI units = C**2 m**2 J**-1)
 Alpha(0;0):
               (au)            (10**-24 esu)      (10**-40 SI)
   iso        0.486067D+02      0.720277D+01      0.801416D+01
   aniso      0.717598D+01      0.106337D+01      0.118316D+01
   xx         0.509449D+02      0.754926D+01      0.839968D+01
   yx        -0.169418D+01     -0.251052D+00     -0.279333D+00
   yy         0.487186D+02      0.721935D+01      0.803261D+01
   zx         0.199905D+01      0.296229D+00      0.329599D+00
   zy        -0.213473D+01     -0.316334D+00     -0.351969D+00
   zz         0.461566D+02      0.683970D+01      0.761020D+01

 First dipole hyperpolarizability, Beta (dipole orientation).
 ||, _|_  parallel and perpendicular components, (z) with respect to z axis,
 vector components x,y,z.  Values do not include the 1/n! factor of 1/2.
 (esu units = statvolt**-1 cm**4 , SI units = C**3 m**3 J**-2)
 Beta(0;0,0):
               (au)            (10**-30 esu)      (10**-50 SI)
   || (z)     0.139950D+02      0.120906D+00      0.448732D-01
   _|_(z)     0.466502D+01      0.403021D-01      0.149577D-01
   x          0.201494D+02      0.174075D+00      0.646062D-01
   y         -0.223703D+03     -0.193262D+01     -0.717273D+00
   z          0.699752D+02      0.604532D+00      0.224366D+00
   ||         0.470513D+02      0.406486D+00      0.150863D+00
   xxx       -0.344677D+01     -0.297774D-01     -0.110516D-01
   xxy       -0.118531D+02     -0.102402D+00     -0.380053D-01
   yxy       -0.163358D+01     -0.141129D-01     -0.523785D-02
   yyy       -0.396961D+02     -0.342943D+00     -0.127280D+00
   xxz       -0.602898D+01     -0.520857D-01     -0.193311D-01
   yxz        0.104218D+02      0.900358D-01      0.334159D-01
   yyz        0.402788D+01      0.347977D-01      0.129148D-01
   zxz        0.117968D+02      0.101915D+00      0.378248D-01
   zyz       -0.230185D+02     -0.198862D+00     -0.738056D-01
   zzz        0.253262D+02      0.218799D+00      0.812049D-01

 ----------------------------------------------------------------------
 Unable to Open any file for archive entry.
 1\1\GINC-NODE1907\Freq\RB3LYP\6-311+G(d,p)\C2H7N1O1\SVICCHI\02-Jun-202
 3\0\\#p freq=raman scale=0.967 pop=(nbo,full,hirshfeld) guess=read geo
 m=allcheck b3lyp/6-311+G(d,p) int=grid=ultrafine EmpiricalDispersion=G
 D3BJ SCRF=(Solvent=ethanol) scf=(xqc,intrep,maxconventionalcycle=350) 
 nosymm\\MEA-isolated.gjf\\0,1\O,2.1408097969,-0.8081160452,0.093118485
 1\C,3.0937175001,0.2619057197,0.078183468\C,4.479591547,-0.3463067841,
 -0.0693109936\H,3.0423003148,0.8426784957,1.0057603625\H,2.8940555937,
 0.9398653658,-0.7618340887\N,5.4868756381,0.7210347052,-0.1354495341\H
 ,4.4819986636,-1.0075749494,-0.9471733766\H,4.6904718694,-0.9659789726
 ,0.8062838225\H,1.2618251877,-0.4329849433,0.2078821945\H,5.4359380209
 ,1.1974999269,-1.031346087\H,6.4191658677,0.3255674814,-0.0747242526\\
 Version=ES64L-G16RevC.01\HF=-210.4778978\RMSD=3.731e-09\RMSF=6.538e-06
 \ZeroPoint=0.0941758\Thermal=0.0998714\ETot=-210.3780264\HTot=-210.377
 0822\GTot=-210.4116915\Dipole=0.0033638,0.3729852,-0.4503036\DipoleDer
 iv=-0.96508,-0.4218733,0.0021107,-0.3957576,-0.718949,0.042347,-0.0060
 09,0.0419929,-0.6730478,0.7046006,0.3988457,0.0085335,0.3574976,0.6642
 224,-0.0210766,-0.0007,-0.0486493,0.497799,0.4471982,0.2442156,0.01696
 07,0.2421081,0.4459675,0.0712701,-0.0678077,-0.0102199,0.3538288,-0.00
 98142,-0.0219777,0.0130932,-0.0379756,-0.0802206,-0.1072309,0.0196563,
 -0.1596629,-0.1448378,-0.0280923,-0.0004037,-0.0290634,-0.0246965,-0.1
 159711,0.1224436,-0.0300168,0.1777567,-0.1198216,-0.6383956,-0.1738766
 ,0.0175939,-0.1940191,-0.662521,-0.1582416,0.0312421,-0.1160718,-0.478
 5701,-0.0332434,-0.0695552,-0.0053434,-0.0582475,-0.1550762,-0.1465337
 ,-0.0155535,-0.1970313,-0.126016,0.009269,0.0261937,-0.0340356,0.00714
 67,-0.0441575,0.0993117,-0.0428805,0.1397162,-0.090059,0.2706424,0.034
 9383,0.0190128,0.0627149,0.2346119,-0.019566,0.0220548,-0.0176706,0.42
 3479,0.1813989,-0.0475303,-0.0404996,-0.055055,0.2707191,0.0569502,-0.
 0127451,0.1385239,0.0572913,0.0615163,0.0310235,0.0316372,0.096284,0.1
 613744,0.0603261,0.1027594,0.051316,0.2999542\Polar=50.9606678,2.57245
 65,49.7628288,-0.4233504,0.8768377,45.0966084\PolarDeriv=2.9982667,-4.
 9479793,0.9957326,-0.7789065,0.5076201,0.4803679,-6.8717681,-2.8069192
 ,-5.2310381,0.6253022,0.0159318,-0.1691708,-1.6784,0.3212684,-0.386885
 1,-1.3584632,-0.9269658,-0.0784247,-1.5531202,3.3227221,-0.3356765,0.5
 928741,-1.6204312,0.2086422,4.1913481,3.5149645,-5.4567201,-0.7381955,
 0.4874751,-7.8409597,0.9543545,-0.9182907,0.2484496,1.662861,-10.69313
 45,-1.8793154,2.0495678,-2.5568884,-1.0040537,0.0038811,1.8021382,-1.4
 839648,-4.0026706,-1.8037703,7.2756194,2.1262035,1.6729286,6.8633138,-
 0.5012591,2.4698594,3.6682571,-1.1008057,11.8803697,0.8282846,0.501386
 7,1.2199943,0.5661928,1.8854872,0.7165218,-0.097862,0.2496041,-0.66906
 49,4.8182506,-0.1993706,3.4903758,3.4255201,2.1006487,-0.098397,3.7004
 759,-0.9433533,5.3004461,8.2013499,-0.4481544,1.4095452,-0.1619886,-2.
 1609425,0.0844705,-0.711648,0.5584464,-1.2765609,6.2575603,0.4948741,-
 3.8015668,3.2665622,-2.6744944,0.6514894,-4.271025,-1.3082353,5.361787
 1,-6.2802056,-3.3968332,4.6558792,-0.4604831,0.743286,-0.1178804,1.024
 3326,6.0275241,1.3511437,1.4578439,0.2958942,-0.1923743,-4.7086163,0.6
 156284,1.1542486,0.5630932,1.3460238,-4.5187242,5.1674736,-1.1610867,-
 1.3542811,-0.3742138,-1.9049352,-0.7710057,-0.3435911,-0.210703,-0.432
 0103,-7.4739094,-0.3511513,-4.3116872,-3.2390831,-2.2875791,-1.0097822
 ,-5.9112419,0.0345046,-6.208295,-7.2581734,1.1881202,-1.0739218,0.9679
 669,1.9077127,-0.3583645,1.3074379,-0.1247561,1.5109099,-4.913582,-0.7
 349198,3.2961904,-2.8612937,2.3674178,-0.9704753,3.6561507,1.4571725,-
 5.1636675,6.723931,-11.4961105,0.6762472,-1.5753545,1.0510016,-0.16860
 96,-0.514094,2.9847143,-1.4682133,0.7859866,-0.3198461,0.2271934,0.417
 3805,1.4303036,-0.1459183,0.3877703,-1.1027622,-0.4123279,0.3053068,-0
 .6598443,0.8162018,-0.294497,-0.9615064,-0.1038785,-0.7514693,0.578307
 8,0.6735653,3.1129636,-0.8010843,-1.7284806,5.171788,-1.5878308,-0.657
 4151,-3.0563274,0.9454198,4.6761999,-6.7419785,11.977808,-2.1675192,1.
 6763748,-0.3779521,0.0294192,0.8818486,-3.380047,1.4059556,-0.6329748,
 -0.3977063,0.8440139,-0.3254412,1.2612106,-0.7965873,1.4012827,0.36763
 81,0.7043121,1.0117517\HyperPolar=-3.6224396,5.31771,-6.3034223,50.956
 0852,11.9732389,-4.7518651,-3.6931549,16.6217907,16.0178252,21.3609888
 \Quadrupole=4.3685571,-3.9160621,-0.452495,-0.8276005,-5.3426268,-1.66
 74221\PG=C01 [X(C2H7N1O1)]\NImag=0\\0.61194230,-0.07415056,0.32493467,
 -0.06229302,0.02768399,0.05155085,-0.13374740,-0.03373416,0.00530645,0
 .46936236,-0.07320460,-0.16369373,-0.00024676,-0.04433470,0.51701499,0
 .00219020,-0.00506669,-0.06195384,0.00593581,0.00443491,0.59093108,-0.
 02876758,0.00165318,0.00302381,-0.16308281,0.05859458,0.00915371,0.477
 75604,-0.03799540,0.00819455,0.00338814,0.06583698,-0.10770814,-0.0068
 5766,-0.02317518,0.53095666,0.00034482,-0.00010471,0.00168175,0.011714
 36,-0.00510059,-0.08230557,0.02129557,-0.01802881,0.59620527,-0.006242
 49,-0.02394710,-0.02046018,-0.05058402,0.01224169,0.01570407,-0.003205
 15,0.01655965,0.02725574,0.05746265,-0.01103721,-0.02326925,-0.0209952
 5,0.01090534,-0.10855440,-0.10156539,0.00282204,-0.00793370,-0.0131434
 6,-0.00421446,0.12789413,-0.00409050,-0.00049856,0.00865421,0.01639050
 ,-0.10540410,-0.24011579,-0.00100902,-0.00153345,-0.00274815,-0.014337
 85,0.11884880,0.25181623,-0.00222157,-0.02662448,0.01975116,-0.0611228
 3,0.03447712,-0.04074069,-0.00751031,0.01886229,-0.02546271,0.00287215
 ,-0.00048918,0.00270627,0.06844201,-0.00932639,-0.02660527,0.01939938,
 0.03178944,-0.13019372,0.10640381,0.00444371,-0.00838379,0.01209027,-0
 .00207735,0.01093578,-0.01159739,-0.02735515,0.15256249,0.00535055,0.0
 0192832,0.00672018,-0.04069184,0.10912660,-0.20298880,0.00159337,-0.00
 234767,0.00257626,-0.00676168,0.01576904,-0.02163758,0.04097752,-0.124
 13697,0.21161000,-0.01212418,0.00217210,0.00098812,-0.02614647,-0.0312
 5907,0.00182283,-0.14377044,-0.07165424,-0.02084367,0.00212222,-0.0007
 1551,0.00006221,0.00221045,-0.00048339,-0.00063572,0.60858383,0.003604
 64,0.00075056,-0.00048195,-0.00006240,0.00795718,0.00119839,-0.0451623
 9,-0.15038023,0.00155022,0.00007867,0.00099067,0.00075536,0.00012098,0
 .00084435,-0.00056287,-0.04760425,0.38558799,-0.00022214,0.00004279,0.
 00088555,0.00030519,0.00123987,-0.00017384,0.00298829,0.02982309,-0.07
 710218,-0.00058419,0.00090687,0.00060666,0.00009628,-0.00071254,0.0005
 8826,0.04204662,-0.21186075,0.43558536,0.00216345,-0.00022104,-0.00075
 149,-0.00338415,0.01855896,0.02707529,-0.04972898,0.00599602,0.0042893
 2,-0.00566317,0.00212817,0.00066409,0.00154158,-0.00051619,-0.00058651
 ,-0.00549081,-0.02366704,-0.01935868,0.05724092,-0.00066778,0.00140354
 ,0.00086137,0.00211002,-0.00975833,-0.01441255,0.00828548,-0.12592626,
 -0.10787046,0.00219963,-0.00083719,-0.00025395,-0.00063149,0.00039553,
 0.00017210,-0.01117286,-0.02228215,-0.01722140,-0.00061763,0.14386799,
 0.00032716,0.00069816,0.00038047,-0.00072302,-0.00266812,-0.00395735,0
 .00632983,-0.10842712,-0.21309151,0.00074708,-0.00055784,0.00144828,0.
 00045142,0.00000145,0.00111470,-0.00227232,0.00050406,0.00805967,-0.00
 470484,0.12455913,0.22495429,0.00225328,-0.00056521,0.00061421,-0.0082
 8121,0.01914472,-0.02634899,-0.05916013,0.03127278,-0.04516456,0.00163
 469,-0.00070481,0.00029405,-0.00569138,0.00198871,0.00090533,0.0023597
 5,-0.01941822,0.02251709,0.00113022,-0.00016332,0.00120896,0.06736286,
 -0.00071079,0.00134712,-0.00060711,0.00448315,-0.00998553,0.01212355,0
 .02696729,-0.12445547,0.10803705,-0.00056258,0.00035640,0.00007829,0.0
 0241188,-0.00042842,-0.00025054,0.00187798,-0.01829682,0.02118352,-0.0
 0344937,0.01132704,-0.01448755,-0.02770452,0.14185334,-0.00091515,-0.0
 0050419,0.00025324,0.00134795,-0.00247168,0.00285480,-0.04245831,0.114
 47713,-0.22058665,-0.00050534,-0.00008082,0.00135064,0.00102280,-0.000
 26709,0.00150450,0.00173541,0.00166484,0.00031213,-0.00585937,0.013499
 93,-0.02131921,0.04468428,-0.12587234,0.23349638,-0.43110433,0.1542494
 9,0.05412508,-0.02398241,0.01289577,0.00338403,-0.00152240,-0.00567375
 ,-0.00020599,0.00146100,0.00128266,-0.00061993,0.00156610,0.00111763,0
 .00046671,-0.00100078,0.00100346,-0.00008898,0.00049816,-0.00009597,-0
 .00000360,0.00043103,-0.00011027,-0.00007230,0.45400052,0.20508647,-0.
 12350282,-0.02921426,-0.03659450,0.00816998,0.00437094,-0.00135878,-0.
 00468108,-0.00026305,-0.00024072,0.00030277,-0.00051616,-0.00026069,0.
 00026586,0.00052364,-0.00194401,0.00059952,-0.00011755,0.00002393,0.00
 014318,0.00033690,-0.00003647,0.00002574,-0.00025491,-0.16430751,0.118
 91001,0.05787593,-0.02413144,-0.00859351,-0.00065734,-0.00062200,-0.00
 189041,0.00018126,0.00014241,-0.00064419,-0.00065471,0.00058393,0.0005
 6979,0.00046396,-0.00081039,0.00028302,0.00002556,-0.00019101,0.000621
 38,-0.00022278,0.00032188,0.00020336,0.00025251,-0.00019156,0.00011746
 ,-0.05717416,0.02492618,0.00917353,-0.00016385,0.00048761,-0.00055298,
 0.00113162,-0.00162981,0.00182352,0.00193917,-0.01296018,0.02604464,-0
 .00007854,-0.00000413,-0.00018092,-0.00044221,0.00049197,-0.00046115,-
 0.06181930,0.00219535,-0.01749004,0.00075797,0.00023415,-0.00059719,-0
 .00333585,-0.00358430,0.00052031,-0.00009627,0.00006029,-0.00010077,0.
 06382696,0.00027238,0.00001379,-0.00009113,0.00030263,0.00075728,-0.00
 036309,-0.00019811,-0.01785540,0.02640906,0.00009902,0.00003750,-0.000
 08695,-0.00043682,0.00047301,0.00005543,0.00423309,-0.09925018,0.13828
 055,0.00194002,0.00131096,0.00018165,-0.00435307,-0.00275774,-0.000405
 58,-0.00000211,0.00004906,-0.00010046,-0.00313684,0.12579238,-0.000005
 85,-0.00017503,0.00013345,0.00026469,0.00030225,-0.00019971,-0.0017266
 8,-0.00567531,-0.00164121,-0.00005767,0.00003802,-0.00003737,0.0006420
 4,-0.00005316,0.00006869,-0.02896211,0.18721021,-0.33935927,-0.0000776
 6,-0.00040030,0.00211295,0.00057013,-0.00006860,0.00179986,0.00005220,
 0.00000506,0.00001697,0.02641126,-0.17841666,0.34171144,-0.00198764,0.
 00068016,0.00024883,-0.00016268,-0.00548466,0.00000023,-0.02294740,0.0
 1293104,0.00073250,0.00022066,0.00002708,0.00012110,0.00035601,-0.0000
 7299,-0.00015658,-0.36492429,0.12891120,-0.03020945,0.00093484,0.00051
 979,-0.00076349,0.00129675,0.00038153,0.00049973,-0.00025061,-0.000428
 03,0.00001054,-0.00171970,0.00127981,0.00288966,0.38918406,-0.00187075
 ,0.00042683,0.00030358,-0.00070179,-0.00400557,-0.00026621,-0.03287182
 ,0.00817286,-0.00357553,-0.00013647,0.00007729,0.00020811,-0.00007446,
 0.00013420,-0.00027707,0.15655015,-0.10652089,0.03843553,-0.00017583,0
 .00035570,-0.00014074,0.00053940,0.00101434,0.00021470,-0.00035940,-0.
 00028221,0.00007245,0.01784590,-0.00857066,-0.00276648,-0.13874493,0.1
 0919811,0.00143801,0.00012737,0.00028763,0.00080726,0.00140960,-0.0002
 0056,0.00062817,-0.00496075,-0.00234383,-0.00034528,0.00019609,0.00009
 309,0.00009195,-0.00031737,0.00016077,0.00603307,0.02021349,-0.0300237
 2,-0.00046737,0.00074424,0.00009436,0.00046699,0.00005529,0.00021684,0
 .00013694,0.00020322,0.00014259,-0.03541668,0.01453716,-0.00460581,0.0
 2662694,-0.03220834,0.03617863\\-0.00001827,0.00001711,0.00000200,0.00
 000247,0.00000231,0.00000046,-0.00000222,-0.00000149,-0.00000057,0.000
 00096,0.00000081,-0.00000111,0.00000218,-0.00000118,0.00000202,0.00000
 465,-0.00001805,-0.00000067,-0.00000097,-0.00000082,0.00000314,-0.0000
 0020,-0.00000028,0.00000131,0.00001413,-0.00000540,0.00000220,-0.00000
 346,0.00000647,-0.00000986,0.00000074,0.00000052,0.00000107\\\@
 The archive entry for this job was punched.


 MARY HAD A LITTLE LAMB
      HIS FEET WERE BLACK AS SOOT,
           AND EVERYWHERE THAT MARY WENT
                HIS SOOTY FOOT HE PUT.

                    -- NONAME
 Job cpu time:       0 days  0 hours  8 minutes 46.0 seconds.
 Elapsed time:       0 days  0 hours  5 minutes 13.3 seconds.
 File lengths (MBytes):  RWF=     76 Int=      0 D2E=      0 Chk=      8 Scr=      1
 Normal termination of Gaussian 16 at Fri Jun  2 11:23:08 2023.
