 Entering Gaussian System, Link 0=g16
 Input=EDA-isolated-freq.gjf
 Output=EDA-isolated-freq.log
 Initial command:
 /software/commercial/gaussian/g16/AVX/g16/l1.exe "/scratch1/svicchi/G09-659882.pbs02/Gau-2089327.inp" -scrdir="/scratch1/svicchi/G09-659882.pbs02/"
 Entering Link 1 = /software/commercial/gaussian/g16/AVX/g16/l1.exe PID=   2089328.
  
 Copyright (c) 1988-2019, Gaussian, Inc.  All Rights Reserved.
  
 This is part of the Gaussian(R) 16 program.  It is based on
 the Gaussian(R) 09 system (copyright 2009, Gaussian, Inc.),
 the Gaussian(R) 03 system (copyright 2003, Gaussian, Inc.),
 the Gaussian(R) 98 system (copyright 1998, Gaussian, Inc.),
 the Gaussian(R) 94 system (copyright 1995, Gaussian, Inc.),
 the Gaussian 92(TM) system (copyright 1992, Gaussian, Inc.),
 the Gaussian 90(TM) system (copyright 1990, Gaussian, Inc.),
 the Gaussian 88(TM) system (copyright 1988, Gaussian, Inc.),
 the Gaussian 86(TM) system (copyright 1986, Carnegie Mellon
 University), and the Gaussian 82(TM) system (copyright 1983,
 Carnegie Mellon University). Gaussian is a federally registered
 trademark of Gaussian, Inc.
  
 This software contains proprietary and confidential information,
 including trade secrets, belonging to Gaussian, Inc.
  
 This software is provided under written license and may be
 used, copied, transmitted, or stored only in accord with that
 written license.
  
 The following legend is applicable only to US Government
 contracts under FAR:
  
                    RESTRICTED RIGHTS LEGEND
  
 Use, reproduction and disclosure by the US Government is
 subject to restrictions as set forth in subparagraphs (a)
 and (c) of the Commercial Computer Software - Restricted
 Rights clause in FAR 52.227-19.
  
 Gaussian, Inc.
 340 Quinnipiac St., Bldg. 40, Wallingford CT 06492
  
  
 ---------------------------------------------------------------
 Warning -- This program may not be used in any manner that
 competes with the business of Gaussian, Inc. or will provide
 assistance to any competitor of Gaussian, Inc.  The licensee
 of this program is prohibited from giving any competitor of
 Gaussian, Inc. access to this program.  By using this program,
 the user acknowledges that Gaussian, Inc. is engaged in the
 business of creating and licensing software in the field of
 computational chemistry and represents and warrants to the
 licensee that it is not a competitor of Gaussian, Inc. and that
 it will not use this program in any manner prohibited above.
 ---------------------------------------------------------------
  

 Cite this work as:
 Gaussian 16, Revision C.01,
 M. J. Frisch, G. W. Trucks, H. B. Schlegel, G. E. Scuseria, 
 M. A. Robb, J. R. Cheeseman, G. Scalmani, V. Barone, 
 G. A. Petersson, H. Nakatsuji, X. Li, M. Caricato, A. V. Marenich, 
 J. Bloino, B. G. Janesko, R. Gomperts, B. Mennucci, H. P. Hratchian, 
 J. V. Ortiz, A. F. Izmaylov, J. L. Sonnenberg, D. Williams-Young, 
 F. Ding, F. Lipparini, F. Egidi, J. Goings, B. Peng, A. Petrone, 
 T. Henderson, D. Ranasinghe, V. G. Zakrzewski, J. Gao, N. Rega, 
 G. Zheng, W. Liang, M. Hada, M. Ehara, K. Toyota, R. Fukuda, 
 J. Hasegawa, M. Ishida, T. Nakajima, Y. Honda, O. Kitao, H. Nakai, 
 T. Vreven, K. Throssell, J. A. Montgomery, Jr., J. E. Peralta, 
 F. Ogliaro, M. J. Bearpark, J. J. Heyd, E. N. Brothers, K. N. Kudin, 
 V. N. Staroverov, T. A. Keith, R. Kobayashi, J. Normand, 
 K. Raghavachari, A. P. Rendell, J. C. Burant, S. S. Iyengar, 
 J. Tomasi, M. Cossi, J. M. Millam, M. Klene, C. Adamo, R. Cammi, 
 J. W. Ochterski, R. L. Martin, K. Morokuma, O. Farkas, 
 J. B. Foresman, and D. J. Fox, Gaussian, Inc., Wallingford CT, 2019.
 
 ******************************************
 Gaussian 16:  ES64L-G16RevC.01  3-Jul-2019
                 2-Jun-2023 
 ******************************************
 %NProcShared=2
 Will use up to    2 processors via shared memory.
 %mem=55gb
 %chk=/scratch1/svicchi/G09-659882.pbs02/02-freq/EDA-isolated-freq.chk
 ----------------------------------------------------------------------
 #p freq=raman scale=0.967 pop=(nbo,full,hirshfeld) guess=read geom=all
 check b3lyp/6-311+G(d,p) int=grid=ultrafine EmpiricalDispersion=GD3BJ 
 SCRF=(Solvent=ethanol) scf=(xqc,intrep,maxconventionalcycle=350) nosym
 m
 ----------------------------------------------------------------------
 1/10=4,29=7,30=1,38=1,114=967000/1,3;
 2/12=2,15=1,40=1/2;
 3/5=4,6=6,7=111,11=2,14=-4,25=1,30=1,70=2201,71=2,72=4,74=-5,75=-5,116=-2,124=41,140=1/1,2,3;
 4/5=1/1;
 5/5=2,8=3,13=1,17=20,38=6,53=4,85=350,98=1/2,8;
 8/6=4,10=90,11=11/1;
 10/13=10,15=4,31=1/2;
 11/6=3,8=1,9=11,15=111,16=1,31=1/1,2,10;
 10/6=1,31=1/2;
 6/7=3,28=1,40=1,79=1/1,7;
 7/8=1,10=1,25=1,30=1/1,2,3,16;
 1/10=4,30=1/3;
 99//99;
 Leave Link    1 at Fri Jun  2 11:15:00 2023, MaxMem=  7381975040 cpu:               1.6 elap:               1.8
 (Enter /software/commercial/gaussian/g16/AVX/g16/l101.exe)
 Structure from the checkpoint file:  "/scratch1/svicchi/G09-659882.pbs02/02-freq/EDA-isolated-freq.chk"
 ----------------
 EDA-isolated.gjf
 ----------------
 Charge =  0 Multiplicity = 1
 No Z-Matrix found in chk file; cartesian coordinates used.
  N                                                 2.051095248403     -0.797748606318      0.100682106763
  C                                                 3.115691746717      0.211302037809      0.058797242394
  C                                                 4.534931285951     -0.348185249022     -0.075811759808
  H                                                 3.056578001263      0.817222360914      0.967516848822
  H                                                 2.912948553596      0.883645187333     -0.782087967479
  N                                                 5.520320199940      0.742498324343     -0.112956135277
  H                                                 4.575167686554     -0.999827001385     -0.962472829433
  H                                                 4.754905919915     -0.976205437714      0.793435913585
  H                                                 5.426980233506      1.266918946120     -0.978556549709
  H                                                 6.463087248659      0.366112042961     -0.108974344054
  H                                                 2.198440752585     -1.431526309867      0.881281836048
  H                                                 2.072172122911     -1.368134295174     -0.740074361851
 Recover connectivity data from disk.
 ITRead=  0  0  0  0  0  0  0  0  0  0  0  0
 MicOpt= -1 -1 -1 -1 -1 -1 -1 -1 -1 -1 -1 -1
 NAtoms=     12 NQM=       12 NQMF=       0 NMMI=      0 NMMIF=      0
                NMic=       0 NMicF=      0.
                    Isotopes and Nuclear Properties:
 (Nuclear quadrupole moments (NQMom) in fm**2, nuclear magnetic moments (NMagM)
  in nuclear magnetons)

  Atom         1           2           3           4           5           6           7           8           9          10
 IAtWgt=          14          12          12           1           1          14           1           1           1           1
 AtmWgt=  14.0030740  12.0000000  12.0000000   1.0078250   1.0078250  14.0030740   1.0078250   1.0078250   1.0078250   1.0078250
 NucSpn=           2           0           0           1           1           2           1           1           1           1
 AtZEff=   4.5500000   3.6000000   3.6000000   1.0000000   1.0000000   4.5500000   1.0000000   1.0000000   1.0000000   1.0000000
 NQMom=    2.0440000   0.0000000   0.0000000   0.0000000   0.0000000   2.0440000   0.0000000   0.0000000   0.0000000   0.0000000
 NMagM=    0.4037610   0.0000000   0.0000000   2.7928460   2.7928460   0.4037610   2.7928460   2.7928460   2.7928460   2.7928460
 AtZNuc=   7.0000000   6.0000000   6.0000000   1.0000000   1.0000000   7.0000000   1.0000000   1.0000000   1.0000000   1.0000000

  Atom        11          12
 IAtWgt=           1           1
 AtmWgt=   1.0078250   1.0078250
 NucSpn=           1           1
 AtZEff=   1.0000000   1.0000000
 NQMom=    0.0000000   0.0000000
 NMagM=    2.7928460   2.7928460
 AtZNuc=   1.0000000   1.0000000
 Leave Link  101 at Fri Jun  2 11:15:04 2023, MaxMem=  7381975040 cpu:               0.4 elap:               1.6
 (Enter /software/commercial/gaussian/g16/AVX/g16/l103.exe)

 GradGradGradGradGradGradGradGradGradGradGradGradGradGradGradGradGradGrad
 Berny optimization.
 Initialization pass.
 Trust Radius=3.00D-01 FncErr=1.00D-07 GrdErr=1.00D-07 EigMax=2.50D+02 EigMin=1.00D-04
 Number of steps in this run=      2 maximum allowed number of steps=      2.
 GradGradGradGradGradGradGradGradGradGradGradGradGradGradGradGradGradGrad

 Leave Link  103 at Fri Jun  2 11:15:06 2023, MaxMem=  7381975040 cpu:               0.1 elap:               0.9
 (Enter /software/commercial/gaussian/g16/AVX/g16/l202.exe)
                          Input orientation:                          
 ---------------------------------------------------------------------
 Center     Atomic      Atomic             Coordinates (Angstroms)
 Number     Number       Type             X           Y           Z
 ---------------------------------------------------------------------
      1          7           0        2.051095   -0.797749    0.100682
      2          6           0        3.115692    0.211302    0.058797
      3          6           0        4.534931   -0.348185   -0.075812
      4          1           0        3.056578    0.817222    0.967517
      5          1           0        2.912949    0.883645   -0.782088
      6          7           0        5.520320    0.742498   -0.112956
      7          1           0        4.575168   -0.999827   -0.962473
      8          1           0        4.754906   -0.976205    0.793436
      9          1           0        5.426980    1.266919   -0.978557
     10          1           0        6.463087    0.366112   -0.108974
     11          1           0        2.198441   -1.431526    0.881282
     12          1           0        2.072172   -1.368134   -0.740074
 ---------------------------------------------------------------------
                    Distance matrix (angstroms):
                    1          2          3          4          5
     1  N    0.000000
     2  C    1.467414   0.000000
     3  C    2.530355   1.531465   0.000000
     4  H    2.090581   1.093803   2.152263   0.000000
     5  H    2.085464   1.095554   2.155704   1.756747   0.000000
     6  N    3.801779   2.468584   1.470361   2.691288   2.695561
     7  H    2.746284   2.154042   1.101101   3.054938   2.518527
     8  H    2.796846   2.153344   1.094710   2.476087   3.055180
     9  H    4.101732   2.744537   2.054084   3.099715   2.550658
    10  H    4.567735   3.355171   2.056479   3.600922   3.650261
    11  H    1.016229   2.053464   2.747516   2.408466   2.938935
    12  H    1.016197   2.054689   2.747130   2.942908   2.403993
                    6          7          8          9         10
     6  N    0.000000
     7  H    2.156546   0.000000
     8  H    2.088384   1.765242   0.000000
     9  H    1.016363   2.421566   2.936537   0.000000
    10  H    1.015132   2.481630   2.352455   1.625160   0.000000
    11  H    4.092649   3.038853   2.598182   4.600443   4.732792
    12  H    4.091182   2.539704   3.114855   4.272601   4.762986
                   11         12
    11  H    0.000000
    12  H    1.627501   0.000000
 Symmetry turned off by external request.
 Stoichiometry    C2H8N2
 Framework group  C1[X(C2H8N2)]
 Deg. of freedom    30
 Full point group                 C1      NOp   1
 Rotational constants (GHZ):          26.7498201           3.7636664           3.5394631
 Leave Link  202 at Fri Jun  2 11:15:08 2023, MaxMem=  7381975040 cpu:               0.0 elap:               0.9
 (Enter /software/commercial/gaussian/g16/AVX/g16/l301.exe)
 Standard basis: 6-311+G(d,p) (5D, 7F)
 Ernie: Thresh=  0.10000D-02 Tol=  0.10000D-05 Strict=F.
   136 basis functions,   208 primitive gaussians,   140 cartesian basis functions
    17 alpha electrons       17 beta electrons
       nuclear repulsion energy       131.5037190049 Hartrees.
 IExCor=  402 DFT=T Ex+Corr=B3LYP ExCW=0 ScaHFX=  0.200000
 ScaDFX=  0.800000  0.720000  1.000000  0.810000 ScalE2=  1.000000  1.000000
 IRadAn=      5 IRanWt=     -1 IRanGd=            0 ICorTp=0 IEmpDi=141
 NAtoms=   12 NActive=   12 NUniq=   12 SFac= 1.00D+00 NAtFMM=   60 NAOKFM=F Big=F
 Integral buffers will be    131072 words long.
 Raffenetti 2 integral format.
 Two-electron integral symmetry is turned off.
 R6Disp:  Grimme-D3(BJ) Dispersion energy=       -0.0120569899 Hartrees.
 Nuclear repulsion after empirical dispersion term =      131.4916620150 Hartrees.
 Force inversion solution in PCM.
 ------------------------------------------------------------------------------
 Polarizable Continuum Model (PCM)
 =================================
 Model                : PCM.
 Atomic radii         : UFF (Universal Force Field).
 Polarization charges : Total charges.
 Charge compensation  : None.
 Solution method      : Matrix inversion.
 Cavity type          : Scaled VdW (van der Waals Surface) (Alpha=1.100).
 Cavity algorithm     : GePol (No added spheres)
                        Default sphere list used, NSphG=   12.
                        Lebedev-Laikov grids with approx.  5.0 points / Ang**2.
                        Smoothing algorithm: York/Karplus (Gamma=1.0000).
                        Polarization charges: spherical gaussians, with
                                              point-specific exponents (IZeta= 3).
                        Self-potential: point-specific (ISelfS= 7).
                        Self-field    : sphere-specific E.n sum rule (ISelfD= 2).
 1st derivatives      : Analytical E(r).r(x)/FMM algorithm (CHGder, D1EAlg=3).
                        Cavity 1st derivative terms included.
 2nd derivatives      : Analytical E(r).r(xy)/FMM algorithm (CHGder, D2EAlg=3).
                        Cavity 2nd derivative terms included.
 Solvent              : Ethanol, Eps=  24.852000 Eps(inf)=   1.852593
 ------------------------------------------------------------------------------
 Spheres list:
 ISph  on   Nord     Re0    Alpha      Xe            Ye            Ze
    1   N      1    1.8300  1.100      2.051095     -0.797749      0.100682
    2   C      2    1.9255  1.100      3.115692      0.211302      0.058797
    3   C      3    1.9255  1.100      4.534931     -0.348185     -0.075812
    4   H      4    1.4430  1.100      3.056578      0.817222      0.967517
    5   H      5    1.4430  1.100      2.912949      0.883645     -0.782088
    6   N      6    1.8300  1.100      5.520320      0.742498     -0.112956
    7   H      7    1.4430  1.100      4.575168     -0.999827     -0.962473
    8   H      8    1.4430  1.100      4.754906     -0.976205      0.793436
    9   H      9    1.4430  1.100      5.426980      1.266919     -0.978557
   10   H     10    1.4430  1.100      6.463087      0.366112     -0.108974
   11   H     11    1.4430  1.100      2.198441     -1.431526      0.881282
   12   H     12    1.4430  1.100      2.072172     -1.368134     -0.740074
 ------------------------------------------------------------------------------
 GePol: Number of generator spheres                  =      12
 GePol: Total number of spheres                      =      12
 GePol: Number of exposed spheres                    =      12 (100.00%)
 GePol: Number of points                             =     984
 GePol: Average weight of points                     =       0.14
 GePol: Minimum weight of points                     =   0.32D-10
 GePol: Maximum weight of points                     =    0.20577
 GePol: Number of points with low weight             =      58
 GePol: Fraction of low-weight points (<1% of avg)   =       5.89%
 GePol: Cavity surface area                          =    133.452 Ang**2
 GePol: Cavity volume                                =    116.819 Ang**3
 Leave Link  301 at Fri Jun  2 11:15:10 2023, MaxMem=  7381975040 cpu:               0.5 elap:               1.3
 (Enter /software/commercial/gaussian/g16/AVX/g16/l302.exe)
 NPDir=0 NMtPBC=     1 NCelOv=     1 NCel=       1 NClECP=     1 NCelD=      1
         NCelK=      1 NCelE2=     1 NClLst=     1 CellRange=     0.0.
 One-electron integrals computed using PRISM.
 NBasis=   136 RedAO= T EigKep=  9.04D-05  NBF=   136
 NBsUse=   136 1.00D-06 EigRej= -1.00D+00 NBFU=   136
 Precomputing XC quadrature grid using
 IXCGrd= 4 IRadAn=           5 IRanWt=          -1 IRanGd=           0 AccXCQ= 0.00D+00.
 Generated NRdTot=       0 NPtTot=           0 NUsed=           0 NTot=          32
 NSgBfM=   140   140   140   140   140 MxSgAt=    12 MxSgA2=    12.
 Leave Link  302 at Fri Jun  2 11:15:12 2023, MaxMem=  7381975040 cpu:               0.6 elap:               1.4
 (Enter /software/commercial/gaussian/g16/AVX/g16/l303.exe)
 DipDrv:  MaxL=1.
 Leave Link  303 at Fri Jun  2 11:15:15 2023, MaxMem=  7381975040 cpu:               0.3 elap:               1.4
 (Enter /software/commercial/gaussian/g16/AVX/g16/l401.exe)
 Initial guess from the checkpoint file:  "/scratch1/svicchi/G09-659882.pbs02/02-freq/EDA-isolated-freq.chk"
 B after Tr=     0.000000    0.000000    0.000000
         Rot=    1.000000    0.000000    0.000000    0.000000 Ang=   0.00 deg.
 Guess basis will be translated and rotated to current coordinates.
 JPrj=2 DoOrth=T DoCkMO=T.
 Leave Link  401 at Fri Jun  2 11:15:17 2023, MaxMem=  7381975040 cpu:               0.9 elap:               1.7
 (Enter /software/commercial/gaussian/g16/AVX/g16/l502.exe)
 Keep R1 ints in memory in canonical form, NReq=45336068.
 FoFCou: FMM=F IPFlag=           0 FMFlag=           0 FMFlg1=           0
         NFxFlg=           0 DoJE=F BraDBF=F KetDBF=F FulRan=T
         wScrn=  0.000000 ICntrl=       600 IOpCl=  0 I1Cent=           0 NGrid=           0
         NMat0=    1 NMatS0=   9316 NMatT0=    0 NMatD0=    1 NMtDS0=    0 NMtDT0=    0
 Symmetry not used in FoFCou.
 Two-electron integral symmetry not used.
 Closed shell SCF:
 Using DIIS extrapolation, IDIIS=  1040.
 NGot=  7381975040 LenX=  7338534900 LenY=  7338514859
 Requested convergence on RMS density matrix=1.00D-08 within 350 cycles.
 Requested convergence on MAX density matrix=1.00D-06.
 Requested convergence on             energy=1.00D-06.
 No special actions if energy rises.

 Cycle   1  Pass 1  IDiag  1:
 Inv3:  Mode=1 IEnd=     2904768.
 Iteration    1 A*A^-1 deviation from unit magnitude is 3.44D-15 for    973.
 Iteration    1 A*A^-1 deviation from orthogonality  is 1.70D-15 for    956    284.
 Iteration    1 A^-1*A deviation from unit magnitude is 3.44D-15 for    973.
 Iteration    1 A^-1*A deviation from orthogonality  is 6.57D-14 for    955    922.
 E= -190.606499476518    
 DIIS: error= 9.32D-09 at cycle   1 NSaved=   1.
 NSaved= 1 IEnMin= 1 EnMin= -190.606499476518     IErMin= 1 ErrMin= 9.32D-09
 ErrMax= 9.32D-09  0.00D+00 EMaxC= 1.00D-01 BMatC= 1.20D-14 BMatP= 1.20D-14
 IDIUse=1 WtCom= 1.00D+00 WtEn= 0.00D+00
 Coeff-Com:  0.100D+01
 Coeff:      0.100D+01
 Gap=     0.251 Goal=   None    Shift=    0.000
 RMSDP=1.52D-09 MaxDP=3.20D-08              OVMax= 5.72D-08

 Error on total polarization charges =  0.01404
 SCF Done:  E(RB3LYP) =  -190.606499477     A.U. after    1 cycles
            NFock=  1  Conv=0.15D-08     -V/T= 2.0046
 KE= 1.897262987395D+02 PE=-7.066131827731D+02 EE= 1.947887225421D+02
 Leave Link  502 at Fri Jun  2 11:15:27 2023, MaxMem=  7381975040 cpu:              12.5 elap:               8.6
 (Enter /software/commercial/gaussian/g16/AVX/g16/l508.exe)
 QCSCF skips out because SCF is already converged.
 Leave Link  508 at Fri Jun  2 11:15:31 2023, MaxMem=  7381975040 cpu:               0.0 elap:               1.9
 (Enter /software/commercial/gaussian/g16/AVX/g16/l801.exe)
 DoSCS=F DFT=T ScalE2(SS,OS)=  1.000000  1.000000
 Range of M.O.s used for correlation:     1   136
 NBasis=   136 NAE=    17 NBE=    17 NFC=     0 NFV=     0
 NROrb=    136 NOA=    17 NOB=    17 NVA=   119 NVB=   119

 **** Warning!!: The largest alpha MO coefficient is  0.29472717D+02

 Leave Link  801 at Fri Jun  2 11:15:33 2023, MaxMem=  7381975040 cpu:               0.1 elap:               1.3
 (Enter /software/commercial/gaussian/g16/AVX/g16/l1002.exe)
 Minotr:  Closed shell wavefunction.
 NEqPCM:  Using equilibrium solvation (IEInf=0, Eps=  24.8520, EpsInf=   1.8526)
          Direct CPHF calculation.
          Differentiating once with respect to electric field.
                with respect to dipole field.
          Electric field/nuclear overlap derivatives assumed to be zero.
          Requested convergence is 1.0D-08 RMS, and 1.0D-07 maximum.
          Secondary convergence is 1.0D-12 RMS, and 1.0D-12 maximum.
          NewPWx=F KeepS1=T KeepF1=T KeepIn=T MapXYZ=F SortEE=F KeepMc=T.
         3647 words used for storage of precomputed grid.
 Keep R1 ints in memory in canonical form, NReq=47088212.
 FoFCou: FMM=F IPFlag=           0 FMFlag=           0 FMFlg1=           0
         NFxFlg=           0 DoJE=F BraDBF=F KetDBF=F FulRan=T
         wScrn=  0.000000 ICntrl=       600 IOpCl=  0 I1Cent=           0 NGrid=           0
         NMat0=    1 NMatS0=   9316 NMatT0=    0 NMatD0=    1 NMtDS0=    0 NMtDT0=    0
 Symmetry not used in FoFCou.
 Two-electron integral symmetry not used.
          MDV=    7381975040 using IRadAn=       1.
          Solving linear equations simultaneously, MaxMat=       0.
          There are     3 degrees of freedom in the 1st order CPHF.  IDoFFX=0 NUNeed=     3.
      3 vectors produced by pass  0 Test12= 6.74D-14 3.33D-08 XBig12= 2.81D+01 1.45D+00.
 AX will form     3 AO Fock derivatives at one time.
      3 vectors produced by pass  1 Test12= 6.74D-14 3.33D-08 XBig12= 2.24D+00 3.27D-01.
      3 vectors produced by pass  2 Test12= 6.74D-14 3.33D-08 XBig12= 5.55D-01 1.53D-01.
      3 vectors produced by pass  3 Test12= 6.74D-14 3.33D-08 XBig12= 2.95D-02 3.06D-02.
      3 vectors produced by pass  4 Test12= 6.74D-14 3.33D-08 XBig12= 2.75D-03 9.96D-03.
      3 vectors produced by pass  5 Test12= 6.74D-14 3.33D-08 XBig12= 6.74D-04 6.25D-03.
      3 vectors produced by pass  6 Test12= 6.74D-14 3.33D-08 XBig12= 1.76D-05 9.40D-04.
      3 vectors produced by pass  7 Test12= 6.74D-14 3.33D-08 XBig12= 5.89D-07 1.24D-04.
      3 vectors produced by pass  8 Test12= 6.74D-14 3.33D-08 XBig12= 1.43D-08 1.83D-05.
      3 vectors produced by pass  9 Test12= 6.74D-14 3.33D-08 XBig12= 2.35D-10 2.42D-06.
      2 vectors produced by pass 10 Test12= 6.74D-14 3.33D-08 XBig12= 3.04D-12 2.74D-07.
 InvSVY:  IOpt=1 It=  1 EMax= 6.22D-15
 Solved reduced A of dimension    32 with     3 vectors.
 End of Minotr F.D. properties file   721 does not exist.
 End of Minotr F.D. properties file   722 does not exist.
 End of Minotr F.D. properties file   788 does not exist.
 Leave Link 1002 at Fri Jun  2 11:16:07 2023, MaxMem=  7381975040 cpu:              58.4 elap:              33.0
 (Enter /software/commercial/gaussian/g16/AVX/g16/l1101.exe)
 Using compressed storage, NAtomX=    12.
 Will process     13 centers per pass.
 R6Disp: Adding Grimme-D3(BJ) dispersion energy 1st derivatives to the gradient.
 Leave Link 1101 at Fri Jun  2 11:16:10 2023, MaxMem=  7381975040 cpu:               1.1 elap:               1.9
 (Enter /software/commercial/gaussian/g16/AVX/g16/l1102.exe)
 Symmetrizing basis deriv contribution to polar:
 IMax=3 JMax=2 DiffMx= 0.00D+00
 Leave Link 1102 at Fri Jun  2 11:16:13 2023, MaxMem=  7381975040 cpu:               0.2 elap:               1.2
 (Enter /software/commercial/gaussian/g16/AVX/g16/l1110.exe)
 Forming Gx(P) for the SCF density, NAtomX=    12.
 Integral derivatives from FoFJK, PRISM(SPDF).
 Do as many integral derivatives as possible in FoFJK.
 G2DrvN: MDV=    7381973668.
 G2DrvN: will do    13 centers at a time, making    1 passes.
 PxScal for G2LodP:  IOpCl= 0 ISclPx=1 IMOff=     1 NMtTot=     4 NTT=    9316 ScalPx= 8.98D+00
 Calling FoFCou, ICntrl=  3107 FMM=F I1Cent=   0 AccDes= 0.00D+00.
 FoFJK:  IHMeth= 1 ICntrl=    3107 DoSepK=F KAlg= 0 I1Cent=           0 FoldK=F
 IRaf=         0 NMat=       1 IRICut=       1 DoRegI=T DoRafI=F ISym2E= 0 IDoP0=0 IntGTp=1.
 FoFCou: FMM=F IPFlag=           0 FMFlag=      100000 FMFlg1=           0
         NFxFlg=           0 DoJE=F BraDBF=F KetDBF=F FulRan=T
         wScrn=  0.000000 ICntrl=      3107 IOpCl=  0 I1Cent=           0 NGrid=           0
         NMat0=    1 NMatS0=      1 NMatT0=    0 NMatD0=    4 NMtDS0=    3 NMtDT0=    0
 Symmetry not used in FoFCou.
 PxScal for G2LodP:  IOpCl= 0 ISclPx=0 IMOff=     1 NMtTot=     4 NTT=    9316 ScalPx= 1.00D+00
 NEqPCM:  Using equilibrium solvation (IEInf=0, Eps=  24.8520, EpsInf=   1.8526)
 G2PCM: DoFxE=T DoFxN=T DoGrad=T DoDP/DQ/DG/TGxP=TFFF NFrqRd=   0 IEInf=0 SqF1=F DoCFld=F IF1Alg=4.
 GePol: Maximum number of non-zero 1st derivatives   =     198
 End of G2Drv F.D. properties file   721 does not exist.
 End of G2Drv F.D. properties file   722 does not exist.
 End of G2Drv F.D. properties file   788 does not exist.
 Leave Link 1110 at Fri Jun  2 11:17:51 2023, MaxMem=  7381975040 cpu:             188.1 elap:              96.7
 (Enter /software/commercial/gaussian/g16/AVX/g16/l1002.exe)
 Minotr:  Closed shell wavefunction.
          IDoAtm=111111111111
 NEqPCM:  Using equilibrium solvation (IEInf=0, Eps=  24.8520, EpsInf=   1.8526)
          Direct CPHF calculation.
          Differentiating once with respect to electric field.
                with respect to dipole field.
          Differentiating once with respect to nuclear coordinates.
          Requested convergence is 1.0D-08 RMS, and 1.0D-07 maximum.
          Secondary convergence is 1.0D-12 RMS, and 1.0D-12 maximum.
          NewPWx=T KeepS1=F KeepF1=F KeepIn=T MapXYZ=F SortEE=F KeepMc=T.
         3647 words used for storage of precomputed grid.
 Keep R1 ints in memory in canonical form, NReq=47088488.
 FoFCou: FMM=F IPFlag=           0 FMFlag=           0 FMFlg1=           0
         NFxFlg=           0 DoJE=F BraDBF=F KetDBF=F FulRan=T
         wScrn=  0.000000 ICntrl=       600 IOpCl=  0 I1Cent=           0 NGrid=           0
         NMat0=    1 NMatS0=   9316 NMatT0=    0 NMatD0=    1 NMtDS0=    0 NMtDT0=    0
 Symmetry not used in FoFCou.
 Two-electron integral symmetry not used.
          MDV=    7381975040 using IRadAn=       1.
          Solving linear equations simultaneously, MaxMat=       0.
          There are    39 degrees of freedom in the 1st order CPHF.  IDoFFX=5 NUNeed=    39.
 Will reuse    3 saved solutions.
     33 vectors produced by pass  0 Test12= 5.19D-15 2.56D-09 XBig12= 8.44D-02 6.07D-02.
 AX will form    33 AO Fock derivatives at one time.
     33 vectors produced by pass  1 Test12= 5.19D-15 2.56D-09 XBig12= 6.28D-03 1.83D-02.
     33 vectors produced by pass  2 Test12= 5.19D-15 2.56D-09 XBig12= 1.15D-04 2.31D-03.
     33 vectors produced by pass  3 Test12= 5.19D-15 2.56D-09 XBig12= 6.20D-07 1.06D-04.
     33 vectors produced by pass  4 Test12= 5.19D-15 2.56D-09 XBig12= 9.44D-10 4.17D-06.
     17 vectors produced by pass  5 Test12= 5.19D-15 2.56D-09 XBig12= 9.85D-13 1.73D-07.
      2 vectors produced by pass  6 Test12= 5.19D-15 2.56D-09 XBig12= 1.01D-15 4.88D-09.
 InvSVY:  IOpt=1 It=  1 EMax= 1.55D-15
 Solved reduced A of dimension   184 with    33 vectors.
 FullF1:  Do perturbations      1 to       3.
 Isotropic polarizability for W=    0.000000       55.98 Bohr**3.
 FullF1:  Do perturbations      1 to       6.
 End of Minotr F.D. properties file   721 does not exist.
 End of Minotr F.D. properties file   722 does not exist.
 End of Minotr F.D. properties file   788 does not exist.
 Leave Link 1002 at Fri Jun  2 11:19:34 2023, MaxMem=  7381975040 cpu:             184.6 elap:             102.3
 (Enter /software/commercial/gaussian/g16/AVX/g16/l601.exe)
 Copying SCF densities to generalized density rwf, IOpCl= 0 IROHF=0.

 **********************************************************************

            Population analysis using the SCF Density.

 **********************************************************************

 Alpha  occ. eigenvalues --  -14.29823 -14.29813 -10.19137 -10.19087  -0.89722
 Alpha  occ. eigenvalues --   -0.87214  -0.70455  -0.60713  -0.50971  -0.48853
 Alpha  occ. eigenvalues --   -0.45972  -0.41798  -0.40930  -0.37798  -0.34680
 Alpha  occ. eigenvalues --   -0.25867  -0.24652
 Alpha virt. eigenvalues --    0.00460   0.01104   0.03169   0.03882   0.06680
 Alpha virt. eigenvalues --    0.07441   0.07789   0.09267   0.11001   0.11961
 Alpha virt. eigenvalues --    0.12133   0.14892   0.15642   0.17249   0.17664
 Alpha virt. eigenvalues --    0.18140   0.19781   0.20147   0.20272   0.22319
 Alpha virt. eigenvalues --    0.22969   0.24258   0.26056   0.26946   0.28779
 Alpha virt. eigenvalues --    0.29626   0.32677   0.40529   0.44151   0.46290
 Alpha virt. eigenvalues --    0.50151   0.53158   0.53811   0.56714   0.60016
 Alpha virt. eigenvalues --    0.62540   0.62560   0.65706   0.66800   0.68930
 Alpha virt. eigenvalues --    0.72023   0.76205   0.77752   0.79961   0.82268
 Alpha virt. eigenvalues --    0.83970   0.86805   0.90127   0.94723   1.05160
 Alpha virt. eigenvalues --    1.09242   1.15615   1.17644   1.25497   1.26915
 Alpha virt. eigenvalues --    1.33042   1.38557   1.47327   1.52037   1.52917
 Alpha virt. eigenvalues --    1.55484   1.59489   1.61840   1.64329   1.65838
 Alpha virt. eigenvalues --    1.68133   1.71408   1.71592   1.77265   1.79673
 Alpha virt. eigenvalues --    1.80744   1.85551   1.89197   1.95951   1.97864
 Alpha virt. eigenvalues --    2.04854   2.07386   2.14340   2.19488   2.25198
 Alpha virt. eigenvalues --    2.28460   2.38272   2.42516   2.47162   2.50386
 Alpha virt. eigenvalues --    2.52241   2.54088   2.55427   2.61703   2.63040
 Alpha virt. eigenvalues --    2.67011   2.67558   2.69182   2.71454   2.76792
 Alpha virt. eigenvalues --    2.80031   2.81320   2.85178   2.89820   2.94761
 Alpha virt. eigenvalues --    3.00558   3.10465   3.11962   3.17174   3.50267
 Alpha virt. eigenvalues --    3.53910   3.79480   3.83564   4.04971   4.13055
 Alpha virt. eigenvalues --    4.20790   4.71051   4.72156   4.76924   4.91179
 Alpha virt. eigenvalues --   23.83956  23.86227  35.57071  35.59191
     Molecular Orbital Coefficients:
                           1         2         3         4         5
                           O         O         O         O         O
     Eigenvalues --   -14.29823 -14.29813 -10.19137 -10.19087  -0.89722
   1 1   N  1S          0.55733   0.00815  -0.00002   0.00001  -0.06879
   2        2S          0.46570   0.00683  -0.00004   0.00002  -0.10801
   3        2PX         0.00111   0.00004   0.00019  -0.00001   0.02882
   4        2PY        -0.00045   0.00001   0.00019  -0.00001  -0.00426
   5        2PZ        -0.00010  -0.00000  -0.00001  -0.00000  -0.00243
   6        3S          0.01554   0.00003   0.00040  -0.00009   0.29551
   7        3PX         0.00025  -0.00009  -0.00026  -0.00011   0.04630
   8        3PY        -0.00093  -0.00012  -0.00018  -0.00011  -0.00405
   9        3PZ        -0.00006   0.00001   0.00001   0.00001  -0.00385
  10        4S         -0.00862   0.00124   0.00001  -0.00017   0.20318
  11        4PX        -0.00130   0.00068   0.00040  -0.00015   0.02076
  12        4PY        -0.00217  -0.00020  -0.00017  -0.00042   0.00191
  13        4PZ         0.00004  -0.00001  -0.00001  -0.00005  -0.00183
  14        5S          0.00635   0.00056   0.00904   0.00303  -0.01947
  15        5PX         0.00050   0.00022   0.00230   0.00081  -0.00710
  16        5PY         0.00168   0.00045   0.00037  -0.00040  -0.00839
  17        5PZ         0.00007  -0.00003  -0.00006   0.00001   0.00034
  18        6D 0        0.00057   0.00005   0.00017   0.00001   0.00026
  19        6D+1        0.00012   0.00001   0.00001  -0.00000   0.00025
  20        6D-1       -0.00002  -0.00001   0.00002   0.00001  -0.00035
  21        6D+2       -0.00047  -0.00003   0.00001  -0.00002  -0.00076
  22        6D-2       -0.00002  -0.00001  -0.00037  -0.00006   0.00453
  23 2   C  1S          0.00001   0.00000   0.54918  -0.12403  -0.04913
  24        2S         -0.00002   0.00001   0.45191  -0.10206  -0.07572
  25        2PX        -0.00023   0.00005  -0.00024   0.00053  -0.00724
  26        2PY        -0.00028  -0.00004  -0.00064  -0.00011  -0.02187
  27        2PZ         0.00001  -0.00001  -0.00004  -0.00004  -0.00074
  28        3S         -0.00001   0.00006   0.01816  -0.00402   0.19690
  29        3PX         0.00030  -0.00032  -0.00025  -0.00105  -0.00966
  30        3PY         0.00074   0.00020   0.00239   0.00031  -0.04196
  31        3PZ         0.00001   0.00003   0.00016   0.00010  -0.00151
  32        4S          0.00541  -0.00200  -0.01185   0.00683   0.08558
  33        4PX        -0.00103  -0.00036  -0.00070   0.00228   0.00490
  34        4PY        -0.00177   0.00098   0.00116  -0.00067  -0.00701
  35        4PZ        -0.00008  -0.00007  -0.00002  -0.00015   0.00040
  36        5S         -0.00874   0.00556  -0.00786   0.00984   0.02739
  37        5PX         0.00129   0.00149  -0.00047   0.00236  -0.00293
  38        5PY         0.00261  -0.00038  -0.00030  -0.00051  -0.00312
  39        5PZ        -0.00003  -0.00003  -0.00010  -0.00036   0.00035
  40        6D 0        0.00030   0.00005   0.00096   0.00025  -0.00830
  41        6D+1        0.00002   0.00002   0.00017   0.00009  -0.00103
  42        6D-1        0.00002  -0.00001  -0.00001  -0.00005  -0.00023
  43        6D+2       -0.00002  -0.00011  -0.00059  -0.00036   0.00254
  44        6D-2       -0.00048   0.00009  -0.00025   0.00057   0.00828
  45 3   C  1S          0.00000   0.00001   0.12401   0.54919  -0.04817
  46        2S          0.00001  -0.00003   0.10205   0.45193  -0.07427
  47        2PX        -0.00008   0.00020  -0.00035   0.00048   0.00589
  48        2PY         0.00001   0.00029   0.00038   0.00052   0.02061
  49        2PZ         0.00000  -0.00000   0.00003  -0.00003  -0.00070
  50        3S          0.00015   0.00006   0.00416   0.01815   0.19348
  51        3PX         0.00037  -0.00021   0.00097  -0.00031   0.00797
  52        3PY        -0.00013  -0.00074  -0.00130  -0.00196   0.03999
  53        3PZ        -0.00002  -0.00003  -0.00003   0.00011  -0.00136
  54        4S         -0.00223   0.00505   0.00113  -0.01440   0.07882
  55        4PX         0.00066   0.00072  -0.00114   0.00159  -0.00038
  56        4PY        -0.00061   0.00186   0.00060  -0.00151   0.00196
  57        4PZ         0.00006   0.00027   0.00027  -0.00035  -0.00388
  58        5S          0.00438  -0.00971   0.00054  -0.01626   0.01844
  59        5PX        -0.00196   0.00004   0.00061   0.00100   0.00388
  60        5PY        -0.00037  -0.00240   0.00113  -0.00145   0.00292
  61        5PZ         0.00015  -0.00028   0.00016  -0.00002  -0.00084
  62        6D 0        0.00007   0.00035   0.00061   0.00074  -0.00867
  63        6D+1        0.00004   0.00003   0.00020   0.00018  -0.00165
  64        6D-1       -0.00000   0.00005  -0.00005   0.00002  -0.00135
  65        6D+2       -0.00018   0.00001  -0.00057  -0.00036   0.00344
  66        6D-2        0.00007  -0.00044   0.00043  -0.00048   0.00733
  67 4   H  1S         -0.00002   0.00004   0.00005  -0.00008   0.02464
  68        2S         -0.00103  -0.00021  -0.00314  -0.00020   0.03057
  69        3S         -0.00007  -0.00067   0.00361  -0.00107  -0.00555
  70        4PX         0.00005  -0.00012  -0.00009   0.00006   0.00029
  71        4PY         0.00021  -0.00001   0.00109  -0.00010  -0.00439
  72        4PZ         0.00024   0.00013   0.00195  -0.00014  -0.00601
  73 5   H  1S         -0.00001   0.00005   0.00006  -0.00010   0.02502
  74        2S         -0.00109  -0.00032  -0.00315  -0.00012   0.03214
  75        3S         -0.00010  -0.00061   0.00347  -0.00115  -0.00457
  76        4PX         0.00000  -0.00014  -0.00038   0.00009   0.00152
  77        4PY         0.00023   0.00001   0.00122  -0.00011  -0.00492
  78        4PZ        -0.00023  -0.00010  -0.00180   0.00012   0.00558
  79 6   N  1S         -0.00815   0.55733  -0.00000  -0.00003  -0.06616
  80        2S         -0.00680   0.46570  -0.00000  -0.00005  -0.10387
  81        2PX        -0.00003   0.00010  -0.00005  -0.00015  -0.00506
  82        2PY         0.00001  -0.00077  -0.00008  -0.00018  -0.01980
  83        2PZ         0.00002  -0.00091   0.00000  -0.00000  -0.01722
  84        3S         -0.00036   0.01555   0.00014   0.00043   0.28413
  85        3PX         0.00012   0.00057   0.00012   0.00011  -0.01028
  86        3PY         0.00001   0.00002   0.00019   0.00014  -0.03260
  87        3PZ        -0.00003  -0.00072   0.00000   0.00008  -0.02602
  88        4S          0.00076  -0.00852  -0.00098   0.00021   0.19589
  89        4PX        -0.00066   0.00214   0.00001  -0.00032  -0.00782
  90        4PY        -0.00006   0.00148   0.00039  -0.00034  -0.01543
  91        4PZ        -0.00012  -0.00072  -0.00018   0.00025  -0.00894
  92        5S          0.00076   0.00656   0.00168   0.00968  -0.01943
  93        5PX         0.00031  -0.00132  -0.00109  -0.00018   0.01041
  94        5PY        -0.00058  -0.00101   0.00003  -0.00217   0.00555
  95        5PZ         0.00002   0.00050  -0.00039  -0.00036  -0.00109
  96        6D 0        0.00002  -0.00000   0.00009   0.00015  -0.00281
  97        6D+1        0.00001   0.00006   0.00002  -0.00002   0.00077
  98        6D-1       -0.00002  -0.00057   0.00000   0.00005  -0.00271
  99        6D+2       -0.00000   0.00032   0.00006   0.00008   0.00113
 100        6D-2        0.00001  -0.00037  -0.00016  -0.00031   0.00289
 101 7   H  1S          0.00001   0.00000  -0.00005   0.00011   0.02450
 102        2S          0.00002  -0.00107  -0.00138  -0.00262   0.02957
 103        3S         -0.00058   0.00015   0.00122   0.00334  -0.00793
 104        4PX         0.00008  -0.00009  -0.00005   0.00007  -0.00057
 105        4PY        -0.00001  -0.00033  -0.00038  -0.00106   0.00463
 106        4PZ        -0.00009  -0.00026  -0.00065  -0.00170   0.00582
 107 8   H  1S          0.00002  -0.00000  -0.00005   0.00007   0.02460
 108        2S         -0.00006  -0.00114  -0.00155  -0.00262   0.03196
 109        3S         -0.00064   0.00003   0.00128   0.00348  -0.00484
 110        4PX         0.00009   0.00003   0.00009   0.00042  -0.00165
 111        4PY        -0.00002  -0.00024  -0.00040  -0.00105   0.00477
 112        4PZ         0.00008   0.00021   0.00067   0.00173  -0.00564
 113 9   H  1S          0.00001  -0.00000  -0.00002  -0.00014   0.05047
 114        2S         -0.00026  -0.00183  -0.00001   0.00061   0.04700
 115        3S          0.00012   0.00075  -0.00096  -0.00080  -0.00169
 116        4PX         0.00002  -0.00029   0.00004  -0.00013   0.00069
 117        4PY         0.00001   0.00081  -0.00001  -0.00019  -0.00728
 118        4PZ        -0.00003  -0.00142  -0.00003   0.00010   0.00896
 119 10  H  1S         -0.00001  -0.00003  -0.00006  -0.00011   0.04918
 120        2S          0.00014  -0.00185   0.00036   0.00030   0.04676
 121        3S         -0.00038   0.00060   0.00023  -0.00251  -0.00489
 122        4PX         0.00001   0.00149  -0.00009   0.00001  -0.01113
 123        4PY         0.00006  -0.00075  -0.00003  -0.00003   0.00298
 124        4PZ         0.00002   0.00006   0.00002  -0.00002  -0.00106
 125 11  H  1S          0.00001   0.00002  -0.00013   0.00004   0.05242
 126        2S         -0.00189  -0.00054   0.00031  -0.00026   0.04864
 127        3S          0.00096   0.00004  -0.00187  -0.00145  -0.00362
 128        4PX         0.00031  -0.00001   0.00010  -0.00009   0.00004
 129        4PY        -0.00095  -0.00005   0.00015  -0.00009   0.00737
 130        4PZ         0.00133   0.00014   0.00004   0.00008  -0.00947
 131 12  H  1S          0.00001   0.00001  -0.00013   0.00004   0.05247
 132        2S         -0.00189  -0.00046   0.00028  -0.00029   0.04844
 133        3S          0.00103  -0.00007  -0.00167  -0.00139  -0.00328
 134        4PX         0.00009  -0.00003   0.00009  -0.00010   0.00157
 135        4PY        -0.00084  -0.00003   0.00015  -0.00008   0.00659
 136        4PZ        -0.00143  -0.00013  -0.00003  -0.00007   0.00986
                           6         7         8         9        10
                           O         O         O         O         O
     Eigenvalues --    -0.87214  -0.70455  -0.60713  -0.50971  -0.48853
   1 1   N  1S          0.07495   0.04345  -0.01418  -0.00024   0.00066
   2        2S          0.11778   0.06869  -0.02241  -0.00042   0.00094
   3        2PX        -0.02641   0.01497  -0.01898   0.01651   0.01958
   4        2PY         0.00936   0.04693  -0.07478   0.01726   0.07099
   5        2PZ         0.00239   0.00077  -0.00006   0.14047  -0.09638
   6        3S         -0.32350  -0.19328   0.06201   0.00219  -0.00058
   7        3PX        -0.04234   0.02175  -0.02876   0.02432   0.02939
   8        3PY         0.01177   0.06920  -0.11092   0.02576   0.10467
   9        3PZ         0.00368   0.00116   0.00001   0.20461  -0.14007
  10        4S         -0.22626  -0.15213   0.05427  -0.00296  -0.01109
  11        4PX        -0.01969   0.01106  -0.01302   0.01180   0.01414
  12        4PY         0.00149   0.03029  -0.06354   0.01525   0.06340
  13        4PZ         0.00135   0.00017  -0.00100   0.12327  -0.08454
  14        5S          0.01818  -0.05252   0.05811  -0.00837  -0.04296
  15        5PX         0.00413  -0.01372   0.01294   0.00022  -0.00638
  16        5PY         0.00881   0.00830  -0.00338   0.00024   0.00560
  17        5PZ         0.00035   0.00037  -0.00172  -0.00011  -0.00189
  18        6D 0       -0.00129  -0.00574   0.00494  -0.00337  -0.00244
  19        6D+1       -0.00051  -0.00103   0.00064   0.01204  -0.00754
  20        6D-1        0.00030  -0.00021   0.00043  -0.00929   0.00732
  21        6D+2        0.00209   0.00562  -0.00146   0.00085   0.00269
  22        6D-2       -0.00367   0.00475  -0.00873   0.00106   0.00710
  23 2   C  1S          0.02765  -0.06595   0.06191  -0.00537  -0.00820
  24        2S          0.04266  -0.10244   0.09669  -0.00847  -0.01296
  25        2PX         0.03209   0.04426   0.04398  -0.01598  -0.06599
  26        2PY         0.02312   0.01264  -0.04840  -0.00057  -0.01807
  27        2PZ        -0.00182  -0.00255  -0.00173   0.10580  -0.03663
  28        3S         -0.11236   0.27419  -0.26416   0.02271   0.03541
  29        3PX         0.05237   0.06801   0.06980  -0.02353  -0.09775
  30        3PY         0.03941   0.01246  -0.06531  -0.00113  -0.02704
  31        3PZ        -0.00262  -0.00445  -0.00261   0.15723  -0.05499
  32        4S         -0.03406   0.17762  -0.18317   0.04064   0.06386
  33        4PX         0.01089   0.02228   0.02202  -0.00234  -0.04311
  34        4PY         0.00467   0.00022  -0.03360  -0.00566  -0.02502
  35        4PZ         0.00033   0.00003   0.00100   0.11132  -0.05938
  36        5S         -0.08286  -0.00030  -0.09535   0.01591   0.05724
  37        5PX        -0.00576   0.00242  -0.01940  -0.00024   0.00323
  38        5PY         0.01361   0.00702   0.00595  -0.00526  -0.01203
  39        5PZ         0.00059   0.00319   0.00256   0.01531  -0.01567
  40        6D 0        0.00481   0.00022  -0.00710   0.00152  -0.00114
  41        6D+1       -0.00027  -0.00059  -0.00095  -0.00511   0.00833
  42        6D-1        0.00047   0.00048   0.00112  -0.00139   0.00133
  43        6D+2        0.00417   0.00445   0.00266  -0.00104  -0.00168
  44        6D-2       -0.01224  -0.01127  -0.00771   0.00284   0.00508
  45 3   C  1S         -0.02884  -0.06496  -0.06429   0.00504   0.00369
  46        2S         -0.04450  -0.10096  -0.10040   0.00785   0.00577
  47        2PX         0.03310  -0.04459   0.03237   0.02427   0.02948
  48        2PY         0.02341  -0.00655  -0.04759  -0.01056  -0.06720
  49        2PZ        -0.00318   0.00720   0.00521   0.07940   0.01364
  50        3S          0.11716   0.27130   0.27372  -0.02032  -0.01592
  51        3PX         0.05409  -0.06862   0.05172   0.03566   0.04364
  52        3PY         0.03952  -0.00269  -0.06436  -0.01594  -0.10053
  53        3PZ        -0.00560   0.01107   0.00745   0.11700   0.02101
  54        4S          0.03994   0.16665   0.19425  -0.02782  -0.03137
  55        4PX         0.01412  -0.01774   0.02062   0.03091   0.04334
  56        4PY         0.00421  -0.00258  -0.03927  -0.01524  -0.06611
  57        4PZ        -0.00407  -0.00143   0.00126   0.06158   0.03544
  58        5S          0.08351   0.03515   0.09308  -0.00326  -0.04949
  59        5PX        -0.01095  -0.00888  -0.00603   0.00894   0.00866
  60        5PY         0.01149  -0.00492   0.00997   0.00318  -0.01046
  61        5PZ         0.00181  -0.00443  -0.00009   0.00054   0.01188
  62        6D 0       -0.00540  -0.00059   0.00651   0.00061   0.00482
  63        6D+1       -0.00067   0.00049   0.00314  -0.00114   0.00738
  64        6D-1       -0.00184   0.00137   0.00018  -0.00085   0.00169
  65        6D+2       -0.00316   0.00230  -0.00359   0.00497   0.01222
  66        6D-2        0.01233  -0.01111   0.00559   0.00137  -0.00039
  67 4   H  1S         -0.01253   0.05213  -0.07269   0.06940  -0.01988
  68        2S         -0.01773   0.06043  -0.08969   0.07733  -0.01901
  69        3S          0.00430  -0.00054  -0.00930   0.00775   0.00905
  70        4PX         0.00123   0.00261   0.00158   0.00004  -0.00383
  71        4PY         0.00297  -0.00488   0.00444  -0.00536   0.00052
  72        4PZ         0.00298  -0.00862   0.01075  -0.00339   0.00029
  73 5   H  1S         -0.01244   0.05154  -0.07702  -0.05306   0.02810
  74        2S         -0.01653   0.06002  -0.09579  -0.06097   0.02616
  75        3S          0.00450   0.00329  -0.00972  -0.00251  -0.00413
  76        4PX         0.00091   0.00395  -0.00102  -0.00342  -0.00381
  77        4PY         0.00309  -0.00541   0.00559   0.00473  -0.00259
  78        4PZ        -0.00285   0.00762  -0.01069  -0.00061   0.00149
  79 6   N  1S         -0.07781   0.04089   0.01966  -0.00441   0.00152
  80        2S         -0.12227   0.06465   0.03115  -0.00706   0.00248
  81        2PX         0.00194  -0.04689  -0.03148   0.05108   0.13344
  82        2PY        -0.01988  -0.01717  -0.05187  -0.04058  -0.07232
  83        2PZ        -0.02216   0.02484   0.02991   0.05968   0.06591
  84        3S          0.33599  -0.18194  -0.08800   0.02072  -0.00855
  85        3PX         0.00068  -0.06926  -0.04691   0.07378   0.19417
  86        3PY        -0.03271  -0.02540  -0.07702  -0.05908  -0.10466
  87        3PZ        -0.03339   0.03670   0.04364   0.08756   0.09579
  88        4S          0.23271  -0.14221  -0.07143   0.02022  -0.00237
  89        4PX        -0.00416  -0.03277  -0.02149   0.04501   0.12291
  90        4PY        -0.01499  -0.01057  -0.04546  -0.03481  -0.06946
  91        4PZ        -0.01170   0.01665   0.02243   0.05850   0.05585
  92        5S         -0.01970  -0.04851  -0.03733  -0.01774   0.03725
  93        5PX         0.01002   0.00555  -0.00755   0.00271   0.00603
  94        5PY         0.00513   0.00318   0.00593   0.00240  -0.00968
  95        5PZ        -0.00319   0.00899   0.00445   0.00202  -0.00182
  96        6D 0       -0.00233  -0.00310  -0.00551  -0.00775  -0.01158
  97        6D+1        0.00071   0.00100   0.00055  -0.00534  -0.00610
  98        6D-1       -0.00329   0.00307   0.00402  -0.00061   0.00493
  99        6D+2        0.00093  -0.00166  -0.00580   0.00086   0.00134
 100        6D-2        0.00145   0.00736   0.00639  -0.00415  -0.01109
 101 7   H  1S          0.01293   0.04744   0.07171  -0.04742   0.01860
 102        2S          0.01672   0.05460   0.08700  -0.06062   0.03192
 103        3S         -0.00660  -0.00262   0.00368  -0.01621   0.01441
 104        4PX         0.00121  -0.00231   0.00048   0.00242   0.00048
 105        4PY         0.00308   0.00513   0.00479  -0.00480  -0.00056
 106        4PZ         0.00302   0.00783   0.01026  -0.00205   0.00348
 107 8   H  1S          0.01337   0.05022   0.08027   0.04965   0.03695
 108        2S          0.01881   0.06006   0.09782   0.06367   0.04031
 109        3S         -0.00439   0.00160   0.00548   0.01554  -0.00239
 110        4PX         0.00063  -0.00426  -0.00172  -0.00147   0.00116
 111        4PY         0.00319   0.00552   0.00537   0.00445  -0.00054
 112        4PZ        -0.00318  -0.00746  -0.01077  -0.00225  -0.00389
 113 9   H  1S          0.06186  -0.05062  -0.05388  -0.05651  -0.08780
 114        2S          0.05932  -0.05691  -0.06414  -0.07142  -0.11619
 115        3S         -0.00469   0.01075  -0.00632  -0.01558  -0.04120
 116        4PX         0.00139  -0.00411  -0.00285   0.00364   0.00800
 117        4PY        -0.00877   0.00478   0.00265   0.00434   0.00529
 118        4PZ         0.01085  -0.00772  -0.00710  -0.00485  -0.00981
 119 10  H  1S          0.06239  -0.05836  -0.02546   0.05473   0.12096
 120        2S          0.06015  -0.06281  -0.03419   0.07115   0.15672
 121        3S         -0.00563   0.00365   0.00491   0.02309   0.03651
 122        4PX        -0.01335   0.00868   0.00227  -0.00701  -0.01340
 123        4PY         0.00407  -0.00554  -0.00593   0.00058   0.00217
 124        4PZ        -0.00145   0.00197   0.00224   0.00359   0.00363
 125 11  H  1S         -0.05945  -0.05332   0.04469   0.07982  -0.09359
 126        2S         -0.05653  -0.06072   0.05118   0.10523  -0.12366
 127        3S          0.00552   0.01349  -0.00498   0.03002  -0.02920
 128        4PX         0.00025   0.00250  -0.00169   0.00090   0.00298
 129        4PY        -0.00810  -0.00416   0.00034   0.01214  -0.00665
 130        4PZ         0.01062   0.00913  -0.00682  -0.00298   0.00784
 131 12  H  1S         -0.05940  -0.05346   0.04309  -0.09967   0.03280
 132        2S         -0.05677  -0.06058   0.04880  -0.12949   0.04454
 133        3S          0.00615   0.01167  -0.00587  -0.03559   0.02084
 134        4PX        -0.00141   0.00105  -0.00060  -0.00089   0.00219
 135        4PY        -0.00727  -0.00345  -0.00050  -0.01069   0.00931
 136        4PZ        -0.01115  -0.00973   0.00687  -0.00678  -0.00118
                          11        12        13        14        15
                           O         O         O         O         O
     Eigenvalues --    -0.45972  -0.41798  -0.40930  -0.37798  -0.34680
   1 1   N  1S         -0.00507  -0.01327  -0.01368  -0.00461   0.00201
   2        2S         -0.00806  -0.02138  -0.02210  -0.00738   0.00322
   3        2PX        -0.05978  -0.01441   0.05690  -0.08927   0.01376
   4        2PY        -0.05422   0.06397   0.13979  -0.01118  -0.00421
   5        2PZ        -0.07287   0.08464  -0.05223  -0.03884  -0.06273
   6        3S          0.02269   0.06531   0.06900   0.02071  -0.00898
   7        3PX        -0.08807  -0.02038   0.08578  -0.13226   0.02091
   8        3PY        -0.07868   0.09495   0.20293  -0.01344  -0.00659
   9        3PZ        -0.10546   0.12202  -0.07523  -0.05474  -0.08729
  10        4S          0.02109   0.05795   0.07387   0.01425  -0.01497
  11        4PX        -0.06333  -0.02944   0.05502  -0.10999   0.01807
  12        4PY        -0.04940   0.07053   0.14921  -0.00674  -0.01003
  13        4PZ        -0.06757   0.08244  -0.05297  -0.03778  -0.05886
  14        5S          0.05543  -0.03862  -0.06185  -0.02736  -0.00632
  15        5PX         0.01290  -0.01072  -0.01689  -0.01817   0.00164
  16        5PY        -0.01268   0.00412   0.02310  -0.00620   0.00058
  17        5PZ        -0.00838   0.01231  -0.00692  -0.00896  -0.01317
  18        6D 0        0.00634  -0.00092  -0.00512   0.00496   0.00003
  19        6D+1       -0.00298   0.00280  -0.00229   0.00158   0.00164
  20        6D-1        0.00764  -0.01084   0.00662   0.00820   0.01481
  21        6D+2       -0.00819  -0.00426   0.00876  -0.01237   0.00313
  22        6D-2       -0.00385   0.00493   0.01141   0.00016   0.00051
  23 2   C  1S          0.00194   0.00889   0.01093   0.01055  -0.00542
  24        2S          0.00313   0.01399   0.01709   0.01688  -0.00869
  25        2PX         0.02400  -0.09587  -0.08634  -0.06313   0.03318
  26        2PY         0.08163   0.03831  -0.10129   0.12441  -0.02629
  27        2PZ         0.00151  -0.04507   0.04527   0.07571   0.14810
  28        3S         -0.01125  -0.03982  -0.04386  -0.05391   0.02706
  29        3PX         0.03681  -0.14161  -0.13104  -0.09245   0.04972
  30        3PY         0.12121   0.05655  -0.14991   0.18329  -0.03798
  31        3PZ         0.00156  -0.06486   0.06610   0.10962   0.20973
  32        4S          0.00882  -0.01609  -0.05403  -0.02763   0.02384
  33        4PX         0.01786  -0.08456  -0.06302  -0.07437   0.02549
  34        4PY         0.07091   0.02584  -0.09654   0.12179  -0.03354
  35        4PZ        -0.00961  -0.03150   0.04489   0.08158   0.15601
  36        5S         -0.01356   0.03667  -0.01821   0.02392   0.02943
  37        5PX        -0.01059  -0.01022  -0.00636  -0.01352   0.01183
  38        5PY         0.00053  -0.01561  -0.01080  -0.00340  -0.00243
  39        5PZ         0.00019   0.00070   0.00488   0.00807   0.01643
  40        6D 0        0.00616   0.00269  -0.01502   0.01485   0.00086
  41        6D+1        0.00979  -0.00923   0.00475   0.00454  -0.00967
  42        6D-1        0.00163  -0.00813   0.00464   0.00899   0.02785
  43        6D+2        0.00446   0.00371   0.00878  -0.00491   0.00130
  44        6D-2       -0.00070   0.01190   0.02047  -0.00589   0.00392
  45 3   C  1S          0.00346  -0.00369  -0.00296  -0.00102  -0.00100
  46        2S          0.00525  -0.00601  -0.00482  -0.00140  -0.00172
  47        2PX         0.05820   0.11282   0.05545   0.07966  -0.01784
  48        2PY         0.11084   0.02804   0.01689  -0.11014   0.04463
  49        2PZ         0.06985  -0.11150   0.06246   0.01591  -0.10958
  50        3S         -0.01019   0.01910   0.01696  -0.00263   0.00830
  51        3PX         0.08691   0.16823   0.08308   0.11593  -0.02535
  52        3PY         0.16502   0.04252   0.02600  -0.16116   0.06570
  53        3PZ         0.10302  -0.16273   0.09022   0.02283  -0.15473
  54        4S         -0.01223   0.00696  -0.00021   0.02207  -0.01173
  55        4PX         0.06186   0.10063   0.04197   0.07262  -0.02243
  56        4PY         0.09684   0.01963   0.01070  -0.10628   0.04245
  57        4PZ         0.06756  -0.12889   0.05946   0.01856  -0.11370
  58        5S          0.03966  -0.01342   0.02460   0.01300  -0.05822
  59        5PX         0.03064   0.01748  -0.00814   0.00513  -0.00742
  60        5PY         0.02881   0.00597   0.00152  -0.00399  -0.01052
  61        5PZ        -0.00030  -0.01705   0.00398   0.00434  -0.01044
  62        6D 0       -0.01265  -0.00228  -0.00109   0.01689  -0.00405
  63        6D+1        0.00548   0.00067  -0.00137  -0.00426  -0.01659
  64        6D-1       -0.00209   0.00746  -0.00818  -0.00431   0.01961
  65        6D+2       -0.00321  -0.00400  -0.00619  -0.01486   0.00647
  66        6D-2        0.00943   0.01636   0.01536  -0.00624   0.00493
  67 4   H  1S          0.03427  -0.02111  -0.02568   0.10946   0.10805
  68        2S          0.04836  -0.03031  -0.03325   0.15329   0.16053
  69        3S          0.01506  -0.01022  -0.00991   0.07206   0.08836
  70        4PX         0.00224  -0.00576  -0.00389  -0.00307   0.00283
  71        4PY         0.00081   0.00445  -0.00335  -0.00156  -0.00952
  72        4PZ        -0.00437  -0.00078   0.00441  -0.00800  -0.00314
  73 5   H  1S          0.03223   0.05195  -0.08307   0.01667  -0.12600
  74        2S          0.03618   0.07572  -0.11255   0.02658  -0.18736
  75        3S          0.01044   0.03444  -0.03594   0.01470  -0.11332
  76        4PX         0.00158  -0.00312  -0.00656  -0.00306  -0.00193
  77        4PY         0.00150  -0.00327   0.00213   0.00577   0.00864
  78        4PZ         0.00374   0.00431  -0.00558   0.00596  -0.00339
  79 6   N  1S         -0.00990   0.00321  -0.00991   0.01127   0.00312
  80        2S         -0.01602   0.00508  -0.01597   0.01819   0.00501
  81        2PX        -0.07897  -0.06577  -0.11183  -0.00297   0.01096
  82        2PY        -0.07959  -0.10445   0.01948   0.04630  -0.06100
  83        2PZ         0.09367   0.00125  -0.01509  -0.07112  -0.01187
  84        3S          0.05063  -0.01308   0.04872  -0.05609  -0.01488
  85        3PX        -0.11626  -0.09518  -0.16278  -0.00177   0.01504
  86        3PY        -0.11745  -0.15449   0.02643   0.06631  -0.08810
  87        3PZ         0.13617  -0.00115  -0.02140  -0.10213  -0.02027
  88        4S          0.03862  -0.01107   0.05929  -0.05882  -0.00727
  89        4PX        -0.07912  -0.07048  -0.11611  -0.00199   0.01238
  90        4PY        -0.06539  -0.11341   0.01698   0.04341  -0.07306
  91        4PZ         0.09712  -0.00386  -0.00973  -0.08062  -0.02796
  92        5S         -0.12082  -0.02539  -0.01207   0.01697   0.07231
  93        5PX        -0.00626  -0.01495  -0.01181  -0.00874   0.00191
  94        5PY         0.01713  -0.00477   0.00959   0.00479  -0.02583
  95        5PZ         0.02169   0.00728   0.00098  -0.01945  -0.00952
  96        6D 0       -0.01140  -0.00553   0.00568   0.00933  -0.00345
  97        6D+1        0.00018   0.00605   0.00254  -0.00057   0.00192
  98        6D-1        0.00113   0.01150  -0.00589  -0.00362   0.01062
  99        6D+2       -0.00091  -0.00813  -0.00717  -0.00840   0.00214
 100        6D-2        0.00823   0.00732   0.00987  -0.00062  -0.00026
 101 7   H  1S         -0.09561   0.06716  -0.04651   0.05197   0.06083
 102        2S         -0.12349   0.08530  -0.06327   0.07674   0.09380
 103        3S         -0.02999   0.02788  -0.02268   0.03736   0.05532
 104        4PX         0.00274   0.00563   0.00348   0.00478  -0.00219
 105        4PY        -0.00310   0.00655  -0.00325  -0.00229   0.00719
 106        4PZ        -0.00801   0.00193  -0.00168   0.00655   0.00019
 107 8   H  1S         -0.00285  -0.06592   0.04447   0.08544  -0.11281
 108        2S         -0.00687  -0.08287   0.06254   0.12285  -0.16829
 109        3S          0.00323  -0.02277   0.02695   0.05294  -0.10640
 110        4PX         0.00254   0.00758   0.00160   0.00261   0.00191
 111        4PY         0.00579  -0.00393   0.00500   0.00011  -0.00540
 112        4PZ         0.00403   0.00096  -0.00219  -0.00853   0.00505
 113 9   H  1S         -0.08312  -0.04795   0.04044   0.06682  -0.03219
 114        2S         -0.11104  -0.07086   0.05811   0.09734  -0.06037
 115        3S         -0.01157  -0.02378   0.02702   0.03345  -0.05094
 116        4PX        -0.00733  -0.00672  -0.00649   0.00131   0.00130
 117        4PY         0.00392  -0.00379  -0.00229  -0.00303  -0.00274
 118        4PZ        -0.00637  -0.00740   0.00545   0.00433  -0.00600
 119 10  H  1S         -0.02404  -0.02524  -0.08915  -0.03374   0.02651
 120        2S         -0.02802  -0.03946  -0.12727  -0.05162   0.03512
 121        3S          0.01835  -0.00595  -0.04278  -0.02788  -0.00045
 122        4PX        -0.00149  -0.00118   0.00688   0.00473  -0.00304
 123        4PY        -0.00713  -0.00995  -0.00436   0.00015  -0.00269
 124        4PZ         0.00747   0.00002   0.00013  -0.00536  -0.00198
 125 11  H  1S         -0.02059   0.03611  -0.09073  -0.02360  -0.05084
 126        2S         -0.02457   0.05665  -0.12848  -0.02634  -0.08581
 127        3S         -0.02215   0.02625  -0.02966  -0.00805  -0.04958
 128        4PX        -0.00463  -0.00336   0.00622  -0.00593   0.00172
 129        4PY        -0.00660   0.00878   0.00078  -0.00361  -0.00474
 130        4PZ        -0.00215   0.00062   0.00963   0.00069   0.00216
 131 12  H  1S          0.07949  -0.07709  -0.01538   0.04477   0.05340
 132        2S          0.11037  -0.10305  -0.02326   0.07525   0.08507
 133        3S          0.01818  -0.03252   0.00896   0.03601   0.04797
 134        4PX        -0.00500  -0.00132   0.00333  -0.00709   0.00156
 135        4PY         0.00453  -0.00288   0.00891   0.00263   0.00423
 136        4PZ         0.00810  -0.00599  -0.00622   0.00378   0.00320
                          16        17        18        19        20
                           O         O         V         V         V
     Eigenvalues --    -0.25867  -0.24652   0.00460   0.01104   0.03169
   1 1   N  1S          0.02223   0.02159   0.01699  -0.03043   0.00131
   2        2S          0.03591   0.03501   0.02809  -0.04996   0.00218
   3        2PX         0.14846   0.15613   0.00808   0.01144   0.02322
   4        2PY        -0.08412  -0.07361   0.04156  -0.02457  -0.02011
   5        2PZ        -0.01915  -0.01095   0.00300   0.00076   0.00265
   6        3S         -0.10618  -0.10657  -0.09254   0.15982  -0.00742
   7        3PX         0.21563   0.22491   0.01058   0.02164   0.03483
   8        3PY        -0.12122  -0.10676   0.05553  -0.03629  -0.03301
   9        3PZ        -0.02827  -0.01538   0.00449   0.00104   0.00415
  10        4S         -0.14734  -0.11313  -0.18855   0.36332  -0.02483
  11        4PX         0.22548   0.25787  -0.01770   0.05421   0.03338
  12        4PY        -0.12551  -0.10381   0.13111  -0.06633  -0.02583
  13        4PZ        -0.03563  -0.01297   0.00799  -0.00282   0.00448
  14        5S          0.04812   0.09526  -1.76490   2.32197  -0.01771
  15        5PX         0.09940   0.12332  -0.32315   0.55502   0.13905
  16        5PY        -0.04325  -0.04605  -0.35530   0.32238  -0.12434
  17        5PZ        -0.01738  -0.00226   0.02648  -0.00256   0.01253
  18        6D 0       -0.00435  -0.00435   0.00210   0.00158  -0.00025
  19        6D+1       -0.00131  -0.00090   0.00017   0.00049   0.00023
  20        6D-1        0.00075   0.00065   0.00017   0.00064   0.00086
  21        6D+2        0.00353   0.00143   0.00441  -0.00116   0.00312
  22        6D-2       -0.00689  -0.00709  -0.00001  -0.00185  -0.00414
  23 2   C  1S         -0.01058   0.00334   0.01383   0.00290   0.02230
  24        2S         -0.01697   0.00543   0.02355   0.00419   0.03705
  25        2PX        -0.02653  -0.07494   0.00565   0.02511   0.00138
  26        2PY         0.00552   0.02447  -0.04693   0.01764  -0.04309
  27        2PZ        -0.00242   0.00916   0.00263   0.00433   0.00757
  28        3S          0.05182  -0.01660  -0.09229   0.00226  -0.12562
  29        3PX        -0.03669  -0.11320   0.01612   0.01920   0.00697
  30        3PY         0.00516   0.03157  -0.06744   0.01359  -0.06774
  31        3PZ        -0.00189   0.01236   0.00444   0.00892   0.01312
  32        4S          0.03133  -0.08317  -0.04037  -0.12274  -0.20714
  33        4PX        -0.01497  -0.04413  -0.03075   0.24526   0.02694
  34        4PY         0.00683   0.07339  -0.16680   0.13918  -0.15972
  35        4PZ         0.02153  -0.01058   0.01887   0.00330   0.02205
  36        5S         -0.06083  -0.14234   2.51275  -2.11370  -4.23780
  37        5PX        -0.01571  -0.03862  -0.52763   0.67645  -1.76333
  38        5PY         0.02757   0.04603  -0.73022   0.82520   1.13422
  39        5PZ         0.00442   0.00268  -0.01443  -0.06634   0.06288
  40        6D 0        0.00481   0.00606   0.00526  -0.00606  -0.00577
  41        6D+1        0.00615   0.00058   0.00016  -0.00129  -0.00130
  42        6D-1       -0.00373   0.00314  -0.00012   0.00023   0.00173
  43        6D+2       -0.01975  -0.02550   0.00266  -0.00011  -0.00342
  44        6D-2        0.00530   0.00695   0.00363   0.01243  -0.00824
  45 3   C  1S          0.00869   0.01753   0.01765  -0.00431  -0.01798
  46        2S          0.01384   0.02814   0.02981  -0.00655  -0.02966
  47        2PX         0.06592   0.05872  -0.00877   0.02449   0.00108
  48        2PY         0.01852  -0.05222   0.05623   0.01671  -0.03038
  49        2PZ         0.04222  -0.04304   0.00447   0.00016   0.00602
  50        3S         -0.03835  -0.08752  -0.10888   0.00735   0.09633
  51        3PX         0.09875   0.08753  -0.02089   0.02218   0.00303
  52        3PY         0.02924  -0.07564   0.08074   0.01280  -0.05154
  53        3PZ         0.05728  -0.05936   0.00709   0.00120   0.00977
  54        4S         -0.10073  -0.08592  -0.12845   0.12628   0.18733
  55        4PX         0.06489   0.06462   0.03446   0.21998   0.05318
  56        4PY        -0.00707  -0.08143   0.17415   0.10575  -0.08445
  57        4PZ         0.03001  -0.03898  -0.01265  -0.02434   0.01427
  58        5S          0.01230   0.15381   1.92515   2.02359   5.04170
  59        5PX        -0.01854   0.00295   0.74740   0.71962  -1.62627
  60        5PY        -0.00407   0.00856   0.53056   0.80757   1.46919
  61        5PZ         0.02002  -0.01849  -0.10384  -0.09784   0.12504
  62        6D 0       -0.00527   0.00325   0.00412   0.00485   0.00925
  63        6D+1       -0.00909   0.00890   0.00051   0.00078   0.00162
  64        6D-1       -0.02002   0.01729  -0.00049   0.00100  -0.00151
  65        6D+2        0.01084  -0.01411   0.00016   0.00080   0.00362
  66        6D-2        0.00528   0.00746   0.00156  -0.01421   0.00968
  67 4   H  1S          0.01402   0.03331  -0.01165  -0.00089  -0.00296
  68        2S          0.01599   0.06790   0.02177  -0.01081   0.05829
  69        3S         -0.01068   0.04349  -0.17350  -0.05276  -0.12507
  70        4PX        -0.00269  -0.00244   0.00067   0.00550  -0.00493
  71        4PY        -0.00020   0.00020   0.00103   0.00248   0.00760
  72        4PZ        -0.00198  -0.00215   0.01087  -0.00388   0.00598
  73 5   H  1S          0.03008   0.02258  -0.01427  -0.00492  -0.00443
  74        2S          0.06438   0.03212   0.03132  -0.00354   0.08292
  75        3S          0.03294   0.01225  -0.18657  -0.08822  -0.18130
  76        4PX         0.00020  -0.00403  -0.00059   0.00688  -0.00578
  77        4PY        -0.00195   0.00098   0.00190   0.00267   0.00867
  78        4PZ         0.00259   0.00264  -0.01145   0.00243  -0.00587
  79 6   N  1S          0.01906  -0.02456   0.01766   0.03115   0.00205
  80        2S          0.03080  -0.03967   0.02918   0.05120   0.00351
  81        2PX        -0.00083  -0.04787  -0.03047  -0.01630   0.02802
  82        2PY        -0.11804   0.08595  -0.02300   0.00601  -0.03002
  83        2PZ        -0.14448   0.13095   0.01610   0.02197   0.00722
  84        3S         -0.09032   0.11646  -0.09788  -0.16531  -0.01505
  85        3PX        -0.00060  -0.06829  -0.04204  -0.02246   0.04186
  86        3PY        -0.17196   0.12362  -0.02544   0.01120  -0.04708
  87        3PZ        -0.20873   0.18839   0.02453   0.03374   0.00953
  88        4S         -0.12010   0.19020  -0.17949  -0.34574   0.03102
  89        4PX         0.00492  -0.06603  -0.06545  -0.04848   0.06913
  90        4PY        -0.18559   0.12714  -0.07096   0.03659  -0.05395
  91        4PZ        -0.21487   0.20220   0.06004   0.08553   0.02704
  92        5S          0.07318  -0.06118  -1.83555  -2.06691  -0.81189
  93        5PX        -0.00984  -0.02353   0.24182   0.50326   0.23539
  94        5PY        -0.07897   0.07063   0.41295   0.34985   0.01240
  95        5PZ        -0.09331   0.09282   0.01519  -0.01240  -0.04204
  96        6D 0        0.00567  -0.00366   0.00079  -0.00224  -0.00072
  97        6D+1       -0.00210   0.00412   0.00143   0.00040  -0.00129
  98        6D-1        0.00625  -0.00540   0.00114   0.00042   0.00046
  99        6D+2       -0.00715  -0.00319   0.00230  -0.00091  -0.00290
 100        6D-2       -0.00073   0.00204  -0.00114   0.00171   0.00057
 101 7   H  1S         -0.06401   0.06361  -0.01361   0.00306   0.00273
 102        2S         -0.10834   0.10796   0.04348   0.00994  -0.04344
 103        3S         -0.11673   0.09738  -0.25218   0.02931   0.08421
 104        4PX         0.00404   0.00106  -0.00049   0.00666  -0.00573
 105        4PY        -0.00293  -0.00055  -0.00332   0.00275   0.00788
 106        4PZ        -0.00252   0.00203  -0.01268  -0.00295   0.00231
 107 8   H  1S          0.03137  -0.01592  -0.01245   0.00270   0.00333
 108        2S          0.06195  -0.03279   0.04603   0.00087  -0.06192
 109        3S          0.02774  -0.02852  -0.19397   0.08799   0.12865
 110        4PX         0.00133   0.00385   0.00191   0.00761  -0.00594
 111        4PY         0.00313  -0.00448  -0.00202   0.00335   0.00800
 112        4PZ        -0.00066  -0.00093   0.01176   0.00115  -0.00194
 113 9   H  1S          0.03552  -0.02690   0.00159   0.00545  -0.00090
 114        2S          0.05225  -0.03597   0.05276   0.07897   0.02275
 115        3S         -0.00572   0.00853   0.13330   0.18143   0.03113
 116        4PX         0.00131  -0.00633  -0.00385  -0.00145  -0.00021
 117        4PY        -0.01463   0.01244   0.00109   0.00648   0.00314
 118        4PZ        -0.00689   0.00698  -0.01025  -0.00934  -0.00598
 119 10  H  1S          0.01090  -0.04421   0.00647   0.00557   0.00143
 120        2S          0.00562  -0.07290   0.04166   0.07920  -0.02415
 121        3S         -0.02484  -0.01053   0.18671   0.09662  -0.01201
 122        4PX        -0.00393   0.00450   0.00984   0.01224  -0.00421
 123        4PY        -0.01031   0.00361  -0.00670  -0.00509   0.00356
 124        4PZ        -0.01399   0.01352  -0.00002  -0.00063   0.00003
 125 11  H  1S          0.02793   0.02967  -0.00050  -0.00588   0.00064
 126        2S          0.04122   0.03609   0.06066  -0.07626  -0.00810
 127        3S          0.00055  -0.01444   0.06205  -0.24372   0.00124
 128        4PX         0.01373   0.01384   0.00358  -0.00277   0.00111
 129        4PY        -0.00367  -0.00432  -0.00202   0.00807   0.00409
 130        4PZ        -0.00742  -0.00617   0.00887  -0.00855  -0.00206
 131 12  H  1S          0.03126   0.02620   0.00086  -0.00444   0.00203
 132        2S          0.03845   0.03613   0.06097  -0.07355  -0.00432
 133        3S         -0.01288   0.00079   0.08988  -0.21107   0.03062
 134        4PX         0.01326   0.01593   0.00250  -0.00104   0.00142
 135        4PY        -0.00430  -0.00465  -0.00194   0.00662   0.00250
 136        4PZ         0.00481   0.00359  -0.01007   0.00869   0.00052
                          21        22        23        24        25
                           V         V         V         V         V
     Eigenvalues --     0.03882   0.06680   0.07441   0.07789   0.09267
   1 1   N  1S         -0.00207  -0.01789   0.01074   0.00047  -0.00106
   2        2S         -0.00335  -0.02927   0.01796   0.00080  -0.00113
   3        2PX         0.00152  -0.00802   0.03666   0.00247   0.03484
   4        2PY        -0.00183  -0.00343  -0.01097  -0.00048  -0.06123
   5        2PZ        -0.04982   0.00698  -0.00279  -0.01559   0.01358
   6        3S          0.00968   0.08758  -0.06188  -0.00280  -0.01465
   7        3PX         0.00283  -0.00934   0.04638   0.00183   0.05736
   8        3PY        -0.00386  -0.00838  -0.01157   0.00002  -0.09149
   9        3PZ        -0.07430   0.00995  -0.00283  -0.02588   0.01634
  10        4S          0.03386   0.26272  -0.02576   0.00459   0.21309
  11        4PX         0.00353   0.01136   0.13019   0.02115   0.06523
  12        4PY         0.00048  -0.02593  -0.00531  -0.00170  -0.15187
  13        4PZ        -0.10437   0.00945  -0.01590   0.01974   0.05975
  14        5S          0.12326   1.11380   2.37631   0.60521  -3.28622
  15        5PX         0.07715   0.26596   0.56646   0.06765  -0.23289
  16        5PY         0.00103   0.44992  -1.08640  -0.12230   0.55239
  17        5PZ        -0.05676  -0.02079  -0.02316  -0.47625  -0.20124
  18        6D 0        0.00090   0.00139  -0.01189  -0.00148   0.00452
  19        6D+1       -0.00540   0.00075  -0.00053  -0.00575   0.00095
  20        6D-1       -0.00301   0.00066   0.00082  -0.00283  -0.00112
  21        6D+2        0.00005   0.00109   0.00202  -0.00024  -0.00012
  22        6D-2       -0.00127  -0.00746   0.00217  -0.00002  -0.00459
  23 2   C  1S          0.00510   0.01339  -0.01612  -0.00227   0.00259
  24        2S          0.00851   0.02200  -0.02611  -0.00368   0.00463
  25        2PX        -0.00055   0.04123  -0.01201  -0.00397   0.01363
  26        2PY        -0.00514  -0.01307  -0.00022   0.00205  -0.00482
  27        2PZ        -0.06228   0.00478   0.01168  -0.06139  -0.00695
  28        3S         -0.02884  -0.06224   0.07611   0.01053  -0.02030
  29        3PX        -0.00428   0.06274  -0.02984  -0.00866   0.00677
  30        3PY        -0.00909  -0.02573  -0.00672   0.00216   0.00877
  31        3PZ        -0.10807   0.00766   0.02314  -0.11667  -0.01049
  32        4S         -0.04917  -0.25113   0.33176   0.05010  -0.02735
  33        4PX         0.02319   0.14519   0.07642   0.00377   0.10510
  34        4PY        -0.00403   0.04826   0.18028   0.04528  -0.11728
  35        4PZ        -0.20339   0.04244   0.01431  -0.21459  -0.00582
  36        5S         -0.54563  -1.10792  -0.72378  -0.72391   3.61031
  37        5PX        -0.20152   0.43954  -1.63060  -0.00562  -1.36477
  38        5PY         0.20502   2.22085   0.68168   0.34088  -2.11739
  39        5PZ         0.70207  -0.07754  -0.32661   2.73396   0.35754
  40        6D 0       -0.00185  -0.01418  -0.01402  -0.00457   0.00672
  41        6D+1        0.00155  -0.00193  -0.00288   0.00643   0.00117
  42        6D-1       -0.00243   0.00090   0.00152  -0.00576   0.00175
  43        6D+2       -0.00058   0.00016  -0.00121   0.00067  -0.00221
  44        6D-2       -0.00046   0.00163  -0.00626  -0.00183  -0.00586
  45 3   C  1S         -0.00122   0.01337  -0.01913  -0.00202   0.00398
  46        2S         -0.00176   0.02196  -0.03089  -0.00332   0.00634
  47        2PX        -0.00661  -0.04221   0.00842   0.00372  -0.00857
  48        2PY         0.00269   0.01175  -0.01147  -0.00073  -0.01103
  49        2PZ        -0.06805   0.00803  -0.00522   0.06040   0.00718
  50        3S         -0.00004  -0.06409   0.08390   0.01269  -0.01261
  51        3PX        -0.01391  -0.06330   0.02212   0.00851   0.01267
  52        3PY         0.00111   0.02767  -0.01936  -0.00151  -0.02012
  53        3PZ        -0.11719   0.01416  -0.01483   0.11217   0.01294
  54        4S          0.05534  -0.24983   0.44181   0.02031  -0.22714
  55        4PX         0.01700  -0.14340  -0.03317  -0.00876  -0.16499
  56        4PY         0.02013  -0.07922  -0.17331  -0.03668  -0.04812
  57        4PZ        -0.21567   0.00365   0.03418   0.21885  -0.01237
  58        5S          1.09016   0.16131  -0.93782   0.21226  -1.58494
  59        5PX         0.08607  -0.68222   1.50800  -0.30471   2.27583
  60        5PY         0.27842  -2.13852  -0.45641  -0.19737   1.17124
  61        5PZ         0.85596  -0.04386   0.41127  -2.64332  -0.62237
  62        6D 0        0.00075  -0.01255  -0.01407  -0.00279   0.00685
  63        6D+1       -0.00151  -0.00294  -0.00374   0.00466   0.00248
  64        6D-1        0.00286  -0.00031  -0.00004  -0.00576   0.00314
  65        6D+2       -0.00094  -0.00233  -0.00009   0.00159   0.00011
  66        6D-2        0.00069   0.00133  -0.00397  -0.00156  -0.01258
  67 4   H  1S         -0.00392  -0.01188  -0.00894  -0.01816   0.00748
  68        2S          0.11003   0.01333  -0.08122   0.07396   0.01653
  69        3S         -0.27371  -0.28962   0.18337  -0.36384   0.21266
  70        4PX        -0.00064  -0.00011  -0.00705  -0.00376  -0.00593
  71        4PY         0.00291   0.00916   0.00198   0.00317  -0.00248
  72        4PZ         0.00589  -0.00153  -0.00901   0.00253   0.00462
  73 5   H  1S         -0.00000  -0.01158  -0.01169   0.01277   0.00938
  74        2S         -0.08648   0.04857  -0.05358  -0.09367   0.03197
  75        3S          0.16210  -0.29044   0.01157   0.34894   0.22890
  76        4PX         0.00001  -0.00016  -0.00762   0.00222  -0.00579
  77        4PY         0.00051   0.00898   0.00313  -0.00146  -0.00595
  78        4PZ         0.00306   0.00129   0.00912   0.00540  -0.00232
  79 6   N  1S          0.00205  -0.01314   0.00748  -0.00014  -0.00582
  80        2S          0.00351  -0.02161   0.01218  -0.00020  -0.00918
  81        2PX        -0.00648   0.00330  -0.04396   0.00072  -0.02659
  82        2PY         0.00336  -0.00465   0.02213  -0.00213   0.06596
  83        2PZ        -0.03685  -0.02002  -0.00399   0.01196  -0.01047
  84        3S         -0.01376   0.06863  -0.03305  -0.00180   0.01217
  85        3PX        -0.00905   0.00653  -0.05810   0.00179  -0.03428
  86        3PY         0.00371  -0.00797   0.03718   0.00060   0.08768
  87        3PZ        -0.05691  -0.03222   0.00224   0.02375  -0.01953
  88        4S          0.00752   0.17143  -0.10836   0.02542   0.23302
  89        4PX        -0.01688  -0.02414  -0.18168  -0.00703  -0.07188
  90        4PY         0.02058  -0.00813   0.02528  -0.01849   0.15139
  91        4PZ        -0.05621  -0.06855  -0.02367  -0.03059  -0.05480
  92        5S         -0.62182   0.89340   1.14049   0.39958  -1.76146
  93        5PX         0.05521  -0.44767  -0.43479   0.04367  -0.68767
  94        5PY         0.12002  -0.33069   0.58999  -0.01926  -0.30532
  95        5PZ        -0.13649   0.17241  -0.39922   0.35523   0.57637
  96        6D 0        0.00076  -0.00002  -0.00801   0.00015   0.00492
  97        6D+1        0.00307  -0.00022   0.00064  -0.00535   0.00212
  98        6D-1        0.00554   0.00005   0.00314  -0.00192  -0.00727
  99        6D+2        0.00103   0.00515  -0.00143  -0.00111   0.00376
 100        6D-2        0.00018  -0.00932   0.00510   0.00055  -0.00339
 101 7   H  1S          0.00440  -0.01074  -0.00902  -0.01744   0.00794
 102        2S         -0.09814   0.02115  -0.08357   0.07536  -0.01511
 103        3S          0.24052  -0.30631   0.20657  -0.35502   0.30973
 104        4PX        -0.00039   0.00040   0.00738   0.00423   0.00753
 105        4PY         0.00223  -0.01004  -0.00067  -0.00251   0.00357
 106        4PZ         0.00439  -0.00010   0.01011  -0.00255  -0.00444
 107 8   H  1S         -0.00513  -0.00876  -0.01252   0.01250   0.01134
 108        2S          0.09235   0.02953  -0.09089  -0.08795   0.01290
 109        3S         -0.22597  -0.28066   0.09835   0.33213   0.31645
 110        4PX         0.00094  -0.00036   0.00617  -0.00313   0.00879
 111        4PY        -0.00207  -0.00860  -0.00299   0.00218   0.00771
 112        4PZ         0.00575  -0.00096  -0.01016  -0.00509   0.00024
 113 9   H  1S         -0.00546  -0.00651  -0.01036   0.00018   0.01246
 114        2S         -0.01053  -0.08055   0.03476  -0.02332  -0.06825
 115        3S         -0.06171   0.09694  -0.61009   0.03574   0.44747
 116        4PX        -0.00034  -0.00647   0.00401   0.00637  -0.00382
 117        4PY        -0.00407  -0.00276   0.00551   0.00247  -0.00411
 118        4PZ         0.00615   0.00502   0.01020  -0.00495   0.00147
 119 10  H  1S          0.00144   0.01747   0.00046  -0.00380  -0.00129
 120        2S          0.00658   0.00925   0.04363  -0.01310  -0.06616
 121        3S          0.12003   0.22914   0.32232  -0.09887   0.62408
 122        4PX         0.00213  -0.00668   0.00812   0.00029   0.01245
 123        4PY        -0.00124  -0.00655  -0.00107   0.00080  -0.00921
 124        4PZ        -0.00026  -0.00053  -0.00217  -0.00679   0.00295
 125 11  H  1S          0.00254  -0.00898  -0.00937  -0.00064   0.00970
 126        2S          0.01482  -0.08645   0.05368  -0.01510  -0.05838
 127        3S          0.05114   0.08655  -0.86387  -0.02782   0.59763
 128        4PX         0.00179   0.00451  -0.00285  -0.00437   0.00194
 129        4PY        -0.00491   0.00323  -0.00897  -0.00453   0.00825
 130        4PZ         0.00602  -0.00433  -0.00759   0.00292   0.00079
 131 12  H  1S         -0.00331  -0.00848  -0.00937  -0.00396   0.00768
[...]
 Maximum Displacement     0.001361     0.001800     YES
 RMS     Displacement     0.000627     0.001200     YES
 Predicted change in Energy=-1.875915D-08
 Optimization completed.
    -- Stationary point found.
 GradGradGradGradGradGradGradGradGradGradGradGradGradGradGradGradGradGrad

 Leave Link  103 at Fri Jun  2 11:21:36 2023, MaxMem=  7381975040 cpu:               2.3 elap:               3.4
 (Enter /software/commercial/gaussian/g16/AVX/g16/l9999.exe)

 ----------------------------------------------------------------------

 Electric dipole moment (input orientation):
 (Debye = 10**-18 statcoulomb cm , SI units = C m)
                  (au)            (Debye)         (10**-30 SI)
   Tot        0.122127D+01      0.310415D+01      0.103543D+02
   x          0.754878D+00      0.191871D+01      0.640013D+01
   y         -0.736890D+00     -0.187299D+01     -0.624761D+01
   z         -0.615342D+00     -0.156404D+01     -0.521708D+01

 Dipole polarizability, Alpha (input orientation).
 (esu units = cm**3 , SI units = C**2 m**2 J**-1)
 Alpha(0;0):
               (au)            (10**-24 esu)      (10**-40 SI)
   iso        0.559833D+02      0.829587D+01      0.923040D+01
   aniso      0.875036D+01      0.129667D+01      0.144274D+01
   xx         0.593174D+02      0.878994D+01      0.978013D+01
   yx         0.290097D+01      0.429879D+00      0.478305D+00
   yy         0.570379D+02      0.845215D+01      0.940428D+01
   zx        -0.481591D+00     -0.713645D-01     -0.794037D-01
   zy         0.106335D+01      0.157573D+00      0.175323D+00
   zz         0.515946D+02      0.764553D+01      0.850680D+01

 First dipole hyperpolarizability, Beta (input orientation).
 ||, _|_  parallel and perpendicular components, (z) with respect to z axis,
 vector components x,y,z.  Values do not include the 1/n! factor of 1/2.
 (esu units = statvolt**-1 cm**4 , SI units = C**3 m**3 J**-2)
 Beta(0;0,0):
               (au)            (10**-30 esu)      (10**-50 SI)
   || (z)     0.135571D+02      0.117123D+00      0.434691D-01
   _|_(z)     0.451905D+01      0.390411D-01      0.144897D-01
   x         -0.104281D+02     -0.900906D-01     -0.334362D-01
   y         -0.323560D+02     -0.279530D+00     -0.103745D+00
   z          0.677857D+02      0.585616D+00      0.217346D+00
   ||         0.151665D+02      0.131027D+00      0.486292D-01
   xxx       -0.191102D+02     -0.165097D+00     -0.612741D-01
   xxy       -0.586713D+01     -0.506874D-01     -0.188121D-01
   yxy        0.748256D+01      0.646435D-01      0.239918D-01
   yyy       -0.474360D+01     -0.409810D-01     -0.152097D-01
   xxz        0.776189D+01      0.670567D-01      0.248874D-01
   yxz       -0.500144D+01     -0.432086D-01     -0.160364D-01
   yyz       -0.543016D+01     -0.469124D-01     -0.174111D-01
   zxz        0.815157D+01      0.704232D-01      0.261369D-01
   zyz       -0.174586D+00     -0.150829D-02     -0.559787D-03
   zzz        0.202635D+02      0.175061D+00      0.649722D-01

 ----------------------------------------------------------------------

 Dipole orientation:
     7          2.63502694          0.29611749          3.20955182
     6          4.55968740         -1.69577079          3.34239999
     6          6.14085741         -1.71306504          5.76626663
     1          5.82176417         -1.49974586          1.71723016
     1          3.60678480         -3.52251106          3.13960816
     7          7.99765893         -3.77934531          5.70900197
     1          4.85650874         -1.80960722          7.40051633
     1          7.17195115          0.07445809          5.91164238
     1          7.10078157         -5.47367784          5.82619727
     1          9.15487084         -3.67755951          7.23558465
     1          3.45749586          2.02484597          3.36106321
     1          1.41537059          0.14451778          4.68506383

 Electric dipole moment (dipole orientation):
 (Debye = 10**-18 statcoulomb cm , SI units = C m)
                  (au)            (Debye)         (10**-30 SI)
   Tot        0.122127D+01      0.310415D+01      0.103543D+02
   x          0.000000D+00      0.000000D+00      0.000000D+00
   y          0.000000D+00      0.000000D+00      0.000000D+00
   z          0.122127D+01      0.310415D+01      0.103543D+02

 Dipole polarizability, Alpha (dipole orientation).
 (esu units = cm**3 , SI units = C**2 m**2 J**-1)
 Alpha(0;0):
               (au)            (10**-24 esu)      (10**-40 SI)
   iso        0.559833D+02      0.829587D+01      0.923040D+01
   aniso      0.875036D+01      0.129667D+01      0.144274D+01
   xx         0.571819D+02      0.847348D+01      0.942802D+01
   yx        -0.475230D+01     -0.704217D+00     -0.783548D+00
   yy         0.554585D+02      0.821810D+01      0.914387D+01
   zx         0.135284D+01      0.200471D+00      0.223054D+00
   zy         0.159642D+00      0.236565D-01      0.263215D-01
   zz         0.553096D+02      0.819604D+01      0.911932D+01

 First dipole hyperpolarizability, Beta (dipole orientation).
 ||, _|_  parallel and perpendicular components, (z) with respect to z axis,
 vector components x,y,z.  Values do not include the 1/n! factor of 1/2.
 (esu units = statvolt**-1 cm**4 , SI units = C**3 m**3 J**-2)
 Beta(0;0,0):
               (au)            (10**-30 esu)      (10**-50 SI)
   || (z)    -0.421539D+01     -0.364176D-01     -0.135160D-01
   _|_(z)    -0.140513D+01     -0.121392D-01     -0.450535D-02
   x          0.260960D+02      0.225449D+00      0.836733D-01
   y          0.680097D+02      0.587551D+00      0.218064D+00
   z         -0.210769D+02     -0.182088D+00     -0.675802D-01
   ||         0.151665D+02      0.131027D+00      0.486292D-01
   xxx        0.625990D+01      0.540806D-01      0.200715D-01
   xxy        0.167618D+02      0.144809D+00      0.537444D-01
   yxy        0.645259D+01      0.557453D-01      0.206893D-01
   yyy       -0.581831D+01     -0.502656D-01     -0.186556D-01
   xxz       -0.666231D+01     -0.575571D-01     -0.213618D-01
   yxz        0.298022D+01      0.257468D-01      0.955566D-02
   yyz       -0.193823D+00     -0.167448D-02     -0.621467D-03
   zxz       -0.401381D+01     -0.346762D-01     -0.128697D-01
   zyz        0.117264D+02      0.101307D+00      0.375991D-01
   zzz       -0.169513D+00     -0.146446D-02     -0.543519D-03

 ----------------------------------------------------------------------
 Unable to Open any file for archive entry.
 1\1\GINC-NODE1929\Freq\RB3LYP\6-311+G(d,p)\C2H8N2\SVICCHI\02-Jun-2023\
 0\\#p freq=raman scale=0.967 pop=(nbo,full,hirshfeld) guess=read geom=
 allcheck b3lyp/6-311+G(d,p) int=grid=ultrafine EmpiricalDispersion=GD3
 BJ SCRF=(Solvent=ethanol) scf=(xqc,intrep,maxconventionalcycle=350) no
 symm\\EDA-isolated.gjf\\0,1\N,2.0510952484,-0.7977486063,0.1006821068\
 C,3.1156917467,0.2113020378,0.0587972424\C,4.534931286,-0.348185249,-0
 .0758117598\H,3.0565780013,0.8172223609,0.9675168488\H,2.9129485536,0.
 8836451873,-0.7820879675\N,5.5203201999,0.7424983243,-0.1129561353\H,4
 .5751676866,-0.9998270014,-0.9624728294\H,4.7549059199,-0.9762054377,0
 .7934359136\H,5.4269802335,1.2669189461,-0.9785565497\H,6.4630872487,0
 .366112043,-0.1089743441\H,2.1984407526,-1.4315263099,0.881281836\H,2.
 0721721229,-1.3681342952,-0.7400743619\\Version=ES64L-G16RevC.01\HF=-1
 90.6064995\RMSD=1.522e-09\RMSF=8.082e-06\ZeroPoint=0.1067299\Thermal=0
 .112399\ETot=-190.4941005\HTot=-190.4931563\GTot=-190.5275867\Dipole=0
 .7548784,-0.7368898,-0.6153416\DipoleDeriv=-0.97265,-0.082259,0.050957
 9,-0.136265,-0.5127134,0.0070632,0.0415267,0.0011914,-0.3112607,0.5271
 368,0.0763977,-0.0093494,0.2977669,0.4895562,-0.0115517,-0.0030662,-0.
 0203782,0.2930248,0.3680188,0.259116,0.0326329,0.2160746,0.4597554,0.0
 821376,-0.0544455,-0.0049182,0.3875625,0.0070326,-0.0156842,0.0152647,
 0.0034418,-0.047278,-0.1117473,0.0100128,-0.1548744,-0.1154657,-0.0063
 888,0.0033114,-0.0267224,0.0149159,-0.07234,0.1186123,-0.0165939,0.172
 27,-0.1010858,-0.6900203,-0.2178107,0.0113915,-0.2249892,-0.6731926,-0
 .1610624,0.0172345,-0.1292853,-0.4915435,-0.0433678,-0.0818889,-0.0159
 065,-0.0641114,-0.1739815,-0.1566477,-0.0136197,-0.2128471,-0.1513896,
 0.0059979,0.0149744,-0.0257736,-0.001492,-0.0626116,0.1074205,-0.04673
 82,0.151301,-0.107324,0.1817671,-0.0378247,-0.0500271,-0.0536598,0.256
 3955,0.0677593,-0.0215059,0.153989,0.0621104,0.0315454,0.0237846,0.040
 9909,0.0815418,0.153747,0.0494453,0.1195353,0.0493444,0.3000313,0.2777
 487,0.0398038,-0.1500643,-0.0558741,0.0841432,0.0991797,-0.0882342,0.0
 853288,0.141744,0.3131798,0.0180794,0.1266054,-0.0773497,0.0985198,-0.
 0906088,0.0558942,-0.0911213,0.0935962\Polar=59.3174464,2.9009659,57.0
 37911,-0.4815914,1.0633538,51.5946072\PolarDeriv=-5.682525,-4.2143369,
 0.3542121,-0.1071613,1.153573,-1.3887172,-4.7631678,-1.491137,5.660432
 7,1.0456587,-0.0382904,6.5469473,-0.379079,0.9381203,-0.4058946,-2.923
 5314,6.6486976,1.2821094,-4.2522151,2.332105,0.8189636,0.7367366,-1.61
 97456,0.5782283,6.3345906,2.402748,-7.3665128,-1.0081721,0.243078,-8.6
 07381,1.0593884,-0.8738606,-0.0930947,2.0557321,-10.8320147,-1.5231466
 ,2.4382941,-3.194345,-0.2770986,-0.0783508,1.8197379,-1.3319883,-4.784
 3313,-2.1238305,8.3501169,2.0781447,1.8158995,7.3842522,-0.9753734,2.3
 994686,3.7904303,-0.9178291,12.4562928,0.9237262,0.3021295,1.0287066,0
 .1221082,1.7023913,0.3641668,-0.1832991,0.0572937,-0.7660664,4.7675574
 ,-0.3282074,3.3612439,3.3795617,2.140455,0.0319794,4.3505617,-1.037966
 4,5.2100041,7.8349298,-0.6682275,1.1652003,-0.7938961,-1.9882324,0.384
 6018,-0.8070441,0.1894721,-1.2999188,5.6835928,0.6046206,-3.5322733,3.
 1062197,-2.5853936,0.5160682,-4.5851366,-1.4528013,5.1319729,-6.261059
 3,-3.2381804,5.0263625,-0.5188606,1.1908363,-0.460694,1.1536839,6.9164
 69,1.659385,1.1150361,-0.044382,0.2364129,-5.0311508,1.7196182,1.01422
 73,1.1219741,1.5105962,-4.7423444,4.7105832,-1.1041761,-1.4251911,-0.5
 490364,-1.8578251,-0.6752102,-0.19261,-0.3150646,-0.211603,-7.2397963,
 -0.1591009,-4.2878485,-3.2761291,-2.4370852,-1.0865193,-6.0041506,0.26
 68482,-6.3459534,-7.5699821,0.8740559,-1.087073,0.5753684,1.8879939,-0
 .2761696,1.2599856,-0.3542027,1.5612466,-4.8925382,-0.783007,3.2601526
 ,-2.8704329,2.5401425,-0.8507709,3.5802364,1.6183175,-5.1985044,6.5669
 625,-0.7756295,0.83425,-0.3264984,-0.8900335,0.0716355,-0.9588471,0.48
 10331,0.5968339,3.5598173,-0.6486052,-2.2059508,5.3867004,-1.669583,-0
 .6294194,-3.6465416,0.7334871,4.9262835,-6.1271538,13.9256346,-1.45541
 47,1.7150739,-0.9156874,0.0886707,0.9664095,-3.3871211,1.494378,-0.511
 6941,-0.2733339,0.7718491,-0.2145225,0.4739848,-0.6891894,1.3520668,0.
 3940504,0.9214439,1.0086778,-0.676819,0.4858459,-0.1889446,0.5820162,-
 0.0128,0.9242806,-0.1541012,-0.6843375,-5.0305609,0.2390047,3.4373576,
 -2.9668186,1.5694535,-0.2104263,5.2753497,0.2555966,-4.0889941,6.02757
 6,-1.1423415,0.5038903,-0.9313915,-0.2626836,-0.8377664,-0.0200821,-0.
 2208697,-1.1376982,-4.0954509,-0.7226202,-3.0616305,-2.8372465,-1.4565
 282,-0.559678,-4.7358009,-0.5024999,-4.0868838,-6.873223\HyperPolar=-1
 9.1101605,-5.8671284,7.4825595,-4.7436037,7.7618869,-5.0014432,-5.4301
 63,8.1515696,-0.1745863,20.2635221\Quadrupole=4.37814,-2.7198642,-1.65
 82758,-5.7253231,-5.6381215,-1.88996\PG=C01 [X(C2H8N2)]\NImag=0\\0.226
 61124,0.08864468,0.52336059,0.03854769,-0.01287872,0.67337231,-0.13413
 692,-0.09704785,-0.00112135,0.43562045,-0.04483078,-0.13414689,0.00209
 423,-0.01034850,0.53954476,0.00129554,0.00589842,-0.10245858,0.0138412
 2,0.00152711,0.61759539,-0.02773260,-0.00280001,0.00261633,-0.15017628
 ,0.05381481,0.00693251,0.45459470,-0.03398318,0.00291035,0.00258752,0.
 04973726,-0.10318048,-0.00471220,-0.02469975,0.52372483,0.00076230,-0.
 00021380,0.00027638,0.00889364,-0.00392720,-0.08269985,0.01924628,-0.0
 2017181,0.58822046,-0.00344495,-0.01752100,-0.02461855,-0.04786758,0.0
 1102797,0.01676309,-0.00483403,0.01759461,0.02693106,0.05887023,-0.005
 76435,-0.01596469,-0.02133098,0.01033202,-0.11942728,-0.10948368,0.003
 00025,-0.00879817,-0.01325522,-0.00562452,0.13497821,-0.00150264,0.000
 69465,0.00367194,0.01347081,-0.11462129,-0.23275745,-0.00072307,-0.002
 17963,-0.00273895,-0.01407119,0.12726375,0.24619927,0.00058901,-0.0198
 3172,0.02406735,-0.05783517,0.03265958,-0.04219163,-0.00896525,0.01935
 612,-0.02525288,0.00037524,-0.00099490,0.00164605,0.06972121,-0.002988
 66,-0.01837711,0.02120079,0.02999058,-0.13536090,0.11069790,0.00469314
 ,-0.00893519,0.01211887,-0.00297181,0.01175978,-0.01269719,-0.02831148
 ,0.15302180,0.00173295,0.00121498,0.00067532,-0.03776440,0.11545979,-0
 .20300636,0.00169323,-0.00177893,0.00227788,-0.00499485,0.01575979,-0.
 02039073,0.04006522,-0.12931981,0.21451448,-0.01121381,0.00061173,0.00
 046587,-0.02682373,-0.03253343,0.00136564,-0.13776141,-0.06610221,-0.0
 2254399,0.00244711,-0.00085983,-0.00007255,0.00228913,-0.00048691,-0.0
 0063070,0.60582146,0.00316266,0.00140449,-0.00057122,0.00043983,0.0072
 6797,0.00130030,-0.04253248,-0.15328819,-0.00137637,-0.00010393,0.0012
 5569,0.00101174,0.00033862,0.00089583,-0.00070802,-0.05471821,0.406017
 28,-0.00022891,0.00003324,0.00140185,-0.00001988,0.00106188,0.00044058
 ,0.00235320,0.02778386,-0.07472497,-0.00061033,0.00092078,0.00053596,-
 0.00001677,-0.00068100,0.00059139,0.03725063,-0.20917831,0.40760154,0.
 00281789,0.00063313,-0.00045286,-0.00484344,0.01813048,0.02713923,-0.0
 4943823,0.01024729,0.01150865,-0.00561092,0.00239742,0.00072282,0.0014
 7335,-0.00055522,-0.00065706,-0.00493785,-0.02352792,-0.01934420,0.058
 45922,-0.00042655,0.00132002,0.00134625,0.00168727,-0.00855376,-0.0131
 8234,0.01194612,-0.12027191,-0.10440255,0.00208399,-0.00077126,-0.0002
 9127,-0.00057589,0.00028735,0.00013688,-0.01055534,-0.02350136,-0.0186
 8510,-0.00489175,0.13842783,0.00033811,0.00127052,0.00095217,-0.001294
 79,-0.00252408,-0.00365923,0.01295276,-0.10428301,-0.21147972,0.000727
 66,-0.00049159,0.00155404,0.00048308,-0.00010200,0.00106088,-0.0028498
 9,-0.00090588,0.00728449,-0.01185653,0.12088331,0.22425473,0.00285413,
 0.00026427,0.00037230,-0.00893265,0.01878654,-0.02601400,-0.05905197,0
 .03211297,-0.04604637,0.00151585,-0.00072693,0.00037508,-0.00566027,0.
 00218848,0.00076929,0.00275302,-0.01960544,0.02123716,0.00127075,-0.00
 073099,0.00226947,0.06799666,-0.00061904,0.00114946,-0.00118268,0.0037
 6931,-0.00880349,0.01103674,0.02758275,-0.12429475,0.10733824,-0.00044
 738,0.00028645,0.00005018,0.00215110,-0.00035046,-0.00020999,0.0021272
 3,-0.01978165,0.02146364,-0.00350070,0.01077709,-0.01399018,-0.0279420
 1,0.14256575,-0.00087251,-0.00111748,0.00082520,0.00168874,-0.00204974
 ,0.00244636,-0.04277309,0.11324170,-0.21496862,-0.00052039,0.00005519,
 0.00118838,0.00084811,-0.00029090,0.00158948,0.00170124,0.00146340,0.0
 0111975,-0.00630620,0.01359567,-0.02196626,0.04558531,-0.12460663,0.22
 805021,-0.00032999,0.00031011,-0.00065868,0.00136314,-0.00132872,0.001
 69389,0.00315209,-0.01407076,0.02470608,-0.00006892,0.00001514,-0.0000
 8867,-0.00062025,0.00052905,-0.00056513,-0.06395472,0.01125967,-0.0295
 2577,0.00058325,0.00023373,-0.00059236,-0.00326365,-0.00388341,0.00052
 549,0.06639881,0.00015706,0.00012048,-0.00028489,0.00030664,0.00107571
 ,-0.00033377,0.00115293,-0.01909677,0.02606338,0.00007782,-0.00000544,
 -0.00013180,-0.00053606,0.00030135,0.00004948,0.01257166,-0.11771224,0
 .14971523,0.00185229,0.00121319,0.00012745,-0.00421158,-0.00286993,-0.
 00058226,-0.01325970,0.14581713,0.00016261,-0.00012952,0.00027105,0.00
 021324,0.00016470,0.00002901,-0.00173123,-0.00580590,-0.00189230,0.000
 00385,0.00003475,-0.00009292,0.00065083,-0.00004674,-0.00014663,-0.042
 15068,0.19772756,-0.31690538,0.00004528,-0.00035544,0.00196014,0.00062
 836,0.00015126,0.00179718,0.03921763,-0.18797306,0.31782366,-0.0019186
 4,0.00031164,0.00019118,-0.00031154,-0.00583631,0.00002962,-0.02223360
 ,0.01219488,0.00215865,0.00030448,0.00002631,0.00010442,0.00039691,-0.
 00000120,-0.00016071,-0.36912759,0.12440486,-0.01129383,0.00109781,0.0
 0060962,-0.00081988,0.00105528,0.00028194,0.00045496,-0.00346539,0.001
 76335,0.00310207,0.39413127,-0.00240651,-0.00002097,0.00035519,-0.0005
 4093,-0.00414253,-0.00025858,-0.03326210,0.00861615,-0.00211407,-0.000
 11443,0.00008006,0.00024642,-0.00009233,0.00012977,-0.00026298,0.14943
 321,-0.10287192,0.02768320,-0.00001247,0.00055309,-0.00012517,0.000622
 15,0.00086153,0.00030004,0.01993419,-0.00876908,-0.00368869,-0.1338422
 9,0.10543248,0.00107673,0.00015981,0.00066054,0.00099942,0.00130405,-0
 .00010998,-0.00066305,-0.00504380,-0.00288488,-0.00042912,0.00017803,0
 .00013317,0.00015541,-0.00026244,0.00010834,0.02731691,0.01135960,-0.0
 2760414,-0.00032998,0.00094933,0.00028833,0.00032435,0.00000527,0.0001
 2433,-0.03461512,0.01340673,-0.00280748,0.00623522,-0.02215353,0.03206
 615,-0.03371986,0.03822846,-0.07925431,-0.00128132,-0.02083245,0.02471
 912,0.00135815,-0.00122913,0.00212707,0.00078871,0.00082233,-0.0004531
 9,-0.00258343,-0.00285744,0.00005251,0.00019329,0.00038585,-0.00045898
 ,-0.00008326,0.00013008,-0.00010171,-0.00045825,0.00036509,-0.00051139
 ,0.00020033,0.00018989,-0.00013003,0.00000962,0.00009646,-0.00015744,0
 .03825489,0.01471520,-0.19427545,0.18602264,0.00757206,-0.01799077,0.0
 2171895,0.00047217,0.00139567,-0.00041527,0.00066553,0.00023111,-0.000
 34634,-0.00488013,-0.00361522,-0.00054423,0.00029852,0.00017359,-0.000
 25499,-0.00006490,0.00006938,-0.00003230,-0.00075270,0.00040178,-0.000
 04810,0.00024772,0.00000111,-0.00006394,0.00005150,0.00005708,-0.00000
 661,-0.01663928,0.20013151,-0.04316191,0.16351921,-0.26988962,-0.00066
 481,0.00121788,0.00119300,-0.00031151,-0.00128325,0.00012567,0.0002533
 0,-0.00015012,0.00050090,-0.00019335,-0.00061656,0.00222914,-0.0005190
 1,-0.00018345,0.00018992,0.00011251,0.00002044,-0.00004425,0.00054836,
 0.00000720,-0.00016236,-0.00010803,-0.00002615,-0.00002469,-0.00007091
 ,-0.00006459,0.00004781,0.05097358,-0.18581019,0.29153041,-0.02037550,
 0.00819655,0.03984503,-0.00477495,-0.01870921,-0.02557424,0.00108843,-
 0.00115811,-0.00249049,-0.00247523,-0.00262293,0.00059212,0.00081951,0
 .00077147,0.00045965,0.00031508,0.00049649,0.00065768,-0.00078858,0.00
 048971,0.00074408,-0.00007890,0.00011511,0.00017974,0.00000530,-0.0000
 6429,-0.00001192,0.00006139,0.00018507,0.00008667,-0.00267887,-0.00168
 570,-0.00685824,0.02888232,-0.01566050,-0.16748029,-0.17735815,0.00410
 232,-0.01628235,-0.02420885,0.00063214,0.00121847,0.00035581,-0.004666
 86,-0.00362448,0.00100078,0.00071708,0.00024300,0.00020305,0.00021359,
 0.00014052,0.00013758,-0.00070764,0.00045035,0.00017294,-0.00000477,0.
 00005822,0.00003912,0.00001299,-0.00007551,-0.00001497,0.00003571,0.00
 007434,0.00010356,0.00134013,0.01342021,0.02336957,0.01398581,0.171857
 53,0.00185003,-0.15845130,-0.30975857,0.00175815,0.00029267,0.00298710
 ,0.00040763,0.00164546,0.00048888,0.00056547,0.00049931,0.00219639,-0.
 00026142,-0.00000093,0.00049682,0.00066652,0.00006065,0.00006903,-0.00
 058166,-0.00001518,-0.00020534,-0.00004930,-0.00006305,-0.00004366,0.0
 0001067,-0.00003034,-0.00001164,0.00006921,0.00008275,-0.00002219,0.00
 319476,-0.02021962,-0.02569594,-0.00763008,0.17619957,0.32949913\\0.00
 001757,-0.00001895,0.00000812,-0.00000021,0.00000270,-0.00000221,-0.00
 000204,-0.00000029,0.00000217,-0.00000128,0.00000256,-0.00000206,0.000
 00117,0.00000060,-0.00000273,-0.00000668,0.00000084,-0.00001225,0.0000
 0004,0.00000129,0.00000109,-0.00000381,-0.00000052,0.00000079,0.000002
 57,-0.00000652,0.00001666,0.00000732,-0.00000386,0.00000573,-0.0000137
 2,0.00002176,-0.00001642,-0.00000092,0.00000041,0.00000111\\\@
 The archive entry for this job was punched.


 TO DRY ONE'S EYES AND LAUGH AT A FALL
 AND BAFFLED, GET UP AND BEGIN AGAIN.
           R. BROWNING
 Job cpu time:       0 days  0 hours 10 minutes 49.4 seconds.
 Elapsed time:       0 days  0 hours  6 minutes 17.1 seconds.
 File lengths (MBytes):  RWF=     79 Int=      0 D2E=      0 Chk=      9 Scr=      1
 Normal termination of Gaussian 16 at Fri Jun  2 11:21:43 2023.
