 Entering Gaussian System, Link 0=g16
 Input=MEA-H_dissociation-site_index-5-freq.gjf
 Output=MEA-H_dissociation-site_index-5-freq.log
 Initial command:
 /software/commercial/gaussian/g16/AVX/g16/l1.exe "/scratch1/svicchi/G09-659879.pbs02/Gau-2205881.inp" -scrdir="/scratch1/svicchi/G09-659879.pbs02/"
 Entering Link 1 = /software/commercial/gaussian/g16/AVX/g16/l1.exe PID=   2205882.
  
 Copyright (c) 1988-2019, Gaussian, Inc.  All Rights Reserved.
  
 This is part of the Gaussian(R) 16 program.  It is based on
 the Gaussian(R) 09 system (copyright 2009, Gaussian, Inc.),
 the Gaussian(R) 03 system (copyright 2003, Gaussian, Inc.),
 the Gaussian(R) 98 system (copyright 1998, Gaussian, Inc.),
 the Gaussian(R) 94 system (copyright 1995, Gaussian, Inc.),
 the Gaussian 92(TM) system (copyright 1992, Gaussian, Inc.),
 the Gaussian 90(TM) system (copyright 1990, Gaussian, Inc.),
 the Gaussian 88(TM) system (copyright 1988, Gaussian, Inc.),
 the Gaussian 86(TM) system (copyright 1986, Carnegie Mellon
 University), and the Gaussian 82(TM) system (copyright 1983,
 Carnegie Mellon University). Gaussian is a federally registered
 trademark of Gaussian, Inc.
  
 This software contains proprietary and confidential information,
 including trade secrets, belonging to Gaussian, Inc.
  
 This software is provided under written license and may be
 used, copied, transmitted, or stored only in accord with that
 written license.
  
 The following legend is applicable only to US Government
 contracts under FAR:
  
                    RESTRICTED RIGHTS LEGEND
  
 Use, reproduction and disclosure by the US Government is
 subject to restrictions as set forth in subparagraphs (a)
 and (c) of the Commercial Computer Software - Restricted
 Rights clause in FAR 52.227-19.
  
 Gaussian, Inc.
 340 Quinnipiac St., Bldg. 40, Wallingford CT 06492
  
  
 ---------------------------------------------------------------
 Warning -- This program may not be used in any manner that
 competes with the business of Gaussian, Inc. or will provide
 assistance to any competitor of Gaussian, Inc.  The licensee
 of this program is prohibited from giving any competitor of
 Gaussian, Inc. access to this program.  By using this program,
 the user acknowledges that Gaussian, Inc. is engaged in the
 business of creating and licensing software in the field of
 computational chemistry and represents and warrants to the
 licensee that it is not a competitor of Gaussian, Inc. and that
 it will not use this program in any manner prohibited above.
 ---------------------------------------------------------------
  

 Cite this work as:
 Gaussian 16, Revision C.01,
 M. J. Frisch, G. W. Trucks, H. B. Schlegel, G. E. Scuseria, 
 M. A. Robb, J. R. Cheeseman, G. Scalmani, V. Barone, 
 G. A. Petersson, H. Nakatsuji, X. Li, M. Caricato, A. V. Marenich, 
 J. Bloino, B. G. Janesko, R. Gomperts, B. Mennucci, H. P. Hratchian, 
 J. V. Ortiz, A. F. Izmaylov, J. L. Sonnenberg, D. Williams-Young, 
 F. Ding, F. Lipparini, F. Egidi, J. Goings, B. Peng, A. Petrone, 
 T. Henderson, D. Ranasinghe, V. G. Zakrzewski, J. Gao, N. Rega, 
 G. Zheng, W. Liang, M. Hada, M. Ehara, K. Toyota, R. Fukuda, 
 J. Hasegawa, M. Ishida, T. Nakajima, Y. Honda, O. Kitao, H. Nakai, 
 T. Vreven, K. Throssell, J. A. Montgomery, Jr., J. E. Peralta, 
 F. Ogliaro, M. J. Bearpark, J. J. Heyd, E. N. Brothers, K. N. Kudin, 
 V. N. Staroverov, T. A. Keith, R. Kobayashi, J. Normand, 
 K. Raghavachari, A. P. Rendell, J. C. Burant, S. S. Iyengar, 
 J. Tomasi, M. Cossi, J. M. Millam, M. Klene, C. Adamo, R. Cammi, 
 J. W. Ochterski, R. L. Martin, K. Morokuma, O. Farkas, 
 J. B. Foresman, and D. J. Fox, Gaussian, Inc., Wallingford CT, 2019.
 
 ******************************************
 Gaussian 16:  ES64L-G16RevC.01  3-Jul-2019
                 2-Jun-2023 
 ******************************************
 %NProcShared=2
 Will use up to    2 processors via shared memory.
 %mem=55gb
 %chk=/scratch1/svicchi/G09-659879.pbs02/02-freq/MEA-H_dissociation-site_index-5-
 freq.chk
 ----------------------------------------------------------------------
 #p freq=raman scale=0.967 pop=(nbo,full,hirshfeld) guess=read geom=all
 check b3lyp/6-311+G(d,p) int=grid=ultrafine EmpiricalDispersion=GD3BJ 
 SCRF=(Solvent=ethanol) scf=(xqc,intrep,maxconventionalcycle=350) nosym
 m
 ----------------------------------------------------------------------
 1/10=4,29=7,30=1,38=1,114=967000/1,3;
 2/12=2,15=1,40=1/2;
 3/5=4,6=6,7=111,11=2,14=-4,25=1,30=1,70=2201,71=2,72=4,74=-5,75=-5,116=-2,124=41,140=1/1,2,3;
 4/5=1/1;
 5/5=2,8=3,13=1,17=20,38=6,53=4,85=350,98=1/2,8;
 8/6=4,10=90,11=11/1;
 10/13=10,15=4,31=1/2;
 11/6=3,8=1,9=11,15=111,16=1,31=1/1,2,10;
 10/6=1,31=1/2;
 6/7=3,28=1,40=1,79=1/1,7;
 7/8=1,10=1,25=1,30=1/1,2,3,16;
 1/10=4,30=1/3;
 99//99;
 Leave Link    1 at Fri Jun  2 11:22:52 2023, MaxMem=  7381975040 cpu:               5.0 elap:               5.1
 (Enter /software/commercial/gaussian/g16/AVX/g16/l101.exe)
 Structure from the checkpoint file:  "/scratch1/svicchi/G09-659879.pbs02/02-freq/MEA-H_dissociation-site_index-5-freq.chk"
 -----------------------------------
 MEA-H_dissociation-site_index-5.gjf
 -----------------------------------
 Charge = -1 Multiplicity = 1
 No Z-Matrix found in chk file; cartesian coordinates used.
  O                                                 2.144509827718     -0.752025148531      0.231629862946
  C                                                 3.193823644187      0.232631590200      0.060123007369
  C                                                 4.535259712753     -0.460903617137     -0.207958927671
  H                                                 3.275828447335      0.847729217759      0.966808712047
  H                                                 2.953260659303      0.895000946984     -0.780641194412
  N                                                 5.651932433940      0.446240865408     -0.406866858234
  H                                                 4.397415278544     -1.073485602709     -1.113698613084
  H                                                 4.667094892059     -1.194113816772      0.619800964374
  H                                                 1.310354166966     -0.288453526721      0.359271259256
  H                                                 5.829910937195      0.892745091519      0.497473787410
 Recover connectivity data from disk.
 ITRead=  0  0  0  0  0  0  0  0  0  0
 MicOpt= -1 -1 -1 -1 -1 -1 -1 -1 -1 -1
 NAtoms=     10 NQM=       10 NQMF=       0 NMMI=      0 NMMIF=      0
                NMic=       0 NMicF=      0.
                    Isotopes and Nuclear Properties:
 (Nuclear quadrupole moments (NQMom) in fm**2, nuclear magnetic moments (NMagM)
  in nuclear magnetons)

  Atom         1           2           3           4           5           6           7           8           9          10
 IAtWgt=          16          12          12           1           1          14           1           1           1           1
 AtmWgt=  15.9949146  12.0000000  12.0000000   1.0078250   1.0078250  14.0030740   1.0078250   1.0078250   1.0078250   1.0078250
 NucSpn=           0           0           0           1           1           2           1           1           1           1
 AtZEff=   5.6000000   3.6000000   3.6000000   1.0000000   1.0000000   4.5500000   1.0000000   1.0000000   1.0000000   1.0000000
 NQMom=    0.0000000   0.0000000   0.0000000   0.0000000   0.0000000   2.0440000   0.0000000   0.0000000   0.0000000   0.0000000
 NMagM=    0.0000000   0.0000000   0.0000000   2.7928460   2.7928460   0.4037610   2.7928460   2.7928460   2.7928460   2.7928460
 AtZNuc=   8.0000000   6.0000000   6.0000000   1.0000000   1.0000000   7.0000000   1.0000000   1.0000000   1.0000000   1.0000000
 Leave Link  101 at Fri Jun  2 11:22:57 2023, MaxMem=  7381975040 cpu:               0.5 elap:               1.3
 (Enter /software/commercial/gaussian/g16/AVX/g16/l103.exe)

 GradGradGradGradGradGradGradGradGradGradGradGradGradGradGradGradGradGrad
 Berny optimization.
 Initialization pass.
 Trust Radius=3.00D-01 FncErr=1.00D-07 GrdErr=1.00D-07 EigMax=2.50D+02 EigMin=1.00D-04
 Number of steps in this run=      2 maximum allowed number of steps=      2.
 GradGradGradGradGradGradGradGradGradGradGradGradGradGradGradGradGradGrad

 Leave Link  103 at Fri Jun  2 11:23:00 2023, MaxMem=  7381975040 cpu:               0.1 elap:               1.5
 (Enter /software/commercial/gaussian/g16/AVX/g16/l202.exe)
                          Input orientation:                          
 ---------------------------------------------------------------------
 Center     Atomic      Atomic             Coordinates (Angstroms)
 Number     Number       Type             X           Y           Z
 ---------------------------------------------------------------------
      1          8           0        2.144510   -0.752025    0.231630
      2          6           0        3.193824    0.232632    0.060123
      3          6           0        4.535260   -0.460904   -0.207959
      4          1           0        3.275828    0.847729    0.966809
      5          1           0        2.953261    0.895001   -0.780641
      6          7           0        5.651932    0.446241   -0.406867
      7          1           0        4.397415   -1.073486   -1.113699
      8          1           0        4.667095   -1.194114    0.619801
      9          1           0        1.310354   -0.288454    0.359271
     10          1           0        5.829911    0.892745    0.497474
 ---------------------------------------------------------------------
                    Distance matrix (angstroms):
                    1          2          3          4          5
     1  O    0.000000
     2  C    1.449146   0.000000
     3  C    2.448198   1.533724   0.000000
     4  H    2.092746   1.098703   2.163046   0.000000
     5  H    2.095582   1.097036   2.160825   1.777601   0.000000
     6  N    3.761055   2.511176   1.452389   2.773815   2.761145
     7  H    2.643639   2.128951   1.102099   3.045904   2.464031
     8  H    2.590281   2.125881   1.113627   2.495027   3.043496
     9  H    0.962812   1.976987   3.278949   2.350128   2.323598
    10  H    4.044518   2.752450   2.001530   2.597237   3.147809
                    6          7          8          9         10
     6  N    0.000000
     7  H    2.093560   0.000000
     8  H    2.171340   1.758493   0.000000
     9  H    4.469457   3.509396   3.486518   0.000000
    10  H    1.024146   2.917873   2.392088   4.673406   0.000000
 Symmetry turned off by external request.
 Stoichiometry    C2H6NO(1-)
 Framework group  C1[X(C2H6NO)]
 Deg. of freedom    24
 Full point group                 C1      NOp   1
 Rotational constants (GHZ):          30.4569801           3.9302017           3.6791674
 Leave Link  202 at Fri Jun  2 11:23:03 2023, MaxMem=  7381975040 cpu:               0.3 elap:               1.4
 (Enter /software/commercial/gaussian/g16/AVX/g16/l301.exe)
 Standard basis: 6-311+G(d,p) (5D, 7F)
 Ernie: Thresh=  0.10000D-02 Tol=  0.10000D-05 Strict=F.
   124 basis functions,   192 primitive gaussians,   128 cartesian basis functions
    17 alpha electrons       17 beta electrons
       nuclear repulsion energy       121.4455816261 Hartrees.
 IExCor=  402 DFT=T Ex+Corr=B3LYP ExCW=0 ScaHFX=  0.200000
 ScaDFX=  0.800000  0.720000  1.000000  0.810000 ScalE2=  1.000000  1.000000
 IRadAn=      5 IRanWt=     -1 IRanGd=            0 ICorTp=0 IEmpDi=141
 NAtoms=   10 NActive=   10 NUniq=   10 SFac= 1.00D+00 NAtFMM=   60 NAOKFM=F Big=F
 Integral buffers will be    131072 words long.
 Raffenetti 2 integral format.
 Two-electron integral symmetry is turned off.
 R6Disp:  Grimme-D3(BJ) Dispersion energy=       -0.0093517605 Hartrees.
 Nuclear repulsion after empirical dispersion term =      121.4362298655 Hartrees.
 Force inversion solution in PCM.
 ------------------------------------------------------------------------------
 Polarizable Continuum Model (PCM)
 =================================
 Model                : PCM.
 Atomic radii         : UFF (Universal Force Field).
 Polarization charges : Total charges.
 Charge compensation  : None.
 Solution method      : Matrix inversion.
 Cavity type          : Scaled VdW (van der Waals Surface) (Alpha=1.100).
 Cavity algorithm     : GePol (No added spheres)
                        Default sphere list used, NSphG=   10.
                        Lebedev-Laikov grids with approx.  5.0 points / Ang**2.
                        Smoothing algorithm: York/Karplus (Gamma=1.0000).
                        Polarization charges: spherical gaussians, with
                                              point-specific exponents (IZeta= 3).
                        Self-potential: point-specific (ISelfS= 7).
                        Self-field    : sphere-specific E.n sum rule (ISelfD= 2).
 1st derivatives      : Analytical E(r).r(x)/FMM algorithm (CHGder, D1EAlg=3).
                        Cavity 1st derivative terms included.
 2nd derivatives      : Analytical E(r).r(xy)/FMM algorithm (CHGder, D2EAlg=3).
                        Cavity 2nd derivative terms included.
 Solvent              : Ethanol, Eps=  24.852000 Eps(inf)=   1.852593
 ------------------------------------------------------------------------------
 Spheres list:
 ISph  on   Nord     Re0    Alpha      Xe            Ye            Ze
    1   O      1    1.7500  1.100      2.144510     -0.752025      0.231630
    2   C      2    1.9255  1.100      3.193824      0.232632      0.060123
    3   C      3    1.9255  1.100      4.535260     -0.460904     -0.207959
    4   H      4    1.4430  1.100      3.275828      0.847729      0.966809
    5   H      5    1.4430  1.100      2.953261      0.895001     -0.780641
    6   N      6    1.8300  1.100      5.651932      0.446241     -0.406867
    7   H      7    1.4430  1.100      4.397415     -1.073486     -1.113699
    8   H      8    1.4430  1.100      4.667095     -1.194114      0.619801
    9   H      9    1.4430  1.100      1.310354     -0.288454      0.359271
   10   H     10    1.4430  1.100      5.829911      0.892745      0.497474
 ------------------------------------------------------------------------------
 GePol: Number of generator spheres                  =      10
 GePol: Total number of spheres                      =      10
 GePol: Number of exposed spheres                    =      10 (100.00%)
 GePol: Number of points                             =     917
 GePol: Average weight of points                     =       0.14
 GePol: Minimum weight of points                     =   0.12D-10
 GePol: Maximum weight of points                     =    0.20577
 GePol: Number of points with low weight             =      48
 GePol: Fraction of low-weight points (<1% of avg)   =       5.23%
 GePol: Cavity surface area                          =    124.842 Ang**2
 GePol: Cavity volume                                =    107.857 Ang**3
 Leave Link  301 at Fri Jun  2 11:23:06 2023, MaxMem=  7381975040 cpu:               0.4 elap:               1.9
 (Enter /software/commercial/gaussian/g16/AVX/g16/l302.exe)
 NPDir=0 NMtPBC=     1 NCelOv=     1 NCel=       1 NClECP=     1 NCelD=      1
         NCelK=      1 NCelE2=     1 NClLst=     1 CellRange=     0.0.
 One-electron integrals computed using PRISM.
 NBasis=   124 RedAO= T EigKep=  1.09D-04  NBF=   124
 NBsUse=   124 1.00D-06 EigRej= -1.00D+00 NBFU=   124
 Precomputing XC quadrature grid using
 IXCGrd= 4 IRadAn=           5 IRanWt=          -1 IRanGd=           0 AccXCQ= 0.00D+00.
 Generated NRdTot=       0 NPtTot=           0 NUsed=           0 NTot=          32
 NSgBfM=   128   128   128   128   128 MxSgAt=    10 MxSgA2=    10.
 Leave Link  302 at Fri Jun  2 11:23:09 2023, MaxMem=  7381975040 cpu:               0.6 elap:               1.0
 (Enter /software/commercial/gaussian/g16/AVX/g16/l303.exe)
 DipDrv:  MaxL=1.
 Leave Link  303 at Fri Jun  2 11:23:11 2023, MaxMem=  7381975040 cpu:               0.1 elap:               1.2
 (Enter /software/commercial/gaussian/g16/AVX/g16/l401.exe)
 Initial guess from the checkpoint file:  "/scratch1/svicchi/G09-659879.pbs02/02-freq/MEA-H_dissociation-site_index-5-freq.chk"
 B after Tr=     0.000000    0.000000    0.000000
         Rot=    1.000000    0.000000    0.000000    0.000000 Ang=   0.00 deg.
 Guess basis will be translated and rotated to current coordinates.
 JPrj=2 DoOrth=T DoCkMO=T.
 Leave Link  401 at Fri Jun  2 11:23:15 2023, MaxMem=  7381975040 cpu:               0.6 elap:               2.8
 (Enter /software/commercial/gaussian/g16/AVX/g16/l502.exe)
 Keep R1 ints in memory in canonical form, NReq=31947375.
 FoFCou: FMM=F IPFlag=           0 FMFlag=           0 FMFlg1=           0
         NFxFlg=           0 DoJE=F BraDBF=F KetDBF=F FulRan=T
         wScrn=  0.000000 ICntrl=       600 IOpCl=  0 I1Cent=           0 NGrid=           0
         NMat0=    1 NMatS0=   7750 NMatT0=    0 NMatD0=    1 NMtDS0=    0 NMtDT0=    0
 Symmetry not used in FoFCou.
 Two-electron integral symmetry not used.
 Closed shell SCF:
 Using DIIS extrapolation, IDIIS=  1040.
 NGot=  7381975040 LenX=  7351905033 LenY=  7351888208
 Requested convergence on RMS density matrix=1.00D-08 within 350 cycles.
 Requested convergence on MAX density matrix=1.00D-06.
 Requested convergence on             energy=1.00D-06.
 No special actions if energy rises.

 Cycle   1  Pass 1  IDiag  1:
 Inv3:  Mode=1 IEnd=     2522667.
 Iteration    1 A*A^-1 deviation from unit magnitude is 3.77D-15 for    891.
 Iteration    1 A*A^-1 deviation from orthogonality  is 1.63D-15 for    885    782.
 Iteration    1 A^-1*A deviation from unit magnitude is 3.77D-15 for    891.
 Iteration    1 A^-1*A deviation from orthogonality  is 3.83D-14 for    866    844.
 E= -209.930951754889    
 DIIS: error= 2.03D-08 at cycle   1 NSaved=   1.
 NSaved= 1 IEnMin= 1 EnMin= -209.930951754889     IErMin= 1 ErrMin= 2.03D-08
 ErrMax= 2.03D-08  0.00D+00 EMaxC= 1.00D-01 BMatC= 7.31D-14 BMatP= 7.31D-14
 IDIUse=1 WtCom= 1.00D+00 WtEn= 0.00D+00
 Coeff-Com:  0.100D+01
 Coeff:      0.100D+01
 Gap=     0.150 Goal=   None    Shift=    0.000
 RMSDP=5.06D-09 MaxDP=8.29D-08              OVMax= 1.66D-07

 Error on total polarization charges =  0.02993
 SCF Done:  E(RB3LYP) =  -209.930951755     A.U. after    1 cycles
            NFock=  1  Conv=0.51D-08     -V/T= 2.0044
 KE= 2.090080734519D+02 PE=-7.412962890283D+02 EE= 2.009210339560D+02
 Leave Link  502 at Fri Jun  2 11:23:27 2023, MaxMem=  7381975040 cpu:              13.2 elap:              10.2
 (Enter /software/commercial/gaussian/g16/AVX/g16/l508.exe)
 QCSCF skips out because SCF is already converged.
 Leave Link  508 at Fri Jun  2 11:23:30 2023, MaxMem=  7381975040 cpu:               0.1 elap:               1.3
 (Enter /software/commercial/gaussian/g16/AVX/g16/l801.exe)
 DoSCS=F DFT=T ScalE2(SS,OS)=  1.000000  1.000000
 Range of M.O.s used for correlation:     1   124
 NBasis=   124 NAE=    17 NBE=    17 NFC=     0 NFV=     0
 NROrb=    124 NOA=    17 NOB=    17 NVA=   107 NVB=   107

 **** Warning!!: The largest alpha MO coefficient is  0.39197356D+02

 Leave Link  801 at Fri Jun  2 11:23:33 2023, MaxMem=  7381975040 cpu:               0.3 elap:               1.4
 (Enter /software/commercial/gaussian/g16/AVX/g16/l1002.exe)
 Minotr:  Closed shell wavefunction.
 NEqPCM:  Using equilibrium solvation (IEInf=0, Eps=  24.8520, EpsInf=   1.8526)
          Direct CPHF calculation.
          Differentiating once with respect to electric field.
                with respect to dipole field.
          Electric field/nuclear overlap derivatives assumed to be zero.
          Requested convergence is 1.0D-08 RMS, and 1.0D-07 maximum.
          Secondary convergence is 1.0D-12 RMS, and 1.0D-12 maximum.
          NewPWx=F KeepS1=T KeepF1=T KeepIn=T MapXYZ=F SortEE=F KeepMc=T.
         3044 words used for storage of precomputed grid.
 Keep R1 ints in memory in canonical form, NReq=33430206.
 FoFCou: FMM=F IPFlag=           0 FMFlag=           0 FMFlg1=           0
         NFxFlg=           0 DoJE=F BraDBF=F KetDBF=F FulRan=T
         wScrn=  0.000000 ICntrl=       600 IOpCl=  0 I1Cent=           0 NGrid=           0
         NMat0=    1 NMatS0=   7750 NMatT0=    0 NMatD0=    1 NMtDS0=    0 NMtDT0=    0
 Symmetry not used in FoFCou.
 Two-electron integral symmetry not used.
          MDV=    7381975040 using IRadAn=       1.
          Solving linear equations simultaneously, MaxMat=       0.
          There are     3 degrees of freedom in the 1st order CPHF.  IDoFFX=0 NUNeed=     3.
      3 vectors produced by pass  0 Test12= 6.06D-14 3.33D-08 XBig12= 4.84D+01 3.23D+00.
 AX will form     3 AO Fock derivatives at one time.
      3 vectors produced by pass  1 Test12= 6.06D-14 3.33D-08 XBig12= 4.61D+00 6.01D-01.
      3 vectors produced by pass  2 Test12= 6.06D-14 3.33D-08 XBig12= 1.85D+00 4.65D-01.
      3 vectors produced by pass  3 Test12= 6.06D-14 3.33D-08 XBig12= 1.63D-01 9.48D-02.
      3 vectors produced by pass  4 Test12= 6.06D-14 3.33D-08 XBig12= 5.08D-02 4.77D-02.
      3 vectors produced by pass  5 Test12= 6.06D-14 3.33D-08 XBig12= 3.61D-03 1.63D-02.
      3 vectors produced by pass  6 Test12= 6.06D-14 3.33D-08 XBig12= 1.78D-04 3.69D-03.
      3 vectors produced by pass  7 Test12= 6.06D-14 3.33D-08 XBig12= 4.08D-06 4.97D-04.
      3 vectors produced by pass  8 Test12= 6.06D-14 3.33D-08 XBig12= 1.08D-07 6.35D-05.
      3 vectors produced by pass  9 Test12= 6.06D-14 3.33D-08 XBig12= 2.18D-09 7.24D-06.
      3 vectors produced by pass 10 Test12= 6.06D-14 3.33D-08 XBig12= 3.80D-11 1.60D-06.
      1 vectors produced by pass 11 Test12= 6.06D-14 3.33D-08 XBig12= 2.93D-13 1.22D-07.
 InvSVY:  IOpt=1 It=  1 EMax= 2.66D-15
 Solved reduced A of dimension    34 with     3 vectors.
 End of Minotr F.D. properties file   721 does not exist.
 End of Minotr F.D. properties file   722 does not exist.
 End of Minotr F.D. properties file   788 does not exist.
 Leave Link 1002 at Fri Jun  2 11:24:05 2023, MaxMem=  7381975040 cpu:              46.9 elap:              28.8
 (Enter /software/commercial/gaussian/g16/AVX/g16/l1101.exe)
 Using compressed storage, NAtomX=    10.
 Will process     11 centers per pass.
 R6Disp: Adding Grimme-D3(BJ) dispersion energy 1st derivatives to the gradient.
 Leave Link 1101 at Fri Jun  2 11:24:10 2023, MaxMem=  7381975040 cpu:               0.6 elap:               2.3
 (Enter /software/commercial/gaussian/g16/AVX/g16/l1102.exe)
 Symmetrizing basis deriv contribution to polar:
 IMax=3 JMax=2 DiffMx= 0.00D+00
 Leave Link 1102 at Fri Jun  2 11:24:13 2023, MaxMem=  7381975040 cpu:               0.2 elap:               0.8
 (Enter /software/commercial/gaussian/g16/AVX/g16/l1110.exe)
 Forming Gx(P) for the SCF density, NAtomX=    10.
 Integral derivatives from FoFJK, PRISM(SPDF).
 Do as many integral derivatives as possible in FoFJK.
 G2DrvN: MDV=    7381973874.
 G2DrvN: will do    11 centers at a time, making    1 passes.
 PxScal for G2LodP:  IOpCl= 0 ISclPx=1 IMOff=     1 NMtTot=     4 NTT=    7750 ScalPx= 1.77D+01
 Calling FoFCou, ICntrl=  3107 FMM=F I1Cent=   0 AccDes= 0.00D+00.
 FoFJK:  IHMeth= 1 ICntrl=    3107 DoSepK=F KAlg= 0 I1Cent=           0 FoldK=F
 IRaf=         0 NMat=       1 IRICut=       1 DoRegI=T DoRafI=F ISym2E= 0 IDoP0=0 IntGTp=1.
 FoFCou: FMM=F IPFlag=           0 FMFlag=      100000 FMFlg1=           0
         NFxFlg=           0 DoJE=F BraDBF=F KetDBF=F FulRan=T
         wScrn=  0.000000 ICntrl=      3107 IOpCl=  0 I1Cent=           0 NGrid=           0
         NMat0=    1 NMatS0=      1 NMatT0=    0 NMatD0=    4 NMtDS0=    3 NMtDT0=    0
 Symmetry not used in FoFCou.
 PxScal for G2LodP:  IOpCl= 0 ISclPx=0 IMOff=     1 NMtTot=     4 NTT=    7750 ScalPx= 1.00D+00
 NEqPCM:  Using equilibrium solvation (IEInf=0, Eps=  24.8520, EpsInf=   1.8526)
 G2PCM: DoFxE=T DoFxN=T DoGrad=T DoDP/DQ/DG/TGxP=TFFF NFrqRd=   0 IEInf=0 SqF1=F DoCFld=F IF1Alg=4.
 GePol: Maximum number of non-zero 1st derivatives   =     209
 End of G2Drv F.D. properties file   721 does not exist.
 End of G2Drv F.D. properties file   722 does not exist.
 End of G2Drv F.D. properties file   788 does not exist.
 Leave Link 1110 at Fri Jun  2 11:25:16 2023, MaxMem=  7381975040 cpu:             119.7 elap:              62.9
 (Enter /software/commercial/gaussian/g16/AVX/g16/l1002.exe)
 Minotr:  Closed shell wavefunction.
          IDoAtm=1111111111
 NEqPCM:  Using equilibrium solvation (IEInf=0, Eps=  24.8520, EpsInf=   1.8526)
          Direct CPHF calculation.
          Differentiating once with respect to electric field.
                with respect to dipole field.
          Differentiating once with respect to nuclear coordinates.
          Requested convergence is 1.0D-08 RMS, and 1.0D-07 maximum.
          Secondary convergence is 1.0D-12 RMS, and 1.0D-12 maximum.
          NewPWx=T KeepS1=F KeepF1=F KeepIn=T MapXYZ=F SortEE=F KeepMc=T.
         3044 words used for storage of precomputed grid.
 Keep R1 ints in memory in canonical form, NReq=33430436.
 FoFCou: FMM=F IPFlag=           0 FMFlag=           0 FMFlg1=           0
         NFxFlg=           0 DoJE=F BraDBF=F KetDBF=F FulRan=T
         wScrn=  0.000000 ICntrl=       600 IOpCl=  0 I1Cent=           0 NGrid=           0
         NMat0=    1 NMatS0=   7750 NMatT0=    0 NMatD0=    1 NMtDS0=    0 NMtDT0=    0
 Symmetry not used in FoFCou.
 Two-electron integral symmetry not used.
          MDV=    7381975040 using IRadAn=       1.
          Solving linear equations simultaneously, MaxMat=       0.
          There are    33 degrees of freedom in the 1st order CPHF.  IDoFFX=5 NUNeed=    33.
 Will reuse    3 saved solutions.
     27 vectors produced by pass  0 Test12= 5.51D-15 3.03D-09 XBig12= 1.09D-01 6.97D-02.
 AX will form    27 AO Fock derivatives at one time.
     27 vectors produced by pass  1 Test12= 5.51D-15 3.03D-09 XBig12= 1.16D-02 2.26D-02.
     27 vectors produced by pass  2 Test12= 5.51D-15 3.03D-09 XBig12= 3.19D-04 3.47D-03.
     27 vectors produced by pass  3 Test12= 5.51D-15 3.03D-09 XBig12= 2.08D-06 2.24D-04.
     27 vectors produced by pass  4 Test12= 5.51D-15 3.03D-09 XBig12= 5.57D-09 1.10D-05.
     25 vectors produced by pass  5 Test12= 5.51D-15 3.03D-09 XBig12= 9.03D-12 4.03D-07.
      7 vectors produced by pass  6 Test12= 5.51D-15 3.03D-09 XBig12= 1.10D-14 2.23D-08.
 InvSVY:  IOpt=1 It=  1 EMax= 1.33D-15
 Solved reduced A of dimension   167 with    27 vectors.
 FullF1:  Do perturbations      1 to       3.
 Isotropic polarizability for W=    0.000000       72.19 Bohr**3.
 FullF1:  Do perturbations      1 to       6.
 End of Minotr F.D. properties file   721 does not exist.
 End of Minotr F.D. properties file   722 does not exist.
 End of Minotr F.D. properties file   788 does not exist.
 Leave Link 1002 at Fri Jun  2 11:26:33 2023, MaxMem=  7381975040 cpu:             129.3 elap:              76.0
 (Enter /software/commercial/gaussian/g16/AVX/g16/l601.exe)
 Copying SCF densities to generalized density rwf, IOpCl= 0 IROHF=0.

 **********************************************************************

            Population analysis using the SCF Density.

 **********************************************************************

 Alpha  occ. eigenvalues --  -19.11283 -14.19092 -10.18743 -10.14895  -1.00564
 Alpha  occ. eigenvalues --   -0.78116  -0.66467  -0.55587  -0.49213  -0.44696
 Alpha  occ. eigenvalues --   -0.38981  -0.36949  -0.32387  -0.32088  -0.26842
 Alpha  occ. eigenvalues --   -0.20276  -0.13671
 Alpha virt. eigenvalues --    0.01340   0.02296   0.03859   0.04915   0.07630
 Alpha virt. eigenvalues --    0.08332   0.08466   0.11694   0.13056   0.14420
 Alpha virt. eigenvalues --    0.15503   0.18527   0.19350   0.19727   0.20786
 Alpha virt. eigenvalues --    0.20835   0.22715   0.24716   0.25332   0.26494
 Alpha virt. eigenvalues --    0.27044   0.29480   0.30627   0.35033   0.36799
 Alpha virt. eigenvalues --    0.43766   0.45831   0.50963   0.53115   0.58117
 Alpha virt. eigenvalues --    0.58453   0.63980   0.65496   0.67026   0.67781
 Alpha virt. eigenvalues --    0.69427   0.72921   0.84816   0.88774   0.90918
 Alpha virt. eigenvalues --    0.91948   0.95016   1.03325   1.05498   1.07421
 Alpha virt. eigenvalues --    1.14697   1.22458   1.27207   1.30700   1.37163
 Alpha virt. eigenvalues --    1.39574   1.43694   1.46891   1.52310   1.57098
 Alpha virt. eigenvalues --    1.58743   1.59522   1.64856   1.67129   1.70275
 Alpha virt. eigenvalues --    1.76939   1.79957   1.84170   1.87483   1.99875
 Alpha virt. eigenvalues --    2.01296   2.07080   2.07227   2.14329   2.19001
 Alpha virt. eigenvalues --    2.31609   2.39445   2.42885   2.45244   2.49305
 Alpha virt. eigenvalues --    2.51682   2.58269   2.58813   2.62124   2.63451
 Alpha virt. eigenvalues --    2.67471   2.75330   2.80073   2.85212   2.88097
 Alpha virt. eigenvalues --    2.92074   3.10379   3.12248   3.19993   3.20198
 Alpha virt. eigenvalues --    3.30858   3.56934   3.79162   3.84451   3.86104
 Alpha virt. eigenvalues --    3.96418   4.00989   4.20088   4.41204   4.85272
 Alpha virt. eigenvalues --    5.00743   5.36065   5.64293  23.84046  23.88152
 Alpha virt. eigenvalues --   35.60398  49.90678
     Molecular Orbital Coefficients:
                           1         2         3         4         5
                           O         O         O         O         O
     Eigenvalues --   -19.11283 -14.19092 -10.18743 -10.14895  -1.00564
   1 1   O  1S          0.55134   0.00000  -0.00002   0.00000  -0.11263
   2        2S          0.46975   0.00001  -0.00007  -0.00000  -0.18023
   3        2PX        -0.00022   0.00002   0.00006   0.00001  -0.00797
   4        2PY         0.00120   0.00000   0.00009   0.00002   0.04608
   5        2PZ         0.00003  -0.00000  -0.00001   0.00000   0.00095
   6        3S          0.01345  -0.00007   0.00050   0.00013   0.52183
   7        3PX        -0.00012  -0.00009   0.00017  -0.00001  -0.00977
   8        3PY         0.00005  -0.00001   0.00001  -0.00008   0.07386
   9        3PZ         0.00002   0.00002  -0.00003  -0.00000   0.00107
  10        4S         -0.00901   0.00023  -0.00032  -0.00122   0.38386
  11        4PX        -0.00128   0.00036   0.00050  -0.00013   0.00442
  12        4PY        -0.00085   0.00005  -0.00010  -0.00049   0.03247
  13        4PZ         0.00021  -0.00007  -0.00010   0.00004  -0.00089
  14        5S          0.00737   0.00066   0.00703  -0.00074  -0.04492
  15        5PX        -0.00003   0.00029   0.00067   0.00045  -0.00436
  16        5PY         0.00083   0.00038   0.00189  -0.00025  -0.00900
  17        5PZ        -0.00001  -0.00007  -0.00016  -0.00010   0.00075
  18        6D 0       -0.00010   0.00000   0.00013   0.00005  -0.00862
  19        6D+1       -0.00005   0.00000   0.00004   0.00001  -0.00271
  20        6D-1        0.00003  -0.00000   0.00001   0.00001  -0.00007
  21        6D+2        0.00014  -0.00000  -0.00001   0.00000   0.00195
  22        6D-2       -0.00022  -0.00001  -0.00009  -0.00003   0.00005
  23 2   C  1S          0.00002   0.00000   0.56303  -0.00158  -0.03796
  24        2S         -0.00007   0.00001   0.46335  -0.00130  -0.05843
  25        2PX        -0.00007   0.00008  -0.00095   0.00042  -0.03166
  26        2PY        -0.00014  -0.00004  -0.00068  -0.00029  -0.02630
  27        2PZ         0.00001  -0.00001   0.00019  -0.00008   0.00520
  28        3S          0.00006   0.00014   0.01841  -0.00004   0.15112
  29        3PX        -0.00032  -0.00038   0.00061  -0.00096  -0.05237
  30        3PY         0.00018   0.00022   0.00236   0.00090  -0.04906
  31        3PZ         0.00006   0.00007  -0.00010   0.00018   0.00848
  32        4S          0.00425  -0.00244  -0.01367   0.00484   0.02788
  33        4PX        -0.00000  -0.00064  -0.00033   0.00156  -0.01414
  34        4PY        -0.00141   0.00064   0.00170  -0.00105   0.00312
  35        4PZ         0.00003   0.00020   0.00026  -0.00036   0.00245
  36        5S         -0.01396   0.00465  -0.01187   0.00236   0.12144
  37        5PX        -0.00177   0.00129  -0.00185  -0.00009   0.01197
  38        5PY         0.00300  -0.00002   0.00042  -0.00082  -0.02326
  39        5PZ         0.00041  -0.00030   0.00050   0.00006  -0.00296
  40        6D 0        0.00011   0.00006   0.00095   0.00044  -0.01214
  41        6D+1        0.00003   0.00006   0.00039   0.00023  -0.00434
  42        6D-1        0.00002  -0.00002   0.00006  -0.00013  -0.00297
  43        6D+2        0.00002  -0.00017  -0.00046  -0.00033   0.00450
  44        6D-2       -0.00013   0.00012  -0.00053   0.00057   0.01839
  45 3   C  1S          0.00000   0.00001   0.00155   0.56305  -0.00749
  46        2S         -0.00000  -0.00002   0.00129   0.46333  -0.01154
  47        2PX        -0.00004   0.00028  -0.00044  -0.00001  -0.00679
  48        2PY         0.00002   0.00028   0.00029   0.00026   0.00090
  49        2PZ         0.00001  -0.00005   0.00010   0.00001   0.00129
  50        3S          0.00013   0.00004   0.00014   0.01822   0.02835
  51        3PX         0.00023  -0.00044   0.00103  -0.00024  -0.01504
  52        3PY        -0.00013  -0.00080  -0.00088  -0.00187   0.00438
  53        3PZ        -0.00005   0.00007  -0.00028  -0.00022   0.00296
  54        4S         -0.00203   0.00545   0.00321  -0.01306   0.03058
  55        4PX         0.00068   0.00083  -0.00173   0.00116  -0.01035
  56        4PY        -0.00070   0.00181   0.00060  -0.00140   0.00502
  57        4PZ        -0.00022  -0.00024   0.00020  -0.00017   0.00251
  58        5S          0.01223  -0.00981   0.00713  -0.00805  -0.09917
  59        5PX        -0.00298  -0.00105  -0.00157   0.00025   0.02612
  60        5PY         0.00126  -0.00264   0.00100   0.00006  -0.01053
  61        5PZ         0.00057   0.00029   0.00012  -0.00015  -0.00496
  62        6D 0        0.00004   0.00036   0.00040   0.00067  -0.00192
  63        6D+1        0.00003   0.00013   0.00020   0.00025  -0.00138
  64        6D-1       -0.00001   0.00006  -0.00012   0.00003   0.00041
  65        6D+2       -0.00011  -0.00014  -0.00041  -0.00051   0.00357
  66        6D-2        0.00008  -0.00055   0.00067   0.00003  -0.00200
  67 4   H  1S          0.00005   0.00003   0.00008  -0.00006   0.01486
  68        2S         -0.00102  -0.00012  -0.00302  -0.00092   0.02491
  69        3S          0.00023  -0.00051   0.00359   0.00055  -0.00816
  70        4PX         0.00011  -0.00008   0.00016   0.00008  -0.00125
  71        4PY         0.00025   0.00003   0.00108   0.00014  -0.00466
  72        4PZ         0.00014   0.00011   0.00189   0.00027  -0.00539
  73 5   H  1S          0.00004   0.00002   0.00006  -0.00005   0.01486
  74        2S         -0.00097  -0.00007  -0.00299  -0.00102   0.02479
  75        3S          0.00026  -0.00060   0.00377   0.00061  -0.00848
  76        4PX         0.00006  -0.00012  -0.00054  -0.00003   0.00065
  77        4PY         0.00026   0.00003   0.00119   0.00017  -0.00495
  78        4PZ        -0.00016  -0.00008  -0.00178  -0.00028   0.00522
  79 6   N  1S         -0.00000   0.55743   0.00000  -0.00003  -0.00150
  80        2S          0.00001   0.46589   0.00001  -0.00004  -0.00235
  81        2PX        -0.00002  -0.00069  -0.00004  -0.00023  -0.00115
  82        2PY         0.00000  -0.00024  -0.00004  -0.00019  -0.00052
  83        2PZ         0.00000   0.00102   0.00001   0.00005   0.00048
  84        3S         -0.00011   0.01487   0.00003   0.00048   0.00644
  85        3PX         0.00008  -0.00014   0.00019   0.00035  -0.00248
  86        3PY        -0.00001   0.00015   0.00016   0.00024  -0.00098
  87        3PZ        -0.00000   0.00082  -0.00004  -0.00016   0.00087
  88        4S          0.00056  -0.01026  -0.00055  -0.00046   0.00197
  89        4PX        -0.00037   0.00179   0.00021  -0.00045   0.00113
  90        4PY         0.00005   0.00144   0.00002  -0.00004  -0.00078
  91        4PZ         0.00016   0.00017   0.00020  -0.00020  -0.00010
  92        5S         -0.00060   0.00902   0.00232   0.00628   0.00487
  93        5PX         0.00010  -0.00139  -0.00067  -0.00141  -0.00163
  94        5PY        -0.00022  -0.00118   0.00010  -0.00089   0.00175
  95        5PZ        -0.00002  -0.00003   0.00071   0.00072   0.00023
  96        6D 0        0.00002   0.00038   0.00005   0.00017  -0.00023
  97        6D+1        0.00000   0.00016  -0.00001   0.00010  -0.00021
  98        6D-1        0.00002   0.00045   0.00004   0.00003  -0.00006
  99        6D+2        0.00001  -0.00008  -0.00002  -0.00005   0.00030
 100        6D-2        0.00001   0.00024  -0.00013  -0.00046   0.00041
 101 7   H  1S          0.00004  -0.00002  -0.00009   0.00009   0.00380
 102        2S         -0.00010  -0.00113  -0.00070  -0.00281   0.00389
 103        3S         -0.00069  -0.00007   0.00005   0.00359   0.00368
 104        4PX         0.00010  -0.00007  -0.00014  -0.00027  -0.00055
 105        4PY        -0.00003  -0.00023  -0.00010  -0.00105   0.00063
 106        4PZ        -0.00011  -0.00024  -0.00026  -0.00183   0.00157
 107 8   H  1S          0.00003  -0.00000  -0.00009   0.00014   0.00396
 108        2S         -0.00007  -0.00114  -0.00057  -0.00262   0.00387
 109        3S         -0.00063  -0.00003  -0.00001   0.00347   0.00329
 110        4PX         0.00012  -0.00009  -0.00007   0.00028  -0.00107
 111        4PY        -0.00004  -0.00035  -0.00010  -0.00117   0.00081
 112        4PZ         0.00006   0.00027   0.00026   0.00157  -0.00120
 113 9   H  1S         -0.00001   0.00000  -0.00002  -0.00005   0.09448
 114        2S         -0.00008   0.00003   0.00047   0.00063   0.07581
 115        3S         -0.00181  -0.00010  -0.00193   0.00044   0.00622
 116        4PX        -0.00067  -0.00003   0.00025   0.00019   0.02222
 117        4PY         0.00051  -0.00006  -0.00004  -0.00002  -0.00883
 118        4PZ         0.00010   0.00001  -0.00004  -0.00003  -0.00341
 119 10  H  1S         -0.00001  -0.00001   0.00000  -0.00016   0.00101
 120        2S         -0.00013  -0.00148  -0.00008   0.00077   0.00074
 121        3S         -0.00002   0.00029  -0.00121  -0.00086   0.00023
 122        4PX         0.00000   0.00024   0.00005  -0.00019  -0.00009
 123        4PY        -0.00000   0.00068   0.00005  -0.00022  -0.00003
 124        4PZ         0.00003   0.00145   0.00002  -0.00007  -0.00022
                           6         7         8         9        10
                           O         O         O         O         O
     Eigenvalues --    -0.78116  -0.66467  -0.55587  -0.49213  -0.44696
   1 1   O  1S          0.01624   0.02591  -0.01374  -0.02084   0.00149
   2        2S          0.02615   0.04182  -0.02225  -0.03403   0.00246
   3        2PX         0.02489   0.08776  -0.02402   0.20544  -0.01497
   4        2PY        -0.00119   0.01642  -0.04544  -0.03170  -0.00808
   5        2PZ        -0.00399  -0.01410   0.00113  -0.02694   0.09786
   6        3S         -0.07788  -0.12555   0.06724   0.10558  -0.00814
   7        3PX         0.03682   0.12894  -0.03573   0.29698  -0.02138
   8        3PY        -0.00184   0.02469  -0.06626  -0.04222  -0.01233
   9        3PZ        -0.00592  -0.02067   0.00168  -0.03880   0.14368
  10        4S         -0.06334  -0.10995   0.06498   0.13854  -0.01080
  11        4PX         0.01867   0.06991  -0.01755   0.19960  -0.01119
  12        4PY        -0.00052   0.01676  -0.05095  -0.03047  -0.00966
  13        4PZ        -0.00273  -0.01151  -0.00010  -0.02527   0.11632
  14        5S         -0.00286  -0.03003   0.02578   0.01609   0.00601
  15        5PX        -0.00576  -0.00398  -0.01602   0.00883  -0.00630
  16        5PY         0.00061  -0.00286   0.00551  -0.00199   0.00153
  17        5PZ         0.00132   0.00064   0.00308  -0.00102   0.00810
  18        6D 0        0.00041  -0.00018   0.00144   0.00246  -0.00114
  19        6D+1        0.00011   0.00030  -0.00081   0.00093   0.00346
  20        6D-1       -0.00050  -0.00168   0.00035  -0.00212   0.00936
  21        6D+2       -0.00015  -0.00281   0.00607  -0.00034   0.00213
  22        6D-2        0.00326   0.01042  -0.00398   0.01716  -0.00116
  23 2   C  1S         -0.03679  -0.08191   0.04372   0.01053   0.00008
  24        2S         -0.05708  -0.12785   0.06859   0.01595   0.00024
  25        2PX         0.03165   0.01371   0.04598  -0.04730   0.04721
  26        2PY        -0.00219   0.00194  -0.06601  -0.11149   0.00358
  27        2PZ        -0.00537  -0.00296  -0.01525   0.01945   0.15283
  28        3S          0.15193   0.34830  -0.18960  -0.03983  -0.00065
  29        3PX         0.04938   0.01482   0.07438  -0.07472   0.07042
  30        3PY        -0.01046  -0.00999  -0.09230  -0.17053   0.00635
  31        3PZ        -0.00873  -0.00341  -0.02355   0.02949   0.22441
  32        4S          0.08538   0.21161  -0.12542  -0.04870  -0.00881
  33        4PX         0.01326  -0.00316   0.04229  -0.01137   0.03808
  34        4PY        -0.00157   0.00215  -0.05575  -0.08319   0.00190
  35        4PZ        -0.00510   0.00169  -0.01322   0.01206   0.14901
  36        5S         -0.03360   0.04445  -0.08850   0.00383  -0.02960
  37        5PX        -0.00409   0.01240  -0.01410   0.01098  -0.00344
  38        5PY         0.00962   0.00307   0.00793  -0.00163   0.00359
  39        5PZ        -0.00019  -0.00257   0.00249  -0.00047   0.01904
  40        6D 0       -0.00284  -0.00125  -0.00666  -0.01556   0.00379
  41        6D+1       -0.00181   0.00013  -0.00311  -0.00279  -0.00415
  42        6D-1        0.00129   0.00052   0.00212  -0.00361   0.00787
  43        6D+2        0.00358  -0.00403  -0.00009  -0.01059  -0.00036
  44        6D-2       -0.00655  -0.00163  -0.01011   0.02466  -0.00444
  45 3   C  1S         -0.07621  -0.01893  -0.06896   0.01995  -0.00561
  46        2S         -0.11775  -0.02933  -0.10766   0.03124  -0.00874
  47        2PX         0.01806  -0.07198  -0.01482  -0.00231   0.00067
  48        2PY         0.02803  -0.01349  -0.06953  -0.01266  -0.01504
  49        2PZ        -0.00126   0.00900  -0.01151   0.01578   0.10500
  50        3S          0.31183   0.07731   0.29498  -0.08608   0.02189
  51        3PX         0.02807  -0.11072  -0.01770  -0.00428   0.00191
  52        3PY         0.05128  -0.01672  -0.09675  -0.01885  -0.02230
  53        3PZ        -0.00054   0.01386  -0.01698   0.02354   0.15479
  54        4S          0.14071   0.06496   0.18681  -0.08606   0.03140
  55        4PX         0.00334  -0.03366  -0.00924  -0.00452  -0.00243
  56        4PY         0.00742  -0.00179  -0.05748  -0.01624  -0.00778
  57        4PZ         0.00741   0.00203  -0.00856   0.01116   0.08328
  58        5S          0.06739  -0.02784   0.09603  -0.02276   0.03092
  59        5PX        -0.00703  -0.00013  -0.02485  -0.01220  -0.00813
  60        5PY         0.00591  -0.00894   0.00343  -0.00933   0.00288
  61        5PZ         0.00341   0.00079   0.00460   0.00178   0.00346
  62        6D 0       -0.00886   0.00144   0.00898  -0.00210   0.00363
  63        6D+1       -0.00230  -0.00209   0.00149  -0.00098  -0.00659
  64        6D-1       -0.00004   0.00217  -0.00138  -0.00081  -0.00235
  65        6D+2        0.00290   0.00298  -0.00269   0.00621  -0.00360
  66        6D-2        0.00974  -0.01800   0.00012   0.00486  -0.00300
  67 4   H  1S          0.02404   0.06403  -0.07057  -0.04765   0.10223
  68        2S          0.02906   0.07805  -0.08911  -0.05635   0.12962
  69        3S         -0.00174  -0.00146  -0.01089  -0.01925   0.04126
  70        4PX         0.00139  -0.00011   0.00229  -0.00139   0.00157
  71        4PY        -0.00319  -0.00690   0.00317  -0.00225  -0.00808
  72        4PZ        -0.00502  -0.01080   0.00955   0.00571  -0.00421
  73 5   H  1S          0.02359   0.06463  -0.06484  -0.06360  -0.09654
  74        2S          0.02672   0.07950  -0.08141  -0.07578  -0.12034
  75        3S         -0.00417  -0.00115  -0.00880  -0.02272  -0.03565
  76        4PX         0.00282   0.00371  -0.00049  -0.00369  -0.00087
  77        4PY        -0.00323  -0.00767   0.00315  -0.00048   0.00868
  78        4PZ         0.00396   0.00985  -0.00939  -0.00550  -0.00304
  79 6   N  1S         -0.07948   0.06282   0.03782  -0.01725   0.01107
  80        2S         -0.12466   0.09892   0.05978  -0.02730   0.01764
  81        2PX        -0.03417   0.00291  -0.01927   0.02576   0.01051
  82        2PY        -0.01761  -0.00008  -0.03917   0.02024   0.00811
  83        2PZ         0.03048  -0.02940  -0.03334   0.02174   0.03356
  84        3S          0.34020  -0.27396  -0.16712   0.07650  -0.05048
  85        3PX        -0.05397   0.00566  -0.02745   0.03705   0.01613
  86        3PY        -0.02872   0.00068  -0.05715   0.02937   0.01166
  87        3PZ         0.04617  -0.04396  -0.04902   0.03189   0.04851
  88        4S          0.23950  -0.21383  -0.13718   0.07875  -0.05418
  89        4PX        -0.02320   0.00514  -0.01536   0.01760   0.00853
  90        4PY        -0.01269   0.00315  -0.03014   0.01144   0.00453
  91        4PZ         0.01645  -0.01746  -0.02207   0.01661   0.02966
  92        5S         -0.02538  -0.02024  -0.02899   0.03631  -0.00521
  93        5PX         0.01092   0.00166   0.00247   0.00282  -0.00155
  94        5PY         0.00487  -0.00430  -0.00121  -0.00222  -0.00057
  95        5PZ        -0.00309  -0.00460  -0.00409   0.00271   0.00374
  96        6D 0       -0.00007  -0.00398  -0.00712   0.00526   0.00427
  97        6D+1       -0.00276  -0.00040  -0.00096   0.00150  -0.00446
  98        6D-1        0.00148  -0.00306  -0.00547   0.00264  -0.00263
  99        6D+2        0.00222   0.00159  -0.00068  -0.00210  -0.00124
 100        6D-2        0.00962  -0.00366   0.00356  -0.00172  -0.00157
 101 7   H  1S          0.04210   0.01974   0.09296  -0.02263  -0.05442
 102        2S          0.05425   0.02124   0.11576  -0.02621  -0.07432
 103        3S         -0.00347   0.00056   0.01606  -0.01032  -0.02363
 104        4PX         0.00166  -0.00322   0.00075  -0.00142   0.00058
 105        4PY         0.00681   0.00162   0.00510  -0.00249  -0.00614
 106        4PZ         0.00850   0.00365   0.01272  -0.00124  -0.00172
 107 8   H  1S          0.04151   0.01803   0.08255  -0.00405   0.07317
 108        2S          0.04977   0.02066   0.10411  -0.00222   0.09613
 109        3S         -0.00870   0.00167   0.01654  -0.00333   0.03285
 110        4PX        -0.00084  -0.00393  -0.00284  -0.00177  -0.00228
 111        4PY         0.00741   0.00194   0.00581  -0.00063   0.00685
 112        4PZ        -0.00767  -0.00216  -0.01106   0.00088  -0.00221
 113 9   H  1S         -0.02742  -0.07135   0.01372  -0.13819   0.01759
 114        2S         -0.02567  -0.07817   0.02114  -0.18512   0.02526
 115        3S         -0.00549  -0.00944  -0.01426  -0.05570   0.00156
 116        4PX        -0.00458  -0.00976  -0.00022  -0.01693   0.00266
 117        4PY         0.00321   0.01011  -0.00707   0.01176  -0.00298
 118        4PZ         0.00067   0.00144  -0.00016   0.00305   0.00928
 119 10  H  1S          0.06686  -0.06757  -0.07080   0.04116   0.01795
 120        2S          0.06380  -0.07183  -0.08164   0.05117   0.02708
 121        3S          0.00522  -0.00313  -0.01550   0.01268   0.00680
 122        4PX        -0.00513   0.00266   0.00168   0.00063  -0.00185
 123        4PY        -0.00766   0.00624   0.00285  -0.00214  -0.00221
 124        4PZ        -0.01055   0.00998   0.00908  -0.00503  -0.00018
                          11        12        13        14        15
                           O         O         O         O         O
     Eigenvalues --    -0.38981  -0.36949  -0.32387  -0.32088  -0.26842
   1 1   O  1S          0.02157   0.01385  -0.01288   0.01710  -0.00042
   2        2S          0.03506   0.02259  -0.02102   0.02778  -0.00070
   3        2PX         0.04387  -0.04442   0.02450  -0.01472   0.04123
   4        2PY         0.18054   0.06116  -0.05560   0.16150   0.00098
   5        2PZ         0.02023  -0.08433  -0.08475  -0.01685   0.25069
   6        3S         -0.10469  -0.06920   0.06404  -0.08084   0.00233
   7        3PX         0.06502  -0.06366   0.03409  -0.01846   0.05962
   8        3PY         0.26190   0.08737  -0.07880   0.23198   0.00154
   9        3PZ         0.02947  -0.12334  -0.12308  -0.02499   0.36247
  10        4S         -0.14175  -0.09782   0.09989  -0.13815   0.00156
  11        4PX         0.04736  -0.04902   0.02394  -0.01327   0.05777
  12        4PY         0.21364   0.07027  -0.06548   0.19867   0.00059
  13        4PZ         0.02672  -0.10872  -0.11177  -0.02334   0.35235
  14        5S         -0.08593  -0.04607   0.03818  -0.06527   0.00490
  15        5PX         0.03592  -0.00434   0.00655   0.00931   0.01833
  16        5PY         0.01939   0.00909  -0.01897   0.04789   0.00125
  17        5PZ        -0.00073  -0.01889  -0.02562  -0.00806   0.12469
  18        6D 0       -0.00610  -0.00244   0.00260  -0.00587   0.00115
  19        6D+1        0.00098  -0.00146   0.00121  -0.00125  -0.00443
  20        6D-1        0.00168  -0.00660  -0.00597  -0.00086   0.00871
  21        6D+2       -0.01305  -0.00202  -0.00091  -0.00194  -0.00095
  22        6D-2        0.00330  -0.00398   0.00265  -0.00263   0.00146
  23 2   C  1S          0.00576  -0.00132   0.00487  -0.00569   0.00015
  24        2S          0.00858  -0.00211   0.00773  -0.00952   0.00020
  25        2PX        -0.13868  -0.02445  -0.03865   0.05390  -0.01825
  26        2PY         0.00254  -0.01123   0.04676  -0.12664   0.00153
  27        2PZ         0.05212  -0.07363  -0.02829  -0.01515  -0.10329
  28        3S         -0.02371   0.00590  -0.02231   0.03493   0.00042
  29        3PX        -0.20963  -0.03703  -0.05495   0.07373  -0.02425
  30        3PY         0.00001  -0.01758   0.06937  -0.18657   0.00217
  31        3PZ         0.07732  -0.10747  -0.04111  -0.02135  -0.14043
  32        4S         -0.03750  -0.00321  -0.02512   0.00384  -0.00757
  33        4PX        -0.15267  -0.04402  -0.03623   0.04639  -0.02446
  34        4PY         0.02303  -0.00589   0.04797  -0.12524   0.00081
  35        4PZ         0.05764  -0.08426  -0.03615  -0.01502  -0.09240
  36        5S         -0.03045  -0.01723   0.03577  -0.05244  -0.07319
  37        5PX        -0.02967  -0.01469   0.00873  -0.01237  -0.02172
  38        5PY        -0.00154   0.00027   0.00056  -0.01125   0.00791
  39        5PZ         0.01157  -0.01403  -0.01503  -0.00045  -0.00518
  40        6D 0       -0.00359  -0.00637  -0.00184  -0.01882   0.00184
  41        6D+1       -0.00654   0.01480   0.01656  -0.00710  -0.01266
  42        6D-1       -0.00130  -0.00699  -0.00828  -0.00126  -0.03444
  43        6D+2        0.00904   0.00377  -0.00088   0.02615  -0.00178
  44        6D-2        0.01765  -0.00766   0.00662   0.00644  -0.00580
  45 3   C  1S         -0.00338   0.00013  -0.00626  -0.01635  -0.00165
  46        2S         -0.00544   0.00044  -0.01015  -0.02607  -0.00264
  47        2PX         0.09536  -0.03748   0.12957  -0.04876   0.00767
  48        2PY        -0.07794  -0.08978   0.05112   0.12283   0.00519
  49        2PZ        -0.03627   0.10786   0.10433   0.04051   0.03182
  50        3S          0.01316  -0.00739   0.03243   0.07925   0.00764
  51        3PX         0.13705  -0.05796   0.19245  -0.07368   0.01084
  52        3PY        -0.11436  -0.13275   0.07759   0.17861   0.00800
  53        3PZ        -0.05197   0.15578   0.14762   0.05855   0.04307
  54        4S          0.06612   0.01754   0.03427   0.09697   0.01509
  55        4PX         0.07789  -0.03343   0.13035  -0.03357   0.00101
  56        4PY        -0.05148  -0.07565   0.05319   0.14877   0.00938
  57        4PZ        -0.03946   0.12738   0.12707   0.04592   0.01169
  58        5S          0.04795   0.02777  -0.03826   0.02014   0.06969
  59        5PX         0.01607   0.00025   0.02082   0.00362  -0.01846
  60        5PY         0.01171  -0.00165   0.00058   0.02467   0.01097
  61        5PZ        -0.00974   0.02042   0.02589   0.00725   0.00273
  62        6D 0        0.00846   0.00489  -0.00840  -0.01187  -0.00325
  63        6D+1       -0.00076   0.01366  -0.00306  -0.00667   0.00582
  64        6D-1       -0.00164  -0.00802  -0.02112  -0.00386  -0.00996
  65        6D+2       -0.00005  -0.00306   0.00155   0.00966   0.00098
  66        6D-2        0.01118  -0.00889   0.00815   0.00084  -0.00150
  67 4   H  1S          0.01976  -0.05697  -0.00901  -0.07305  -0.09846
  68        2S          0.02574  -0.07428  -0.01149  -0.10920  -0.16298
  69        3S          0.00730  -0.03602  -0.01282  -0.06507  -0.13285
  70        4PX        -0.00707   0.00070  -0.00219   0.00508  -0.00051
  71        4PY        -0.00191   0.00298   0.00258  -0.00331   0.00632
  72        4PZ        -0.00074   0.00192  -0.00185   0.00568   0.00327
  73 5   H  1S         -0.01493   0.04948   0.04857  -0.06962   0.09482
  74        2S         -0.01991   0.06406   0.07130  -0.10256   0.15773
  75        3S         -0.00895   0.03312   0.04590  -0.06174   0.12842
  76        4PX        -0.00627  -0.00093  -0.00170   0.00281   0.00163
  77        4PY         0.00066  -0.00402  -0.00041  -0.00293  -0.00652
  78        4PZ         0.00209   0.00077   0.00357  -0.00730   0.00251
  79 6   N  1S         -0.00689   0.01118   0.00521   0.00416   0.00166
  80        2S         -0.01107   0.01793   0.00824   0.00654   0.00266
  81        2PX         0.00377   0.07593  -0.07944  -0.06766  -0.00587
  82        2PY        -0.05438   0.06359  -0.10933  -0.00909  -0.00476
  83        2PZ        -0.02949   0.08938  -0.01784  -0.00375   0.00964
  84        3S          0.03343  -0.05365  -0.02049  -0.01554  -0.00765
  85        3PX         0.00530   0.11081  -0.11351  -0.09891  -0.00844
  86        3PY        -0.08076   0.09092  -0.15763  -0.01146  -0.00672
  87        3PZ        -0.04209   0.12825  -0.02238  -0.00436   0.01406
  88        4S          0.02324  -0.06002  -0.03352  -0.04358  -0.00886
  89        4PX         0.01452   0.06760  -0.07680  -0.06243  -0.00469
  90        4PY        -0.04558   0.05211  -0.10947   0.00052  -0.00362
  91        4PZ        -0.02558   0.07954  -0.01758  -0.00497   0.01851
  92        5S         -0.00592  -0.00606  -0.04207  -0.03249   0.01724
  93        5PX        -0.00182   0.00501  -0.01192  -0.01886  -0.00605
  94        5PY        -0.00372   0.00652  -0.02514   0.00038  -0.00100
  95        5PZ         0.00237   0.01310  -0.01521  -0.00336   0.01035
  96        6D 0       -0.00410   0.01400  -0.00865  -0.00377   0.00056
  97        6D+1        0.00226   0.00003  -0.01012  -0.00671  -0.00140
  98        6D-1       -0.00351   0.00267  -0.01470  -0.00309  -0.00224
  99        6D+2       -0.00608  -0.00568   0.00097   0.00905   0.00017
 100        6D-2        0.00463  -0.00632   0.00758   0.00145   0.00008
 101 7   H  1S          0.05352  -0.02809  -0.11482  -0.07388  -0.03377
 102        2S          0.06985  -0.03250  -0.15866  -0.10756  -0.06449
 103        3S          0.02850  -0.01097  -0.09393  -0.06151  -0.05801
 104        4PX         0.00673  -0.00214   0.00547  -0.00347   0.00148
 105        4PY        -0.00114  -0.00685  -0.00495   0.00228  -0.00213
 106        4PZ         0.00464   0.00262  -0.00534  -0.00533  -0.00174
 107 8   H  1S          0.03280   0.11278   0.06612  -0.03653   0.02923
 108        2S          0.04692   0.14864   0.09318  -0.05665   0.05715
 109        3S          0.02325   0.07299   0.06159  -0.03410   0.04577
 110        4PX         0.00480  -0.00309   0.00505  -0.00165  -0.00141
 111        4PY        -0.00152   0.00506   0.00720   0.00381   0.00287
 112        4PZ        -0.00582  -0.00613  -0.00016   0.00564  -0.00020
 113 9   H  1S          0.01630   0.03571  -0.04134   0.05794  -0.00145
 114        2S          0.02219   0.05637  -0.06813   0.09352  -0.00104
 115        3S          0.04147   0.03021  -0.03009   0.05831  -0.00651
 116        4PX         0.01223   0.00502  -0.00762   0.01390   0.00421
 117        4PY         0.01693   0.00198   0.00010   0.00676   0.00034
 118        4PZ         0.00101  -0.01087  -0.00822  -0.00423   0.02670
 119 10  H  1S         -0.03453   0.09349  -0.08291  -0.02732  -0.00054
 120        2S         -0.04817   0.13425  -0.12086  -0.04138  -0.00461
 121        3S         -0.03061   0.06806  -0.06509  -0.02495  -0.02304
 122        4PX         0.00264   0.00176  -0.00427  -0.00509   0.00031
 123        4PY        -0.00119  -0.00457  -0.00442   0.00053  -0.00116
 124        4PZ         0.00336  -0.00771   0.00996   0.00253   0.00062
                          16        17        18        19        20
                           O         O         V         V         V
     Eigenvalues --    -0.20276  -0.13671   0.01340   0.02296   0.03859
   1 1   O  1S          0.00556  -0.00452   0.02578   0.01560   0.00831
   2        2S          0.00911  -0.00736   0.04297   0.02586   0.01412
   3        2PX        -0.02378   0.02150   0.04803   0.00448  -0.01499
   4        2PY        -0.00151   0.01392  -0.02028  -0.03628   0.01941
   5        2PZ        -0.01153  -0.01220  -0.00747  -0.00075   0.00292
   6        3S         -0.02819   0.02163  -0.14894  -0.08667  -0.05517
   7        3PX        -0.03344   0.02937   0.06846   0.00626  -0.02430
   8        3PY        -0.00286   0.02004  -0.03479  -0.05217   0.03290
   9        3PZ        -0.01615  -0.01707  -0.01089  -0.00027   0.00532
  10        4S         -0.05578   0.06382  -0.22212  -0.15795  -0.00197
  11        4PX        -0.03354   0.03753   0.08736   0.01097  -0.01647
  12        4PY        -0.00961   0.03345  -0.05077  -0.08760   0.00577
  13        4PZ        -0.02207  -0.02188  -0.01219  -0.00558   0.00068
  14        5S         -0.06079   0.07594  -1.39148  -0.46400  -0.64195
  15        5PX        -0.00771   0.01184  -0.16114  -0.06389  -0.33224
  16        5PY        -0.00623   0.01946  -0.30840  -0.10144   0.07008
  17        5PZ        -0.00452  -0.00962   0.02511   0.01862   0.07094
  18        6D 0       -0.00080   0.00020   0.00102  -0.00128  -0.00033
  19        6D+1        0.00005   0.00126  -0.00029  -0.00032   0.00047
  20        6D-1       -0.00086  -0.00040  -0.00009   0.00008  -0.00007
  21        6D+2        0.00270  -0.00372   0.00296   0.00090  -0.00231
  22        6D-2       -0.00156  -0.00017   0.00013   0.00178   0.00091
  23 2   C  1S         -0.00996   0.02242   0.01306  -0.01186  -0.01656
  24        2S         -0.01587   0.03622   0.02256  -0.01937  -0.02709
  25        2PX         0.03279  -0.05309  -0.01224  -0.03305  -0.00603
  26        2PY        -0.02200   0.02979  -0.06638   0.00452   0.01985
  27        2PZ        -0.00408   0.01407  -0.00043   0.01316   0.00390
  28        3S          0.04529  -0.11264  -0.09820   0.05588   0.08232
  29        3PX         0.04921  -0.08009  -0.00539  -0.04468  -0.01071
  30        3PY        -0.03192   0.04179  -0.09038   0.01499   0.04184
  31        3PZ        -0.00470   0.02111  -0.00298   0.01992   0.00719
  32        4S          0.10100  -0.19974   0.09968   0.16373   0.21197
  33        4PX         0.04860  -0.04402  -0.13558  -0.15663  -0.07885
  34        4PY        -0.05001   0.10133  -0.24284  -0.03509   0.02556
  35        4PZ         0.03635   0.03864   0.01524   0.05368   0.01851
  36        5S          0.18750   0.10496  -0.10389  -0.98762   3.86914
  37        5PX         0.03722   0.05183  -1.32748  -0.70169   1.08218
  38        5PY        -0.03314   0.06593  -0.07539  -0.09778  -1.40339
  39        5PZ        -0.00442  -0.00977   0.25175   0.10010  -0.29156
  40        6D 0       -0.00039  -0.00458   0.00362   0.00138   0.01056
  41        6D+1        0.00559  -0.00016   0.00127   0.00007   0.00234
  42        6D-1       -0.00288  -0.00206   0.00111   0.00378  -0.00112
  43        6D+2       -0.00238   0.00093  -0.00195  -0.00365   0.00509
  44        6D-2       -0.00731   0.00589  -0.00773  -0.01461   0.00407
  45 3   C  1S          0.01351  -0.00000   0.00885  -0.00703   0.02308
  46        2S          0.02160  -0.00001   0.01481  -0.01247   0.03794
  47        2PX        -0.05556   0.01905  -0.00602  -0.01539   0.00077
  48        2PY        -0.02921  -0.02471   0.03249  -0.04125   0.04179
  49        2PZ         0.06104   0.01137   0.00072   0.00501   0.00007
  50        3S         -0.06152  -0.00185  -0.04801   0.06027  -0.12019
  51        3PX        -0.08647   0.02569  -0.00538  -0.00203   0.00838
  52        3PY        -0.04855  -0.03163   0.05138  -0.05313   0.06990
  53        3PZ         0.08496   0.01470   0.00126   0.00368  -0.00106
  54        4S         -0.10425  -0.01520  -0.08335  -0.08609  -0.25028
  55        4PX        -0.06038  -0.01191  -0.00784  -0.19452  -0.07948
  56        4PY        -0.04910  -0.04433   0.05477  -0.15796   0.09969
  57        4PZ         0.01001   0.00189   0.00038   0.02523   0.01697
  58        5S         -0.23068  -0.04349   2.99464  -2.16962  -3.40878
  59        5PX         0.02300  -0.00387  -0.18049  -1.22641   1.03735
  60        5PY        -0.04613  -0.08639   0.52935  -0.61100  -1.42766
  61        5PZ         0.00410   0.02518   0.05659   0.09432  -0.17863
  62        6D 0        0.00277   0.00947   0.00002  -0.00546  -0.00701
  63        6D+1       -0.01813   0.00020  -0.00027  -0.00212  -0.00186
  64        6D-1       -0.02271  -0.01494  -0.00130  -0.00301   0.00054
  65        6D+2        0.00675  -0.03824   0.00608   0.00036  -0.00315
  66        6D-2       -0.01297   0.01149   0.00923   0.01158  -0.00272
  67 4   H  1S         -0.00627   0.00039  -0.01186   0.00913   0.00470
  68        2S         -0.02515  -0.00810   0.03094  -0.03031  -0.04690
  69        3S         -0.03989  -0.03908  -0.19822   0.25095   0.13376
  70        4PX         0.00024  -0.00211  -0.00417  -0.00891   0.00244
  71        4PY        -0.00034   0.00327   0.00233  -0.00257  -0.00757
  72        4PZ         0.00061   0.00117   0.01319  -0.00278  -0.00139
  73 5   H  1S          0.00223   0.00105  -0.01155   0.00489   0.00324
  74        2S          0.01485   0.01374   0.02955  -0.01856  -0.04554
  75        3S          0.03420  -0.02248  -0.19203   0.21367   0.10801
  76        4PX         0.00222  -0.00081  -0.00863  -0.00693   0.00272
  77        4PY        -0.00107   0.00293   0.00294  -0.00265  -0.00726
  78        4PZ        -0.00125  -0.00058  -0.01048   0.00466  -0.00028
  79 6   N  1S         -0.04268   0.00027   0.00033  -0.02870  -0.00486
  80        2S         -0.06842   0.00051   0.00080  -0.04701  -0.00790
  81        2PX         0.10142  -0.15753  -0.01565   0.00977  -0.02549
  82        2PY         0.02269   0.18080  -0.02476   0.02543   0.02216
  83        2PZ        -0.18987  -0.06203   0.00178   0.01553   0.00760
  84        3S          0.19191  -0.00353  -0.00724   0.15384   0.02442
  85        3PX         0.14398  -0.22699  -0.02302   0.00701  -0.03763
  86        3PY         0.03316   0.26147  -0.03131   0.03028   0.03431
  87        3PZ        -0.26735  -0.08903   0.00326   0.02234   0.01152
  88        4S          0.32405   0.02116   0.03792   0.21382   0.04318
  89        4PX         0.13293  -0.25638  -0.02053   0.01483  -0.04628
  90        4PY         0.03378   0.27572  -0.06062   0.05560   0.02129
  91        4PZ        -0.22786  -0.09238  -0.00010   0.06888   0.02276
  92        5S          0.30325  -0.01738  -0.75066   2.89201   0.43559
  93        5PX         0.05357  -0.16543   0.08415  -0.70006  -0.28259
  94        5PY         0.01610   0.20829   0.12276  -0.42780   0.08272
  95        5PZ        -0.11191  -0.09966   0.00628   0.17049  -0.03507
  96        6D 0       -0.00928  -0.00506   0.00147   0.00223   0.00182
  97        6D+1        0.00894  -0.00621  -0.00037   0.00043  -0.00133
  98        6D-1       -0.00062   0.00922  -0.00115   0.00236   0.00224
  99        6D+2       -0.00259   0.00627   0.00129  -0.00150   0.00248
 100        6D-2       -0.00501  -0.00407   0.00008   0.00083  -0.00244
 101 7   H  1S         -0.06114   0.00810  -0.01422   0.00492  -0.00797
 102        2S         -0.11717   0.01024   0.01414  -0.02962   0.06542
 103        3S         -0.13553   0.00196  -0.22901   0.09423  -0.27974
 104        4PX        -0.00215   0.00105  -0.00468  -0.00367   0.00132
 105        4PY        -0.00470  -0.00211  -0.00008   0.00026  -0.00756
 106        4PZ        -0.00147   0.00063  -0.00528   0.00922  -0.00604
 107 8   H  1S          0.05356   0.06068  -0.01662   0.00863  -0.00733
 108        2S          0.10261   0.11366   0.01095  -0.03558   0.06477
 109        3S          0.12517   0.15124  -0.24981   0.19123  -0.26846
 110        4PX        -0.00506  -0.00098  -0.00297  -0.00674   0.00322
 111        4PY         0.00293  -0.00117  -0.00116   0.00163  -0.00919
 112        4PZ         0.00091  -0.00046   0.00673  -0.00786   0.00490
 113 9   H  1S          0.01587  -0.01246   0.02085   0.01009   0.00100
 114        2S          0.03263  -0.02825   0.11845   0.04662   0.00373
 115        3S          0.03622  -0.03622   0.32332   0.18041  -0.13495
 116        4PX         0.00037   0.00070  -0.01991  -0.00995   0.00045
 117        4PY        -0.00259   0.00466   0.01331   0.00313  -0.00155
 118        4PZ        -0.00204  -0.00134   0.00305   0.00162  -0.00033
 119 10  H  1S         -0.08815  -0.00220  -0.00332   0.00365   0.00396
 120        2S         -0.15670  -0.00676   0.00419  -0.04751  -0.02096
 121        3S         -0.15229   0.02933  -0.02760  -0.18169   0.08030
 122        4PX         0.01560  -0.01801  -0.00072  -0.00151  -0.00295
 123        4PY         0.01240   0.02051  -0.00158  -0.00384  -0.00201
 124        4PZ        -0.00027  -0.00579   0.00500  -0.01416  -0.00234
                          21        22        23        24        25
                           V         V         V         V         V
     Eigenvalues --     0.04915   0.07630   0.08332   0.08466   0.11694
   1 1   O  1S          0.00180   0.01060  -0.00226  -0.00102   0.00886
   2        2S          0.00299   0.01779  -0.00368  -0.00172   0.01452
   3        2PX        -0.00492   0.01196  -0.04332  -0.00440  -0.00072
   4        2PY        -0.00191  -0.03026   0.04007   0.00714   0.03489
   5        2PZ        -0.02206  -0.00068   0.00621   0.01075   0.01340
   6        3S         -0.01016  -0.06589   0.01211   0.00680  -0.04278
   7        3PX        -0.00841   0.01782  -0.06260  -0.00468  -0.00904
   8        3PY        -0.00230  -0.04453   0.06503   0.01125   0.04144
   9        3PZ        -0.03833  -0.00024   0.00785   0.02550   0.01847
  10        4S         -0.01781  -0.05744   0.00946  -0.00113  -0.14389
  11        4PX        -0.00170  -0.00528  -0.07527  -0.01246   0.05496
  12        4PY        -0.00883  -0.04891   0.02643   0.00533   0.07139
  13        4PZ        -0.01005  -0.00103   0.01680  -0.02683   0.02336
  14        5S         -0.03348  -1.01332   0.50238   0.14680  -0.08251
  15        5PX        -0.07200   0.07295  -0.87599  -0.06871  -0.59019
  16        5PY         0.00745  -0.27407   0.53713   0.08552  -0.29508
  17        5PZ        -0.13600   0.00470   0.11837   0.27725   0.04010
  18        6D 0        0.00051  -0.00005   0.00419  -0.00050  -0.00164
  19        6D+1       -0.00216   0.00056   0.00116   0.00327  -0.00074
  20        6D-1       -0.00343  -0.00061  -0.00034   0.00111   0.00056
  21        6D+2       -0.00066   0.00031  -0.00221   0.00033  -0.00386
  22        6D-2       -0.00012   0.00455   0.00020  -0.00026   0.00320
  23 2   C  1S         -0.00221  -0.01120   0.01357   0.00279  -0.01032
  24        2S         -0.00371  -0.01834   0.02177   0.00448  -0.01576
  25        2PX        -0.01750  -0.04547  -0.00133   0.01325  -0.01555
  26        2PY         0.00385   0.01697  -0.02124  -0.00519   0.00563
  27        2PZ        -0.06598   0.01686  -0.00840   0.05374  -0.00133
  28        3S          0.01348   0.04907  -0.05828  -0.01222   0.01978
  29        3PX        -0.02723  -0.06971   0.01038   0.02738  -0.00170
  30        3PY         0.00784   0.03419  -0.02942  -0.00908   0.01386
  31        3PZ        -0.11652   0.02736  -0.01775   0.10159  -0.00542
  32        4S          0.00898   0.26519  -0.29841  -0.05695   0.61041
  33        4PX        -0.06806  -0.10602  -0.06483   0.02486  -0.16532
  34        4PY        -0.00032  -0.03616  -0.20443  -0.03017   0.05091
  35        4PZ        -0.15817   0.05019  -0.02270   0.13844   0.05940
  36        5S         -0.49046  -1.14765  -2.95258  -0.56632   1.27863
  37        5PX         0.00746  -1.25722   0.55570  -0.30215   1.05369
  38        5PY        -0.07769  -2.12245   0.09551   0.31639   0.38619
  39        5PZ         0.96880  -0.02268   0.23055  -2.52728   0.02183
  40        6D 0       -0.00025   0.01302   0.01260   0.00260  -0.00500
  41        6D+1        0.00123   0.00424   0.00444  -0.00458  -0.00145
  42        6D-1       -0.00531   0.00051  -0.00308   0.00551   0.00280
  43        6D+2        0.00030  -0.00048   0.00512   0.00014   0.00270
  44        6D-2       -0.00199  -0.00496   0.00550   0.00241   0.00437
  45 3   C  1S         -0.00043  -0.00925   0.01171   0.00269  -0.01313
  46        2S         -0.00096  -0.01500   0.01849   0.00414  -0.02074
  47        2PX        -0.01166   0.03277   0.00229  -0.01321   0.03014
  48        2PY        -0.00157  -0.01512  -0.00054   0.00278   0.00164
  49        2PZ        -0.06135  -0.00564   0.01138  -0.05691   0.00306
  50        3S          0.00807   0.04139  -0.04640  -0.00648   0.04640
  51        3PX        -0.01488   0.04113  -0.00728  -0.02370   0.02819
  52        3PY         0.00004  -0.03448   0.01334   0.00756   0.01209
  53        3PZ        -0.10071  -0.00661   0.02037  -0.10277   0.01438
  54        4S         -0.03036   0.14904  -0.26275  -0.08939   0.36177
  55        4PX        -0.07765   0.14218   0.13542  -0.02941   0.05200
  56        4PY        -0.01326   0.02043   0.00581  -0.00022  -0.15295
  57        4PZ        -0.21763  -0.02317   0.02803  -0.16277  -0.05334
  58        5S          0.05345   2.30648   4.43792   0.49677  -2.37249
  59        5PX        -0.12714   1.34797  -2.92701  -0.16803  -1.39091
  60        5PY        -0.03146   2.67877   1.23355  -0.15018  -1.55534
  61        5PZ         0.72952  -0.08309   0.26022   2.90109  -0.43402
  62        6D 0        0.00058   0.01353   0.01082   0.00332  -0.00867
  63        6D+1        0.00117   0.00388   0.00201  -0.00243   0.00157
  64        6D-1        0.00483  -0.00155  -0.00431   0.00769   0.00400
  65        6D+2        0.00098  -0.00483   0.00732   0.00168   0.00128
  66        6D-2        0.00114   0.00094   0.00602   0.00195   0.00623
  67 4   H  1S         -0.00775   0.01280   0.00625   0.01615  -0.00925
  68        2S          0.08045  -0.05752   0.09601  -0.04226  -0.04712
  69        3S         -0.26490   0.41294  -0.28069   0.30492  -0.26368
  70        4PX        -0.00146  -0.00269   0.00801   0.00468   0.00180
  71        4PY         0.00092  -0.00954  -0.00176  -0.00238   0.00594
  72        4PZ         0.00438   0.00151   0.00864  -0.00353  -0.00229
  73 5   H  1S          0.00979   0.01142   0.01201  -0.01510  -0.01167
  74        2S         -0.08740  -0.03332   0.07782   0.07330  -0.01963
  75        3S          0.35578   0.37225  -0.20171  -0.41208  -0.25832
  76        4PX         0.00259  -0.00406   0.00499  -0.00326   0.00418
  77        4PY        -0.00289  -0.00894  -0.00157   0.00350   0.00068
  78        4PZ         0.00522  -0.00179  -0.00996  -0.00394   0.00334
  79 6   N  1S         -0.00270   0.01482  -0.00777  -0.00282   0.00778
  80        2S         -0.00450   0.02441  -0.01280  -0.00469   0.01208
  81        2PX        -0.00556  -0.03355   0.04224   0.00660   0.00121
  82        2PY         0.00225   0.01737  -0.03929  -0.00699  -0.05822
  83        2PZ        -0.03748  -0.01162  -0.00835  -0.01910  -0.00993
  84        3S          0.01585  -0.08218   0.04174   0.01521  -0.01844
  85        3PX        -0.00831  -0.04422   0.05397   0.00770   0.01809
  86        3PY         0.00293   0.02780  -0.06321  -0.00920  -0.06088
  87        3PZ        -0.05473  -0.01833  -0.00483  -0.02874  -0.02625
  88        4S          0.00101  -0.08224   0.02790   0.00925  -0.23413
  89        4PX        -0.00998  -0.07808   0.12930   0.02192  -0.08332
  90        4PY         0.00224   0.02125  -0.02587  -0.01061  -0.24496
  91        4PZ        -0.05349  -0.04759  -0.03835  -0.00493  -0.03981
  92        5S          0.50475  -2.20812  -0.96446   0.09153   3.07286
  93        5PX        -0.12581   0.36032   0.40265  -0.06954   0.57030
  94        5PY        -0.02342   0.47380  -0.61573  -0.15920   1.03580
  95        5PZ        -0.04412   0.02055  -0.32369  -0.53646   1.12217
  96        6D 0       -0.00291  -0.00160   0.00684  -0.00053  -0.01501
  97        6D+1        0.00348  -0.00094   0.00352   0.00551  -0.00405
  98        6D-1        0.00277  -0.00098  -0.00014   0.00118  -0.01210
  99        6D+2        0.00059   0.00096  -0.00185   0.00049   0.00044
 100        6D-2        0.00085   0.00510   0.00025  -0.00003   0.00598
 101 7   H  1S          0.00658   0.01203   0.00218   0.01846  -0.01097
 102        2S         -0.10132  -0.02083   0.06041  -0.06256  -0.07141
 103        3S          0.24837   0.33801  -0.42078   0.38693  -0.06162
 104        4PX         0.00047   0.00107  -0.00903  -0.00354  -0.00517
 105        4PY         0.00113   0.00775   0.00430   0.00344  -0.00608
 106        4PZ         0.00486  -0.00243  -0.00717   0.00397   0.00286
 107 8   H  1S         -0.00415   0.01328   0.00849  -0.01693  -0.01240
 108        2S          0.09296  -0.01416   0.02242   0.08097  -0.03228
 109        3S         -0.23907   0.31655  -0.25259  -0.49889  -0.18289
 110        4PX         0.00061   0.00154  -0.00762   0.00191  -0.00408
 111        4PY        -0.00055   0.00770   0.00386  -0.00264   0.00026
 112        4PZ         0.00342   0.00268   0.00908   0.00459  -0.00536
 113 9   H  1S          0.00008  -0.00380  -0.01530  -0.00039   0.00249
 114        2S          0.00577  -0.01985   0.01291   0.00790   0.03852
 115        3S         -0.04108   0.40560  -1.36737  -0.18608  -0.21529
 116        4PX        -0.00025  -0.01560   0.01558   0.00215   0.00610
 117        4PY        -0.00033   0.00017  -0.00937  -0.00101  -0.00574
 118        4PZ         0.00224   0.00119  -0.00192  -0.00812   0.00088
 119 10  H  1S         -0.00205   0.00417   0.00483   0.00102  -0.03011
 120        2S          0.00248   0.06621  -0.03303  -0.02570   0.10145
 121        3S         -0.08672  -0.05639   0.42417   0.19977  -1.29779
 122        4PX         0.00180   0.00222   0.00066   0.00521   0.00737
 123        4PY         0.00376   0.00351  -0.00581  -0.00027   0.00467
 124        4PZ         0.00498   0.00545   0.00652   0.00471  -0.01013
                          26        27        28        29        30
                           V         V         V         V         V
     Eigenvalues --     0.13056   0.14420   0.15503   0.18527   0.19350
   1 1   O  1S         -0.00661   0.00312  -0.01068  -0.02181   0.02054
   2        2S         -0.01161   0.00506  -0.01720  -0.03551   0.03329
   3        2PX         0.01115  -0.02164  -0.05794  -0.02807  -0.05008
   4        2PY        -0.02166   0.00005   0.00461   0.09217  -0.03457
   5        2PZ         0.00245  -0.04831   0.02050  -0.00972   0.06971
   6        3S          0.05455  -0.01337   0.04442   0.10136  -0.08925
   7        3PX         0.01653  -0.02976  -0.07108  -0.04031  -0.07490
   8        3PY        -0.03042  -0.00490   0.01319   0.12133  -0.06464
   9        3PZ         0.00224  -0.05546   0.02445  -0.00932   0.07996
  10        4S         -0.07936  -0.06867   0.22644   0.49524  -0.48241
  11        4PX         0.05530  -0.04102  -0.18753  -0.07383  -0.08487
  12        4PY        -0.05113   0.01474   0.00869   0.25528  -0.06453
  13        4PZ         0.00316  -0.15298   0.06559  -0.04101   0.24495
  14        5S          2.33802   0.31350   0.73778   0.00753   0.77168
  15        5PX         0.26161   0.04512   0.32374  -1.16251  -0.40624
  16        5PY         0.50629  -0.08353   0.63503  -0.67875  -0.61213
  17        5PZ        -0.07295   0.34812  -0.12313   0.28450  -0.30833
  18        6D 0       -0.00118  -0.00163   0.00557   0.00012  -0.00451
  19        6D+1       -0.00054   0.00227   0.00199   0.00246  -0.00539
  20        6D-1        0.00103  -0.00295   0.00140  -0.00182   0.00006
  21        6D+2       -0.00151  -0.00143  -0.00646  -0.01184  -0.00198
  22        6D-2       -0.00248   0.00026  -0.00440   0.00923   0.01015
  23 2   C  1S         -0.00868  -0.00554   0.02015  -0.01268  -0.02355
  24        2S         -0.01509  -0.00848   0.03201  -0.01848  -0.03816
  25        2PX         0.01033  -0.00907  -0.01550   0.02003  -0.11374
  26        2PY         0.04715   0.00730   0.02435   0.05817  -0.03829
  27        2PZ        -0.00219   0.02934  -0.00516   0.01168  -0.07944
  28        3S          0.05783   0.00671  -0.06955  -0.01174   0.10137
  29        3PX         0.00182  -0.02110  -0.04484   0.05156  -0.15615
  30        3PY         0.06508   0.00693   0.02194   0.10176  -0.07541
  31        3PZ        -0.00101   0.03516  -0.00126   0.00917  -0.07488
  32        4S         -0.12840   0.33556  -0.86462   1.29532   0.56147
  33        4PX         0.14549   0.04032  -0.03488  -0.14960  -0.75476
  34        4PY         0.24850   0.09889   0.21151   0.27800   0.02029
  35        4PZ         0.00038  -0.01815  -0.02182   0.13001  -0.52859
  36        5S        -38.17221  -2.82342   0.43021  -6.01354  -5.86562
  37        5PX        -9.16334  -0.38892  -0.42350  -3.31243  -0.54767
  38        5PY         5.40395   0.80449  -0.07938   0.99392   1.79077
  39        5PZ         1.97713  -0.34537   0.08626   0.68841  -0.68452
  40        6D 0       -0.00347   0.00075   0.00300  -0.01369   0.00683
  41        6D+1       -0.00108  -0.00476  -0.00136  -0.00656  -0.00844
  42        6D-1        0.00125  -0.00921   0.00595  -0.00538   0.03348
  43        6D+2        0.00359   0.00105   0.01223   0.01780  -0.00318
  44        6D-2       -0.00207  -0.00986  -0.01761   0.01484  -0.01693
  45 3   C  1S          0.01055  -0.00762  -0.01587  -0.00970  -0.00368
  46        2S          0.01731  -0.01120  -0.02504  -0.01620  -0.00443
  47        2PX        -0.00000   0.00038  -0.02369  -0.00429  -0.04053
  48        2PY         0.04209   0.01522   0.04303  -0.00390  -0.00865
  49        2PZ         0.00681  -0.03520   0.01178   0.00169  -0.03694
  50        3S         -0.04678   0.01122   0.05023   0.06482  -0.02387
  51        3PX        -0.00240  -0.02757  -0.04559   0.02198  -0.05783
  52        3PY         0.07488   0.00351   0.03243   0.01173  -0.02830
  53        3PZ         0.01658  -0.05620   0.02064  -0.00100  -0.03756
  54        4S         -0.11275   0.37552   0.60219   0.00906   0.73507
  55        4PX         0.02705   0.13580  -0.04891  -0.15881  -0.34808
  56        4PY         0.11730   0.04085   0.40104  -0.12332   0.05930
  57        4PZ        -0.02315   0.02011   0.02840  -0.01665  -0.22334
  58        5S         39.19736   3.47833  -0.07955   7.51260   7.49867
  59        5PX        -9.67885  -0.83437  -0.74272  -1.77590  -1.54316
  60        5PY         5.44190   0.23482   0.05223   1.47907   1.22721
  61        5PZ         1.60866   1.63524  -0.04812   0.28224   0.50310
  62        6D 0        0.00180   0.00030   0.00162   0.00762  -0.00884
  63        6D+1        0.00073  -0.00259   0.00592   0.00005   0.00789
  64        6D-1       -0.00026  -0.00486   0.00162   0.00308  -0.02136
  65        6D+2        0.00087  -0.00019  -0.00587  -0.01049   0.01164
  66        6D-2        0.00069   0.00555   0.01305  -0.02096   0.01441
  67 4   H  1S         -0.00116  -0.00529   0.00759  -0.02656   0.02955
[...]
 All quantities printed in internal units (Hartrees-Bohrs-Radians)
 Second derivative matrix not updated -- analytic derivatives used.
 ITU=  0
     Eigenvalues ---    0.00225   0.00293   0.00450   0.01656   0.03053
     Eigenvalues ---    0.03879   0.05674   0.06232   0.07640   0.08046
     Eigenvalues ---    0.10718   0.12480   0.14800   0.18534   0.19362
     Eigenvalues ---    0.28733   0.40853   0.52936   0.57311   0.66048
     Eigenvalues ---    0.74708   0.78567   0.82568   1.01369
 Angle between quadratic step and forces=  83.91 degrees.
 Linear search not attempted -- first point.
 B after Tr=    -0.000160   -0.000052   -0.000974
         Rot=    1.000000   -0.000044    0.000043   -0.000009 Ang=  -0.01 deg.
 Variable       Old X    -DE/DX   Delta X   Delta X   Delta X     New X
                                 (Linear)    (Quad)   (Total)
    X1        4.05254  -0.00021   0.00000  -0.00036  -0.00053   4.05201
    Y1       -1.42112   0.00018   0.00000  -0.00007  -0.00008  -1.42120
    Z1        0.43772   0.00007   0.00000  -0.00191  -0.00266   0.43505
    X2        6.03545   0.00001   0.00000  -0.00024  -0.00042   6.03504
    Y2        0.43961   0.00001   0.00000   0.00007   0.00012   0.43973
    Z2        0.11362   0.00000   0.00000   0.00011  -0.00031   0.11331
    X3        8.57040  -0.00001   0.00000  -0.00002  -0.00013   8.57027
    Y3       -0.87098  -0.00003   0.00000   0.00022   0.00036  -0.87062
    Z3       -0.39299   0.00000   0.00000   0.00063   0.00032  -0.39267
    X4        6.19042   0.00003   0.00000  -0.00100  -0.00135   6.18907
    Y4        1.60198   0.00002   0.00000  -0.00065  -0.00075   1.60123
    Z4        1.82700  -0.00000   0.00000   0.00067   0.00037   1.82738
    X5        5.58085   0.00000   0.00000   0.00053   0.00047   5.58132
    Y5        1.69131  -0.00001   0.00000   0.00073   0.00091   1.69222
    Z5       -1.47520   0.00000   0.00000   0.00044   0.00009  -1.47511
    X6       10.68060  -0.00001   0.00000  -0.00036  -0.00047  10.68013
    Y6        0.84327  -0.00006   0.00000   0.00030   0.00051   0.84379
    Z6       -0.76887  -0.00004   0.00000  -0.00073  -0.00071  -0.76957
    X7        8.30991  -0.00002   0.00000  -0.00031  -0.00025   8.30966
    Y7       -2.02859  -0.00002   0.00000  -0.00085  -0.00056  -2.02915
    Z7       -2.10459   0.00001   0.00000   0.00135   0.00092  -2.10367
    X8        8.81953  -0.00001   0.00000   0.00054   0.00032   8.81985
    Y8       -2.25655  -0.00000   0.00000   0.00124   0.00125  -2.25530
    Z8        1.17125   0.00001   0.00000   0.00138   0.00097   1.17222
    X9        2.47621   0.00019   0.00000   0.00048   0.00027   2.47649
    Y9       -0.54510  -0.00008   0.00000  -0.00061  -0.00067  -0.54577
    Z9        0.67892  -0.00000   0.00000   0.00228   0.00147   0.68040
   X10       11.01694   0.00003   0.00000   0.00236   0.00209  11.01902
   Y10        1.68704  -0.00002   0.00000  -0.00117  -0.00109   1.68595
   Z10        0.94009  -0.00004   0.00000  -0.00059  -0.00047   0.93962
         Item               Value     Threshold  Converged?
 Maximum Force            0.000205     0.000450     YES
 RMS     Force            0.000068     0.000300     YES
 Maximum Displacement     0.002663     0.001800     NO 
 RMS     Displacement     0.000909     0.001200     YES
 Predicted change in Energy=-3.358429D-09
 GradGradGradGradGradGradGradGradGradGradGradGradGradGradGradGradGradGrad

 Leave Link  103 at Fri Jun  2 11:28:14 2023, MaxMem=  7381975040 cpu:               1.7 elap:               2.6
 (Enter /software/commercial/gaussian/g16/AVX/g16/l9999.exe)

 ----------------------------------------------------------------------

 Electric dipole moment (input orientation):
 (Debye = 10**-18 statcoulomb cm , SI units = C m)
                  (au)            (Debye)         (10**-30 SI)
   Tot        0.107686D+02      0.273711D+02      0.913002D+02
   x         -0.106845D+02     -0.271574D+02     -0.905873D+02
   y          0.195757D-01      0.497565D-01      0.165970D+00
   z          0.134299D+01      0.341353D+01      0.113863D+02

 Dipole polarizability, Alpha (input orientation).
 (esu units = cm**3 , SI units = C**2 m**2 J**-1)
 Alpha(0;0):
               (au)            (10**-24 esu)      (10**-40 SI)
   iso        0.721852D+02      0.106967D+02      0.119017D+02
   aniso      0.218548D+02      0.323854D+01      0.360337D+01
   xx         0.795504D+02      0.117882D+02      0.131161D+02
   yx        -0.358115D+01     -0.530672D+00     -0.590453D+00
   yy         0.769653D+02      0.114051D+02      0.126899D+02
   zx        -0.285398D+01     -0.422916D+00     -0.470558D+00
   zy        -0.509305D+01     -0.754712D+00     -0.839731D+00
   zz         0.600399D+02      0.889700D+01      0.989925D+01

 First dipole hyperpolarizability, Beta (input orientation).
 ||, _|_  parallel and perpendicular components, (z) with respect to z axis,
 vector components x,y,z.  Values do not include the 1/n! factor of 1/2.
 (esu units = statvolt**-1 cm**4 , SI units = C**3 m**3 J**-2)
 Beta(0;0,0):
               (au)            (10**-30 esu)      (10**-50 SI)
   || (z)     0.100157D+03      0.865280D+00      0.321140D+00
   _|_(z)     0.333857D+02      0.288427D+00      0.107047D+00
   x         -0.265045D+04     -0.228978D+02     -0.849830D+01
   y          0.154881D+04      0.133805D+02      0.496606D+01
   z          0.500786D+03      0.432640D+01      0.160570D+01
   ||         0.622077D+03      0.537426D+01      0.199460D+01
   xxx       -0.268464D+03     -0.231932D+01     -0.860794D+00
   xxy       -0.924913D+01     -0.799053D-01     -0.296561D-01
   yxy       -0.451755D+03     -0.390281D+01     -0.144849D+01
   yyy        0.443579D+03      0.383218D+01      0.142228D+01
   xxz        0.102030D+03      0.881459D+00      0.327145D+00
   yxz        0.229761D+02      0.198496D+00      0.736697D-01
   yyz        0.761179D+02      0.657600D+00      0.244062D+00
   zxz       -0.163264D+03     -0.141048D+01     -0.523484D+00
   zyz        0.819410D+02      0.707907D+00      0.262733D+00
   zzz       -0.112191D+02     -0.969245D-01     -0.359726D-01

 ----------------------------------------------------------------------

 Dipole orientation:
     8          0.93743588         -1.41541423         -3.96888514
     6          0.86615092          0.44908094         -5.97335375
     6          0.67755200         -0.85652070         -8.55406786
     1          2.58734991          1.60857742         -5.91131552
     1         -0.76494476          1.70293314         -5.71817586
     7          0.57053105          0.86179622        -10.69155635
     1         -1.05502583         -2.01143579         -8.51117688
     1          2.25842546         -2.24452713         -8.60869254
     1          0.98157149         -0.54235976         -2.37319446
     1          2.30944119          1.70299718        -10.81059772

 Electric dipole moment (dipole orientation):
 (Debye = 10**-18 statcoulomb cm , SI units = C m)
                  (au)            (Debye)         (10**-30 SI)
   Tot        0.107686D+02      0.273711D+02      0.913002D+02
   x          0.000000D+00      0.000000D+00      0.000000D+00
   y          0.000000D+00      0.000000D+00      0.000000D+00
   z          0.107686D+02      0.273711D+02      0.913002D+02

 Dipole polarizability, Alpha (dipole orientation).
 (esu units = cm**3 , SI units = C**2 m**2 J**-1)
 Alpha(0;0):
               (au)            (10**-24 esu)      (10**-40 SI)
   iso        0.721852D+02      0.106967D+02      0.119017D+02
   aniso      0.218548D+02      0.323854D+01      0.360337D+01
   xx         0.596195D+02      0.883469D+01      0.982992D+01
   yx        -0.547273D+01     -0.810976D+00     -0.902332D+00
   yy         0.769723D+02      0.114061D+02      0.126910D+02
   zx         0.345655D+00      0.512208D-01      0.569909D-01
   zy         0.291202D+01      0.431517D+00      0.480128D+00
   zz         0.799638D+02      0.118494D+02      0.131843D+02

 First dipole hyperpolarizability, Beta (dipole orientation).
 ||, _|_  parallel and perpendicular components, (z) with respect to z axis,
 vector components x,y,z.  Values do not include the 1/n! factor of 1/2.
 (esu units = statvolt**-1 cm**4 , SI units = C**3 m**3 J**-2)
 Beta(0;0,0):
               (au)            (10**-30 esu)      (10**-50 SI)
   || (z)     0.539005D+03      0.465658D+01      0.172824D+01
   _|_(z)     0.179668D+03      0.155219D+01      0.576081D+00
   x          0.168806D+03      0.145835D+01      0.541253D+00
   y          0.154365D+04      0.133359D+02      0.494949D+01
   z          0.269502D+04      0.232829D+02      0.864122D+01
   ||         0.622077D+03      0.537426D+01      0.199460D+01
   xxx       -0.664752D+02     -0.574294D+00     -0.213143D+00
   xxy        0.861374D+02      0.744160D+00      0.276188D+00
   yxy        0.196554D+02      0.169807D+00      0.630222D-01
   yyy        0.440987D+03      0.380979D+01      0.141396D+01
   xxz        0.132463D+03      0.114438D+01      0.424725D+00
   yxz       -0.106072D+02     -0.916376D-01     -0.340104D-01
   yyz        0.458607D+03      0.396201D+01      0.147046D+01
   zxz        0.103088D+03      0.890604D+00      0.330539D+00
   zyz       -0.125752D+02     -0.108640D+00     -0.403207D-01
   zzz        0.307271D+03      0.265458D+01      0.985223D+00

 ----------------------------------------------------------------------
 Unable to Open any file for archive entry.
 1\1\GINC-NODE1926\Freq\RB3LYP\6-311+G(d,p)\C2H6N1O1(1-)\SVICCHI\02-Jun
 -2023\0\\#p freq=raman scale=0.967 pop=(nbo,full,hirshfeld) guess=read
  geom=allcheck b3lyp/6-311+G(d,p) int=grid=ultrafine EmpiricalDispersi
 on=GD3BJ SCRF=(Solvent=ethanol) scf=(xqc,intrep,maxconventionalcycle=3
 50) nosymm\\MEA-H_dissociation-site_index-5.gjf\\-1,1\O,2.1445098277,-
 0.7520251485,0.2316298629\C,3.1938236442,0.2326315902,0.0601230074\C,4
 .5352597128,-0.4609036171,-0.2079589277\H,3.2758284473,0.8477292178,0.
 966808712\H,2.9532606593,0.895000947,-0.7806411944\N,5.6519324339,0.44
 62408654,-0.4068668582\H,4.3974152785,-1.0734856027,-1.1136986131\H,4.
 6670948921,-1.1941138168,0.6198009644\H,1.310354167,-0.2884535267,0.35
 92712593\H,5.8299109372,0.8927450915,0.4974737874\\Version=ES64L-G16Re
 vC.01\HF=-209.9309518\RMSD=5.061e-09\RMSF=6.762e-05\ZeroPoint=0.079151
 5\Thermal=0.0846361\ETot=-209.8463156\HTot=-209.8453714\GTot=-209.8794
 132\Dipole=-3.4962482,-0.2199457,1.2666526\DipoleDeriv=-1.2739134,-0.4
 284678,0.0994201,-0.4852008,-0.6518092,0.0641641,0.1072682,0.0583231,-
 0.6953111,0.7519619,0.5008723,-0.0538378,0.336054,0.6425077,-0.0657897
 ,-0.0070924,-0.0635197,0.5061529,0.7379383,0.2652635,-0.1218018,0.4986
 209,0.6346008,-0.1700031,0.0288577,-0.0148815,0.4181085,-0.0193307,-0.
 064266,-0.0082745,-0.0632687,-0.1188975,-0.1203505,-0.0035742,-0.18049
 32,-0.193576,-0.0279366,-0.0007895,-0.0456018,-0.0043373,-0.1341268,0.
 1313431,-0.0686429,0.1859311,-0.1458063,-1.4735177,-0.0310892,0.018202
 ,-0.0862214,-1.1975741,0.2147654,-0.0991465,0.1109797,-0.5154615,-0.03
 05104,-0.0668854,-0.0617723,-0.0372881,-0.1502005,-0.1702848,-0.089988
 6,-0.223725,-0.2014018,-0.0529585,-0.0994263,0.0509777,-0.0514726,-0.4
 020922,0.2936361,0.1154824,0.3690458,-0.255854,0.1821807,0.027755,0.03
 91979,0.0541889,0.2124883,-0.00867,0.0330128,-0.0026444,0.4174336,0.20
 60864,-0.1029666,0.0834906,-0.1610749,0.1651034,-0.1688106,-0.0161763,
 -0.2390157,-0.3342843\Polar=79.5503944,-3.5811542,76.9652683,-2.853979
 4,-5.0930505,60.0399176\PolarDeriv=-1.2215646,-7.816654,5.1704592,0.90
 6598,0.3392822,1.044144,-15.4305136,-1.285046,-3.8638827,2.2375951,-0.
 045843,-0.1983657,0.4704288,0.9094358,-1.0208865,-0.9700044,-0.6680656
 ,0.2521279,8.3165706,7.368338,-8.2007667,-1.6073099,-3.036626,-0.96366
 65,12.5482359,0.9756266,-7.0875784,-3.7465549,0.1999886,-8.889034,-0.0
 841812,-4.3174747,4.4955493,0.2933077,-11.9946732,1.4858798,1.8276368,
 3.0543973,-0.0032487,-2.8483387,3.6667454,0.2714352,-20.60138,12.37897
 72,20.4046519,-0.2183565,-6.6337319,10.8213952,-1.1822283,-3.0130222,-
 14.5933005,3.777415,19.5559723,-2.8379076,1.0497086,1.2715124,2.035711
 4,1.6515315,1.3820582,0.5513261,0.6247936,-0.6216663,5.1489601,0.88065
 07,3.4310136,3.1903059,1.844652,1.088512,3.26316,-0.5872356,5.8341907,
 8.5789799,-0.8117466,1.0204303,1.6862543,-1.9072666,0.1469526,-0.26026
 97,1.37014,-2.0875991,5.459576,0.5995479,-2.8061486,3.3516993,-3.01324
 46,1.1883764,-4.4122393,-1.8820994,5.6132015,-6.8969729,6.3530275,-1.8
 743425,-5.8495687,3.6774701,-4.6737912,-2.0830564,10.3842418,-1.48821,
 -4.6831269,-4.7284685,3.424885,-13.9258586,1.7114725,-0.4936575,1.7676
 516,2.1901099,-8.1556144,-13.1350523,-0.1379533,-2.1644889,-0.3480162,
 -1.8936822,-1.8642467,0.0397707,1.274333,-2.0936425,-4.611394,-0.98207
 93,-4.1681979,-2.0537099,-1.3735586,-2.339391,-4.4706868,-1.5593609,-7
 .3000918,-8.8190967,0.7766177,-1.1346205,2.519437,1.5591865,-0.9104088
 ,0.1683148,3.7791127,-5.7490766,-11.5214954,1.8553925,7.9953256,-3.312
 6418,0.2442461,5.2371098,12.4364277,-2.4836188,-10.6411807,10.2997504,
 -17.0254846,0.008894,-0.8990725,2.8333003,-0.3248129,-0.2722786,5.1024
 191,-1.9868691,1.3528281,-0.769208,0.2147853,0.482644,1.8540269,-0.086
 9805,-0.1410176,-1.3192485,-0.5687694,0.1399423,0.873188,0.2665338,3.8
 888109,-2.371489,5.2748473,1.5042804,0.9486175,1.9575059,-0.5985387,4.
 871481,-1.6120767,10.5335654,-0.4716136,1.8270918,2.6753422,2.5407349,
 8.3250305,10.9323493\HyperPolar=-268.4643826,-9.2491304,-451.7547723,4
 43.579271,102.0298672,22.9761123,76.1179492,-163.2642382,81.9410442,-1
 1.2191254\Quadrupole=-74.4275314,35.9823797,38.4451518,-5.0119497,14.7
 412211,2.5699067\PG=C01 [X(C2H6N1O1)]\NImag=0\\0.55491258,-0.11773742,
 0.32982497,-0.07903938,0.01747529,0.05396840,-0.11936602,-0.01827194,0
 .00850100,0.40857748,-0.05848321,-0.14108196,0.00925963,-0.05246390,0.
 49758624,0.00934536,0.00381829,-0.06203299,0.03199178,0.00406043,0.577
 58092,-0.02337907,0.00346206,0.00425385,-0.11773184,0.04612333,0.00974
 368,0.39404372,-0.03465097,0.00898277,0.00646410,0.07004808,-0.1089790
 3,-0.01528069,-0.00120067,0.48125042,0.00416973,-0.00025276,0.00049850
 ,0.00822205,-0.01075242,-0.07720886,0.02982387,0.03186122,0.54425087,-
 0.01213755,-0.02567269,-0.01821935,-0.04631278,-0.00216119,-0.00995369
 ,-0.00062482,0.01545339,0.02470192,0.05687555,-0.01480812,-0.02092216,
 -0.01602653,-0.00319890,-0.11319818,-0.10443857,-0.00070366,-0.0088936
 5,-0.01570893,0.01351174,0.13171209,-0.00118485,0.00318222,0.01138836,
 -0.01091005,-0.10621475,-0.22641996,-0.00239820,-0.00338109,-0.0060461
 4,0.01288258,0.11939113,0.23742598,-0.00294128,-0.02609035,0.02235404,
 -0.06178617,0.03790130,-0.05021435,-0.00788064,0.01680242,-0.02189255,
 0.00174012,0.00204413,-0.00081836,0.07121808,-0.00734182,-0.02111919,0
 .01841965,0.03632789,-0.12564108,0.10604498,0.00486321,-0.01036281,0.0
 1397577,-0.00298460,0.01027725,-0.01305584,-0.03142900,0.14619858,0.00
 552754,0.00406344,0.00331979,-0.04998653,0.10759600,-0.20218355,0.0038
 6417,-0.00259421,0.00294780,-0.00825064,0.01474841,-0.02127242,0.04737
 565,-0.12282398,0.21322386,-0.01530412,0.00108461,0.00316141,-0.029679
 65,-0.02323929,0.00534684,-0.13519361,-0.05506551,0.02768644,0.0031449
 8,-0.00031909,0.00053375,0.00152506,-0.00241087,0.00034696,0.22061716,
 0.00394460,0.00278599,-0.00057861,-0.00875459,0.00585812,0.00098425,-0
 .07044243,-0.11373340,0.01588452,0.00045156,0.00132337,0.00147406,-0.0
 0122285,0.00206181,-0.00172719,0.15149085,0.21850324,0.00233496,-0.000
 68816,0.00120582,0.00595157,0.00357850,-0.00014945,-0.00293674,-0.0100
 3595,-0.08422700,-0.00061634,0.00200054,0.00139058,0.00146694,-0.00175
 934,0.00060119,0.02030147,0.12614418,0.39289125,0.00230630,-0.00038021
 ,-0.00119494,-0.00122529,0.01691068,0.02530073,-0.04535092,-0.00839494
 ,-0.01886908,-0.00493082,0.00247361,0.00152470,0.00153355,-0.00067651,
 -0.00042948,-0.00973467,-0.01850316,-0.02104927,0.05987057,-0.00027616
 ,0.00167300,0.00089812,0.00040384,-0.01193109,-0.01775564,-0.00730531,
 -0.10941387,-0.09773300,0.00302359,-0.00146660,-0.00108659,-0.00076390
 ,0.00053865,0.00029236,-0.01054157,-0.01351852,-0.01506544,0.01697637,
 0.12711857,0.00021310,0.00093706,0.00071812,-0.00133050,-0.00492672,-0
 .00781650,-0.01762671,-0.10043728,-0.21172899,0.00155760,-0.00097904,0
 .00142843,0.00051735,0.00005025,0.00144997,-0.00351446,0.00023454,0.00
 612378,0.02171843,0.11550094,0.22833117,0.00280140,-0.00044120,0.00041
 893,-0.00967052,0.02025897,-0.02217928,-0.05116273,0.02109421,-0.02435
 869,0.00145805,-0.00058844,0.00050352,-0.00520042,0.00282556,0.0008734
 6,-0.00121732,-0.02459249,0.02114542,0.00014077,0.00184590,-0.00231258
 ,0.06149038,-0.00055051,0.00236080,-0.00090065,0.00752123,-0.01443295,
 0.01723791,0.02993616,-0.11918796,0.08878425,-0.00090186,0.00062076,-0
 .00017692,0.00287870,-0.00217600,-0.00003817,-0.01354727,-0.02101134,0
 .01571305,-0.00205441,0.01047492,-0.01082029,-0.02261332,0.14103218,-0
 .00051684,-0.00100618,0.00091834,0.00286898,-0.00074231,0.00025630,-0.
 03368971,0.08463517,-0.16376412,-0.00063965,0.00022688,0.00139593,0.00
 093457,0.00010122,0.00159210,0.01030495,0.01149932,0.00109911,-0.00581
 793,0.01569522,-0.02209865,0.02543355,-0.10902401,0.17767878,-0.387234
 16,0.18361159,0.05902349,-0.02402617,0.01650288,0.00327486,-0.00150896
 ,-0.00738589,0.00011458,0.00119621,0.00111428,-0.00072330,0.00183395,0
 .00086152,0.00053330,-0.00148835,0.00104656,0.00046931,0.00049921,-0.0
 0000343,0.00008343,0.00071220,-0.00004043,-0.00029390,0.41000309,0.230
 07897,-0.16251198,-0.03507392,-0.03141973,0.01106104,0.00489268,0.0001
 9842,-0.00390553,0.00014445,-0.00038920,0.00002013,-0.00034779,-0.0002
 5180,0.00014507,0.00044669,-0.00245619,0.00002343,0.00038363,-0.000050
 60,0.00010057,0.00024929,-0.00007617,0.00035729,-0.00035217,-0.1957637
 4,0.15475394,0.05860452,-0.02776020,-0.01014052,0.00398035,-0.00274919
 ,-0.00237477,0.00007290,0.00145815,-0.00064210,-0.00059024,0.00054786,
 0.00058996,0.00022623,-0.00088721,0.00029363,0.00025759,-0.00014080,0.
 00069362,-0.00031224,0.00021755,0.00021403,0.00005195,-0.00036691,0.00
 021723,-0.06251362,0.02962063,0.01117851,0.00034191,0.00043557,0.00074
 096,0.00122095,-0.00134957,-0.00265592,-0.01121113,-0.01670012,-0.0295
 9827,-0.00040896,0.00047445,0.00059021,-0.00004225,-0.00003538,0.00014
 558,-0.03266949,-0.03341805,-0.02706731,-0.00310871,-0.00335935,0.0006
 9433,0.00064819,-0.00062829,0.00141597,0.00001298,0.00013004,0.0002225
 7,0.04521651,-0.00017535,0.00000777,0.00006291,-0.00019199,0.00075888,
 0.00043638,-0.00493111,-0.01575694,-0.02620310,-0.00033075,0.00052699,
 0.00021559,0.00013136,0.00007773,0.00003665,-0.04499568,-0.08229270,-0
 .12027101,-0.00630081,-0.00357562,0.00019123,0.00228698,0.00196230,-0.
 00103315,0.00005666,-0.00004396,0.00006012,0.05445070,0.09833555,0.000
 54586,0.00023100,0.00015618,0.00071133,0.00089082,0.00034887,0.0088928
 9,0.00731058,-0.00407995,-0.00087218,0.00023825,0.00011929,0.00005049,
 -0.00006549,0.00002766,-0.06442494,-0.15377427,-0.31962890,-0.00087091
 ,-0.00096352,0.00337864,0.00042372,-0.00040826,0.00270499,0.00003185,0
 .00003650,-0.00002959,0.05551189,0.14650439,0.31700281\\0.00020501,-0.
 00018485,-0.00006725,-0.00000608,-0.00001395,-0.00000265,0.00000705,0.
 00002644,-0.00000014,-0.00002537,-0.00002019,0.00000443,-0.00000062,0.
 00000510,-0.00000459,0.00001499,0.00005687,0.00004493,0.00002401,0.000
 02304,-0.00000516,0.00000604,0.00000079,-0.00000523,-0.00019451,0.0000
 8462,0.00000020,-0.00003053,0.00002214,0.00003545\\\@
 The archive entry for this job was punched.


 Discoveries are often made by not following instructions,
 by going off the main road, by trying the untried.
 -- Frank Tyger
 Job cpu time:       0 days  0 hours  7 minutes 45.9 seconds.
 Elapsed time:       0 days  0 hours  4 minutes 52.8 seconds.
 File lengths (MBytes):  RWF=     72 Int=      0 D2E=      0 Chk=      8 Scr=      1
 Normal termination of Gaussian 16 at Fri Jun  2 11:28:20 2023.
