 Entering Gaussian System, Link 0=g16
 Input=EMIM-H_dissociation-site_index-2-freq.gjf
 Output=EMIM-H_dissociation-site_index-2-freq.log
 Initial command:
 /software/commercial/gaussian/g16/AVX/g16/l1.exe "/scratch1/svicchi/G09-659727.pbs02/Gau-1248657.inp" -scrdir="/scratch1/svicchi/G09-659727.pbs02/"
 Entering Link 1 = /software/commercial/gaussian/g16/AVX/g16/l1.exe PID=   1248658.
  
 Copyright (c) 1988-2019, Gaussian, Inc.  All Rights Reserved.
  
 This is part of the Gaussian(R) 16 program.  It is based on
 the Gaussian(R) 09 system (copyright 2009, Gaussian, Inc.),
 the Gaussian(R) 03 system (copyright 2003, Gaussian, Inc.),
 the Gaussian(R) 98 system (copyright 1998, Gaussian, Inc.),
 the Gaussian(R) 94 system (copyright 1995, Gaussian, Inc.),
 the Gaussian 92(TM) system (copyright 1992, Gaussian, Inc.),
 the Gaussian 90(TM) system (copyright 1990, Gaussian, Inc.),
 the Gaussian 88(TM) system (copyright 1988, Gaussian, Inc.),
 the Gaussian 86(TM) system (copyright 1986, Carnegie Mellon
 University), and the Gaussian 82(TM) system (copyright 1983,
 Carnegie Mellon University). Gaussian is a federally registered
 trademark of Gaussian, Inc.
  
 This software contains proprietary and confidential information,
 including trade secrets, belonging to Gaussian, Inc.
  
 This software is provided under written license and may be
 used, copied, transmitted, or stored only in accord with that
 written license.
  
 The following legend is applicable only to US Government
 contracts under FAR:
  
                    RESTRICTED RIGHTS LEGEND
  
 Use, reproduction and disclosure by the US Government is
 subject to restrictions as set forth in subparagraphs (a)
 and (c) of the Commercial Computer Software - Restricted
 Rights clause in FAR 52.227-19.
  
 Gaussian, Inc.
 340 Quinnipiac St., Bldg. 40, Wallingford CT 06492
  
  
 ---------------------------------------------------------------
 Warning -- This program may not be used in any manner that
 competes with the business of Gaussian, Inc. or will provide
 assistance to any competitor of Gaussian, Inc.  The licensee
 of this program is prohibited from giving any competitor of
 Gaussian, Inc. access to this program.  By using this program,
 the user acknowledges that Gaussian, Inc. is engaged in the
 business of creating and licensing software in the field of
 computational chemistry and represents and warrants to the
 licensee that it is not a competitor of Gaussian, Inc. and that
 it will not use this program in any manner prohibited above.
 ---------------------------------------------------------------
  

 Cite this work as:
 Gaussian 16, Revision C.01,
 M. J. Frisch, G. W. Trucks, H. B. Schlegel, G. E. Scuseria, 
 M. A. Robb, J. R. Cheeseman, G. Scalmani, V. Barone, 
 G. A. Petersson, H. Nakatsuji, X. Li, M. Caricato, A. V. Marenich, 
 J. Bloino, B. G. Janesko, R. Gomperts, B. Mennucci, H. P. Hratchian, 
 J. V. Ortiz, A. F. Izmaylov, J. L. Sonnenberg, D. Williams-Young, 
 F. Ding, F. Lipparini, F. Egidi, J. Goings, B. Peng, A. Petrone, 
 T. Henderson, D. Ranasinghe, V. G. Zakrzewski, J. Gao, N. Rega, 
 G. Zheng, W. Liang, M. Hada, M. Ehara, K. Toyota, R. Fukuda, 
 J. Hasegawa, M. Ishida, T. Nakajima, Y. Honda, O. Kitao, H. Nakai, 
 T. Vreven, K. Throssell, J. A. Montgomery, Jr., J. E. Peralta, 
 F. Ogliaro, M. J. Bearpark, J. J. Heyd, E. N. Brothers, K. N. Kudin, 
 V. N. Staroverov, T. A. Keith, R. Kobayashi, J. Normand, 
 K. Raghavachari, A. P. Rendell, J. C. Burant, S. S. Iyengar, 
 J. Tomasi, M. Cossi, J. M. Millam, M. Klene, C. Adamo, R. Cammi, 
 J. W. Ochterski, R. L. Martin, K. Morokuma, O. Farkas, 
 J. B. Foresman, and D. J. Fox, Gaussian, Inc., Wallingford CT, 2019.
 
 ******************************************
 Gaussian 16:  ES64L-G16RevC.01  3-Jul-2019
                 2-Jun-2023 
 ******************************************
 %NProcShared=2
 Will use up to    2 processors via shared memory.
 %mem=55gb
 %chk=/scratch1/svicchi/G09-659727.pbs02/02-freq/EMIM-H_dissociation-site_index-2
 -freq.chk
 ----------------------------------------------------------------------
 #p freq=raman scale=0.967 pop=(nbo,full,hirshfeld) guess=read geom=all
 check b3lyp/6-311+G(d,p) int=grid=ultrafine EmpiricalDispersion=GD3BJ 
 SCRF=(Solvent=ethanol) scf=(xqc,intrep,maxconventionalcycle=350) nosym
 m
 ----------------------------------------------------------------------
 1/10=4,29=7,30=1,38=1,114=967000/1,3;
 2/12=2,15=1,40=1/2;
 3/5=4,6=6,7=111,11=2,14=-4,25=1,30=1,70=2201,71=2,72=4,74=-5,75=-5,116=-2,124=41,140=1/1,2,3;
 4/5=1/1;
 5/5=2,8=3,13=1,17=20,38=6,53=4,85=350,98=1/2,8;
 8/6=4,10=90,11=11/1;
 10/13=10,15=4,31=1/2;
 11/6=3,8=1,9=11,15=111,16=1,31=1/1,2,10;
 10/6=1,31=1/2;
 6/7=3,28=1,40=1,79=1/1,7;
 7/8=1,10=1,25=1,30=1/1,2,3,16;
 1/10=4,30=1/3;
 99//99;
 Leave Link    1 at Fri Jun  2 11:02:11 2023, MaxMem=  7381975040 cpu:               1.4 elap:               2.0
 (Enter /software/commercial/gaussian/g16/AVX/g16/l101.exe)
 Structure from the checkpoint file:  "/scratch1/svicchi/G09-659727.pbs02/02-freq/EMIM-H_dissociation-site_index-2-freq.chk"
 ------------------------------------
 EMIM-H_dissociation-site_index-2.gjf
 ------------------------------------
 Charge =  0 Multiplicity = 1
 No Z-Matrix found in chk file; cartesian coordinates used.
  C                                                 1.097476339152     -0.294950166029      0.338534604598
  N                                                 0.653169497710     -1.597782473643     -0.155871581131
  C                                                 0.972105155794     -2.783628352393      0.441133047277
  N                                                 0.398466128148     -3.699682916429     -0.393197545648
  C                                                 0.447310865603     -5.139118367839     -0.175662518963
  C                                                -0.250544330548     -3.106896422478     -1.469495762021
  C                                                -0.085372001917     -1.769681386388     -1.320237721658
  C                                                 2.260536358737      0.270044783539     -0.472461408413
  H                                                 1.385776233273     -0.441421472592      1.378896172839
  H                                                 0.245185882810      0.388836540609      0.318533072530
  H                                                 1.038028117591     -5.325574813621      0.718227744844
  H                                                 0.913352692884     -5.637641038199     -1.027827848966
  H                                                -0.558567364075     -5.539806730100     -0.034272018580
  H                                                -0.767061756278     -3.672952263271     -2.226333903919
  H                                                -0.426377007512     -0.947044374416     -1.925950873020
  H                                                 3.117418490886     -0.406767962484     -0.436036038886
  H                                                 2.565240963153      1.237360721020     -0.065603844474
  H                                                 1.979207734588      0.414669694716     -1.518365576409
 Recover connectivity data from disk.
 ITRead=  0  0  0  0  0  0  0  0  0  0  0  0  0  0  0  0  0  0
 MicOpt= -1 -1 -1 -1 -1 -1 -1 -1 -1 -1 -1 -1 -1 -1 -1 -1 -1 -1
 NAtoms=     18 NQM=       18 NQMF=       0 NMMI=      0 NMMIF=      0
                NMic=       0 NMicF=      0.
                    Isotopes and Nuclear Properties:
 (Nuclear quadrupole moments (NQMom) in fm**2, nuclear magnetic moments (NMagM)
  in nuclear magnetons)

  Atom         1           2           3           4           5           6           7           8           9          10
 IAtWgt=          12          14          12          14          12          12          12          12           1           1
 AtmWgt=  12.0000000  14.0030740  12.0000000  14.0030740  12.0000000  12.0000000  12.0000000  12.0000000   1.0078250   1.0078250
 NucSpn=           0           2           0           2           0           0           0           0           1           1
 AtZEff=   3.6000000   4.5500000   3.6000000   4.5500000   3.6000000   3.6000000   3.6000000   3.6000000   1.0000000   1.0000000
 NQMom=    0.0000000   2.0440000   0.0000000   2.0440000   0.0000000   0.0000000   0.0000000   0.0000000   0.0000000   0.0000000
 NMagM=    0.0000000   0.4037610   0.0000000   0.4037610   0.0000000   0.0000000   0.0000000   0.0000000   2.7928460   2.7928460
 AtZNuc=   6.0000000   7.0000000   6.0000000   7.0000000   6.0000000   6.0000000   6.0000000   6.0000000   1.0000000   1.0000000

  Atom        11          12          13          14          15          16          17          18
 IAtWgt=           1           1           1           1           1           1           1           1
 AtmWgt=   1.0078250   1.0078250   1.0078250   1.0078250   1.0078250   1.0078250   1.0078250   1.0078250
 NucSpn=           1           1           1           1           1           1           1           1
 AtZEff=   1.0000000   1.0000000   1.0000000   1.0000000   1.0000000   1.0000000   1.0000000   1.0000000
 NQMom=    0.0000000   0.0000000   0.0000000   0.0000000   0.0000000   0.0000000   0.0000000   0.0000000
 NMagM=    2.7928460   2.7928460   2.7928460   2.7928460   2.7928460   2.7928460   2.7928460   2.7928460
 AtZNuc=   1.0000000   1.0000000   1.0000000   1.0000000   1.0000000   1.0000000   1.0000000   1.0000000
 Leave Link  101 at Fri Jun  2 11:02:13 2023, MaxMem=  7381975040 cpu:               0.3 elap:               1.1
 (Enter /software/commercial/gaussian/g16/AVX/g16/l103.exe)

 GradGradGradGradGradGradGradGradGradGradGradGradGradGradGradGradGradGrad
 Berny optimization.
 Initialization pass.
 Trust Radius=3.00D-01 FncErr=1.00D-07 GrdErr=1.00D-07 EigMax=2.50D+02 EigMin=1.00D-04
 Number of steps in this run=      2 maximum allowed number of steps=      2.
 GradGradGradGradGradGradGradGradGradGradGradGradGradGradGradGradGradGrad

 Leave Link  103 at Fri Jun  2 11:02:16 2023, MaxMem=  7381975040 cpu:               0.0 elap:               0.8
 (Enter /software/commercial/gaussian/g16/AVX/g16/l202.exe)
                          Input orientation:                          
 ---------------------------------------------------------------------
 Center     Atomic      Atomic             Coordinates (Angstroms)
 Number     Number       Type             X           Y           Z
 ---------------------------------------------------------------------
      1          6           0        1.097476   -0.294950    0.338535
      2          7           0        0.653169   -1.597782   -0.155872
      3          6           0        0.972105   -2.783628    0.441133
      4          7           0        0.398466   -3.699683   -0.393198
      5          6           0        0.447311   -5.139118   -0.175663
      6          6           0       -0.250544   -3.106896   -1.469496
      7          6           0       -0.085372   -1.769681   -1.320238
      8          6           0        2.260536    0.270045   -0.472461
      9          1           0        1.385776   -0.441421    1.378896
     10          1           0        0.245186    0.388837    0.318533
     11          1           0        1.038028   -5.325575    0.718228
     12          1           0        0.913353   -5.637641   -1.027828
     13          1           0       -0.558567   -5.539807   -0.034272
     14          1           0       -0.767062   -3.672952   -2.226334
     15          1           0       -0.426377   -0.947044   -1.925951
     16          1           0        3.117418   -0.406768   -0.436036
     17          1           0        2.565241    1.237361   -0.065604
     18          1           0        1.979208    0.414670   -1.518366
 ---------------------------------------------------------------------
                    Distance matrix (angstroms):
                    1          2          3          4          5
     1  C    0.000000
     2  N    1.462607   0.000000
     3  C    2.493945   1.365417   0.000000
     4  N    3.551936   2.130536   1.365403   0.000000
     5  C    4.914578   3.547369   2.490819   1.456599   0.000000
     6  C    3.604605   2.195389   2.291261   1.389614   2.508173
     7  C    2.515052   1.389511   2.291020   2.195087   3.598181
     8  C    1.526317   2.484479   3.437969   4.385468   5.712698
     9  H    1.089460   2.056549   2.556649   3.838146   5.036440
    10  H    1.092869   2.082826   3.256989   4.152836   5.553681
    11  H    5.045283   3.848195   2.557854   2.070708   1.087544
    12  H    5.517716   4.141070   3.210403   2.103223   1.091744
    13  H    5.512711   4.125851   3.188336   2.104946   1.091940
    14  H    4.633136   3.257330   3.306203   2.172455   2.798142
    15  H    2.806288   2.173030   3.306339   3.256796   4.626048
    16  H    2.166248   2.751278   3.319828   4.270577   5.439891
    17  H    2.160009   3.420848   4.354678   5.401540   6.719913
    18  H    2.174647   2.768525   3.883684   4.548917   5.915583
                    6          7          8          9         10
     6  C    0.000000
     7  C    1.355619   0.000000
     8  C    4.324735   3.222188   0.000000
     9  H    4.230324   3.348712   2.167698   0.000000
    10  H    3.957644   2.730208   2.168276   1.764836   0.000000
    11  H    3.371808   4.249911   5.850062   4.940887   5.782979
    12  H    2.820354   4.005505   6.084742   5.745973   6.211084
    13  H    2.841443   4.011417   6.472537   5.636581   5.993271
    14  H    1.077039   2.215435   5.271588   5.298602   4.898890
    15  H    2.214549   1.076989   3.288380   3.802837   2.696902
    16  H    4.438683   3.591269   1.092543   2.508738   3.074424
    17  H    5.363966   4.200257   1.092739   2.509189   2.500042
    18  H    4.168406   3.012164   1.092693   3.078827   2.526202
                   11         12         13         14         15
    11  H    0.000000
    12  H    1.778100   0.000000
    13  H    1.777996   1.778559   0.000000
    14  H    3.828832   2.849598   2.886824   0.000000
    15  H    5.320497   4.960161   4.968842   2.763489   0.000000
    16  H    5.463593   5.707027   6.326324   5.381665   3.882040
    17  H    6.783723   7.135843   7.462517   6.315391   4.145153
    18  H    6.232060   6.164993   6.640680   4.975125   2.794142
                   16         17         18
    16  H    0.000000
    17  H    1.773493   0.000000
    18  H    1.772490   1.769399   0.000000
 Symmetry turned off by external request.
 Stoichiometry    C6H10N2
 Framework group  C1[X(C6H10N2)]
 Deg. of freedom    48
 Full point group                 C1      NOp   1
 Rotational constants (GHZ):           5.4389545           1.2886308           1.1421614
 Leave Link  202 at Fri Jun  2 11:02:17 2023, MaxMem=  7381975040 cpu:               0.1 elap:               0.7
 (Enter /software/commercial/gaussian/g16/AVX/g16/l301.exe)
 Standard basis: 6-311+G(d,p) (5D, 7F)
 Ernie: Thresh=  0.10000D-02 Tol=  0.10000D-05 Strict=F.
   236 basis functions,   368 primitive gaussians,   244 cartesian basis functions
    30 alpha electrons       30 beta electrons
       nuclear repulsion energy       367.9268271951 Hartrees.
 IExCor=  402 DFT=T Ex+Corr=B3LYP ExCW=0 ScaHFX=  0.200000
 ScaDFX=  0.800000  0.720000  1.000000  0.810000 ScalE2=  1.000000  1.000000
 IRadAn=      5 IRanWt=     -1 IRanGd=            0 ICorTp=0 IEmpDi=141
 NAtoms=   18 NActive=   18 NUniq=   18 SFac= 1.00D+00 NAtFMM=   60 NAOKFM=F Big=F
 Integral buffers will be    131072 words long.
 Raffenetti 2 integral format.
 Two-electron integral symmetry is turned off.
 R6Disp:  Grimme-D3(BJ) Dispersion energy=       -0.0265600653 Hartrees.
 Nuclear repulsion after empirical dispersion term =      367.9002671297 Hartrees.
 Force inversion solution in PCM.
 ------------------------------------------------------------------------------
 Polarizable Continuum Model (PCM)
 =================================
 Model                : PCM.
 Atomic radii         : UFF (Universal Force Field).
 Polarization charges : Total charges.
 Charge compensation  : None.
 Solution method      : Matrix inversion.
 Cavity type          : Scaled VdW (van der Waals Surface) (Alpha=1.100).
 Cavity algorithm     : GePol (No added spheres)
                        Default sphere list used, NSphG=   18.
                        Lebedev-Laikov grids with approx.  5.0 points / Ang**2.
                        Smoothing algorithm: York/Karplus (Gamma=1.0000).
                        Polarization charges: spherical gaussians, with
                                              point-specific exponents (IZeta= 3).
                        Self-potential: point-specific (ISelfS= 7).
                        Self-field    : sphere-specific E.n sum rule (ISelfD= 2).
 1st derivatives      : Analytical E(r).r(x)/FMM algorithm (CHGder, D1EAlg=3).
                        Cavity 1st derivative terms included.
 2nd derivatives      : Analytical E(r).r(xy)/FMM algorithm (CHGder, D2EAlg=3).
                        Cavity 2nd derivative terms included.
 Solvent              : Ethanol, Eps=  24.852000 Eps(inf)=   1.852593
 ------------------------------------------------------------------------------
 Spheres list:
 ISph  on   Nord     Re0    Alpha      Xe            Ye            Ze
    1   C      1    1.9255  1.100      1.097476     -0.294950      0.338535
    2   N      2    1.8300  1.100      0.653169     -1.597782     -0.155872
    3   C      3    1.9255  1.100      0.972105     -2.783628      0.441133
    4   N      4    1.8300  1.100      0.398466     -3.699683     -0.393198
    5   C      5    1.9255  1.100      0.447311     -5.139118     -0.175663
    6   C      6    1.9255  1.100     -0.250544     -3.106896     -1.469496
    7   C      7    1.9255  1.100     -0.085372     -1.769681     -1.320238
    8   C      8    1.9255  1.100      2.260536      0.270045     -0.472461
    9   H      9    1.4430  1.100      1.385776     -0.441421      1.378896
   10   H     10    1.4430  1.100      0.245186      0.388837      0.318533
   11   H     11    1.4430  1.100      1.038028     -5.325575      0.718228
   12   H     12    1.4430  1.100      0.913353     -5.637641     -1.027828
   13   H     13    1.4430  1.100     -0.558567     -5.539807     -0.034272
   14   H     14    1.4430  1.100     -0.767062     -3.672952     -2.226334
   15   H     15    1.4430  1.100     -0.426377     -0.947044     -1.925951
   16   H     16    1.4430  1.100      3.117418     -0.406768     -0.436036
   17   H     17    1.4430  1.100      2.565241      1.237361     -0.065604
   18   H     18    1.4430  1.100      1.979208      0.414670     -1.518366
 ------------------------------------------------------------------------------
 GePol: Number of generator spheres                  =      18
 GePol: Total number of spheres                      =      18
 GePol: Number of exposed spheres                    =      18 (100.00%)
 GePol: Number of points                             =    1434
 GePol: Average weight of points                     =       0.13
 GePol: Minimum weight of points                     =   0.44D-08
 GePol: Maximum weight of points                     =    0.20577
 GePol: Number of points with low weight             =     103
 GePol: Fraction of low-weight points (<1% of avg)   =       7.18%
 GePol: Cavity surface area                          =    193.215 Ang**2
 GePol: Cavity volume                                =    186.159 Ang**3
 Leave Link  301 at Fri Jun  2 11:02:21 2023, MaxMem=  7381975040 cpu:               1.2 elap:               2.3
 (Enter /software/commercial/gaussian/g16/AVX/g16/l302.exe)
 NPDir=0 NMtPBC=     1 NCelOv=     1 NCel=       1 NClECP=     1 NCelD=      1
         NCelK=      1 NCelE2=     1 NClLst=     1 CellRange=     0.0.
 One-electron integrals computed using PRISM.
 NBasis=   236 RedAO= T EigKep=  2.06D-05  NBF=   236
 NBsUse=   236 1.00D-06 EigRej= -1.00D+00 NBFU=   236
 Precomputing XC quadrature grid using
 IXCGrd= 4 IRadAn=           5 IRanWt=          -1 IRanGd=           0 AccXCQ= 0.00D+00.
 Generated NRdTot=       0 NPtTot=           0 NUsed=           0 NTot=          32
 NSgBfM=   244   244   244   244   244 MxSgAt=    18 MxSgA2=    18.
 Leave Link  302 at Fri Jun  2 11:02:23 2023, MaxMem=  7381975040 cpu:               1.0 elap:               1.1
 (Enter /software/commercial/gaussian/g16/AVX/g16/l303.exe)
 DipDrv:  MaxL=1.
 Leave Link  303 at Fri Jun  2 11:02:26 2023, MaxMem=  7381975040 cpu:               0.3 elap:               1.1
 (Enter /software/commercial/gaussian/g16/AVX/g16/l401.exe)
 Initial guess from the checkpoint file:  "/scratch1/svicchi/G09-659727.pbs02/02-freq/EMIM-H_dissociation-site_index-2-freq.chk"
 B after Tr=     0.000000    0.000000    0.000000
         Rot=    1.000000    0.000000    0.000000    0.000000 Ang=   0.00 deg.
 Guess basis will be translated and rotated to current coordinates.
 JPrj=2 DoOrth=T DoCkMO=T.
 Leave Link  401 at Fri Jun  2 11:02:29 2023, MaxMem=  7381975040 cpu:               1.6 elap:               2.3
 (Enter /software/commercial/gaussian/g16/AVX/g16/l502.exe)
 Keep R1 ints in memory in canonical form, NReq=398416783.
 FoFCou: FMM=F IPFlag=           0 FMFlag=           0 FMFlg1=           0
         NFxFlg=           0 DoJE=F BraDBF=F KetDBF=F FulRan=T
         wScrn=  0.000000 ICntrl=       600 IOpCl=  0 I1Cent=           0 NGrid=           0
         NMat0=    1 NMatS0=  27966 NMatT0=    0 NMatD0=    1 NMtDS0=    0 NMtDT0=    0
 Symmetry not used in FoFCou.
 Two-electron integral symmetry not used.
 Closed shell SCF:
 Using DIIS extrapolation, IDIIS=  1040.
 NGot=  7381975040 LenX=  6990789585 LenY=  6990729608
 Requested convergence on RMS density matrix=1.00D-08 within 350 cycles.
 Requested convergence on MAX density matrix=1.00D-06.
 Requested convergence on             energy=1.00D-06.
 No special actions if energy rises.

 Cycle   1  Pass 1  IDiag  1:
 Inv3:  Mode=1 IEnd=     6169068.
 Iteration    1 A*A^-1 deviation from unit magnitude is 4.22D-15 for   1427.
 Iteration    1 A*A^-1 deviation from orthogonality  is 2.71D-15 for   1427    633.
 Iteration    1 A^-1*A deviation from unit magnitude is 4.22D-15 for   1427.
 Iteration    1 A^-1*A deviation from orthogonality  is 1.60D-15 for   1008    862.
 E= -344.243823363280    
 DIIS: error= 1.44D-08 at cycle   1 NSaved=   1.
 NSaved= 1 IEnMin= 1 EnMin= -344.243823363280     IErMin= 1 ErrMin= 1.44D-08
 ErrMax= 1.44D-08  0.00D+00 EMaxC= 1.00D-01 BMatC= 7.11D-14 BMatP= 7.11D-14
 IDIUse=1 WtCom= 1.00D+00 WtEn= 0.00D+00
 Coeff-Com:  0.100D+01
 Coeff:      0.100D+01
 Gap=     0.240 Goal=   None    Shift=    0.000
 RMSDP=2.49D-09 MaxDP=1.06D-07              OVMax= 2.03D-07

 Error on total polarization charges =  0.01668
 SCF Done:  E(RB3LYP) =  -344.243823363     A.U. after    1 cycles
            NFock=  1  Conv=0.25D-08     -V/T= 2.0046
 KE= 3.426736838992D+02 PE=-1.535302233588D+03 EE= 4.804844591963D+02
 Leave Link  502 at Fri Jun  2 11:02:54 2023, MaxMem=  7381975040 cpu:              39.8 elap:              23.0
 (Enter /software/commercial/gaussian/g16/AVX/g16/l508.exe)
 QCSCF skips out because SCF is already converged.
 Leave Link  508 at Fri Jun  2 11:02:56 2023, MaxMem=  7381975040 cpu:               0.0 elap:               0.5
 (Enter /software/commercial/gaussian/g16/AVX/g16/l801.exe)
 DoSCS=F DFT=T ScalE2(SS,OS)=  1.000000  1.000000
 Range of M.O.s used for correlation:     1   236
 NBasis=   236 NAE=    30 NBE=    30 NFC=     0 NFV=     0
 NROrb=    236 NOA=    30 NOB=    30 NVA=   206 NVB=   206

 **** Warning!!: The largest alpha MO coefficient is  0.55298816D+02

 Leave Link  801 at Fri Jun  2 11:02:58 2023, MaxMem=  7381975040 cpu:               0.6 elap:               1.6
 (Enter /software/commercial/gaussian/g16/AVX/g16/l1002.exe)
 Minotr:  Closed shell wavefunction.
 NEqPCM:  Using equilibrium solvation (IEInf=0, Eps=  24.8520, EpsInf=   1.8526)
          Direct CPHF calculation.
          Differentiating once with respect to electric field.
                with respect to dipole field.
          Electric field/nuclear overlap derivatives assumed to be zero.
          Requested convergence is 1.0D-08 RMS, and 1.0D-07 maximum.
          Secondary convergence is 1.0D-12 RMS, and 1.0D-12 maximum.
          NewPWx=F KeepS1=T KeepF1=T KeepIn=T MapXYZ=F SortEE=F KeepMc=T.
         5561 words used for storage of precomputed grid.
 Keep R1 ints in memory in canonical form, NReq=398424354.
 FoFCou: FMM=F IPFlag=           0 FMFlag=           0 FMFlg1=           0
         NFxFlg=           0 DoJE=F BraDBF=F KetDBF=F FulRan=T
         wScrn=  0.000000 ICntrl=       600 IOpCl=  0 I1Cent=           0 NGrid=           0
         NMat0=    1 NMatS0=  27966 NMatT0=    0 NMatD0=    1 NMtDS0=    0 NMtDT0=    0
 Symmetry not used in FoFCou.
 Two-electron integral symmetry not used.
          MDV=    7381975040 using IRadAn=       1.
          Solving linear equations simultaneously, MaxMat=       0.
          There are     3 degrees of freedom in the 1st order CPHF.  IDoFFX=0 NUNeed=     3.
      3 vectors produced by pass  0 Test12= 2.06D-13 3.33D-08 XBig12= 8.82D+01 4.24D+00.
 AX will form     3 AO Fock derivatives at one time.
      3 vectors produced by pass  1 Test12= 2.06D-13 3.33D-08 XBig12= 3.28D+01 1.43D+00.
      3 vectors produced by pass  2 Test12= 2.06D-13 3.33D-08 XBig12= 4.92D+00 3.49D-01.
      3 vectors produced by pass  3 Test12= 2.06D-13 3.33D-08 XBig12= 1.30D+00 2.80D-01.
      3 vectors produced by pass  4 Test12= 2.06D-13 3.33D-08 XBig12= 1.72D-01 7.25D-02.
      3 vectors produced by pass  5 Test12= 2.06D-13 3.33D-08 XBig12= 3.06D-02 3.00D-02.
      3 vectors produced by pass  6 Test12= 2.06D-13 3.33D-08 XBig12= 4.38D-03 1.19D-02.
      3 vectors produced by pass  7 Test12= 2.06D-13 3.33D-08 XBig12= 2.98D-04 2.19D-03.
      3 vectors produced by pass  8 Test12= 2.06D-13 3.33D-08 XBig12= 3.51D-05 7.50D-04.
      3 vectors produced by pass  9 Test12= 2.06D-13 3.33D-08 XBig12= 1.11D-06 2.13D-04.
      3 vectors produced by pass 10 Test12= 2.06D-13 3.33D-08 XBig12= 3.22D-08 3.05D-05.
      3 vectors produced by pass 11 Test12= 2.06D-13 3.33D-08 XBig12= 1.19D-09 6.53D-06.
      3 vectors produced by pass 12 Test12= 2.06D-13 3.33D-08 XBig12= 3.04D-11 9.90D-07.
      2 vectors produced by pass 13 Test12= 2.06D-13 3.33D-08 XBig12= 7.07D-13 1.05D-07.
 InvSVY:  IOpt=1 It=  1 EMax= 3.55D-15
 Solved reduced A of dimension    41 with     3 vectors.
 End of Minotr F.D. properties file   721 does not exist.
 End of Minotr F.D. properties file   722 does not exist.
 End of Minotr F.D. properties file   788 does not exist.
 Leave Link 1002 at Fri Jun  2 11:05:09 2023, MaxMem=  7381975040 cpu:             238.8 elap:             129.0
 (Enter /software/commercial/gaussian/g16/AVX/g16/l1101.exe)
 Using compressed storage, NAtomX=    18.
 Will process     19 centers per pass.
 R6Disp: Adding Grimme-D3(BJ) dispersion energy 1st derivatives to the gradient.
 Leave Link 1101 at Fri Jun  2 11:05:13 2023, MaxMem=  7381975040 cpu:               1.3 elap:               1.9
 (Enter /software/commercial/gaussian/g16/AVX/g16/l1102.exe)
 Symmetrizing basis deriv contribution to polar:
 IMax=3 JMax=2 DiffMx= 0.00D+00
 Leave Link 1102 at Fri Jun  2 11:05:15 2023, MaxMem=  7381975040 cpu:               0.2 elap:               1.3
 (Enter /software/commercial/gaussian/g16/AVX/g16/l1110.exe)
 Forming Gx(P) for the SCF density, NAtomX=    18.
 Integral derivatives from FoFJK, PRISM(SPDF).
 Do as many integral derivatives as possible in FoFJK.
 G2DrvN: MDV=    7381973050.
 G2DrvN: will do    19 centers at a time, making    1 passes.
 PxScal for G2LodP:  IOpCl= 0 ISclPx=1 IMOff=     1 NMtTot=     4 NTT=   27966 ScalPx= 9.10D+00
 Calling FoFCou, ICntrl=  3107 FMM=F I1Cent=   0 AccDes= 0.00D+00.
 FoFJK:  IHMeth= 1 ICntrl=    3107 DoSepK=F KAlg= 0 I1Cent=           0 FoldK=F
 IRaf=         0 NMat=       1 IRICut=       1 DoRegI=T DoRafI=F ISym2E= 0 IDoP0=0 IntGTp=1.
 FoFCou: FMM=F IPFlag=           0 FMFlag=      100000 FMFlg1=           0
         NFxFlg=           0 DoJE=F BraDBF=F KetDBF=F FulRan=T
         wScrn=  0.000000 ICntrl=      3107 IOpCl=  0 I1Cent=           0 NGrid=           0
         NMat0=    1 NMatS0=      1 NMatT0=    0 NMatD0=    4 NMtDS0=    3 NMtDT0=    0
 Symmetry not used in FoFCou.
 PxScal for G2LodP:  IOpCl= 0 ISclPx=0 IMOff=     1 NMtTot=     4 NTT=   27966 ScalPx= 1.00D+00
 NEqPCM:  Using equilibrium solvation (IEInf=0, Eps=  24.8520, EpsInf=   1.8526)
 G2PCM: DoFxE=T DoFxN=T DoGrad=T DoDP/DQ/DG/TGxP=TFFF NFrqRd=   0 IEInf=0 SqF1=F DoCFld=F IF1Alg=4.
 GePol: Maximum number of non-zero 1st derivatives   =     224
 End of G2Drv F.D. properties file   721 does not exist.
 End of G2Drv F.D. properties file   722 does not exist.
 End of G2Drv F.D. properties file   788 does not exist.
 Leave Link 1110 at Fri Jun  2 11:10:55 2023, MaxMem=  7381975040 cpu:             665.0 elap:             338.2
 (Enter /software/commercial/gaussian/g16/AVX/g16/l1002.exe)
 Minotr:  Closed shell wavefunction.
          IDoAtm=111111111111111111
 NEqPCM:  Using equilibrium solvation (IEInf=0, Eps=  24.8520, EpsInf=   1.8526)
          Direct CPHF calculation.
          Differentiating once with respect to electric field.
                with respect to dipole field.
          Differentiating once with respect to nuclear coordinates.
          Requested convergence is 1.0D-08 RMS, and 1.0D-07 maximum.
          Secondary convergence is 1.0D-12 RMS, and 1.0D-12 maximum.
          NewPWx=T KeepS1=F KeepF1=F KeepIn=T MapXYZ=F SortEE=F KeepMc=T.
         5561 words used for storage of precomputed grid.
 Keep R1 ints in memory in canonical form, NReq=398424768.
 FoFCou: FMM=F IPFlag=           0 FMFlag=           0 FMFlg1=           0
         NFxFlg=           0 DoJE=F BraDBF=F KetDBF=F FulRan=T
         wScrn=  0.000000 ICntrl=       600 IOpCl=  0 I1Cent=           0 NGrid=           0
         NMat0=    1 NMatS0=  27966 NMatT0=    0 NMatD0=    1 NMtDS0=    0 NMtDT0=    0
 Symmetry not used in FoFCou.
 Two-electron integral symmetry not used.
          MDV=    7381975040 using IRadAn=       1.
          Solving linear equations simultaneously, MaxMat=       0.
          There are    57 degrees of freedom in the 1st order CPHF.  IDoFFX=5 NUNeed=    57.
 Will reuse    3 saved solutions.
     51 vectors produced by pass  0 Test12= 1.08D-14 1.75D-09 XBig12= 1.15D-01 7.07D-02.
 AX will form    51 AO Fock derivatives at one time.
     51 vectors produced by pass  1 Test12= 1.08D-14 1.75D-09 XBig12= 2.42D-02 4.07D-02.
     51 vectors produced by pass  2 Test12= 1.08D-14 1.75D-09 XBig12= 1.80D-04 1.69D-03.
     51 vectors produced by pass  3 Test12= 1.08D-14 1.75D-09 XBig12= 6.84D-07 1.22D-04.
     51 vectors produced by pass  4 Test12= 1.08D-14 1.75D-09 XBig12= 1.22D-09 4.48D-06.
     38 vectors produced by pass  5 Test12= 1.08D-14 1.75D-09 XBig12= 1.71D-12 1.38D-07.
     13 vectors produced by pass  6 Test12= 1.08D-14 1.75D-09 XBig12= 2.62D-15 8.40D-09.
 InvSVY:  IOpt=1 It=  1 EMax= 4.44D-16
 Solved reduced A of dimension   306 with    57 vectors.
 FullF1:  Do perturbations      1 to       3.
 Isotropic polarizability for W=    0.000000      113.29 Bohr**3.
 FullF1:  Do perturbations      1 to       6.
 End of Minotr F.D. properties file   721 does not exist.
 End of Minotr F.D. properties file   722 does not exist.
 End of Minotr F.D. properties file   788 does not exist.
 Leave Link 1002 at Fri Jun  2 11:17:50 2023, MaxMem=  7381975040 cpu:             796.6 elap:             412.7
 (Enter /software/commercial/gaussian/g16/AVX/g16/l601.exe)
 Copying SCF densities to generalized density rwf, IOpCl= 0 IROHF=0.

 **********************************************************************

            Population analysis using the SCF Density.

 **********************************************************************

 Alpha  occ. eigenvalues --  -14.36528 -14.36263 -10.21015 -10.20400 -10.20263
 Alpha  occ. eigenvalues --  -10.20180 -10.18877 -10.16543  -1.02880  -0.92110
 Alpha  occ. eigenvalues --   -0.79013  -0.74778  -0.71358  -0.64931  -0.59959
 Alpha  occ. eigenvalues --   -0.57098  -0.52693  -0.47548  -0.46823  -0.45557
 Alpha  occ. eigenvalues --   -0.44757  -0.42687  -0.42036  -0.39688  -0.38172
 Alpha  occ. eigenvalues --   -0.37436  -0.35654  -0.28063  -0.23947  -0.23498
 Alpha virt. eigenvalues --    0.00517   0.00816   0.01311   0.01759   0.02987
 Alpha virt. eigenvalues --    0.03737   0.04573   0.04817   0.05180   0.06364
 Alpha virt. eigenvalues --    0.06907   0.07320   0.07637   0.08252   0.08673
 Alpha virt. eigenvalues --    0.10133   0.10418   0.11113   0.12196   0.12630
 Alpha virt. eigenvalues --    0.13163   0.14463   0.15436   0.15797   0.16385
 Alpha virt. eigenvalues --    0.17571   0.18407   0.19123   0.19824   0.20106
 Alpha virt. eigenvalues --    0.20829   0.21086   0.21360   0.21914   0.22552
 Alpha virt. eigenvalues --    0.23206   0.24147   0.24772   0.24908   0.26322
 Alpha virt. eigenvalues --    0.26668   0.27100   0.28356   0.29740   0.30199
 Alpha virt. eigenvalues --    0.31186   0.32615   0.37790   0.39579   0.40296
 Alpha virt. eigenvalues --    0.41543   0.42371   0.43620   0.45479   0.46337
 Alpha virt. eigenvalues --    0.47768   0.50340   0.50459   0.53565   0.55068
 Alpha virt. eigenvalues --    0.55964   0.56825   0.58705   0.59983   0.60415
 Alpha virt. eigenvalues --    0.61723   0.63900   0.64732   0.65760   0.66617
 Alpha virt. eigenvalues --    0.67670   0.68236   0.68641   0.70532   0.72418
 Alpha virt. eigenvalues --    0.73276   0.75406   0.76678   0.78140   0.81737
 Alpha virt. eigenvalues --    0.82830   0.83586   0.86121   0.87943   0.91995
 Alpha virt. eigenvalues --    0.95623   0.95898   0.98591   1.00458   1.03438
 Alpha virt. eigenvalues --    1.05401   1.06752   1.08548   1.08772   1.18702
 Alpha virt. eigenvalues --    1.21191   1.23753   1.26836   1.30159   1.31865
 Alpha virt. eigenvalues --    1.34986   1.40821   1.43688   1.44772   1.46615
 Alpha virt. eigenvalues --    1.46801   1.50313   1.51034   1.53688   1.54730
 Alpha virt. eigenvalues --    1.55350   1.56756   1.59101   1.61015   1.61766
 Alpha virt. eigenvalues --    1.63201   1.65354   1.66401   1.67714   1.70203
 Alpha virt. eigenvalues --    1.74045   1.74980   1.76227   1.77165   1.78622
 Alpha virt. eigenvalues --    1.80544   1.81575   1.84626   1.86493   1.92826
 Alpha virt. eigenvalues --    1.95940   1.98252   2.02028   2.03770   2.04932
 Alpha virt. eigenvalues --    2.08865   2.10817   2.12705   2.14392   2.18724
 Alpha virt. eigenvalues --    2.23257   2.24126   2.29477   2.30368   2.39881
 Alpha virt. eigenvalues --    2.41304   2.42773   2.44009   2.48056   2.48908
 Alpha virt. eigenvalues --    2.50151   2.52044   2.52133   2.53416   2.54410
 Alpha virt. eigenvalues --    2.56016   2.58463   2.61148   2.62294   2.62810
 Alpha virt. eigenvalues --    2.65066   2.65615   2.67131   2.70641   2.73371
 Alpha virt. eigenvalues --    2.77680   2.79770   2.80603   2.83118   2.85223
 Alpha virt. eigenvalues --    2.87114   2.94474   2.95133   2.95814   2.97776
 Alpha virt. eigenvalues --    3.00331   3.21809   3.28945   3.35937   3.40803
 Alpha virt. eigenvalues --    3.59305   3.61122   3.67354   3.69515   3.74035
 Alpha virt. eigenvalues --    3.77970   3.80441   3.81670   3.84187   3.87421
 Alpha virt. eigenvalues --    3.92130   3.93826   4.12520   4.23022   4.65808
 Alpha virt. eigenvalues --    4.94001   4.95067   5.23505  23.73208  23.81582
 Alpha virt. eigenvalues --   23.86547  23.92138  23.96994  24.21352  35.46816
 Alpha virt. eigenvalues --   35.58846
     Molecular Orbital Coefficients:
                           1         2         3         4         5
                           O         O         O         O         O
     Eigenvalues --   -14.36528 -14.36263 -10.21015 -10.20400 -10.20263
   1 1   C  1S         -0.00000   0.00001   0.56302   0.00008   0.00024
   2        2S          0.00000  -0.00001   0.46323   0.00007   0.00021
   3        2PX        -0.00001  -0.00007  -0.00011  -0.00000   0.00003
   4        2PY        -0.00000  -0.00031  -0.00068  -0.00002  -0.00000
   5        2PZ        -0.00003  -0.00013  -0.00049  -0.00001   0.00002
   6        3S          0.00005  -0.00009   0.01948  -0.00009  -0.00030
   7        3PX         0.00004  -0.00006  -0.00065   0.00001  -0.00017
   8        3PY         0.00001   0.00062   0.00104   0.00011  -0.00001
   9        3PZ         0.00011   0.00042   0.00164   0.00005   0.00001
  10        4S         -0.00047   0.00491  -0.01809  -0.00004   0.00384
  11        4PX         0.00068  -0.00054   0.00015   0.00015  -0.00020
  12        4PY        -0.00049  -0.00163   0.00179   0.00019  -0.00104
  13        4PZ         0.00073  -0.00089   0.00256  -0.00029  -0.00088
  14        5S         -0.01531  -0.00326  -0.03705  -0.00301  -0.00198
  15        5PX        -0.00051  -0.00169  -0.00239   0.00014  -0.00302
  16        5PY         0.00318  -0.00099   0.00391   0.00071  -0.00177
  17        5PZ         0.00168   0.00111   0.00504   0.00028   0.00024
  18        6D 0        0.00004   0.00017   0.00048   0.00002   0.00004
  19        6D+1       -0.00001  -0.00010   0.00029   0.00001   0.00008
  20        6D-1       -0.00008  -0.00027  -0.00039  -0.00000   0.00004
  21        6D+2       -0.00003   0.00037   0.00039   0.00002   0.00005
  22        6D-2       -0.00001  -0.00033  -0.00085  -0.00002  -0.00000
  23 2   N  1S         -0.00194   0.55736  -0.00003   0.00000  -0.00004
  24        2S         -0.00156   0.46571  -0.00005   0.00000  -0.00004
  25        2PX         0.00000  -0.00002   0.00007   0.00001  -0.00018
  26        2PY        -0.00003   0.00023   0.00021  -0.00000  -0.00009
  27        2PZ         0.00001  -0.00009   0.00011   0.00002  -0.00028
  28        3S         -0.00044   0.01621   0.00025   0.00003   0.00052
  29        3PX         0.00004  -0.00011  -0.00005  -0.00006   0.00035
  30        3PY         0.00031  -0.00069  -0.00014  -0.00001   0.00036
  31        3PZ        -0.00000  -0.00021  -0.00018  -0.00008   0.00054
  32        4S          0.00089  -0.01610   0.00205  -0.00060  -0.00038
  33        4PX        -0.00102   0.00030   0.00013   0.00043  -0.00004
  34        4PY         0.00027   0.00045   0.00054   0.00048  -0.00253
  35        4PZ        -0.00144   0.00078  -0.00012   0.00066   0.00023
  36        5S         -0.01142   0.01601   0.00476   0.00559   0.01368
  37        5PX         0.00307  -0.00160   0.00489  -0.00021  -0.00509
  38        5PY         0.01183  -0.00819   0.01902  -0.00290  -0.00847
  39        5PZ         0.00389  -0.00203   0.00434  -0.00062  -0.00786
  40        6D 0       -0.00002   0.00005   0.00013  -0.00002  -0.00036
  41        6D+1       -0.00001   0.00036  -0.00001  -0.00004  -0.00059
  42        6D-1        0.00020  -0.00010  -0.00027   0.00002  -0.00019
  43        6D+2       -0.00001  -0.00025   0.00024   0.00000  -0.00007
  44        6D-2        0.00012  -0.00000  -0.00016   0.00002  -0.00013
  45 3   C  1S         -0.00001  -0.00001  -0.00010  -0.00012  -0.00026
  46        2S          0.00011   0.00011  -0.00005  -0.00008  -0.00020
  47        2PX        -0.00015  -0.00007   0.00002  -0.00002   0.00006
  48        2PY        -0.00033   0.00039   0.00005  -0.00002  -0.00001
  49        2PZ        -0.00022  -0.00014  -0.00000  -0.00002   0.00009
  50        3S          0.00007   0.00009  -0.00024  -0.00018  -0.00011
  51        3PX         0.00035   0.00014  -0.00007   0.00011  -0.00011
  52        3PY         0.00087  -0.00100  -0.00036   0.00021   0.00002
  53        3PZ         0.00048   0.00029   0.00001   0.00013  -0.00016
  54        4S          0.00348   0.00302   0.00035   0.00017  -0.00467
  55        4PX        -0.00113  -0.00092  -0.00007  -0.00032   0.00123
  56        4PY        -0.00040   0.00077   0.00114  -0.00059  -0.00043
  57        4PZ        -0.00182  -0.00163  -0.00040  -0.00037   0.00192
  58        5S         -0.00328  -0.00431   0.00289   0.00589  -0.00646
  59        5PX         0.00137   0.00056   0.00038  -0.00064   0.00182
  60        5PY         0.00407  -0.00289   0.00146  -0.00006   0.00137
  61        5PZ         0.00192   0.00127   0.00054  -0.00088   0.00246
  62        6D 0       -0.00015   0.00014  -0.00001  -0.00005   0.00014
  63        6D+1       -0.00037  -0.00009   0.00007   0.00001   0.00014
  64        6D-1       -0.00069   0.00071   0.00005  -0.00004  -0.00007
  65        6D+2       -0.00000   0.00038  -0.00004  -0.00009   0.00010
  66        6D-2       -0.00045   0.00042   0.00004  -0.00002  -0.00005
  67 4   N  1S          0.55736   0.00193  -0.00000  -0.00003  -0.00002
  68        2S          0.46570   0.00167  -0.00000  -0.00006   0.00000
  69        2PX        -0.00010   0.00001   0.00001   0.00002  -0.00011
  70        2PY        -0.00025   0.00002   0.00001  -0.00022   0.00011
  71        2PZ        -0.00012   0.00002   0.00002   0.00005  -0.00018
  72        3S          0.01622  -0.00032   0.00012   0.00039   0.00018
  73        3PX         0.00004  -0.00006  -0.00004  -0.00004   0.00027
  74        3PY         0.00075  -0.00028  -0.00004   0.00003  -0.00042
  75        3PZ        -0.00000  -0.00007  -0.00010  -0.00006   0.00046
  76        4S         -0.01642   0.00056  -0.00140   0.00104  -0.00041
  77        4PX         0.00020  -0.00085   0.00035  -0.00021   0.00059
  78        4PY        -0.00079   0.00025  -0.00027   0.00105   0.00234
  79        4PZ         0.00038  -0.00135   0.00072  -0.00043   0.00070
  80        5S          0.01615  -0.00990   0.01191   0.00439  -0.00104
  81        5PX         0.00063   0.00047   0.00085  -0.00055  -0.00155
  82        5PY         0.01353  -0.00833   0.00955  -0.01218   0.00432
  83        5PZ        -0.00028   0.00146   0.00142   0.00035  -0.00250
  84        6D 0        0.00007  -0.00009  -0.00003   0.00021  -0.00024
  85        6D+1        0.00038  -0.00008  -0.00005   0.00006  -0.00036
  86        6D-1        0.00001  -0.00015  -0.00001   0.00009   0.00030
  87        6D+2       -0.00024  -0.00010   0.00000   0.00031  -0.00004
  88        6D-2        0.00005  -0.00009  -0.00001   0.00002   0.00018
  89 5   C  1S          0.00001  -0.00000  -0.00008   0.56299   0.00089
  90        2S         -0.00003   0.00001  -0.00006   0.46317   0.00074
  91        2PX        -0.00001  -0.00001   0.00001  -0.00007   0.00002
  92        2PY         0.00036   0.00001   0.00001   0.00087  -0.00000
  93        2PZ        -0.00005  -0.00002  -0.00000  -0.00019   0.00003
  94        3S          0.00003  -0.00001  -0.00014   0.01951  -0.00023
  95        3PX        -0.00001   0.00004  -0.00002   0.00015  -0.00005
  96        3PY        -0.00085  -0.00006  -0.00007  -0.00192   0.00001
  97        3PZ         0.00009   0.00008   0.00000   0.00041  -0.00009
  98        4S          0.00577   0.00011   0.00089  -0.01093   0.00382
  99        4PX        -0.00017   0.00034  -0.00010   0.00038  -0.00010
 100        4PY         0.00217   0.00024   0.00017  -0.00151   0.00135
 101        4PZ        -0.00051   0.00042  -0.00068   0.00064  -0.00038
 102        5S          0.00780  -0.00557  -0.00087  -0.01336   0.00881
 103        5PX         0.00007  -0.00017   0.00007   0.00025  -0.00039
 104        5PY         0.00222  -0.00181  -0.00030  -0.00346   0.00269
 105        5PZ        -0.00017  -0.00011   0.00002   0.00063  -0.00074
 106        6D 0        0.00027   0.00002   0.00002   0.00050   0.00004
 107        6D+1       -0.00009   0.00002  -0.00001   0.00003   0.00004
 108        6D-1        0.00018   0.00008  -0.00000   0.00031  -0.00008
 109        6D+2        0.00056   0.00003   0.00000   0.00087   0.00002
 110        6D-2        0.00004   0.00005  -0.00002   0.00009  -0.00006
 111 6   C  1S          0.00001  -0.00001  -0.00009  -0.00093   0.28038
 112        2S          0.00002   0.00006  -0.00005  -0.00076   0.23096
 113        2PX         0.00021   0.00000  -0.00001   0.00002   0.00021
 114        2PY        -0.00022   0.00007   0.00003  -0.00000   0.00042
 115        2PZ         0.00034  -0.00001  -0.00002   0.00004   0.00030
 116        3S          0.00042  -0.00039  -0.00020  -0.00011   0.00942
 117        3PX        -0.00050  -0.00024   0.00003  -0.00019  -0.00069
 118        3PY         0.00069  -0.00084  -0.00024   0.00004  -0.00249
 119        3PZ        -0.00083  -0.00028   0.00008  -0.00030  -0.00086
 120        4S          0.00371  -0.00237   0.00302  -0.00136  -0.00474
 121        4PX         0.00254  -0.00160   0.00098  -0.00083  -0.00063
 122        4PY         0.00043  -0.00089   0.00134  -0.00124  -0.00018
 123        4PZ         0.00395  -0.00249   0.00126  -0.00121  -0.00099
 124        5S         -0.01668   0.02278  -0.00547   0.00602   0.00572
 125        5PX        -0.00142   0.00235   0.00164  -0.00066   0.00065
 126        5PY        -0.00176   0.00344  -0.00351   0.00155   0.00470
 127        5PZ        -0.00214   0.00289   0.00186  -0.00113   0.00014
 128        6D 0       -0.00053   0.00029   0.00004  -0.00006   0.00084
 129        6D+1       -0.00044   0.00025   0.00003   0.00002   0.00072
 130        6D-1        0.00054   0.00015  -0.00005   0.00013   0.00010
 131        6D+2       -0.00043   0.00028   0.00002  -0.00011   0.00081
 132        6D-2        0.00037   0.00007  -0.00004   0.00010   0.00001
 133 7   C  1S         -0.00001   0.00001  -0.00023  -0.00049   0.48801
 134        2S          0.00006   0.00002  -0.00018  -0.00039   0.40166
 135        2PX        -0.00002   0.00024   0.00003  -0.00001   0.00027
 136        2PY        -0.00006   0.00007   0.00001  -0.00001  -0.00005
 137        2PZ        -0.00003   0.00038   0.00004  -0.00001   0.00041
 138        3S         -0.00041   0.00039  -0.00014  -0.00012   0.01722
 139        3PX        -0.00000  -0.00063  -0.00022   0.00007  -0.00046
 140        3PY         0.00091  -0.00032  -0.00003   0.00012   0.00056
 141        3PZ        -0.00009  -0.00095  -0.00032   0.00010  -0.00071
 142        4S         -0.00215   0.00425  -0.00055   0.00250  -0.01239
 143        4PX        -0.00146   0.00222  -0.00040   0.00031  -0.00126
 144        4PY         0.00174  -0.00189   0.00215  -0.00161   0.00333
 145        4PZ        -0.00248   0.00351  -0.00072   0.00071  -0.00240
 146        5S          0.01819  -0.02159   0.00999  -0.00335  -0.02240
 147        5PX         0.00097  -0.00155  -0.00230   0.00112  -0.00203
 148        5PY        -0.00275   0.00342  -0.00245   0.00137   0.00104
 149        5PZ         0.00197  -0.00172  -0.00157   0.00169  -0.00259
 150        6D 0        0.00018  -0.00067  -0.00010   0.00003  -0.00002
 151        6D+1        0.00016  -0.00054   0.00001   0.00001   0.00079
 152        6D-1       -0.00036  -0.00008  -0.00015   0.00002  -0.00094
 153        6D+2        0.00013  -0.00061  -0.00022   0.00004  -0.00090
 154        6D-2       -0.00024  -0.00001  -0.00004   0.00001  -0.00048
 155 8   C  1S          0.00000  -0.00000   0.00144   0.00000  -0.00000
 156        2S         -0.00000   0.00002   0.00115   0.00000  -0.00000
 157        2PX         0.00001  -0.00007  -0.00034  -0.00000  -0.00001
 158        2PY        -0.00001  -0.00004  -0.00013   0.00000  -0.00001
 159        2PZ         0.00000   0.00005   0.00030  -0.00000   0.00002
 160        3S          0.00002  -0.00009   0.00036   0.00003   0.00004
 161        3PX        -0.00004   0.00040   0.00081   0.00000   0.00005
 162        3PY         0.00002   0.00026   0.00031  -0.00002   0.00007
 163        3PZ        -0.00003  -0.00027  -0.00078   0.00002  -0.00010
 164        4S         -0.00033  -0.00014   0.00427  -0.00020  -0.00061
 165        4PX        -0.00011   0.00009  -0.00106   0.00021   0.00021
 166        4PY         0.00011  -0.00016  -0.00013   0.00034   0.00028
 167        4PZ        -0.00058   0.00001   0.00058   0.00004   0.00040
 168        5S          0.00504   0.00716   0.01899   0.00079   0.00776
 169        5PX        -0.00081  -0.00144  -0.00346  -0.00016  -0.00146
 170        5PY        -0.00106  -0.00135  -0.00247  -0.00012  -0.00103
 171        5PZ         0.00042   0.00063   0.00175   0.00010   0.00089
 172        6D 0        0.00000   0.00002  -0.00001  -0.00000   0.00001
 173        6D+1        0.00002   0.00009   0.00069   0.00000  -0.00002
 174        6D-1        0.00002   0.00013   0.00032   0.00001   0.00003
 175        6D+2        0.00002  -0.00010  -0.00040  -0.00001  -0.00002
 176        6D-2       -0.00000  -0.00008  -0.00032   0.00001   0.00001
 177 9   H  1S          0.00003   0.00000   0.00007   0.00001   0.00005
 178        2S         -0.00056  -0.00106  -0.00301  -0.00006  -0.00052
 179        3S         -0.00062   0.00096   0.00237   0.00053   0.00273
 180        4PX        -0.00001   0.00010   0.00067  -0.00001   0.00001
 181        4PY        -0.00002  -0.00002  -0.00042   0.00001  -0.00002
 182        4PZ         0.00006   0.00028   0.00206   0.00001   0.00007
 183 10  H  1S         -0.00001   0.00000   0.00003   0.00001   0.00002
 184        2S          0.00024  -0.00127  -0.00229  -0.00007  -0.00050
 185        3S         -0.00081   0.00147   0.00208   0.00038   0.00096
 186        4PX         0.00003  -0.00026  -0.00163  -0.00001  -0.00004
 187        4PY         0.00000   0.00026   0.00126   0.00001   0.00009
 188        4PZ        -0.00004  -0.00001  -0.00023   0.00002   0.00008
 189 11  H  1S          0.00001   0.00000   0.00000   0.00016   0.00004
 190        2S         -0.00106  -0.00029  -0.00003  -0.00336  -0.00045
 191        3S          0.00103  -0.00073   0.00110   0.00194   0.00099
 192        4PX         0.00015   0.00002  -0.00002   0.00120   0.00004
 193        4PY        -0.00009   0.00001  -0.00000  -0.00023  -0.00001
 194        4PZ         0.00024   0.00003   0.00001   0.00181   0.00007
 195 12  H  1S          0.00000  -0.00000   0.00004   0.00016   0.00002
 196        2S         -0.00126  -0.00000  -0.00037  -0.00307  -0.00041
 197        3S          0.00144  -0.00066   0.00099   0.00215  -0.00012
 198        4PX         0.00015  -0.00003   0.00004   0.00089   0.00007
 199        4PY        -0.00021  -0.00002  -0.00003  -0.00082  -0.00006
 200        4PZ        -0.00027  -0.00002  -0.00004  -0.00171  -0.00003
 201 13  H  1S          0.00000   0.00000   0.00002   0.00016   0.00002
 202        2S         -0.00127  -0.00002  -0.00018  -0.00304  -0.00033
 203        3S          0.00150  -0.00050   0.00105   0.00223  -0.00021
 204        4PX        -0.00033  -0.00001  -0.00002  -0.00198  -0.00005
 205        4PY        -0.00018  -0.00001  -0.00002  -0.00063  -0.00005
 206        4PZ         0.00005  -0.00004   0.00004   0.00023   0.00006
 207 14  H  1S         -0.00016  -0.00001  -0.00001   0.00003  -0.00003
 208        2S          0.00034  -0.00107   0.00014  -0.00071  -0.00298
 209        3S          0.00189  -0.00089   0.00097  -0.00143   0.00182
 210        4PX        -0.00017  -0.00014   0.00001  -0.00013  -0.00075
 211        4PY         0.00016  -0.00024  -0.00003   0.00001  -0.00099
 212        4PZ        -0.00028  -0.00019   0.00003  -0.00021  -0.00109
 213 15  H  1S         -0.00000  -0.00015   0.00008  -0.00001   0.00006
 214        2S         -0.00120   0.00013  -0.00119   0.00019  -0.00462
 215        3S         -0.00096   0.00205  -0.00096   0.00052   0.00191
 216        4PX        -0.00008  -0.00021  -0.00015   0.00002  -0.00079
 217        4PY         0.00032  -0.00003   0.00008  -0.00000   0.00183
 218        4PZ        -0.00015  -0.00033  -0.00026   0.00002  -0.00139
 219 16  H  1S          0.00000   0.00004  -0.00007  -0.00001  -0.00003
 220        2S          0.00004  -0.00024  -0.00074   0.00012   0.00029
 221        3S         -0.00023  -0.00037  -0.00061  -0.00021   0.00001
 222        4PX         0.00002   0.00014   0.00018  -0.00001  -0.00002
 223        4PY         0.00002  -0.00001  -0.00021   0.00000  -0.00001
 224        4PZ         0.00001   0.00001   0.00007  -0.00000  -0.00000
 225 17  H  1S         -0.00002  -0.00004  -0.00003   0.00001  -0.00001
 226        2S          0.00010  -0.00006  -0.00103  -0.00008  -0.00000
 227        3S          0.00006   0.00024  -0.00077  -0.00016  -0.00014
 228        4PX         0.00001  -0.00001   0.00010   0.00000  -0.00002
 229        4PY        -0.00004   0.00006   0.00033   0.00001   0.00001
 230        4PZ         0.00003   0.00005   0.00017   0.00001  -0.00000
 231 18  H  1S          0.00003   0.00004  -0.00004  -0.00002  -0.00000
 232        2S         -0.00027  -0.00022  -0.00098   0.00014   0.00018
 233        3S         -0.00058   0.00007  -0.00101  -0.00015   0.00012
 234        4PX         0.00000   0.00001  -0.00013  -0.00000   0.00006
 235        4PY         0.00001   0.00009   0.00005  -0.00001   0.00003
 236        4PZ        -0.00004  -0.00011  -0.00031   0.00002  -0.00001
                           6         7         8         9        10
                           O         O         O         O         O
     Eigenvalues --   -10.20180 -10.18877 -10.16543  -1.02880  -0.92110
   1 1   C  1S         -0.00004   0.00010  -0.00146  -0.01726   0.03821
   2        2S         -0.00002   0.00010  -0.00124  -0.02649   0.05884
   3        2PX        -0.00001  -0.00001   0.00036  -0.00520   0.00845
   4        2PY        -0.00001   0.00001   0.00016  -0.01583   0.02635
   5        2PZ        -0.00000  -0.00006  -0.00028  -0.00615   0.01180
   6        3S         -0.00015  -0.00024   0.00050   0.06796  -0.15356
   7        3PX         0.00001  -0.00001  -0.00074  -0.00741   0.01142
   8        3PY         0.00005   0.00007  -0.00017  -0.02648   0.04333
   9        3PZ         0.00005   0.00023   0.00072  -0.01173   0.02174
  10        4S          0.00088   0.00061  -0.00031   0.02407  -0.04641
  11        4PX        -0.00035   0.00103   0.00193  -0.00410  -0.00089
  12        4PY        -0.00007   0.00057   0.00186  -0.00163   0.00107
  13        4PZ        -0.00060  -0.00097  -0.00023  -0.00146   0.00130
  14        5S         -0.00698  -0.01890   0.01895   0.11887   0.00977
  15        5PX         0.00049  -0.00315   0.00299   0.01889  -0.00387
  16        5PY         0.00171   0.00095   0.00121  -0.00869  -0.00853
  17        5PZ         0.00081   0.00327  -0.00363  -0.01755   0.00088
  18        6D 0       -0.00000   0.00002   0.00013  -0.00262   0.00375
  19        6D+1        0.00001  -0.00002   0.00050   0.00132  -0.00195
  20        6D-1        0.00001  -0.00014   0.00015   0.00418  -0.00647
  21        6D+2        0.00003  -0.00003  -0.00020  -0.00485   0.00731
  22        6D-2       -0.00001  -0.00009  -0.00045   0.00382  -0.00650
  23 2   N  1S          0.00002  -0.00005   0.00000  -0.06879   0.07455
  24        2S          0.00007  -0.00002   0.00002  -0.10791   0.11744
  25        2PX         0.00005   0.00011   0.00002  -0.00560  -0.00127
  26        2PY         0.00008  -0.00044   0.00006  -0.02533  -0.01541
  27        2PZ         0.00008   0.00021   0.00001  -0.00857   0.00270
  28        3S         -0.00050   0.00051  -0.00014   0.29400  -0.32614
  29        3PX         0.00009  -0.00030  -0.00013  -0.00848  -0.00198
  30        3PY        -0.00018   0.00112  -0.00032  -0.03602  -0.02534
  31        3PZ         0.00014  -0.00056  -0.00004  -0.01318   0.00426
  32        4S         -0.00059  -0.00178   0.00073   0.20101  -0.23957
  33        4PX        -0.00005  -0.00015   0.00025  -0.00250  -0.00164
  34        4PY        -0.00036   0.00068   0.00122  -0.01617  -0.02279
  35        4PZ         0.00003  -0.00002   0.00001  -0.00580   0.00275
  36        5S         -0.02462   0.01698  -0.00002  -0.08754   0.14791
  37        5PX         0.00389   0.00437   0.00207  -0.00443  -0.01623
  38        5PY         0.01493  -0.00438   0.01217  -0.00955  -0.06531
  39        5PZ         0.00529   0.00592   0.00090  -0.00046  -0.02505
  40        6D 0       -0.00002   0.00024   0.00003  -0.00082  -0.00094
  41        6D+1        0.00014  -0.00023  -0.00003   0.00657  -0.00596
  42        6D-1        0.00019   0.00072  -0.00003   0.00069  -0.00080
  43        6D+2       -0.00015   0.00069   0.00003  -0.00741   0.00356
  44        6D-2        0.00014   0.00038  -0.00000   0.00167  -0.00171
  45 3   C  1S         -0.00008   0.56296  -0.00002  -0.04732  -0.00043
  46        2S         -0.00006   0.46360  -0.00002  -0.07219  -0.00065
  47        2PX         0.00001  -0.00107  -0.00002  -0.02542  -0.00683
  48        2PY        -0.00001   0.00030   0.00000   0.00767  -0.05241
  49        2PZ         0.00002  -0.00172  -0.00000  -0.04092  -0.00627
  50        3S         -0.00006   0.01767   0.00012   0.18312   0.00170
  51        3PX        -0.00002  -0.00077   0.00009  -0.03904  -0.01004
  52        3PY        -0.00001   0.00036   0.00006   0.01170  -0.07687
  53        3PZ        -0.00004  -0.00129  -0.00001  -0.06290  -0.00913
  54        4S         -0.00131  -0.01627   0.00028   0.05860  -0.00094
  55        4PX         0.00045   0.00055  -0.00054  -0.00012  -0.00094
  56        4PY         0.00090  -0.00110  -0.00033   0.00056  -0.01002
  57        4PZ         0.00063   0.00112  -0.00005   0.00030  -0.00123
  58        5S         -0.00187  -0.02801   0.00049   0.08355  -0.00699
  59        5PX         0.00059   0.00362  -0.00066  -0.01748  -0.00229
  60        5PY         0.00126   0.00003  -0.00069  -0.00827  -0.01828
  61        5PZ         0.00080   0.00600   0.00008  -0.02767   0.00006
  62        6D 0        0.00005  -0.00011   0.00001   0.00333   0.00364
  63        6D+1        0.00004   0.00060   0.00002   0.01294   0.00371
  64        6D-1        0.00001   0.00007   0.00004  -0.00151   0.01803
  65        6D+2        0.00003  -0.00076   0.00004  -0.00662   0.00487
  66        6D-2        0.00001   0.00012  -0.00004   0.00017   0.01099
  67 4   N  1S         -0.00004  -0.00005  -0.00000  -0.06895  -0.07529
  68        2S         -0.00008  -0.00002  -0.00000  -0.10817  -0.11861
  69        2PX        -0.00010   0.00021   0.00000  -0.00010  -0.00420
  70        2PY         0.00019   0.00035   0.00001   0.02716  -0.01268
  71        2PZ        -0.00017   0.00030  -0.00000  -0.00208  -0.00502
  72        3S          0.00070   0.00049   0.00000   0.29492   0.32973
  73        3PX         0.00001  -0.00054  -0.00001  -0.00075  -0.00694
  74        3PY        -0.00039  -0.00090  -0.00007   0.03893  -0.02110
  75        3PZ         0.00004  -0.00077   0.00002  -0.00383  -0.00833
  76        4S          0.00029  -0.00191  -0.00043   0.20284   0.24252
  77        4PX         0.00035  -0.00028   0.00002  -0.00000  -0.00498
  78        4PY         0.00098  -0.00058   0.00063   0.01656  -0.02042
  79        4PZ         0.00048  -0.00039  -0.00018  -0.00128  -0.00551
  80        5S          0.02677   0.00846   0.00572  -0.08409  -0.13093
  81        5PX        -0.00120   0.00416   0.00098  -0.00360   0.00218
  82        5PY         0.02095   0.00426   0.00647  -0.03451  -0.07972
  83        5PZ        -0.00383   0.00638   0.00092  -0.00417   0.01132
  84        6D 0       -0.00004  -0.00006   0.00001  -0.00099   0.00054
  85        6D+1       -0.00031  -0.00051   0.00001   0.00639   0.00551
  86        6D-1        0.00035  -0.00077  -0.00000  -0.00029  -0.00184
  87        6D+2        0.00026   0.00029  -0.00000  -0.00777  -0.00451
  88        6D-2        0.00018  -0.00053   0.00000   0.00087  -0.00042
  89 5   C  1S          0.00057   0.00012   0.00000  -0.01690  -0.03562
  90        2S          0.00047   0.00011  -0.00000  -0.02592  -0.05478
  91        2PX         0.00001  -0.00003   0.00001  -0.00058  -0.00138
  92        2PY        -0.00001   0.00000  -0.00002   0.01787   0.03053
  93        2PZ         0.00002  -0.00006  -0.00001  -0.00263  -0.00519
  94        3S         -0.00002  -0.00012  -0.00003   0.06655   0.14225
  95        3PX        -0.00003   0.00007  -0.00003  -0.00102  -0.00230
  96        3PY         0.00007  -0.00010   0.00008   0.03039   0.05126
  97        3PZ        -0.00006   0.00015   0.00002  -0.00463  -0.00856
  98        4S          0.00139   0.00039   0.00120   0.01532   0.03660
  99        4PX         0.00007  -0.00026   0.00007  -0.00056   0.00014
 100        4PY         0.00040  -0.00021   0.00020   0.00041  -0.00187
 101        4PZ         0.00010  -0.00060  -0.00024  -0.00006  -0.00013
 102        5S          0.01083   0.00322  -0.00236  -0.02732  -0.02559
 103        5PX        -0.00035   0.00017   0.00043   0.00117  -0.00080
 104        5PY         0.00328   0.00092  -0.00062  -0.00755  -0.00867
 105        5PZ        -0.00087   0.00005   0.00023   0.00297  -0.00100
 106        6D 0       -0.00000   0.00004  -0.00001  -0.00367  -0.00562
 107        6D+1        0.00003   0.00003  -0.00001   0.00039   0.00082
 108        6D-1       -0.00003   0.00013   0.00001  -0.00215  -0.00366
 109        6D+2       -0.00003   0.00004  -0.00000  -0.00694  -0.01094
 110        6D-2       -0.00001   0.00007  -0.00000  -0.00051  -0.00097
 111 6   C  1S          0.48810   0.00019   0.00000  -0.03800  -0.02454
 112        2S          0.40142   0.00019   0.00001  -0.05819  -0.03771
 113        2PX         0.00015  -0.00002  -0.00000   0.01962   0.01293
 114        2PY        -0.00093  -0.00007   0.00000   0.00470  -0.02500
 115        2PZ         0.00032  -0.00003   0.00002   0.03074   0.02265
 116        3S          0.01803  -0.00027  -0.00003   0.14632   0.09616
 117        3PX         0.00008   0.00001  -0.00002   0.02858   0.02021
 118        3PY         0.00382   0.00018  -0.00003   0.00532  -0.03915
 119        3PZ        -0.00018  -0.00000  -0.00010   0.04483   0.03545
 120        4S         -0.01775   0.00043  -0.00209   0.06069   0.05070
 121        4PX        -0.00309   0.00039   0.00010   0.00231  -0.00021
 122        4PY        -0.00648  -0.00004  -0.00091   0.00280  -0.00076
 123        4PZ        -0.00431   0.00062   0.00041   0.00376  -0.00043
 124        5S         -0.03915   0.01592  -0.01332  -0.02718   0.21279
 125        5PX        -0.00352   0.00183   0.00127  -0.00368   0.02074
 126        5PY        -0.00389   0.00061  -0.00604  -0.01535   0.03365
 127        5PZ        -0.00518   0.00231   0.00246  -0.00065   0.02699
 128        6D 0       -0.00084   0.00008   0.00001   0.00467   0.00617
 129        6D+1        0.00103   0.00017  -0.00001   0.01126   0.00822
 130        6D-1        0.00141   0.00017  -0.00001  -0.00104  -0.00927
 131        6D+2       -0.00222   0.00000   0.00000  -0.00274   0.00177
 132        6D-2        0.00118   0.00011   0.00001   0.00003  -0.00578
 133 7   C  1S         -0.28054   0.00018   0.00000  -0.03801   0.02374
 134        2S         -0.23054   0.00017   0.00000  -0.05821   0.03648
 135        2PX        -0.00027  -0.00000   0.00001   0.01708  -0.01778
 136        2PY        -0.00093   0.00007   0.00000  -0.01581  -0.01636
 137        2PZ        -0.00034  -0.00002  -0.00001   0.02843  -0.02663
 138        3S         -0.01084  -0.00020   0.00007   0.14648  -0.09317
 139        3PX         0.00072  -0.00002  -0.00000   0.02523  -0.02788
 140        3PY         0.00449  -0.00012   0.00002  -0.02172  -0.02529
 141        3PZ         0.00075  -0.00001   0.00007   0.04174  -0.04172
 142        4S          0.01344   0.00012   0.00086   0.05732  -0.04759
 143        4PX         0.00086   0.00017  -0.00073   0.00262   0.00051
 144        4PY        -0.00665  -0.00038  -0.00208  -0.00135  -0.00102
 145        4PZ         0.00189   0.00031  -0.00070   0.00464   0.00066
 146        5S          0.03478  -0.00101   0.01179   0.03939  -0.21394
 147        5PX         0.00172   0.00067  -0.00316   0.00544  -0.01301
 148        5PY        -0.00647   0.00300  -0.00680  -0.00405   0.03775
 149        5PZ         0.00322   0.00194  -0.00429   0.00144  -0.01843
 150        6D 0        0.00142   0.00002   0.00000   0.00436  -0.00855
 151        6D+1       -0.00025   0.00009  -0.00006   0.01087  -0.01041
 152        6D-1        0.00019  -0.00021  -0.00003  -0.00281  -0.00331
 153        6D+2        0.00269  -0.00008  -0.00004  -0.00316  -0.00532
 154        6D-2       -0.00018  -0.00013  -0.00004  -0.00104  -0.00191
 155 8   C  1S         -0.00000   0.00002   0.56295  -0.00380   0.01226
 156        2S          0.00000   0.00001   0.46317  -0.00583   0.01887
 157        2PX        -0.00001  -0.00001  -0.00018  -0.00270   0.00743
 158        2PY        -0.00000   0.00000  -0.00005  -0.00239   0.00566
 159        2PZ        -0.00001  -0.00000   0.00013   0.00100  -0.00336
 160        3S          0.00005   0.00021   0.01955   0.01457  -0.04846
 161        3PX         0.00006   0.00004   0.00116  -0.00562   0.01449
 162        3PY         0.00001  -0.00003   0.00053  -0.00437   0.01003
 163        3PZ         0.00007   0.00007  -0.00086   0.00276  -0.00763
 164        4S         -0.00132  -0.00210  -0.01204   0.00856  -0.02031
 165        4PX         0.00039   0.00067   0.00179  -0.00159   0.00267
 166        4PY        -0.00022   0.00092   0.00151  -0.00299   0.00241
 167        4PZ        -0.00024  -0.00021  -0.00091   0.00107   0.00033
 168        5S          0.00059   0.01465  -0.01832  -0.08714   0.01647
 169        5PX        -0.00021  -0.00238   0.00284   0.01569  -0.00421
 170        5PY        -0.00011  -0.00259   0.00135   0.01453  -0.00328
 171        5PZ        -0.00011   0.00179  -0.00184  -0.00887   0.00205
 172        6D 0       -0.00002  -0.00000   0.00007  -0.00038   0.00080
 173        6D+1       -0.00001  -0.00000   0.00055  -0.00101   0.00240
 174        6D-1        0.00000   0.00004   0.00027  -0.00089   0.00181
 175        6D+2       -0.00001  -0.00002  -0.00032   0.00057  -0.00150
 176        6D-2       -0.00001   0.00001  -0.00038   0.00118  -0.00259
 177 9   H  1S          0.00000  -0.00007  -0.00009   0.00722  -0.01860
 178        2S         -0.00005  -0.00012  -0.00048   0.01156  -0.02421
 179        3S         -0.00090  -0.00044  -0.00207  -0.00612   0.00905
 180        4PX         0.00002  -0.00005   0.00006  -0.00075   0.00186
 181        4PY        -0.00001   0.00004  -0.00005  -0.00009   0.00008
 182        4PZ         0.00002   0.00005   0.00026  -0.00262   0.00557
 183 10  H  1S          0.00002   0.00004  -0.00011   0.00709  -0.01878
 184        2S         -0.00036  -0.00030  -0.00018   0.00904  -0.02478
 185        3S         -0.00155   0.00145  -0.00350  -0.00399   0.01179
 186        4PX        -0.00005  -0.00007  -0.00017   0.00168  -0.00411
 187        4PY         0.00002   0.00001   0.00019  -0.00199   0.00423
 188        4PZ         0.00001   0.00002   0.00001  -0.00008   0.00012
 189 11  H  1S          0.00001  -0.00012   0.00001   0.00702   0.01701
 190        2S         -0.00015   0.00026  -0.00006   0.01013   0.02281
 191        3S          0.00201  -0.00120   0.00035  -0.00292  -0.00998
 192        4PX         0.00000  -0.00001  -0.00000  -0.00127  -0.00269
 193        4PY         0.00002  -0.00003  -0.00002   0.00091   0.00191
 194        4PZ         0.00000   0.00000   0.00001  -0.00200  -0.00418
 195 12  H  1S         -0.00001   0.00004   0.00001   0.00666   0.01694
 196        2S          0.00005  -0.00031  -0.00015   0.00942   0.02277
 197        3S          0.00159   0.00021   0.00061  -0.00217  -0.01257
 198        4PX         0.00000   0.00003   0.00001  -0.00095  -0.00214
 199        4PY        -0.00002  -0.00002  -0.00001   0.00163   0.00317
 200        4PZ         0.00002  -0.00006  -0.00002   0.00179   0.00378
 201 13  H  1S         -0.00000   0.00004   0.00001   0.00665   0.01689
 202        2S          0.00003  -0.00028  -0.00015   0.00926   0.02269
 203        3S          0.00158   0.00036   0.00114  -0.00278  -0.01173
 204        4PX         0.00001  -0.00006  -0.00001   0.00214   0.00458
 205        4PY        -0.00002  -0.00002   0.00001   0.00141   0.00272
 206        4PZ         0.00000   0.00001   0.00001  -0.00031  -0.00075
 207 14  H  1S          0.00019  -0.00007  -0.00001   0.00879   0.01184
 208        2S         -0.00434   0.00008   0.00009   0.00766   0.01203
 209        3S          0.00079   0.00120   0.00043  -0.00434  -0.00471
 210        4PX        -0.00106  -0.00001   0.00001   0.00077   0.00195
 211        4PY        -0.00075  -0.00005   0.00003  -0.00018  -0.00022
 212        4PZ        -0.00157  -0.00001  -0.00001   0.00124   0.00310
 213 15  H  1S         -0.00018  -0.00006  -0.00003   0.00877  -0.01168
 214        2S          0.00223  -0.00001   0.00035   0.00819  -0.01260
 215        3S          0.00024   0.00166  -0.00119  -0.00506   0.00531
 216        4PX         0.00045   0.00001  -0.00003   0.00078  -0.00195
 217        4PY        -0.00044   0.00006   0.00001  -0.00035   0.00092
 218        4PZ         0.00075   0.00001  -0.00001   0.00128  -0.00314
 219 16  H  1S          0.00001  -0.00004   0.00018   0.00197  -0.00657
 220        2S         -0.00012   0.00050  -0.00288   0.00161  -0.00797
 221        3S          0.00014  -0.00119   0.00319   0.00324   0.00043
 222        4PX        -0.00001   0.00002   0.00152  -0.00081   0.00201
 223        4PY        -0.00002   0.00006  -0.00136   0.00008  -0.00074
 224        4PZ        -0.00001  -0.00005   0.00014  -0.00003  -0.00003
 225 17  H  1S         -0.00004  -0.00001   0.00022   0.00112  -0.00490
 226        2S          0.00027   0.00003  -0.00329   0.00176  -0.00689
 227        3S          0.00007  -0.00038   0.00331   0.00108   0.00174
 228        4PX        -0.00004   0.00001   0.00049  -0.00027   0.00074
 229        4PY        -0.00002  -0.00002   0.00184  -0.00052   0.00171
 230        4PZ        -0.00002   0.00003   0.00089  -0.00023   0.00048
 231 18  H  1S         -0.00003  -0.00006   0.00020   0.00194  -0.00671
 232        2S          0.00022   0.00051  -0.00311   0.00238  -0.00807
 233        3S         -0.00048   0.00003   0.00326   0.00281   0.00323
 234        4PX         0.00000  -0.00002  -0.00065  -0.00008  -0.00005
 235        4PY        -0.00001  -0.00008   0.00019  -0.00038   0.00078
 236        4PZ         0.00005   0.00008  -0.00195   0.00069  -0.00199
                          11        12        13        14        15
                           O         O         O         O         O
     Eigenvalues --    -0.79013  -0.74778  -0.71358  -0.64931  -0.59959
   1 1   C  1S         -0.06356  -0.03476   0.01327   0.04715   0.02306
   2        2S         -0.09845  -0.05392   0.02068   0.07362   0.03602
   3        2PX         0.00821   0.01511  -0.02892   0.04099   0.03207
   4        2PY        -0.00595   0.02486  -0.02547   0.03554  -0.02295
   5        2PZ        -0.00850  -0.01226  -0.00367  -0.02756   0.00906
   6        3S          0.26183   0.14348  -0.05551  -0.20364  -0.09849
   7        3PX         0.01543   0.02472  -0.04529   0.06191   0.04794
   8        3PY        -0.01319   0.03745  -0.03852   0.05778  -0.03275
   9        3PZ        -0.01858  -0.02208  -0.00383  -0.03762   0.01500
  10        4S          0.13776   0.08640  -0.04831  -0.09865  -0.07068
  11        4PX         0.00489   0.00988  -0.01399   0.02359   0.02439
  12        4PY         0.00358   0.01497  -0.00884   0.01084  -0.01852
  13        4PZ        -0.00642  -0.00959  -0.00072  -0.02409   0.00863
  14        5S          0.03366  -0.06571   0.04564  -0.13111  -0.08124
  15        5PX        -0.01149  -0.00788   0.00840  -0.01832  -0.00894
  16        5PY        -0.01419   0.00507   0.00106  -0.00349   0.00742
  17        5PZ        -0.00229   0.01271  -0.00942   0.02230   0.00771
  18        6D 0       -0.00230   0.00209  -0.00114   0.00244  -0.00192
  19        6D+1       -0.00272  -0.00347   0.00643  -0.00792  -0.00481
  20        6D-1        0.00059  -0.00160   0.00709  -0.00458  -0.00360
  21        6D+2       -0.00246   0.00668  -0.00426   0.00819  -0.00523
  22        6D-2        0.00435   0.00130   0.00134   0.00090   0.00165
  23 2   N  1S         -0.00480   0.02802  -0.02456   0.00363  -0.01823
  24        2S         -0.00766   0.04444  -0.03907   0.00585  -0.02906
  25        2PX         0.03358  -0.01853  -0.02595  -0.02870   0.05136
  26        2PY         0.05193   0.05476   0.03970  -0.06775  -0.07890
  27        2PZ         0.04150  -0.04145  -0.03661  -0.05949   0.07455
  28        3S          0.02218  -0.12709   0.11370  -0.01761   0.08456
  29        3PX         0.05112  -0.02793  -0.03882  -0.04204   0.07491
  30        3PY         0.07715   0.08042   0.05794  -0.10096  -0.11392
  31        3PZ         0.06364  -0.06222  -0.05440  -0.08811   0.10755
  32        4S          0.02194  -0.10832   0.08678  -0.01851   0.07734
  33        4PX         0.02493  -0.01145  -0.02194  -0.02850   0.05510
  34        4PY         0.04527   0.04857   0.04176  -0.06900  -0.08000
  35        4PZ         0.02894  -0.02872  -0.03061  -0.06124   0.07872
  36        5S          0.02804   0.02337  -0.01386   0.03957   0.03936
  37        5PX        -0.01965   0.00737   0.00897  -0.00120  -0.00940
  38        5PY        -0.05677  -0.00811   0.00838   0.00172  -0.00331
  39        5PZ        -0.01951   0.01585   0.00760   0.00567  -0.01055
  40        6D 0       -0.00445   0.00310   0.00534   0.00278  -0.00233
  41        6D+1       -0.00314   0.00177   0.00410   0.00167  -0.00164
  42        6D-1       -0.00061   0.00644   0.00146  -0.00470  -0.00276
  43        6D+2       -0.00363   0.00477   0.00442   0.00354  -0.00127
  44        6D-2        0.00117   0.00489  -0.00028  -0.00140  -0.00080
  45 3   C  1S         -0.00363   0.05349   0.03568  -0.01759  -0.01008
  46        2S         -0.00569   0.08274   0.05526  -0.02731  -0.01569
  47        2PX         0.00544   0.01981   0.01993  -0.00999   0.00967
  48        2PY        -0.00953  -0.01803   0.01505  -0.01279   0.10571
  49        2PZ         0.00840   0.03146   0.03194  -0.01906   0.00355
  50        3S          0.01717  -0.22516  -0.15084   0.07541   0.04364
  51        3PX         0.00798   0.02929   0.02909  -0.01414   0.01350
  52        3PY        -0.01344  -0.02577   0.02174  -0.01680   0.14746
  53        3PZ         0.01229   0.04628   0.04665  -0.02757   0.00466
  54        4S          0.01147  -0.08318  -0.04981   0.01967   0.01167
  55        4PX         0.00195  -0.00141   0.00102   0.00173   0.00423
  56        4PY        -0.00374  -0.00580   0.01067   0.00446   0.01907
  57        4PZ         0.00313  -0.00140   0.00174   0.00115   0.00305
  58        5S         -0.05179  -0.01267  -0.03288  -0.00389  -0.00537
  59        5PX         0.01150   0.00282   0.00135   0.00135   0.00646
  60        5PY         0.00262   0.00304  -0.00228  -0.01357   0.03532
  61        5PZ         0.01167   0.00036   0.00646   0.00002   0.00499
  62        6D 0       -0.00593   0.00271  -0.00482   0.00298  -0.00304
  63        6D+1       -0.00486  -0.00451  -0.00820   0.00354  -0.00288
  64        6D-1        0.00527   0.00373  -0.00733  -0.00242  -0.02295
  65        6D+2       -0.00529   0.00892  -0.00095   0.00046  -0.00593
  66        6D-2        0.00400   0.00156  -0.00514  -0.00066  -0.01347
  67 4   N  1S         -0.02173   0.00355   0.01958   0.01477   0.03384
  68        2S         -0.03446   0.00563   0.03106   0.02358   0.05405
  69        2PX         0.01305  -0.03983  -0.00950   0.04014  -0.04329
  70        2PY        -0.05657  -0.01331  -0.09379   0.00144  -0.00328
  71        2PZ         0.02558  -0.06248  -0.00608   0.06170  -0.06996
  72        3S          0.09848  -0.01570  -0.08922  -0.06977  -0.15894
  73        3PX         0.02027  -0.05970  -0.01370   0.05864  -0.06241
  74        3PY        -0.08469  -0.01863  -0.13864   0.00073  -0.00373
  75        3PZ         0.03952  -0.09367  -0.00843   0.09015  -0.10112
  76        4S          0.08435  -0.02021  -0.06939  -0.05246  -0.14000
  77        4PX         0.00723  -0.03080  -0.00663   0.04058  -0.04562
  78        4PY        -0.05048  -0.01744  -0.09032   0.00483   0.00302
  79        4PZ         0.01552  -0.04826  -0.00178   0.06160  -0.07423
  80        5S         -0.02542  -0.02351   0.01015   0.00200  -0.01794
  81        5PX        -0.00583   0.00865   0.00336  -0.00091   0.00742
  82        5PY        -0.00796  -0.03194   0.00504  -0.00485  -0.01033
  83        5PZ        -0.00885   0.01582   0.00550  -0.00326   0.01212
  84        6D 0       -0.00204   0.00311  -0.00373  -0.00446  -0.00036
  85        6D+1       -0.00082   0.00187  -0.00341  -0.00312  -0.00000
  86        6D-1        0.00281  -0.00854  -0.00423   0.00226  -0.00215
  87        6D+2       -0.00243   0.00276  -0.00371  -0.00448  -0.00064
  88        6D-2        0.00216  -0.00557  -0.00230   0.00202  -0.00115
  89 5   C  1S         -0.04687   0.00188  -0.07668  -0.02762  -0.02840
  90        2S         -0.07252   0.00294  -0.11909  -0.04308  -0.04434
  91        2PX         0.00075  -0.00562  -0.00162   0.00954  -0.01170
  92        2PY         0.02025  -0.00225  -0.00387  -0.01633  -0.05125
  93        2PZ        -0.00089  -0.00875  -0.00236   0.01632  -0.01405
  94        3S          0.19242  -0.00818   0.31946   0.11716   0.11893
  95        3PX         0.00123  -0.00865  -0.00315   0.01392  -0.01737
  96        3PY         0.03661  -0.00431   0.00203  -0.02113  -0.07321
  97        3PZ        -0.00203  -0.01349  -0.00529   0.02346  -0.02122
  98        4S          0.08393  -0.00978   0.17042   0.07734   0.10476
  99        4PX        -0.00067  -0.00305  -0.00173   0.00517  -0.00918
 100        4PY        -0.00224  -0.00260  -0.01690  -0.01201  -0.02991
 101        4PZ         0.00072  -0.00359  -0.00166   0.01013  -0.01146
 102        5S          0.06126  -0.02198   0.03501   0.00446   0.03158
 103        5PX        -0.00392   0.00058  -0.00100  -0.00239   0.00216
 104        5PY         0.01702  -0.00654   0.00707  -0.00140   0.00755
 105        5PZ        -0.00518   0.00306  -0.00387  -0.00218   0.00381
 106        6D 0       -0.00380   0.00086  -0.00019   0.00133   0.00575
 107        6D+1        0.00063  -0.00034   0.00012   0.00053  -0.00135
 108        6D-1       -0.00122  -0.00322  -0.00147   0.00447  -0.00127
 109        6D+2       -0.00722   0.00118  -0.00073   0.00266   0.01050
 110        6D-2        0.00016  -0.00221  -0.00084   0.00261  -0.00212
 111 6   C  1S          0.04117  -0.06521   0.00517   0.03369  -0.04201
 112        2S          0.06373  -0.10109   0.00814   0.05259  -0.06584
 113        2PX        -0.00700   0.00272  -0.01388  -0.00184  -0.01201
 114        2PY        -0.04078   0.01838   0.01316   0.05360  -0.02639
 115        2PZ        -0.00799   0.00260  -0.02247  -0.00907  -0.01772
 116        3S         -0.16814   0.26883  -0.02220  -0.14322   0.17921
 117        3PX        -0.00888   0.00514  -0.01960  -0.00474  -0.01655
 118        3PY        -0.05459   0.02167   0.02117   0.07784  -0.03694
 119        3PZ        -0.00999   0.00596  -0.03194  -0.01688  -0.02460
 120        4S         -0.09011   0.15304  -0.00657  -0.08252   0.09869
 121        4PX        -0.00247   0.00133  -0.00059   0.00324  -0.01757
 122        4PY        -0.01182   0.01106   0.00375   0.01776  -0.02676
 123        4PZ        -0.00309   0.00164  -0.00106   0.00409  -0.02610
 124        5S          0.04837   0.08784  -0.03553   0.04093   0.00063
 125        5PX        -0.00204   0.00297  -0.00026   0.00155   0.00145
 126        5PY         0.03687   0.00282  -0.00313   0.01841  -0.01360
 127        5PZ        -0.00427   0.00596  -0.00053   0.00113   0.00255
 128        6D 0        0.00148  -0.00286  -0.00788  -0.00471  -0.00038
 129        6D+1       -0.00436   0.00425  -0.00742  -0.00591   0.00335
 130        6D-1       -0.00645  -0.00108   0.00102   0.00713   0.00243
 131        6D+2        0.00593  -0.00891  -0.00661  -0.00139  -0.00308
 132        6D-2       -0.00479   0.00053   0.00102   0.00471   0.00225
 133 7   C  1S          0.04992  -0.04869  -0.03653  -0.03338   0.03592
[...]
 2,0.9693744,0.992587,0.1783864,-1.0934457,-2.2444305,0.7510528,-1.9432
 082,-0.7893076,-2.0985068,-2.8852419,-2.9251903,-5.2177182,-1.8028155,
 -2.1207461,-4.219936,-2.1867611,-2.7185905,-3.2630956,-3.9090856,-2.82
 9261,-2.315271,-4.5612003,-2.9829997,-6.8800631,-1.2430249,0.5397461,-
 1.7239812,-1.4501248,2.8704225,-2.8293414,1.7227375,-2.1203222,7.81573
 69,2.0842269,-4.0664715,3.8835835,-1.9748562,3.0009658,-4.0219382,-2.5
 674995,3.5902109,-4.6346186,8.6928247,-2.8222443,2.2674832,-0.1539395,
 0.3377432,0.8094295,-4.8610618,2.8517447,-3.5326124,0.748434,0.4152274
 ,-0.8723409,0.8260295,0.4479278,1.0923668,1.1468899,-0.6876861,-0.5016
 38,2.3071237,2.6077758,2.9352933,0.9922748,0.9253246,-0.3290658,2.2588
 247,4.4731099,13.0267315,0.7930939,2.7217873,1.8528175,1.8218612,1.550
 9047,4.3572604,0.6536864,2.7890367,1.6262256,-1.3515837,-0.5596762,-0.
 6619494,-1.6336877,0.4088177,-2.0664529,-0.3673859,0.1259074,1.7544878
 ,0.3135466,-1.7989479,1.4918778,-1.3949663,-0.017291,-1.8126545,-0.788
 8873,2.2017083,-10.7587704\HyperPolar=47.3715749,-30.3470577,11.951553
 ,57.4805044,96.2919145,-9.9831379,37.2865767,148.0955814,-61.1257899,2
 67.8385928\Quadrupole=-4.1646818,5.9403554,-1.7756736,5.4226856,-0.595
 2666,7.2373032\PG=C01 [X(C6H10N2)]\NImag=0\\0.52964941,-0.07218967,0.4
 9839849,0.04382129,-0.02651878,0.58112342,-0.08364396,-0.02831994,-0.0
 3263833,0.28334082,-0.02614939,-0.18375625,-0.02915735,0.07269764,0.73
 521235,-0.03217348,-0.03211695,-0.10707532,0.21023598,0.04291781,0.467
 57512,-0.00258602,-0.00530835,0.01100498,-0.08146077,0.02903788,-0.042
 26989,0.20068157,0.00239067,-0.03266590,0.00157444,0.04118643,-0.22271
 210,0.08371315,0.01145476,0.44871059,0.01144193,-0.00786961,0.00786687
 ,-0.04366068,0.05912307,-0.12926846,0.17887226,-0.01321182,0.36933473,
 0.00495834,0.00158530,-0.00016155,0.00116737,-0.02300498,-0.00357684,-
 0.10302323,-0.05678899,-0.07049740,0.26145033,0.00513140,-0.00063467,0
 .00774703,-0.00509740,-0.10987221,0.00146250,-0.04346864,-0.17086860,-
 0.05859416,0.01495465,0.78283202,-0.00282131,0.00288015,0.00343365,-0.
 00221462,-0.02625954,-0.00158600,-0.07147080,-0.07938031,-0.16084230,0
 .19546040,-0.03505111,0.45030158,0.00216020,-0.00043763,-0.00059023,0.
 00413143,-0.00460089,-0.00288531,-0.00395626,-0.00947470,0.01035196,-0
 .07397712,0.00036721,-0.02095402,0.58079187,-0.00021206,-0.00067966,-0
 .00043932,-0.00180297,0.00156558,-0.00213496,-0.00227184,-0.02842533,-
 0.00187035,0.00256392,-0.22311772,0.02024147,0.00651890,0.48028396,-0.
 00029834,0.00026038,0.00189000,-0.00358552,-0.00738357,0.00146628,0.00
 949997,-0.01414145,0.00625007,-0.02113814,0.01726046,-0.09629444,0.019
 41269,0.01913458,0.59699090,-0.00024963,0.00261596,-0.00437803,-0.0053
 6592,-0.01535039,-0.03009797,-0.01073979,-0.02429299,-0.04203221,-0.10
 359172,0.03035005,-0.07388055,-0.00153817,0.00398954,0.00332993,0.2956
 2688,0.00044108,0.00423483,0.00310690,-0.04087540,-0.03474761,-0.06400
 830,0.00323888,0.00830235,0.00586342,0.01737405,-0.14801246,0.03678228
 ,0.01827853,-0.01419034,0.02921160,0.12309230,0.76710238,-0.00354044,0
 .00347429,-0.00504746,-0.02912281,-0.02001734,-0.02837196,-0.04404574,
 -0.03850774,-0.05028741,-0.07189179,0.05614866,-0.17747302,0.00189227,
 0.00727789,-0.00114645,0.27481596,0.13724944,0.53438532,-0.00718681,-0
 .00509075,-0.00496410,-0.11249295,-0.01909270,-0.08428905,-0.00287270,
 0.03464588,-0.03438839,0.00778006,0.00795812,-0.01220076,-0.00133013,-
 0.00006871,-0.00455132,-0.07792265,-0.04063096,-0.01835946,0.25281796,
 -0.01602584,-0.00017347,-0.02924154,-0.00892367,-0.12405039,-0.0055544
 2,0.00700070,-0.01129284,0.01365660,0.03486546,-0.06565189,0.06116221,
 0.00023425,0.00448232,0.00042071,-0.04480687,-0.42709596,-0.03926841,-
 0.04053713,0.86939196,-0.00318216,-0.00996617,-0.01062486,-0.08583511,
 -0.02297877,-0.18996411,-0.03169742,0.05725537,-0.03840175,-0.01396251
 ,0.01856820,-0.00981459,-0.00488146,-0.00043019,-0.00560757,-0.0180490
 9,-0.03279975,-0.08890475,0.22136954,-0.12865126,0.47476278,-0.1443682
 8,-0.02470643,0.04839262,-0.00876988,-0.01474046,0.00144003,-0.0006462
 7,0.00232988,0.00009851,-0.00010066,-0.00006402,0.00006605,0.00009397,
 -0.00009946,-0.00005597,0.00038357,0.00029007,0.00035712,-0.00027244,0
 .00006950,0.00038507,0.50619632,-0.02060523,-0.08353184,0.01846432,-0.
 03016373,-0.02756571,0.01438651,-0.00372949,0.00229658,-0.00052832,0.0
 0017117,-0.00181602,-0.00157783,0.00037486,0.00025760,-0.00054895,0.00
 017345,-0.00133881,0.00007329,0.00006001,0.00075310,0.00307412,-0.0309
 1458,0.55746514,0.05088443,0.02334984,-0.11907218,-0.01080794,-0.00612
 598,0.01009737,-0.00108187,0.00227111,-0.00046676,-0.00112572,-0.00177
 832,-0.00134818,0.00010742,0.00019814,-0.00035715,0.00036740,-0.001365
 20,0.00031237,0.00003959,-0.00035028,0.00187760,0.03988191,0.02257494,
 0.54154444,-0.06838511,0.01098212,-0.06858968,-0.00569161,-0.00130530,
 -0.01239609,0.00012354,0.00136031,-0.00010707,-0.00002698,-0.00002912,
 0.00049930,-0.00004744,0.00009240,0.00002209,-0.00031658,0.00001756,-0
 .00076269,0.00099213,-0.00220255,-0.00008359,0.00675527,-0.00438899,0.
 02703554,0.07423255,0.01570527,-0.05474855,0.04449408,-0.01454971,-0.0
 0221065,-0.03679648,-0.00116811,0.00232159,-0.00054121,0.00034175,0.00
 006985,-0.00029695,-0.00000314,0.00008817,0.00012555,-0.00102563,-0.00
 061560,-0.00129944,0.00139731,-0.00459117,0.00070918,0.00302306,-0.001
 53151,0.01127896,-0.00570965,0.06262149,-0.06925816,0.03266136,-0.2896
 7477,-0.00685863,-0.00265402,-0.01453607,0.00042468,0.00345198,0.00046
 350,-0.00000450,-0.00031685,0.00056531,0.00002870,0.00006238,-0.000045
 13,-0.00046201,0.00000921,-0.00032581,0.00098069,-0.00155561,0.0011296
 3,-0.00277423,0.00368159,-0.01561392,0.07553011,-0.03690831,0.31530622
 ,-0.21007316,0.12870684,-0.00818884,0.01092963,-0.01164178,-0.00006502
 ,0.00005727,-0.00004451,-0.00099963,0.00001259,-0.00109662,0.00014352,
 -0.00028410,-0.00004575,0.00005104,0.00042041,0.00024772,0.00037324,0.
 00076331,-0.00007103,-0.00001204,-0.02099969,0.01443293,-0.00065120,-0
 .00614904,0.00449538,-0.00017288,0.22635685,0.12129206,-0.14257728,0.0
 0310769,0.02084098,-0.03174563,0.00179214,0.00036346,0.00044330,-0.004
 74036,-0.00168271,-0.00255991,-0.00066858,-0.00060429,0.00031140,-0.00
 018607,0.00004388,-0.00151401,0.00050236,0.00120993,0.00183876,0.00234
 984,-0.01046080,0.00917965,-0.00019997,0.00251217,-0.00146660,0.000861
 93,-0.13216500,0.16774247,-0.01003148,0.00766899,-0.05259761,0.0079294
 3,-0.01308544,0.00046122,-0.00026905,0.00148196,-0.00110236,0.00007031
 ,-0.00090865,-0.00036671,-0.00029246,-0.00000168,0.00003859,0.00047297
 ,-0.00039815,0.00027620,0.00063207,-0.00002761,0.00078413,0.01678077,-
 0.01072577,0.00037226,-0.02321140,0.01902161,0.00150827,0.00649440,-0.
 00349914,0.05034446,-0.00010749,-0.00003031,0.00000400,0.00006835,0.00
 008412,0.00036347,0.00021273,-0.00154932,0.00001644,-0.00125745,0.0014
 3157,-0.00023358,-0.13020187,0.02593418,-0.12431834,0.00082209,-0.0001
 7775,0.00019185,0.00028211,-0.00013916,-0.00024314,-0.00000351,0.00000
 041,0.00000788,0.00001102,-0.00000063,-0.00000213,-0.00000532,0.000039
 52,-0.00000973,0.13490998,-0.00005250,0.00014314,-0.00002968,-0.000061
 74,0.00019761,-0.00024265,0.00091336,0.00281261,0.00130641,0.02246641,
 -0.01356115,0.03495031,0.01821427,-0.05360505,0.02743372,-0.00182908,-
 0.00474825,-0.00261003,0.00088763,-0.00099356,0.00154524,-0.00000783,-
 0.00003032,-0.00001362,-0.00002053,-0.00006928,-0.00003023,-0.00000127
 ,0.00000520,0.00000078,-0.02690402,0.06463705,0.00001611,-0.00005682,-
 0.00007201,0.00042295,0.00001288,0.00041170,-0.00023487,-0.00256130,0.
 00012490,-0.00238191,0.00343259,-0.00529681,-0.12352293,0.03897819,-0.
 23476604,0.00026896,0.00035512,0.00122573,-0.00034745,-0.00006469,-0.0
 0012916,-0.00000930,0.00004043,0.00001263,-0.00000355,0.00001231,-0.00
 000235,-0.00000084,0.00001954,-0.00000497,0.13556198,-0.04202115,0.250
 26369,0.00000177,-0.00006988,-0.00005255,-0.00064072,0.00031248,-0.000
 19085,-0.00013759,-0.00158046,-0.00051937,0.00245262,0.00142931,-0.002
 61832,-0.09872965,0.04923420,0.09038303,0.00047703,0.00008145,0.000370
 35,0.00004106,0.00036980,0.00028968,0.00000727,0.00000948,0.00002229,0
 .00000435,0.00000668,-0.00000109,0.00000426,0.00001315,0.00000604,0.00
 921281,-0.00892936,-0.01342555,0.09928567,-0.00012047,0.00038167,0.000
 79298,-0.00044107,-0.00316532,0.00137432,0.00467079,0.00075337,0.00162
 700,0.01148314,-0.02857608,-0.02778338,0.04705440,-0.09340747,-0.08378
 276,-0.00086807,0.00251965,-0.00222174,-0.00085480,-0.00152208,-0.0008
 8597,-0.00001801,-0.00027115,-0.00017752,-0.00001684,-0.00000127,-0.00
 004396,0.00001169,-0.00010348,-0.00000135,-0.00375079,0.00322435,0.004
 05147,-0.05363349,0.11408233,0.00020449,0.00007152,-0.00010254,-0.0002
 1307,0.00057107,0.00061157,-0.00002254,-0.00073153,-0.00034559,-0.0046
 8061,0.00455140,0.00852484,0.09010246,-0.09096483,-0.21592248,-0.00053
 537,0.00017893,0.00038435,0.00006429,-0.00055876,0.00048096,0.00002483
 ,0.00003382,0.00002425,-0.00000465,0.00000353,-0.00001458,-0.00000954,
 -0.00002541,-0.00000320,0.01251271,-0.01035870,-0.01778275,-0.09873883
 ,0.09798933,0.22659686,-0.00005725,0.00013721,0.00014188,0.00066908,0.
 00005217,0.00036689,-0.00010398,0.00007077,0.00042706,0.00782261,-0.00
 001445,-0.00151163,-0.27822894,-0.08347884,0.03100411,0.00039198,0.000
 35093,-0.00074673,0.00012865,-0.00079871,0.00009415,-0.00000034,-0.000
 04650,-0.00001966,-0.00002100,0.00000569,-0.00000722,0.00000097,-0.000
 00309,0.00000578,-0.01385655,-0.00454296,0.00339423,-0.01190020,-0.003
 63633,0.00094680,0.29540336,0.00075459,0.00017674,0.00016762,0.0013212
 3,-0.00310647,0.00040597,-0.00049025,0.00134551,0.00483733,-0.03279336
 ,-0.02602302,0.00235427,-0.07650953,-0.07507470,0.01144194,-0.00158523
 ,0.00259076,-0.00182258,-0.00052018,-0.00162339,-0.00116416,0.00002367
 ,-0.00002677,-0.00007141,-0.00003802,-0.00001933,-0.00003341,-0.000096
 09,-0.00027825,-0.00009060,0.00516332,0.00245342,-0.00205803,0.0126560
 7,0.00616071,-0.00070774,0.09195545,0.09347021,-0.00013565,-0.00004207
 ,-0.00002148,0.00026548,0.00072728,-0.00065474,-0.00054839,-0.00179609
 ,-0.00056614,0.00284230,0.00460689,0.00053620,0.03071641,0.01081721,-0
 .05403365,0.00049290,0.00002077,0.00045233,0.00036322,0.00019263,0.000
 38208,0.00000267,0.00000777,0.00002359,-0.00000991,0.00001207,0.000007
 22,0.00001839,0.00003934,0.00002701,-0.02407920,-0.00976737,0.00586450
 ,0.02460806,0.00869924,-0.00226597,-0.03437644,-0.01360166,0.05033971,
 0.00109936,-0.00028862,-0.00073466,0.00396651,0.00081231,-0.00189578,0
 .00285530,0.00136139,-0.00358481,-0.00719675,-0.00834964,-0.00526244,-
 0.00016928,-0.00057444,0.00064891,-0.10177866,-0.07770410,-0.11488708,
 0.00138580,0.00156527,0.00147274,0.00006294,0.00016802,0.00028201,-0.0
 0002450,-0.00021036,0.00010670,-0.00013165,-0.00006594,-0.00012129,-0.
 00010102,0.00005516,0.00013398,-0.00015074,0.00037087,0.00016206,-0.00
 009394,0.00002262,-0.00003958,0.10247982,-0.00047096,0.00101757,-0.001
 08021,-0.00136199,-0.00562169,-0.00090206,0.00171447,-0.00201773,0.003
 38881,0.00936724,0.01264489,0.01322149,-0.00009759,0.00100711,-0.00029
 348,-0.08038760,-0.14694721,-0.11487842,-0.01194009,0.00036566,-0.0185
 4493,0.00003556,-0.00005756,-0.00010518,-0.00019186,-0.00051128,-0.000
 18933,0.00003197,0.00002250,0.00003725,-0.00007926,0.00006782,-0.00016
 290,0.00009639,-0.00004186,-0.00002391,-0.00002576,0.00000311,0.000075
 41,0.08292032,0.13999512,-0.00039522,0.00003804,0.00080044,-0.00176586
 ,0.00169589,0.00230597,-0.00371467,0.00295789,-0.00103857,-0.00704585,
 -0.01451133,-0.01301259,0.00065693,-0.00102858,0.00051580,-0.11440099,
 -0.11036932,-0.19306683,0.00254843,0.00209860,0.00413832,-0.00005535,-
 0.00012834,-0.00018314,0.00009710,0.00016838,0.00013636,0.00006336,-0.
 00002422,0.00010223,0.00013202,0.00005833,0.00003104,-0.00010745,0.000
 19731,-0.00005456,0.00020566,0.00038544,-0.00017869,0.12262627,0.11894
 702,0.20054887,-0.00020174,0.00047611,0.00079757,-0.00585500,0.0140339
 7,-0.00487587,0.00205293,-0.00138350,-0.00478944,0.00381346,-0.0023979
 6,-0.00220048,0.00122560,0.00003576,-0.00018546,0.00347510,-0.00334630
 ,0.00528269,-0.06250822,0.06944788,-0.06652495,-0.00019023,0.00002326,
 -0.00020317,0.00006007,0.00000434,0.00005886,-0.00004517,-0.00007626,-
 0.00014742,0.00000913,-0.00017732,0.00010497,0.00006612,-0.00014417,0.
 00018604,-0.00014102,0.00019221,-0.00013639,-0.00214164,0.00044215,0.0
 0112282,0.06080870,-0.00000047,0.00035473,0.00026368,-0.00325477,0.009
 66828,-0.00618102,-0.00164816,-0.00009022,-0.00223086,-0.00071511,-0.0
 0471530,-0.00017226,0.00068938,0.00042600,0.00110573,0.00982776,-0.004
 93608,0.01604099,0.07217626,-0.23994107,0.13141189,-0.00011981,-0.0000
 1313,0.00000032,0.00011446,0.00002957,0.00009829,0.00002477,0.00011718
 ,-0.00006451,-0.00002149,-0.00052937,0.00001607,0.00000011,-0.00000309
 ,-0.00003333,-0.00001986,-0.00002346,0.00000381,-0.00011096,0.00008064
 ,-0.00047321,-0.07667022,0.23970746,0.00089413,0.00122757,0.00065611,-
 0.00415167,0.02105773,-0.01133520,-0.00465692,-0.00172482,-0.00218411,
 -0.00238764,-0.00301883,0.00185866,-0.00023527,0.00018521,0.00094316,0
 .00416077,-0.00490402,0.00733285,-0.06631309,0.12741698,-0.13949357,-0
 .00009177,-0.00017710,0.00001176,0.00021657,-0.00014071,0.00003255,0.0
 0016264,-0.00052988,-0.00011865,0.00009627,-0.00021046,0.00012414,-0.0
 0002225,0.00013337,-0.00012386,0.00007796,-0.00008450,0.00009402,0.001
 16460,0.00042830,-0.00108474,0.07112463,-0.13966318,0.14324300,-0.0222
 2843,0.01625210,-0.00002003,0.00200780,0.00112660,-0.00068621,0.000297
 64,-0.00017457,-0.00016119,-0.00012996,-0.00031182,-0.00011756,-0.0000
 0525,0.00002896,-0.00001869,-0.00002717,0.00000203,0.00014476,-0.00003
 210,-0.00014818,-0.00014189,-0.20480339,0.12707921,-0.00938679,0.00124
 748,-0.00016021,-0.00020614,-0.00282226,-0.00253469,0.00313247,0.00000
 025,-0.00000523,0.00000582,0.00000085,-0.00001235,-0.00000379,0.000003
 15,-0.00001377,0.00000559,-0.00002383,-0.00001915,0.00001866,0.0000821
 1,0.00002921,0.00006590,0.22437110,-0.01194208,0.00687493,-0.00043232,
 0.00025248,0.00206517,-0.00024408,0.00020605,0.00010423,0.00011506,0.0
 0011470,0.00016113,0.00019178,0.00000687,-0.00003566,0.00003573,0.0000
 3039,0.00021017,0.00000916,-0.00001765,-0.00009482,-0.00035724,0.12958
 754,-0.15039361,0.00645642,0.00065308,0.00040295,-0.00055833,-0.002513
 54,-0.00013388,0.00138493,-0.00000464,-0.00000114,-0.00000447,0.000000
 22,0.00002010,-0.00000098,0.00000386,0.00001113,-0.00000186,-0.0000006
 9,0.00000402,0.00000785,0.00000235,-0.00000229,0.00001361,-0.13986230,
 0.15956734,0.01582164,-0.01270840,-0.00029193,-0.00119573,-0.00034750,
 0.00029210,-0.00021086,-0.00020583,0.00016499,0.00007846,0.00017023,0.
 00001497,0.00003536,-0.00000345,0.00000335,-0.00001585,0.00000534,-0.0
 0005225,-0.00016014,0.00007930,-0.00008457,-0.01005410,0.00788679,-0.0
 4801107,-0.00055635,-0.00071045,0.00067070,0.00308268,0.00192917,-0.00
 107413,-0.00000081,0.00000083,0.00000072,-0.00000204,-0.00000057,0.000
 00033,-0.00000126,0.00001653,-0.00000510,0.00000678,0.00001578,-0.0000
 0647,0.00004917,0.00001745,0.00001992,0.00668952,-0.00887415,0.0485216
 5,-0.00539738,-0.02049895,-0.01188253,-0.00370682,-0.00383629,0.003360
 09,-0.00094347,0.00101861,-0.00034365,-0.00019205,-0.00103677,-0.00059
 633,0.00008021,0.00017828,-0.00021035,0.00004906,-0.00054283,0.0000704
 3,0.00042881,0.00020069,0.00100301,-0.06675644,-0.06239307,-0.02596310
 ,0.00098211,0.00023615,0.00001590,0.00052810,0.00070682,-0.00072436,0.
 00000499,-0.00001547,0.00001673,0.00000891,-0.00011562,0.00000622,-0.0
 0002165,-0.00004711,0.00001083,0.00002076,-0.00004969,-0.00001945,0.00
 005911,0.00002926,-0.00002653,0.00850579,0.02180400,0.01020001,0.06962
 830,-0.00049328,-0.00961552,-0.00526156,-0.00268224,-0.00134433,0.0016
 6395,-0.00060988,0.00135554,-0.00028929,-0.00028700,-0.00052581,-0.000
 58119,0.00000596,0.00016390,-0.00010965,0.00001703,-0.00070808,-0.0000
 3997,0.00057936,0.00037254,0.00113590,-0.06416602,-0.25203474,-0.08741
 482,0.00035450,0.00016321,0.00023749,-0.00029133,0.00044169,0.00003432
 ,0.00000621,-0.00001157,0.00001260,0.00000678,-0.00007049,0.00000217,-
 0.00001628,-0.00004930,0.00000949,0.00004258,-0.00003465,-0.00003236,-
 0.00002654,0.00002637,-0.00001516,-0.00587332,-0.01620739,-0.00698642,
 0.07171110,0.27297131,0.00351743,0.01596439,0.00670231,0.00346486,0.00
 243837,-0.00139875,0.00040628,-0.00034381,0.00017236,0.00014729,0.0002
 7620,0.00042796,-0.00000121,-0.00002617,0.00007153,-0.00005995,0.00054
 594,0.00012801,-0.00002663,0.00006682,-0.00046105,-0.02727765,-0.08915
 859,-0.08454662,-0.00094548,-0.00017545,0.00058644,-0.00043435,-0.0004
 3828,0.00062570,0.00000025,-0.00000134,-0.00000521,-0.00000153,0.00003
 350,-0.00000685,0.00000325,0.00001437,0.00000003,-0.00006655,0.0000351
 4,0.00003710,0.00018439,-0.00004012,0.00001654,0.00099476,0.00214655,-
 0.00020078,0.02788455,0.09619391,0.08814606,0.00661617,-0.00381512,0.0
 2803819,0.00134662,0.00156499,-0.00036411,0.00018910,-0.00052965,-0.00
 012431,0.00003852,0.00024414,-0.00008685,-0.00001508,-0.00002206,0.000
 01037,-0.00011583,-0.00013725,-0.00014192,-0.00000190,-0.00010042,-0.0
 0000083,-0.06658822,0.00974878,-0.06938902,-0.00374626,-0.00238818,0.0
 0260135,0.00143701,0.00057080,-0.00071705,-0.00000025,0.00001046,0.000
 00069,-0.00000381,0.00002113,-0.00000149,0.00000508,0.00000437,-0.0000
 0028,-0.00005845,0.00001586,0.00003360,-0.00056931,-0.00033037,-0.0000
 7835,-0.00644378,0.00167934,-0.02376649,-0.00327834,0.00172236,-0.0077
 8971,0.07118872,0.00254687,-0.00319897,0.01244201,0.00123585,0.0011893
 9,0.00046456,0.00009437,-0.00037294,-0.00004170,-0.00001562,0.00022693
 ,-0.00001281,-0.00001687,-0.00005012,0.00001555,0.00000550,-0.00010573
 ,-0.00011041,-0.00016152,-0.00017370,-0.00027130,0.00993816,-0.0513409
 0,0.03147257,-0.00218376,0.00006841,0.00122580,0.00001561,0.00027690,-
 0.00082695,-0.00000195,0.00000849,-0.00000183,-0.00000293,0.00002014,0
 .00000341,0.00000668,0.00001309,-0.00000285,-0.00001381,0.00002353,0.0
 0001262,-0.00043576,-0.00015623,0.00000588,0.00459747,-0.00255238,0.01
 971534,-0.00734911,0.00510731,-0.02753144,-0.00825918,0.05101680,-0.00
 476520,0.00168225,-0.01789266,-0.00026873,-0.00053460,0.00096928,0.000
 01487,-0.00010121,0.00012601,0.00025569,-0.00004492,0.00037147,0.00005
 869,0.00000445,0.00000321,0.00000313,0.00051578,0.00017879,-0.00039744
 ,0.00017874,-0.00006951,-0.06711120,0.03262134,-0.28467728,0.00326976,
 0.00104334,-0.00019357,0.00014506,-0.00029010,0.00072756,0.00000007,-0
 .00001038,0.00000025,0.00000041,-0.00000129,-0.00000078,-0.00000484,0.
 00001063,-0.00000093,-0.00001187,0.00003122,0.00000949,0.00015204,-0.0
 0009974,0.00000742,-0.00031518,0.00011236,0.00003755,-0.00280147,0.001
 44058,-0.01029479,0.07177620,-0.03655844,0.31069848\\-0.00000321,-0.00
 000114,-0.00000412,-0.00000022,0.00000308,0.00000088,0.00000399,-0.000
 00040,0.00000734,0.00000104,-0.00000126,0.00000726,0.00000172,-0.00000
 073,0.00000947,-0.00000192,-0.00000020,-0.00000095,-0.00000185,-0.0000
 0293,-0.00000445,0.00000271,0.00000742,-0.00000297,0.00000073,0.000000
 08,0.00000286,-0.00000564,0.00000331,-0.00000365,-0.00000072,0.0000013
 7,0.00000220,0.00000036,-0.00000070,0.00000447,-0.00000175,0.00000021,
 0.00000338,-0.00000126,-0.00000229,-0.00000028,-0.00000046,0.00000169,
 -0.00000400,0.00000923,-0.00000492,-0.00000127,-0.00000009,-0.00000281
 ,-0.00000510,-0.00000266,0.00000020,-0.00001107\\\@
 The archive entry for this job was punched.


 ERWIN WITH HIS PSI CAN DO
 CALCULATIONS QUITE A FEW.
 BUT ONE THING HAS NOT BEEN SEEN
 JUST WHAT DOES PSI REALLY MEAN.
 -- WALTER HUCKEL, TRANS. BY FELIX BLOCH
 Job cpu time:       0 days  0 hours 41 minutes  5.3 seconds.
 Elapsed time:       0 days  0 hours 21 minutes 31.7 seconds.
 File lengths (MBytes):  RWF=    165 Int=      0 D2E=      0 Chk=     19 Scr=      1
 Normal termination of Gaussian 16 at Fri Jun  2 11:24:14 2023.
