 Entering Gaussian System, Link 0=g16
 Input=PG-H_dissociation-site_index-0-freq.gjf
 Output=PG-H_dissociation-site_index-0-freq.log
 Initial command:
 /software/commercial/gaussian/g16/AVX/g16/l1.exe "/scratch1/svicchi/G09-659869.pbs02/Gau-3173090.inp" -scrdir="/scratch1/svicchi/G09-659869.pbs02/"
 Entering Link 1 = /software/commercial/gaussian/g16/AVX/g16/l1.exe PID=   3173091.
  
 Copyright (c) 1988-2019, Gaussian, Inc.  All Rights Reserved.
  
 This is part of the Gaussian(R) 16 program.  It is based on
 the Gaussian(R) 09 system (copyright 2009, Gaussian, Inc.),
 the Gaussian(R) 03 system (copyright 2003, Gaussian, Inc.),
 the Gaussian(R) 98 system (copyright 1998, Gaussian, Inc.),
 the Gaussian(R) 94 system (copyright 1995, Gaussian, Inc.),
 the Gaussian 92(TM) system (copyright 1992, Gaussian, Inc.),
 the Gaussian 90(TM) system (copyright 1990, Gaussian, Inc.),
 the Gaussian 88(TM) system (copyright 1988, Gaussian, Inc.),
 the Gaussian 86(TM) system (copyright 1986, Carnegie Mellon
 University), and the Gaussian 82(TM) system (copyright 1983,
 Carnegie Mellon University). Gaussian is a federally registered
 trademark of Gaussian, Inc.
  
 This software contains proprietary and confidential information,
 including trade secrets, belonging to Gaussian, Inc.
  
 This software is provided under written license and may be
 used, copied, transmitted, or stored only in accord with that
 written license.
  
 The following legend is applicable only to US Government
 contracts under FAR:
  
                    RESTRICTED RIGHTS LEGEND
  
 Use, reproduction and disclosure by the US Government is
 subject to restrictions as set forth in subparagraphs (a)
 and (c) of the Commercial Computer Software - Restricted
 Rights clause in FAR 52.227-19.
  
 Gaussian, Inc.
 340 Quinnipiac St., Bldg. 40, Wallingford CT 06492
  
  
 ---------------------------------------------------------------
 Warning -- This program may not be used in any manner that
 competes with the business of Gaussian, Inc. or will provide
 assistance to any competitor of Gaussian, Inc.  The licensee
 of this program is prohibited from giving any competitor of
 Gaussian, Inc. access to this program.  By using this program,
 the user acknowledges that Gaussian, Inc. is engaged in the
 business of creating and licensing software in the field of
 computational chemistry and represents and warrants to the
 licensee that it is not a competitor of Gaussian, Inc. and that
 it will not use this program in any manner prohibited above.
 ---------------------------------------------------------------
  

 Cite this work as:
 Gaussian 16, Revision C.01,
 M. J. Frisch, G. W. Trucks, H. B. Schlegel, G. E. Scuseria, 
 M. A. Robb, J. R. Cheeseman, G. Scalmani, V. Barone, 
 G. A. Petersson, H. Nakatsuji, X. Li, M. Caricato, A. V. Marenich, 
 J. Bloino, B. G. Janesko, R. Gomperts, B. Mennucci, H. P. Hratchian, 
 J. V. Ortiz, A. F. Izmaylov, J. L. Sonnenberg, D. Williams-Young, 
 F. Ding, F. Lipparini, F. Egidi, J. Goings, B. Peng, A. Petrone, 
 T. Henderson, D. Ranasinghe, V. G. Zakrzewski, J. Gao, N. Rega, 
 G. Zheng, W. Liang, M. Hada, M. Ehara, K. Toyota, R. Fukuda, 
 J. Hasegawa, M. Ishida, T. Nakajima, Y. Honda, O. Kitao, H. Nakai, 
 T. Vreven, K. Throssell, J. A. Montgomery, Jr., J. E. Peralta, 
 F. Ogliaro, M. J. Bearpark, J. J. Heyd, E. N. Brothers, K. N. Kudin, 
 V. N. Staroverov, T. A. Keith, R. Kobayashi, J. Normand, 
 K. Raghavachari, A. P. Rendell, J. C. Burant, S. S. Iyengar, 
 J. Tomasi, M. Cossi, J. M. Millam, M. Klene, C. Adamo, R. Cammi, 
 J. W. Ochterski, R. L. Martin, K. Morokuma, O. Farkas, 
 J. B. Foresman, and D. J. Fox, Gaussian, Inc., Wallingford CT, 2019.
 
 ******************************************
 Gaussian 16:  ES64L-G16RevC.01  3-Jul-2019
                 2-Jun-2023 
 ******************************************
 %NProcShared=2
 Will use up to    2 processors via shared memory.
 %mem=55gb
 %chk=/scratch1/svicchi/G09-659869.pbs02/02-freq/PG-H_dissociation-site_index-0-f
 req.chk
 ----------------------------------------------------------------------
 #p freq=raman scale=0.967 pop=(nbo,full,hirshfeld) guess=read geom=all
 check b3lyp/6-311+G(d,p) int=grid=ultrafine EmpiricalDispersion=GD3BJ 
 SCRF=(Solvent=ethanol) scf=(xqc,intrep,maxconventionalcycle=350) nosym
 m
 ----------------------------------------------------------------------
 1/10=4,29=7,30=1,38=1,114=967000/1,3;
 2/12=2,15=1,40=1/2;
 3/5=4,6=6,7=111,11=2,14=-4,25=1,30=1,70=2201,71=2,72=4,74=-5,75=-5,116=-2,124=41,140=1/1,2,3;
 4/5=1/1;
 5/5=2,8=3,13=1,17=20,38=6,53=4,85=350,98=1/2,8;
 8/6=4,10=90,11=11/1;
 10/13=10,15=4,31=1/2;
 11/6=3,8=1,9=11,15=111,16=1,31=1/1,2,10;
 10/6=1,31=1/2;
 6/7=3,28=1,40=1,79=1/1,7;
 7/8=1,10=1,25=1,30=1/1,2,3,16;
 1/10=4,30=1/3;
 99//99;
 Leave Link    1 at Fri Jun  2 11:17:59 2023, MaxMem=  7381975040 cpu:               1.3 elap:               1.5
 (Enter /software/commercial/gaussian/g16/AVX/g16/l101.exe)
 Structure from the checkpoint file:  "/scratch1/svicchi/G09-659869.pbs02/02-freq/PG-H_dissociation-site_index-0-freq.chk"
 ----------------------------------
 PG-H_dissociation-site_index-0.gjf
 ----------------------------------
 Charge = -1 Multiplicity = 1
 No Z-Matrix found in chk file; cartesian coordinates used.
  O                                                -4.023552514821      1.171518982756      0.386102725628
  C                                                -3.041501269870      2.101863837495      0.115684897239
  C                                                -1.717902222312      1.378835934584     -0.266806964690
  H                                                -2.810650446105      2.750219253968      0.995193066274
  H                                                -3.291176364118      2.800083647274     -0.712385216397
  C                                                -0.468680236524      2.211010782334     -0.047521806834
  H                                                -0.520372039431      3.132128809088     -0.638466009969
  H                                                 0.434734367833      1.670561950923     -0.345487697074
  H                                                -0.374228300013      2.485095786759      1.007747635670
  O                                                -1.683868445603      0.190471306493      0.532174150225
  H                                                -1.776423896403      1.083892666617     -1.328054041633
  H                                                -2.663284632632      0.104998041710      0.704979261561
 Recover connectivity data from disk.
 ITRead=  0  0  0  0  0  0  0  0  0  0  0  0
 MicOpt= -1 -1 -1 -1 -1 -1 -1 -1 -1 -1 -1 -1
 NAtoms=     12 NQM=       12 NQMF=       0 NMMI=      0 NMMIF=      0
                NMic=       0 NMicF=      0.
                    Isotopes and Nuclear Properties:
 (Nuclear quadrupole moments (NQMom) in fm**2, nuclear magnetic moments (NMagM)
  in nuclear magnetons)

  Atom         1           2           3           4           5           6           7           8           9          10
 IAtWgt=          16          12          12           1           1          12           1           1           1          16
 AtmWgt=  15.9949146  12.0000000  12.0000000   1.0078250   1.0078250  12.0000000   1.0078250   1.0078250   1.0078250  15.9949146
 NucSpn=           0           0           0           1           1           0           1           1           1           0
 AtZEff=   5.6000000   3.6000000   3.6000000   1.0000000   1.0000000   3.6000000   1.0000000   1.0000000   1.0000000   5.6000000
 NQMom=    0.0000000   0.0000000   0.0000000   0.0000000   0.0000000   0.0000000   0.0000000   0.0000000   0.0000000   0.0000000
 NMagM=    0.0000000   0.0000000   0.0000000   2.7928460   2.7928460   0.0000000   2.7928460   2.7928460   2.7928460   0.0000000
 AtZNuc=   8.0000000   6.0000000   6.0000000   1.0000000   1.0000000   6.0000000   1.0000000   1.0000000   1.0000000   8.0000000

  Atom        11          12
 IAtWgt=           1           1
 AtmWgt=   1.0078250   1.0078250
 NucSpn=           1           1
 AtZEff=   1.0000000   1.0000000
 NQMom=    0.0000000   0.0000000
 NMagM=    2.7928460   2.7928460
 AtZNuc=   1.0000000   1.0000000
 Leave Link  101 at Fri Jun  2 11:18:01 2023, MaxMem=  7381975040 cpu:               0.5 elap:               0.9
 (Enter /software/commercial/gaussian/g16/AVX/g16/l103.exe)

 GradGradGradGradGradGradGradGradGradGradGradGradGradGradGradGradGradGrad
 Berny optimization.
 Initialization pass.
 Trust Radius=3.00D-01 FncErr=1.00D-07 GrdErr=1.00D-07 EigMax=2.50D+02 EigMin=1.00D-04
 Number of steps in this run=      2 maximum allowed number of steps=      2.
 GradGradGradGradGradGradGradGradGradGradGradGradGradGradGradGradGradGrad

 Leave Link  103 at Fri Jun  2 11:18:04 2023, MaxMem=  7381975040 cpu:               0.1 elap:               0.8
 (Enter /software/commercial/gaussian/g16/AVX/g16/l202.exe)
                          Input orientation:                          
 ---------------------------------------------------------------------
 Center     Atomic      Atomic             Coordinates (Angstroms)
 Number     Number       Type             X           Y           Z
 ---------------------------------------------------------------------
      1          8           0       -4.023553    1.171519    0.386103
      2          6           0       -3.041501    2.101864    0.115685
      3          6           0       -1.717902    1.378836   -0.266807
      4          1           0       -2.810650    2.750219    0.995193
      5          1           0       -3.291176    2.800084   -0.712385
      6          6           0       -0.468680    2.211011   -0.047522
      7          1           0       -0.520372    3.132129   -0.638466
      8          1           0        0.434734    1.670562   -0.345488
      9          1           0       -0.374228    2.485096    1.007748
     10          8           0       -1.683868    0.190471    0.532174
     11          1           0       -1.776424    1.083893   -1.328054
     12          1           0       -2.663285    0.104998    0.704979
 ---------------------------------------------------------------------
                    Distance matrix (angstroms):
                    1          2          3          4          5
     1  O    0.000000
     2  C    1.379526   0.000000
     3  C    2.405264   1.555951   0.000000
     4  H    2.081926   1.116777   2.160425   0.000000
     5  H    2.096491   1.111552   2.166489   1.774603   0.000000
     6  C    3.729033   2.580302   1.516956   2.619699   2.958975
     7  H    4.143188   2.826001   2.155515   2.839027   2.791608
     8  H    4.545392   3.533117   2.173738   3.673637   3.910607
     9  H    3.928039   2.838483   2.157257   2.450837   3.400979
    10  O    2.541242   2.381187   1.432389   2.834843   3.307936
    11  H    2.827649   2.172802   1.103024   3.040353   2.370408
    12  H    1.757691   2.116079   1.860317   2.665171   3.109125
                    6          7          8          9         10
     6  C    0.000000
     7  H    1.095603   0.000000
     8  H    1.094087   1.770379   0.000000
     9  H    1.094366   1.774832   1.774579   0.000000
    10  O    2.428026   3.373051   2.729366   2.684517   0.000000
    11  H    2.149500   2.499694   2.489747   3.063575   2.065724
    12  H    3.133343   3.944672   3.626595   3.316069   0.998210
                   11         12
    11  H    0.000000
    12  H    2.424455   0.000000
 Symmetry turned off by external request.
 Stoichiometry    C3H7O2(1-)
 Framework group  C1[X(C3H7O2)]
 Deg. of freedom    30
 Full point group                 C1      NOp   1
 Rotational constants (GHZ):           8.9564584           3.8776630           2.9448643
 Leave Link  202 at Fri Jun  2 11:18:05 2023, MaxMem=  7381975040 cpu:               0.0 elap:               0.7
 (Enter /software/commercial/gaussian/g16/AVX/g16/l301.exe)
 Standard basis: 6-311+G(d,p) (5D, 7F)
 Ernie: Thresh=  0.10000D-02 Tol=  0.10000D-05 Strict=F.
   152 basis functions,   236 primitive gaussians,   157 cartesian basis functions
    21 alpha electrons       21 beta electrons
       nuclear repulsion energy       186.0395267367 Hartrees.
 IExCor=  402 DFT=T Ex+Corr=B3LYP ExCW=0 ScaHFX=  0.200000
 ScaDFX=  0.800000  0.720000  1.000000  0.810000 ScalE2=  1.000000  1.000000
 IRadAn=      5 IRanWt=     -1 IRanGd=            0 ICorTp=0 IEmpDi=141
 NAtoms=   12 NActive=   12 NUniq=   12 SFac= 1.00D+00 NAtFMM=   60 NAOKFM=F Big=F
 Integral buffers will be    131072 words long.
 Raffenetti 2 integral format.
 Two-electron integral symmetry is turned off.
 R6Disp:  Grimme-D3(BJ) Dispersion energy=       -0.0131583802 Hartrees.
 Nuclear repulsion after empirical dispersion term =      186.0263683565 Hartrees.
 Force inversion solution in PCM.
 ------------------------------------------------------------------------------
 Polarizable Continuum Model (PCM)
 =================================
 Model                : PCM.
 Atomic radii         : UFF (Universal Force Field).
 Polarization charges : Total charges.
 Charge compensation  : None.
 Solution method      : Matrix inversion.
 Cavity type          : Scaled VdW (van der Waals Surface) (Alpha=1.100).
 Cavity algorithm     : GePol (No added spheres)
                        Default sphere list used, NSphG=   12.
                        Lebedev-Laikov grids with approx.  5.0 points / Ang**2.
                        Smoothing algorithm: York/Karplus (Gamma=1.0000).
                        Polarization charges: spherical gaussians, with
                                              point-specific exponents (IZeta= 3).
                        Self-potential: point-specific (ISelfS= 7).
                        Self-field    : sphere-specific E.n sum rule (ISelfD= 2).
 1st derivatives      : Analytical E(r).r(x)/FMM algorithm (CHGder, D1EAlg=3).
                        Cavity 1st derivative terms included.
 2nd derivatives      : Analytical E(r).r(xy)/FMM algorithm (CHGder, D2EAlg=3).
                        Cavity 2nd derivative terms included.
 Solvent              : Ethanol, Eps=  24.852000 Eps(inf)=   1.852593
 ------------------------------------------------------------------------------
 Spheres list:
 ISph  on   Nord     Re0    Alpha      Xe            Ye            Ze
    1   O      1    1.7500  1.100     -4.023553      1.171519      0.386103
    2   C      2    1.9255  1.100     -3.041501      2.101864      0.115685
    3   C      3    1.9255  1.100     -1.717902      1.378836     -0.266807
    4   H      4    1.4430  1.100     -2.810650      2.750219      0.995193
    5   H      5    1.4430  1.100     -3.291176      2.800084     -0.712385
    6   C      6    1.9255  1.100     -0.468680      2.211011     -0.047522
    7   H      7    1.4430  1.100     -0.520372      3.132129     -0.638466
    8   H      8    1.4430  1.100      0.434734      1.670562     -0.345488
    9   H      9    1.4430  1.100     -0.374228      2.485096      1.007748
   10   O     10    1.7500  1.100     -1.683868      0.190471      0.532174
   11   H     11    1.4430  1.100     -1.776424      1.083893     -1.328054
   12   H     12    1.4430  1.100     -2.663285      0.104998      0.704979
 ------------------------------------------------------------------------------
 GePol: Number of generator spheres                  =      12
 GePol: Total number of spheres                      =      12
 GePol: Number of exposed spheres                    =      12 (100.00%)
 GePol: Number of points                             =    1023
 GePol: Average weight of points                     =       0.13
 GePol: Minimum weight of points                     =   0.26D-10
 GePol: Maximum weight of points                     =    0.20577
 GePol: Number of points with low weight             =      51
 GePol: Fraction of low-weight points (<1% of avg)   =       4.99%
 GePol: Cavity surface area                          =    136.939 Ang**2
 GePol: Cavity volume                                =    123.488 Ang**3
 Leave Link  301 at Fri Jun  2 11:18:07 2023, MaxMem=  7381975040 cpu:               0.4 elap:               1.2
 (Enter /software/commercial/gaussian/g16/AVX/g16/l302.exe)
 NPDir=0 NMtPBC=     1 NCelOv=     1 NCel=       1 NClECP=     1 NCelD=      1
         NCelK=      1 NCelE2=     1 NClLst=     1 CellRange=     0.0.
 One-electron integrals computed using PRISM.
 NBasis=   152 RedAO= T EigKep=  6.51D-05  NBF=   152
 NBsUse=   152 1.00D-06 EigRej= -1.00D+00 NBFU=   152
 Precomputing XC quadrature grid using
 IXCGrd= 4 IRadAn=           5 IRanWt=          -1 IRanGd=           0 AccXCQ= 0.00D+00.
 Generated NRdTot=       0 NPtTot=           0 NUsed=           0 NTot=          32
 NSgBfM=   157   157   157   157   157 MxSgAt=    12 MxSgA2=    12.
 Leave Link  302 at Fri Jun  2 11:18:11 2023, MaxMem=  7381975040 cpu:               1.0 elap:               2.0
 (Enter /software/commercial/gaussian/g16/AVX/g16/l303.exe)
 DipDrv:  MaxL=1.
 Leave Link  303 at Fri Jun  2 11:18:13 2023, MaxMem=  7381975040 cpu:               0.1 elap:               0.6
 (Enter /software/commercial/gaussian/g16/AVX/g16/l401.exe)
 Initial guess from the checkpoint file:  "/scratch1/svicchi/G09-659869.pbs02/02-freq/PG-H_dissociation-site_index-0-freq.chk"
 B after Tr=     0.000000    0.000000    0.000000
         Rot=    1.000000    0.000000    0.000000    0.000000 Ang=   0.00 deg.
 Guess basis will be translated and rotated to current coordinates.
 JPrj=2 DoOrth=T DoCkMO=T.
 Leave Link  401 at Fri Jun  2 11:18:16 2023, MaxMem=  7381975040 cpu:               0.5 elap:               2.2
 (Enter /software/commercial/gaussian/g16/AVX/g16/l502.exe)
 Keep R1 ints in memory in canonical form, NReq=69583966.
 FoFCou: FMM=F IPFlag=           0 FMFlag=           0 FMFlg1=           0
         NFxFlg=           0 DoJE=F BraDBF=F KetDBF=F FulRan=T
         wScrn=  0.000000 ICntrl=       600 IOpCl=  0 I1Cent=           0 NGrid=           0
         NMat0=    1 NMatS0=  11628 NMatT0=    0 NMatD0=    1 NMtDS0=    0 NMtDT0=    0
 Symmetry not used in FoFCou.
 Two-electron integral symmetry not used.
 Closed shell SCF:
 Using DIIS extrapolation, IDIIS=  1040.
 NGot=  7381975040 LenX=  7314312195 LenY=  7314287105
 Requested convergence on RMS density matrix=1.00D-08 within 350 cycles.
 Requested convergence on MAX density matrix=1.00D-06.
 Requested convergence on             energy=1.00D-06.
 No special actions if energy rises.

 Cycle   1  Pass 1  IDiag  1:
 Inv3:  Mode=1 IEnd=     3139587.
 Iteration    1 A*A^-1 deviation from unit magnitude is 3.77D-15 for   1003.
 Iteration    1 A*A^-1 deviation from orthogonality  is 2.43D-15 for   1014    254.
 Iteration    1 A^-1*A deviation from unit magnitude is 3.77D-15 for   1003.
 Iteration    1 A^-1*A deviation from orthogonality  is 5.29D-15 for    972    950.
 E= -269.183849765401    
 DIIS: error= 1.95D-08 at cycle   1 NSaved=   1.
 NSaved= 1 IEnMin= 1 EnMin= -269.183849765401     IErMin= 1 ErrMin= 1.95D-08
 ErrMax= 1.95D-08  0.00D+00 EMaxC= 1.00D-01 BMatC= 8.34D-14 BMatP= 8.34D-14
 IDIUse=1 WtCom= 1.00D+00 WtEn= 0.00D+00
 Coeff-Com:  0.100D+01
 Coeff:      0.100D+01
 Gap=     0.200 Goal=   None    Shift=    0.000
 RMSDP=3.85D-09 MaxDP=1.08D-07              OVMax= 1.61D-07

 Error on total polarization charges =  0.02078
 SCF Done:  E(RB3LYP) =  -269.183849765     A.U. after    1 cycles
            NFock=  1  Conv=0.39D-08     -V/T= 2.0042
 KE= 2.680562927383D+02 PE=-1.012098264788D+03 EE= 2.888317539283D+02
 Leave Link  502 at Fri Jun  2 11:18:28 2023, MaxMem=  7381975040 cpu:              15.9 elap:              10.4
 (Enter /software/commercial/gaussian/g16/AVX/g16/l508.exe)
 QCSCF skips out because SCF is already converged.
 Leave Link  508 at Fri Jun  2 11:18:30 2023, MaxMem=  7381975040 cpu:               0.0 elap:               0.7
 (Enter /software/commercial/gaussian/g16/AVX/g16/l801.exe)
 DoSCS=F DFT=T ScalE2(SS,OS)=  1.000000  1.000000
 Range of M.O.s used for correlation:     1   152
 NBasis=   152 NAE=    21 NBE=    21 NFC=     0 NFV=     0
 NROrb=    152 NOA=    21 NOB=    21 NVA=   131 NVB=   131

 **** Warning!!: The largest alpha MO coefficient is  0.45154077D+02

 Leave Link  801 at Fri Jun  2 11:18:32 2023, MaxMem=  7381975040 cpu:               0.4 elap:               1.1
 (Enter /software/commercial/gaussian/g16/AVX/g16/l1002.exe)
 Minotr:  Closed shell wavefunction.
 NEqPCM:  Using equilibrium solvation (IEInf=0, Eps=  24.8520, EpsInf=   1.8526)
          Direct CPHF calculation.
          Differentiating once with respect to electric field.
                with respect to dipole field.
          Electric field/nuclear overlap derivatives assumed to be zero.
          Requested convergence is 1.0D-08 RMS, and 1.0D-07 maximum.
          Secondary convergence is 1.0D-12 RMS, and 1.0D-12 maximum.
          NewPWx=F KeepS1=T KeepF1=T KeepIn=T MapXYZ=F SortEE=F KeepMc=T.
         3668 words used for storage of precomputed grid.
 Keep R1 ints in memory in canonical form, NReq=71478216.
 FoFCou: FMM=F IPFlag=           0 FMFlag=           0 FMFlg1=           0
         NFxFlg=           0 DoJE=F BraDBF=F KetDBF=F FulRan=T
         wScrn=  0.000000 ICntrl=       600 IOpCl=  0 I1Cent=           0 NGrid=           0
         NMat0=    1 NMatS0=  11628 NMatT0=    0 NMatD0=    1 NMtDS0=    0 NMtDT0=    0
 Symmetry not used in FoFCou.
 Two-electron integral symmetry not used.
          MDV=    7381975040 using IRadAn=       1.
          Solving linear equations simultaneously, MaxMat=       0.
          There are     3 degrees of freedom in the 1st order CPHF.  IDoFFX=0 NUNeed=     3.
      3 vectors produced by pass  0 Test12= 9.17D-14 3.33D-08 XBig12= 3.97D+01 1.52D+00.
 AX will form     3 AO Fock derivatives at one time.
      3 vectors produced by pass  1 Test12= 9.17D-14 3.33D-08 XBig12= 8.61D+00 6.48D-01.
      3 vectors produced by pass  2 Test12= 9.17D-14 3.33D-08 XBig12= 2.29D+00 3.76D-01.
      3 vectors produced by pass  3 Test12= 9.17D-14 3.33D-08 XBig12= 3.33D-01 1.38D-01.
      3 vectors produced by pass  4 Test12= 9.17D-14 3.33D-08 XBig12= 7.24D-02 7.17D-02.
      3 vectors produced by pass  5 Test12= 9.17D-14 3.33D-08 XBig12= 4.96D-03 1.78D-02.
      3 vectors produced by pass  6 Test12= 9.17D-14 3.33D-08 XBig12= 1.79D-04 2.41D-03.
      3 vectors produced by pass  7 Test12= 9.17D-14 3.33D-08 XBig12= 4.89D-06 3.47D-04.
      3 vectors produced by pass  8 Test12= 9.17D-14 3.33D-08 XBig12= 8.65D-08 5.45D-05.
      3 vectors produced by pass  9 Test12= 9.17D-14 3.33D-08 XBig12= 2.11D-09 7.06D-06.
      3 vectors produced by pass 10 Test12= 9.17D-14 3.33D-08 XBig12= 5.06D-11 9.37D-07.
      2 vectors produced by pass 11 Test12= 9.17D-14 3.33D-08 XBig12= 9.93D-13 1.83D-07.
 InvSVY:  IOpt=1 It=  1 EMax= 3.55D-15
 Solved reduced A of dimension    35 with     3 vectors.
 End of Minotr F.D. properties file   721 does not exist.
 End of Minotr F.D. properties file   722 does not exist.
 End of Minotr F.D. properties file   788 does not exist.
 Leave Link 1002 at Fri Jun  2 11:19:17 2023, MaxMem=  7381975040 cpu:              78.9 elap:              44.5
 (Enter /software/commercial/gaussian/g16/AVX/g16/l1101.exe)
 Using compressed storage, NAtomX=    12.
 Will process     13 centers per pass.
 R6Disp: Adding Grimme-D3(BJ) dispersion energy 1st derivatives to the gradient.
 Leave Link 1101 at Fri Jun  2 11:19:19 2023, MaxMem=  7381975040 cpu:               0.5 elap:               0.8
 (Enter /software/commercial/gaussian/g16/AVX/g16/l1102.exe)
 Symmetrizing basis deriv contribution to polar:
 IMax=3 JMax=2 DiffMx= 0.00D+00
 Leave Link 1102 at Fri Jun  2 11:19:21 2023, MaxMem=  7381975040 cpu:               0.1 elap:               1.2
 (Enter /software/commercial/gaussian/g16/AVX/g16/l1110.exe)
 Forming Gx(P) for the SCF density, NAtomX=    12.
 Integral derivatives from FoFJK, PRISM(SPDF).
 Do as many integral derivatives as possible in FoFJK.
 G2DrvN: MDV=    7381973668.
 G2DrvN: will do    13 centers at a time, making    1 passes.
 PxScal for G2LodP:  IOpCl= 0 ISclPx=1 IMOff=     1 NMtTot=     4 NTT=   11628 ScalPx= 2.69D+01
 Calling FoFCou, ICntrl=  3107 FMM=F I1Cent=   0 AccDes= 0.00D+00.
 FoFJK:  IHMeth= 1 ICntrl=    3107 DoSepK=F KAlg= 0 I1Cent=           0 FoldK=F
 IRaf=         0 NMat=       1 IRICut=       1 DoRegI=T DoRafI=F ISym2E= 0 IDoP0=0 IntGTp=1.
 FoFCou: FMM=F IPFlag=           0 FMFlag=      100000 FMFlg1=           0
         NFxFlg=           0 DoJE=F BraDBF=F KetDBF=F FulRan=T
         wScrn=  0.000000 ICntrl=      3107 IOpCl=  0 I1Cent=           0 NGrid=           0
         NMat0=    1 NMatS0=      1 NMatT0=    0 NMatD0=    4 NMtDS0=    3 NMtDT0=    0
 Symmetry not used in FoFCou.
 PxScal for G2LodP:  IOpCl= 0 ISclPx=0 IMOff=     1 NMtTot=     4 NTT=   11628 ScalPx= 1.00D+00
 NEqPCM:  Using equilibrium solvation (IEInf=0, Eps=  24.8520, EpsInf=   1.8526)
 G2PCM: DoFxE=T DoFxN=T DoGrad=T DoDP/DQ/DG/TGxP=TFFF NFrqRd=   0 IEInf=0 SqF1=F DoCFld=F IF1Alg=4.
 GePol: Maximum number of non-zero 1st derivatives   =     215
 End of G2Drv F.D. properties file   721 does not exist.
 End of G2Drv F.D. properties file   722 does not exist.
 End of G2Drv F.D. properties file   788 does not exist.
 Leave Link 1110 at Fri Jun  2 11:21:23 2023, MaxMem=  7381975040 cpu:             233.2 elap:             120.0
 (Enter /software/commercial/gaussian/g16/AVX/g16/l1002.exe)
 Minotr:  Closed shell wavefunction.
          IDoAtm=111111111111
 NEqPCM:  Using equilibrium solvation (IEInf=0, Eps=  24.8520, EpsInf=   1.8526)
          Direct CPHF calculation.
          Differentiating once with respect to electric field.
                with respect to dipole field.
          Differentiating once with respect to nuclear coordinates.
          Requested convergence is 1.0D-08 RMS, and 1.0D-07 maximum.
          Secondary convergence is 1.0D-12 RMS, and 1.0D-12 maximum.
          NewPWx=T KeepS1=F KeepF1=F KeepIn=T MapXYZ=F SortEE=F KeepMc=T.
         3668 words used for storage of precomputed grid.
 Keep R1 ints in memory in canonical form, NReq=71478492.
 FoFCou: FMM=F IPFlag=           0 FMFlag=           0 FMFlg1=           0
         NFxFlg=           0 DoJE=F BraDBF=F KetDBF=F FulRan=T
         wScrn=  0.000000 ICntrl=       600 IOpCl=  0 I1Cent=           0 NGrid=           0
         NMat0=    1 NMatS0=  11628 NMatT0=    0 NMatD0=    1 NMtDS0=    0 NMtDT0=    0
 Symmetry not used in FoFCou.
 Two-electron integral symmetry not used.
          MDV=    7381975040 using IRadAn=       1.
          Solving linear equations simultaneously, MaxMat=       0.
          There are    39 degrees of freedom in the 1st order CPHF.  IDoFFX=5 NUNeed=    39.
 Will reuse    3 saved solutions.
     33 vectors produced by pass  0 Test12= 7.05D-15 2.56D-09 XBig12= 1.06D-01 7.57D-02.
 AX will form    33 AO Fock derivatives at one time.
     33 vectors produced by pass  1 Test12= 7.05D-15 2.56D-09 XBig12= 5.35D-03 1.30D-02.
     33 vectors produced by pass  2 Test12= 7.05D-15 2.56D-09 XBig12= 1.22D-04 1.99D-03.
     33 vectors produced by pass  3 Test12= 7.05D-15 2.56D-09 XBig12= 4.45D-07 1.16D-04.
     33 vectors produced by pass  4 Test12= 7.05D-15 2.56D-09 XBig12= 1.19D-09 5.63D-06.
     28 vectors produced by pass  5 Test12= 7.05D-15 2.56D-09 XBig12= 1.93D-12 2.03D-07.
      8 vectors produced by pass  6 Test12= 7.05D-15 2.56D-09 XBig12= 2.63D-15 7.12D-09.
 InvSVY:  IOpt=1 It=  1 EMax= 2.44D-15
 Solved reduced A of dimension   201 with    33 vectors.
 FullF1:  Do perturbations      1 to       3.
 Isotropic polarizability for W=    0.000000       72.38 Bohr**3.
 FullF1:  Do perturbations      1 to       6.
 End of Minotr F.D. properties file   721 does not exist.
 End of Minotr F.D. properties file   722 does not exist.
 End of Minotr F.D. properties file   788 does not exist.
 Leave Link 1002 at Fri Jun  2 11:23:28 2023, MaxMem=  7381975040 cpu:             232.1 elap:             124.1
 (Enter /software/commercial/gaussian/g16/AVX/g16/l601.exe)
 Copying SCF densities to generalized density rwf, IOpCl= 0 IROHF=0.

 **********************************************************************

            Population analysis using the SCF Density.

 **********************************************************************

 Alpha  occ. eigenvalues --  -19.08408 -19.00481 -10.18690 -10.16681 -10.14547
 Alpha  occ. eigenvalues --   -0.99124  -0.88478  -0.73539  -0.62166  -0.54432
 Alpha  occ. eigenvalues --   -0.47083  -0.44504  -0.39972  -0.38128  -0.36956
 Alpha  occ. eigenvalues --   -0.34645  -0.32826  -0.29886  -0.25230  -0.19222
 Alpha  occ. eigenvalues --   -0.18104
 Alpha virt. eigenvalues --    0.01852   0.03236   0.03783   0.04439   0.06970
 Alpha virt. eigenvalues --    0.07671   0.07880   0.08281   0.09668   0.11891
 Alpha virt. eigenvalues --    0.12712   0.13727   0.17113   0.18354   0.19334
 Alpha virt. eigenvalues --    0.20521   0.21944   0.22399   0.22966   0.23815
 Alpha virt. eigenvalues --    0.25729   0.26570   0.27239   0.27614   0.28103
 Alpha virt. eigenvalues --    0.29150   0.30073   0.31557   0.33583   0.36704
 Alpha virt. eigenvalues --    0.39071   0.43241   0.45732   0.48243   0.50417
 Alpha virt. eigenvalues --    0.54822   0.55327   0.59600   0.61220   0.63644
 Alpha virt. eigenvalues --    0.64536   0.66259   0.68272   0.70366   0.71550
 Alpha virt. eigenvalues --    0.74257   0.75260   0.86934   0.94357   0.96538
 Alpha virt. eigenvalues --    1.00006   1.04054   1.10164   1.14295   1.15850
 Alpha virt. eigenvalues --    1.17490   1.20356   1.23660   1.30104   1.36820
 Alpha virt. eigenvalues --    1.37763   1.46096   1.47540   1.51241   1.52670
 Alpha virt. eigenvalues --    1.56613   1.58441   1.59078   1.60351   1.61910
 Alpha virt. eigenvalues --    1.65843   1.67928   1.70139   1.77174   1.78685
 Alpha virt. eigenvalues --    1.79404   1.81931   1.89560   1.91483   2.00816
 Alpha virt. eigenvalues --    2.04269   2.10717   2.13188   2.16489   2.17796
 Alpha virt. eigenvalues --    2.21587   2.32910   2.39636   2.45230   2.47565
 Alpha virt. eigenvalues --    2.48557   2.54860   2.56629   2.58444   2.59822
 Alpha virt. eigenvalues --    2.60567   2.65207   2.73871   2.79039   2.82842
 Alpha virt. eigenvalues --    2.85547   2.92815   2.99071   3.00454   3.10339
 Alpha virt. eigenvalues --    3.15002   3.17661   3.19371   3.31533   3.32178
 Alpha virt. eigenvalues --    3.41485   3.43487   3.76363   3.80143   3.83174
 Alpha virt. eigenvalues --    3.85253   3.99339   4.08509   4.17363   4.32869
 Alpha virt. eigenvalues --    5.07544   5.13672   5.21106   5.46732   5.60040
 Alpha virt. eigenvalues --    5.68805  23.80123  23.86406  23.96814  49.94883
 Alpha virt. eigenvalues --   50.00465
     Molecular Orbital Coefficients:
                           1         2         3         4         5
                           O         O         O         O         O
     Eigenvalues --   -19.08408 -19.00481 -10.18690 -10.16681 -10.14547
   1 1   O  1S         -0.00001   0.55136   0.00000  -0.00003   0.00000
   2        2S         -0.00001   0.46977  -0.00000  -0.00008   0.00000
   3        2PX         0.00001   0.00076   0.00001   0.00015   0.00001
   4        2PY         0.00003   0.00064   0.00002   0.00017   0.00002
   5        2PZ         0.00000  -0.00021  -0.00001  -0.00005  -0.00000
   6        3S          0.00004   0.01334   0.00012   0.00068  -0.00004
   7        3PX         0.00000   0.00018  -0.00006  -0.00011  -0.00004
   8        3PY        -0.00011  -0.00002  -0.00008  -0.00021  -0.00007
   9        3PZ        -0.00001   0.00000   0.00005   0.00006   0.00001
  10        4S          0.00012  -0.00995  -0.00102  -0.00066   0.00021
  11        4PX        -0.00023  -0.00144  -0.00054  -0.00010   0.00015
  12        4PY         0.00027  -0.00072  -0.00032   0.00002   0.00022
  13        4PZ         0.00002   0.00024  -0.00002  -0.00005   0.00001
  14        5S         -0.00069   0.00655  -0.00085   0.00705   0.00088
  15        5PX        -0.00007   0.00094  -0.00036   0.00270   0.00006
  16        5PY        -0.00035  -0.00006  -0.00013   0.00085  -0.00001
  17        5PZ         0.00014  -0.00009   0.00007  -0.00022  -0.00021
  18        6D 0        0.00005  -0.00000   0.00001   0.00019   0.00000
  19        6D+1        0.00000  -0.00002  -0.00002   0.00009   0.00000
  20        6D-1        0.00001  -0.00000   0.00003   0.00010   0.00001
  21        6D+2       -0.00003  -0.00001  -0.00000  -0.00002   0.00001
  22        6D-2        0.00002   0.00002  -0.00010  -0.00033  -0.00001
  23 2   C  1S         -0.00000   0.00002   0.00265   0.56307   0.00010
  24        2S          0.00001  -0.00007   0.00219   0.46333   0.00010
  25        2PX         0.00006  -0.00016   0.00035  -0.00027   0.00006
  26        2PY        -0.00000  -0.00016  -0.00020  -0.00040  -0.00003
  27        2PZ        -0.00002   0.00003  -0.00014   0.00004  -0.00002
  28        3S          0.00002   0.00022   0.00000   0.01826  -0.00016
  29        3PX        -0.00029  -0.00003  -0.00068   0.00023  -0.00030
  30        3PY         0.00011   0.00021   0.00051   0.00172   0.00017
  31        3PZ         0.00009   0.00009   0.00032   0.00003   0.00007
  32        4S         -0.00165   0.00489   0.00680  -0.01435   0.00029
  33        4PX        -0.00065  -0.00018   0.00208  -0.00070   0.00077
  34        4PY         0.00055  -0.00170  -0.00138   0.00202   0.00061
  35        4PZ        -0.00021   0.00023   0.00002  -0.00026  -0.00034
  36        5S          0.01051  -0.01262   0.00148  -0.01301  -0.00495
  37        5PX         0.00217  -0.00146  -0.00005  -0.00299  -0.00110
  38        5PY        -0.00182   0.00290  -0.00032   0.00021   0.00092
  39        5PZ         0.00018   0.00043  -0.00038   0.00012   0.00020
  40        6D 0        0.00002   0.00019   0.00028   0.00064   0.00004
  41        6D+1       -0.00001   0.00012   0.00039   0.00050   0.00008
  42        6D-1       -0.00011   0.00008  -0.00024  -0.00011  -0.00001
  43        6D+2       -0.00009  -0.00008  -0.00039  -0.00057  -0.00007
  44        6D-2        0.00009  -0.00027   0.00049  -0.00003   0.00010
  45 3   C  1S          0.00001   0.00000   0.56305  -0.00267  -0.00164
  46        2S         -0.00004  -0.00001   0.46337  -0.00221  -0.00135
  47        2PX         0.00002  -0.00004   0.00026  -0.00034   0.00042
  48        2PY        -0.00007   0.00002  -0.00072   0.00026   0.00030
  49        2PZ         0.00011  -0.00000   0.00055   0.00012   0.00009
  50        3S         -0.00026   0.00023   0.01862   0.00000   0.00022
  51        3PX        -0.00001   0.00022  -0.00008   0.00058  -0.00092
  52        3PY        -0.00047  -0.00011   0.00033  -0.00066  -0.00070
  53        3PZ        -0.00015  -0.00001  -0.00163  -0.00033  -0.00036
  54        4S          0.00549  -0.00252  -0.02072   0.00383   0.00154
  55        4PX        -0.00019   0.00106   0.00039  -0.00104   0.00111
  56        4PY        -0.00049  -0.00070  -0.00099   0.00085   0.00044
  57        4PZ         0.00143  -0.00066  -0.00328   0.00042   0.00008
  58        5S         -0.02491   0.01488  -0.00255   0.00901   0.01716
  59        5PX         0.00020  -0.00163   0.00098  -0.00046   0.00144
  60        5PY        -0.00114   0.00185   0.00078   0.00137   0.00255
  61        5PZ        -0.00429   0.00089   0.00101   0.00095   0.00121
  62        6D 0        0.00007   0.00001   0.00082   0.00036   0.00048
  63        6D+1       -0.00001   0.00004   0.00010   0.00023  -0.00016
  64        6D-1        0.00011  -0.00006   0.00070  -0.00009  -0.00004
  65        6D+2        0.00007  -0.00012   0.00019  -0.00019  -0.00022
  66        6D-2        0.00007   0.00010   0.00026   0.00056  -0.00058
  67 4   H  1S          0.00005   0.00004  -0.00006   0.00013   0.00001
  68        2S          0.00006  -0.00113  -0.00097  -0.00251  -0.00040
  69        3S          0.00012   0.00004   0.00017   0.00378   0.00029
  70        4PX        -0.00005   0.00015   0.00019   0.00042  -0.00002
  71        4PY         0.00005   0.00032   0.00010   0.00098  -0.00002
  72        4PZ         0.00002   0.00017   0.00020   0.00164   0.00008
  73 5   H  1S         -0.00001   0.00002  -0.00006   0.00013   0.00007
  74        2S         -0.00005  -0.00092  -0.00090  -0.00286  -0.00047
  75        3S          0.00027   0.00019   0.00061   0.00363  -0.00038
  76        4PX         0.00002   0.00007   0.00001  -0.00048  -0.00014
  77        4PY        -0.00002   0.00029   0.00014   0.00115   0.00003
  78        4PZ        -0.00004  -0.00018  -0.00028  -0.00162  -0.00009
  79 6   C  1S          0.00000  -0.00000   0.00161  -0.00010   0.56294
  80        2S          0.00000   0.00000   0.00132  -0.00007   0.46319
  81        2PX        -0.00006  -0.00001  -0.00044  -0.00007  -0.00004
  82        2PY        -0.00005   0.00000  -0.00029  -0.00004  -0.00000
  83        2PZ        -0.00001  -0.00001  -0.00011   0.00001  -0.00007
  84        3S          0.00007  -0.00008   0.00017  -0.00012   0.01923
  85        3PX         0.00033   0.00005   0.00125   0.00043   0.00121
  86        3PY         0.00028   0.00002   0.00079   0.00021   0.00082
  87        3PZ         0.00004   0.00002   0.00027  -0.00004   0.00026
  88        4S         -0.00140   0.00077   0.00579  -0.00028  -0.00992
  89        4PX         0.00048  -0.00056  -0.00221  -0.00025   0.00108
  90        4PY         0.00058   0.00016  -0.00126   0.00048   0.00048
  91        4PZ        -0.00035   0.00025   0.00027   0.00056  -0.00010
  92        5S          0.01021  -0.00385  -0.00197   0.00061  -0.01577
  93        5PX        -0.00211   0.00090   0.00074  -0.00084   0.00239
  94        5PY        -0.00195   0.00024   0.00018   0.00059   0.00145
  95        5PZ         0.00060   0.00029  -0.00037   0.00022   0.00015
  96        6D 0        0.00008   0.00002   0.00041   0.00006   0.00031
  97        6D+1        0.00004  -0.00001  -0.00033  -0.00006  -0.00016
  98        6D-1       -0.00006  -0.00004  -0.00025   0.00000  -0.00010
  99        6D+2       -0.00004  -0.00001  -0.00034  -0.00004  -0.00017
 100        6D-2       -0.00013   0.00000  -0.00080  -0.00017  -0.00055
 101 7   H  1S         -0.00001   0.00002  -0.00007   0.00003   0.00022
 102        2S         -0.00018  -0.00025  -0.00099  -0.00024  -0.00311
 103        3S          0.00030  -0.00006   0.00061  -0.00044   0.00393
 104        4PX        -0.00005   0.00002  -0.00008   0.00008  -0.00024
 105        4PY         0.00004   0.00002   0.00027   0.00006   0.00170
 106        4PZ        -0.00003  -0.00005  -0.00026  -0.00010  -0.00113
 107 8   H  1S          0.00002   0.00001  -0.00006  -0.00004   0.00024
 108        2S          0.00002  -0.00004  -0.00100   0.00004  -0.00334
 109        3S         -0.00028   0.00024   0.00027   0.00056   0.00400
 110        4PX         0.00008   0.00003   0.00032   0.00002   0.00165
 111        4PY        -0.00000   0.00001  -0.00019  -0.00005  -0.00115
 112        4PZ        -0.00001  -0.00000  -0.00015  -0.00004  -0.00060
 113 9   H  1S          0.00003   0.00002  -0.00008   0.00003   0.00020
 114        2S         -0.00002  -0.00026  -0.00099  -0.00033  -0.00307
 115        3S         -0.00003  -0.00017   0.00036  -0.00095   0.00426
 116        4PX         0.00007   0.00001  -0.00010   0.00010   0.00004
 117        4PY         0.00010  -0.00003   0.00000   0.00000   0.00046
 118        4PZ         0.00007   0.00004   0.00029   0.00008   0.00200
 119 10  O  1S          0.55133   0.00001  -0.00002   0.00000   0.00000
 120        2S          0.46973   0.00001  -0.00005   0.00001   0.00001
 121        2PX        -0.00082   0.00001  -0.00003  -0.00003  -0.00000
 122        2PY         0.00068   0.00002   0.00015   0.00003   0.00003
 123        2PZ        -0.00037  -0.00002  -0.00008  -0.00001  -0.00002
 124        3S          0.01370   0.00003   0.00037   0.00003   0.00001
 125        3PX        -0.00006  -0.00005   0.00011   0.00015  -0.00001
 126        3PY         0.00000  -0.00004  -0.00011  -0.00010  -0.00014
 127        3PZ         0.00004   0.00007  -0.00003   0.00003   0.00006
 128        4S         -0.01080   0.00008   0.00050  -0.00091  -0.00044
 129        4PX         0.00037   0.00035   0.00056   0.00012   0.00013
 130        4PY        -0.00144  -0.00007   0.00090  -0.00026   0.00001
 131        4PZ         0.00077  -0.00003  -0.00003   0.00018   0.00007
 132        5S          0.01049  -0.00034   0.00813   0.00180  -0.00050
 133        5PX        -0.00098  -0.00062  -0.00184  -0.00103   0.00033
 134        5PY         0.00109  -0.00049   0.00173  -0.00002   0.00016
 135        5PZ        -0.00024   0.00032  -0.00119   0.00013  -0.00008
 136        6D 0       -0.00005   0.00001   0.00004   0.00000  -0.00001
 137        6D+1       -0.00005  -0.00003  -0.00002  -0.00002   0.00001
 138        6D-1        0.00005   0.00002   0.00024   0.00005   0.00005
 139        6D+2        0.00013  -0.00000   0.00003  -0.00001   0.00002
 140        6D-2        0.00005   0.00008   0.00005  -0.00001   0.00003
 141 11  H  1S          0.00005   0.00003  -0.00003  -0.00009  -0.00009
 142        2S         -0.00119   0.00011  -0.00263  -0.00068  -0.00057
 143        3S          0.00061  -0.00099   0.00309   0.00003  -0.00009
 144        4PX         0.00001   0.00003  -0.00014  -0.00009   0.00004
 145        4PY         0.00007  -0.00002  -0.00061  -0.00004  -0.00005
 146        4PZ        -0.00036  -0.00004  -0.00209  -0.00025  -0.00030
 147 12  H  1S          0.00005  -0.00021  -0.00010  -0.00018   0.00001
 148        2S          0.00076   0.00090   0.00107   0.00106   0.00015
 149        3S         -0.00236  -0.00200  -0.00296  -0.00350   0.00046
 150        4PX        -0.00051  -0.00024   0.00020   0.00010   0.00004
 151        4PY         0.00010   0.00025   0.00025   0.00034  -0.00000
 152        4PZ         0.00003  -0.00012  -0.00024  -0.00010  -0.00005
                           6         7         8         9        10
                           O         O         O         O         O
     Eigenvalues --    -0.99124  -0.88478  -0.73539  -0.62166  -0.54432
   1 1   O  1S         -0.02119  -0.10369   0.01928   0.04177  -0.02761
   2        2S         -0.03375  -0.16572   0.03094   0.06723  -0.04459
   3        2PX         0.01275   0.03928  -0.00054   0.01544  -0.01485
   4        2PY         0.00443   0.03426   0.00145   0.01292  -0.02111
   5        2PZ        -0.00184  -0.01026  -0.00151  -0.00699  -0.00417
   6        3S          0.09556   0.47623  -0.09010  -0.19766   0.13250
   7        3PX         0.01964   0.06091  -0.00108   0.02159  -0.02011
   8        3PY         0.00769   0.05253   0.00171   0.01805  -0.03035
   9        3PZ        -0.00300  -0.01574  -0.00199  -0.01004  -0.00626
  10        4S          0.07107   0.37520  -0.07815  -0.19122   0.13112
  11        4PX         0.01122   0.03394  -0.00191   0.00817  -0.01324
  12        4PY         0.00099   0.02149   0.00268   0.01168  -0.02023
  13        4PZ        -0.00101  -0.00701  -0.00167  -0.00605  -0.00476
  14        5S         -0.00387  -0.02393  -0.00065  -0.03442   0.02573
  15        5PX        -0.00217  -0.01143   0.00352  -0.00069  -0.00376
  16        5PY         0.00060  -0.00089   0.00080  -0.00290  -0.00014
  17        5PZ         0.00018   0.00124   0.00045   0.00063   0.00023
  18        6D 0       -0.00182  -0.00549   0.00045  -0.00032   0.00121
  19        6D+1       -0.00065  -0.00258  -0.00029  -0.00109  -0.00106
  20        6D-1       -0.00059  -0.00276   0.00015  -0.00034   0.00001
  21        6D+2        0.00128   0.00098   0.00032   0.00083   0.00137
  22        6D-2        0.00154   0.00846   0.00021   0.00163  -0.00186
  23 2   C  1S         -0.01860  -0.05556  -0.02404  -0.06429   0.05125
  24        2S         -0.02860  -0.08569  -0.03724  -0.10021   0.08010
  25        2PX         0.00104  -0.04155   0.03352   0.05138  -0.00613
  26        2PY        -0.01466  -0.03810   0.00918   0.02545  -0.06058
  27        2PZ         0.00227   0.01095  -0.00982  -0.02053  -0.01540
  28        3S          0.07346   0.22672   0.09888   0.27254  -0.21963
  29        3PX         0.00578  -0.06349   0.05085   0.07459  -0.00290
  30        3PY        -0.02588  -0.06335   0.00920   0.02832  -0.08461
  31        3PZ         0.00151   0.01621  -0.01492  -0.03011  -0.02400
  32        4S          0.02905   0.05240   0.05047   0.18093  -0.15732
  33        4PX         0.00361  -0.01371   0.01347   0.02507  -0.00844
  34        4PY        -0.00441   0.00102   0.00557   0.01336  -0.04707
  35        4PZ         0.00145   0.00332  -0.00649  -0.00920  -0.00966
  36        5S         -0.04766   0.12603   0.03681   0.05113  -0.00703
  37        5PX        -0.01115   0.02263   0.00802   0.01013   0.00176
  38        5PY         0.00868  -0.02081  -0.00222  -0.00001  -0.00099
  39        5PZ        -0.00081  -0.00358  -0.00050   0.00084   0.00072
  40        6D 0       -0.00496  -0.01200  -0.00073   0.00258  -0.00687
  41        6D+1       -0.00240  -0.00658  -0.00174  -0.00040  -0.00658
  42        6D-1       -0.00044  -0.00627   0.00241   0.00314   0.00220
  43        6D+2        0.00116   0.00028   0.00486  -0.00010   0.00380
  44        6D-2       -0.00007   0.02115  -0.00625  -0.01121  -0.00124
  45 3   C  1S         -0.04368   0.00003  -0.06344  -0.04318  -0.05690
  46        2S         -0.06743   0.00009  -0.09857  -0.06757  -0.08964
  47        2PX        -0.00352  -0.01491   0.02739  -0.06292   0.03222
  48        2PY        -0.03530   0.01710   0.04049   0.01037  -0.05470
  49        2PZ         0.02558  -0.00533  -0.00766  -0.00941  -0.04480
  50        3S          0.17616  -0.00349   0.26393   0.18553   0.25261
  51        3PX        -0.00760  -0.02652   0.04342  -0.09856   0.05014
  52        3PY        -0.05614   0.02827   0.06010   0.01325  -0.08907
  53        3PZ         0.04797  -0.00819  -0.00479  -0.00847  -0.05810
  54        4S          0.04956   0.03863   0.16790   0.12359   0.17137
  55        4PX        -0.00294  -0.01697   0.01783  -0.03999   0.01670
  56        4PY        -0.00629   0.00814   0.02517   0.00979  -0.03928
  57        4PZ         0.00587   0.00647   0.00114  -0.00529  -0.04414
  58        5S          0.14340  -0.14890  -0.12306  -0.00539   0.00472
  59        5PX        -0.00168   0.01465  -0.00978   0.01480   0.00280
  60        5PY         0.00234  -0.01698  -0.01776  -0.00254  -0.00781
  61        5PZ         0.02524  -0.01400  -0.01718  -0.01118  -0.01395
  62        6D 0       -0.00291  -0.00176  -0.00524   0.00088   0.00532
  63        6D+1       -0.00213  -0.00295   0.00232  -0.00524   0.00471
  64        6D-1       -0.01903   0.00655   0.00512   0.00175  -0.00563
  65        6D+2       -0.01170   0.00821   0.00593  -0.00134  -0.00522
  66        6D-2        0.00052  -0.00288   0.00439  -0.01240   0.00144
  67 4   H  1S          0.00701   0.02229   0.01991   0.05539  -0.07799
  68        2S          0.00923   0.03382   0.02420   0.06616  -0.09664
  69        3S         -0.00501  -0.00816  -0.00081   0.00408  -0.01623
  70        4PX        -0.00049  -0.00283   0.00093  -0.00014   0.00148
  71        4PY        -0.00226  -0.00579  -0.00202  -0.00475   0.00429
  72        4PZ        -0.00201  -0.00583  -0.00377  -0.00942   0.00967
  73 5   H  1S          0.00556   0.02241   0.01997   0.06314  -0.06248
  74        2S          0.00841   0.03345   0.02283   0.07697  -0.07660
  75        3S         -0.00442  -0.00754  -0.00305   0.00599  -0.01519
  76        4PX         0.00034   0.00030   0.00254   0.00539  -0.00246
  77        4PY        -0.00182  -0.00620  -0.00237  -0.00629   0.00271
  78        4PZ         0.00187   0.00570   0.00287   0.00784  -0.00819
  79 6   C  1S         -0.00923   0.00075  -0.08512   0.06138   0.02346
  80        2S         -0.01421   0.00116  -0.13159   0.09541   0.03654
  81        2PX        -0.00600  -0.00054  -0.01965  -0.03744  -0.03040
  82        2PY        -0.00610   0.00202  -0.00861  -0.01170  -0.04989
  83        2PZ         0.00074  -0.00038  -0.00494  -0.00486  -0.02295
  84        3S          0.03576  -0.00256   0.34390  -0.25312  -0.09680
  85        3PX        -0.01484  -0.00025  -0.03546  -0.05314  -0.04622
  86        3PY        -0.01377   0.00381  -0.01643  -0.01637  -0.07295
  87        3PZ         0.00046  -0.00034  -0.00927  -0.00653  -0.03408
  88        4S          0.01982  -0.00824   0.18342  -0.17443  -0.06814
  89        4PX        -0.00158   0.00368  -0.00147  -0.02541  -0.02471
  90        4PY        -0.00580   0.00188   0.00284  -0.00906  -0.04102
  91        4PZ        -0.00006  -0.00349  -0.00357  -0.00496  -0.01632
  92        5S         -0.05392   0.03219   0.09921  -0.05240  -0.01433
  93        5PX         0.01164  -0.00685  -0.01760   0.00854   0.00308
  94        5PY         0.01134  -0.00458  -0.01191   0.00629   0.00028
  95        5PZ        -0.00390  -0.00109   0.00139   0.00289   0.00333
  96        6D 0       -0.00272   0.00018  -0.00310  -0.00366  -0.00507
  97        6D+1       -0.00019   0.00031   0.00241   0.00184   0.00403
  98        6D-1        0.00091  -0.00008   0.00124   0.00084   0.00387
  99        6D+2        0.00107   0.00068   0.00336   0.00464   0.00040
 100        6D-2        0.00458  -0.00084   0.00455   0.00488   0.00904
 101 7   H  1S          0.00294   0.00047   0.06119  -0.05483  -0.04218
 102        2S          0.00621   0.00046   0.07207  -0.06762  -0.05482
 103        3S         -0.00409   0.00130  -0.00773  -0.00350  -0.00541
 104        4PX        -0.00016  -0.00016  -0.00035  -0.00243  -0.00131
 105        4PY        -0.00172   0.00014  -0.01095   0.00765   0.00315
 106        4PZ         0.00106   0.00015   0.00651  -0.00536  -0.00498
 107 8   H  1S          0.00423  -0.00116   0.05688  -0.06670  -0.01833
 108        2S          0.00443  -0.00059   0.06910  -0.08088  -0.02398
 109        3S         -0.00110  -0.00066  -0.00677  -0.00325  -0.00549
 110        4PX        -0.00168   0.00005  -0.01081   0.00813  -0.00006
 111        4PY         0.00028  -0.00015   0.00526  -0.00663  -0.00398
 112        4PZ         0.00068  -0.00010   0.00296  -0.00354  -0.00184
 113 9   H  1S          0.00464  -0.00034   0.05796  -0.05807  -0.04890
 114        2S          0.00621   0.00088   0.06984  -0.07031  -0.06225
 115        3S         -0.00138   0.00279  -0.00547   0.00044  -0.00820
 116        4PX        -0.00044  -0.00002  -0.00202  -0.00125  -0.00040
 117        4PY        -0.00102   0.00039  -0.00338   0.00210  -0.00087
 118        4PZ        -0.00165   0.00005  -0.01183   0.00974   0.00657
 119 10  O  1S         -0.10567   0.03371   0.02971   0.01546   0.01647
 120        2S         -0.16902   0.05407   0.04786   0.02500   0.02658
 121        2PX        -0.03380   0.00354   0.02842  -0.00056   0.05654
 122        2PY         0.03075  -0.00479   0.02485   0.02504   0.05856
 123        2PZ        -0.01617   0.00409  -0.01553  -0.01962  -0.07249
 124        3S          0.48791  -0.15754  -0.14227  -0.07491  -0.07917
 125        3PX        -0.05265   0.00665   0.04268   0.00030   0.08207
 126        3PY         0.04992  -0.00824   0.03665   0.03693   0.08574
 127        3PZ        -0.02667   0.00652  -0.02272  -0.02878  -0.10635
 128        4S          0.36209  -0.13384  -0.12364  -0.07112  -0.07914
 129        4PX        -0.01819   0.00269   0.01986  -0.00524   0.05070
 130        4PY         0.02351  -0.00610   0.01855   0.02105   0.05429
 131        4PZ        -0.01318   0.00435  -0.01232  -0.01817  -0.07132
 132        5S         -0.05922   0.00707  -0.00436  -0.00911  -0.02303
 133        5PX         0.00439   0.00458  -0.00150   0.00671   0.00184
 134        5PY        -0.01207   0.00473  -0.00298   0.00048   0.00363
 135        5PZ         0.00462  -0.00229   0.00206   0.00148   0.00167
 136        6D 0       -0.00411   0.00054   0.00114   0.00076   0.00482
 137        6D+1       -0.00082   0.00060   0.00062   0.00229   0.00231
 138        6D-1       -0.00721   0.00165  -0.00202  -0.00229  -0.00715
 139        6D+2        0.00101  -0.00023  -0.00538  -0.00318  -0.00745
 140        6D-2       -0.00110  -0.00082   0.00026  -0.00340  -0.00011
 141 11  H  1S          0.01686   0.00094   0.04314   0.04130   0.08801
 142        2S          0.02812  -0.00357   0.04942   0.05050   0.10915
 143        3S         -0.00890   0.00635   0.00082   0.00446   0.01468
 144        4PX         0.00024  -0.00054   0.00178  -0.00262   0.00288
 145        4PY         0.00112   0.00044   0.00440   0.00294   0.00230
 146        4PZ         0.00846  -0.00054   0.00864   0.00702   0.01214
 147 12  H  1S          0.08209  -0.01379  -0.04356  -0.02012  -0.06238
 148        2S          0.06640  -0.00464  -0.04403  -0.02515  -0.07335
 149        3S          0.00714   0.01118  -0.00761  -0.00165  -0.01341
 150        4PX         0.02113  -0.00762  -0.00927  -0.00284  -0.01541
 151        4PY         0.00541   0.00288   0.00034   0.00306   0.00245
 152        4PZ        -0.00584   0.00023   0.00106  -0.00142  -0.00283
                          11        12        13        14        15
                           O         O         O         O         O
     Eigenvalues --    -0.47083  -0.44504  -0.39972  -0.38128  -0.36956
   1 1   O  1S         -0.00137   0.00264   0.02155   0.00634   0.00515
   2        2S         -0.00232   0.00424   0.03484   0.01027   0.00828
   3        2PX        -0.01231  -0.02855   0.06324   0.02843   0.02381
   4        2PY         0.04219   0.04615   0.02642   0.01019   0.03432
   5        2PZ         0.01013  -0.02851  -0.03161   0.06574   0.01541
   6        3S          0.00924  -0.01174  -0.10291  -0.03086  -0.02344
   7        3PX        -0.01715  -0.04224   0.09056   0.04077   0.03437
   8        3PY         0.06153   0.06783   0.03656   0.01467   0.04881
   9        3PZ         0.01479  -0.04199  -0.04549   0.09615   0.02300
  10        4S         -0.00388  -0.01672  -0.13140  -0.03848  -0.03647
  11        4PX        -0.02071  -0.03393   0.06209   0.03240   0.02104
  12        4PY         0.04502   0.05113   0.02247   0.00842   0.03786
  13        4PZ         0.01260  -0.03101  -0.03454   0.07664   0.01790
  14        5S          0.00339  -0.00213  -0.05442  -0.01717  -0.01679
  15        5PX         0.00659   0.00063   0.00820   0.00262   0.00303
  16        5PY         0.00265   0.00339  -0.00003   0.00241   0.00568
  17        5PZ        -0.00265  -0.00027  -0.00418   0.00661  -0.00015
  18        6D 0       -0.00086   0.00132  -0.00202  -0.00340  -0.00214
  19        6D+1        0.00185  -0.00226  -0.00354   0.00586   0.00119
  20        6D-1        0.00085  -0.00329  -0.00197   0.00506   0.00172
  21        6D+2       -0.00376  -0.00710   0.00319   0.00103   0.00025
  22        6D-2        0.00388   0.00226   0.00329   0.00202   0.00345
  23 2   C  1S         -0.01283  -0.01574  -0.01710  -0.00594  -0.00280
  24        2S         -0.02035  -0.02493  -0.02722  -0.00940  -0.00465
  25        2PX        -0.03005  -0.08264  -0.01954   0.01718  -0.01197
  26        2PY         0.03929   0.07488  -0.05278   0.01268  -0.01572
  27        2PZ         0.05101  -0.06013  -0.02360   0.12905   0.05928
  28        3S          0.05742   0.07062   0.07975   0.02476   0.01457
  29        3PX        -0.04518  -0.12178  -0.03213   0.02353  -0.01873
  30        3PY         0.05362   0.10540  -0.08355   0.02014  -0.02774
  31        3PZ         0.07689  -0.08497  -0.03418   0.18709   0.08677
  32        4S          0.05648   0.06601   0.07147   0.05302   0.01527
  33        4PX        -0.01813  -0.05966  -0.01443   0.02692  -0.00360
  34        4PY         0.02993   0.06823  -0.04851   0.00487  -0.00981
  35        4PZ         0.03088  -0.05908  -0.01762   0.12898   0.06305
  36        5S          0.03085   0.01102  -0.01003   0.05241  -0.01423
  37        5PX        -0.00388  -0.00668  -0.00245   0.01997  -0.00038
  38        5PY        -0.00489   0.00799   0.00065  -0.00230   0.00575
  39        5PZ        -0.00225  -0.01277   0.00171   0.01807   0.01339
  40        6D 0        0.00083   0.00758  -0.00453   0.00563  -0.00230
  41        6D+1        0.00577   0.00201   0.00025  -0.00294  -0.00235
  42        6D-1        0.00026  -0.00381  -0.00144   0.00567   0.00407
  43        6D+2        0.00346  -0.00079  -0.00937  -0.00279  -0.00211
  44        6D-2        0.00529   0.00587  -0.00182   0.00401   0.00331
  45 3   C  1S          0.00858   0.01976   0.00888  -0.00253   0.00796
  46        2S          0.01305   0.03126   0.01358  -0.00392   0.01208
  47        2PX         0.06130   0.04054  -0.08866   0.03981  -0.03594
  48        2PY        -0.03857  -0.03633  -0.09962   0.00688  -0.07224
  49        2PZ         0.09765  -0.09286   0.01288  -0.01039   0.01936
  50        3S         -0.03253  -0.08987  -0.03810   0.01146  -0.03116
  51        3PX         0.09237   0.06157  -0.13202   0.05805  -0.05371
  52        3PY        -0.06091  -0.05033  -0.15196   0.01048  -0.11049
  53        3PZ         0.14667  -0.14247   0.02380  -0.01513   0.03091
  54        4S         -0.04423  -0.08572  -0.02447   0.00290  -0.05317
  55        4PX         0.06416   0.04205  -0.09412   0.04800  -0.04183
  56        4PY        -0.02782  -0.03035  -0.10122  -0.00530  -0.06604
  57        4PZ         0.09114  -0.10549   0.01051  -0.00161   0.00659
  58        5S          0.07232   0.04588  -0.02875  -0.01945  -0.03088
  59        5PX         0.04707   0.01939  -0.01778   0.01010  -0.01583
  60        5PY         0.02229  -0.00080  -0.00956  -0.00357  -0.00999
  61        5PZ         0.01219  -0.00415  -0.00914  -0.00383  -0.01205
  62        6D 0       -0.00227  -0.00084  -0.00043   0.00185  -0.00184
  63        6D+1        0.01096   0.00762  -0.00466  -0.01453  -0.00892
  64        6D-1       -0.01295   0.00197  -0.00989   0.00300  -0.01476
  65        6D+2       -0.00684  -0.00198   0.00047   0.00909  -0.02208
  66        6D-2       -0.01312  -0.00880  -0.00562   0.00426  -0.00113
  67 4   H  1S          0.05373  -0.00161  -0.02524   0.09527   0.03246
  68        2S          0.07164  -0.00022  -0.03391   0.12472   0.04296
  69        3S          0.02245   0.00500  -0.00950   0.05395   0.01963
  70        4PX        -0.00251  -0.00553  -0.00072  -0.00260  -0.00159
  71        4PY        -0.00276   0.00423  -0.00089  -0.00667  -0.00274
  72        4PZ        -0.00448  -0.00302   0.00136  -0.00459  -0.00115
  73 5   H  1S          0.00594   0.09928   0.00923  -0.06947  -0.03924
  74        2S          0.00863   0.13250   0.01482  -0.09673  -0.05142
  75        3S         -0.00566   0.03890   0.01126  -0.04133  -0.02106
  76        4PX        -0.00133   0.00108  -0.00113  -0.00279  -0.00153
  77        4PY         0.00132  -0.00601  -0.00396   0.00756   0.00244
  78        4PZ         0.00473   0.00883  -0.00004  -0.00110  -0.00025
  79 6   C  1S          0.00501  -0.00025  -0.00241   0.00033   0.00354
  80        2S          0.00779  -0.00031  -0.00376   0.00050   0.00564
  81        2PX        -0.00486   0.05108   0.15128   0.04032  -0.00063
  82        2PY        -0.04944  -0.01682  -0.01517  -0.09481   0.15300
  83        2PZ         0.05871  -0.06768   0.04196  -0.10741  -0.08670
  84        3S         -0.02010  -0.00137   0.00710  -0.00040  -0.01943
  85        3PX        -0.00861   0.07406   0.21677   0.05691  -0.00099
  86        3PY        -0.07097  -0.02338  -0.02254  -0.13621   0.21738
  87        3PZ         0.08308  -0.09781   0.06205  -0.15401  -0.12283
  88        4S         -0.03278   0.00595   0.03890  -0.00790   0.00848
  89        4PX        -0.00247   0.04084   0.13727   0.04068  -0.01423
  90        4PY        -0.03939  -0.02186  -0.02222  -0.08993   0.15322
  91        4PZ         0.05548  -0.04834   0.03100  -0.11702  -0.09124
  92        5S         -0.09647  -0.04714   0.03816  -0.03578   0.02770
  93        5PX         0.01762   0.01333   0.00324   0.01597  -0.00620
  94        5PY         0.00845   0.00541  -0.00707  -0.00504   0.01294
  95        5PZ         0.01074   0.00055   0.00182  -0.01245  -0.00868
  96        6D 0       -0.00037  -0.00347   0.00393  -0.01431  -0.00132
  97        6D+1       -0.00409   0.00199  -0.00805  -0.00498  -0.00036
  98        6D-1        0.00298   0.00084   0.00559   0.00174  -0.01749
  99        6D+2        0.00084  -0.00391   0.00049   0.00608  -0.01527
 100        6D-2        0.00472  -0.00551  -0.01259  -0.00506  -0.00025
 101 7   H  1S         -0.06068   0.01787  -0.03462  -0.02271   0.15689
 102        2S         -0.07867   0.02714  -0.04771  -0.03534   0.22215
 103        3S         -0.01781   0.01823  -0.02301  -0.01540   0.10961
 104        4PX        -0.00005   0.00271   0.00889   0.00265   0.00126
 105        4PY         0.00603  -0.00338   0.00326  -0.00319  -0.00961
 106        4PZ        -0.00183  -0.00287   0.00012  -0.00819   0.00691
 107 8   H  1S         -0.00173   0.05605   0.10659   0.09722  -0.05252
 108        2S          0.00109   0.07503   0.14592   0.13531  -0.07331
 109        3S          0.00100   0.02559   0.06175   0.06509  -0.03408
 110        4PX        -0.00103  -0.00505  -0.00421  -0.00876   0.00566
 111        4PY        -0.00348   0.00333   0.00715   0.00147   0.00562
 112        4PZ         0.00380  -0.00193   0.00711  -0.00279  -0.00726
 113 9   H  1S          0.02908  -0.05161   0.04426  -0.10794  -0.04516
 114        2S          0.03806  -0.07196   0.06356  -0.14596  -0.06399
 115        3S          0.00740  -0.02490   0.02982  -0.05810  -0.02893
 116        4PX        -0.00153   0.00389   0.00886   0.00271   0.00012
 117        4PY        -0.00493   0.00149  -0.00252  -0.00199   0.01099
 118        4PZ        -0.00151   0.00454  -0.00437   0.00909   0.00085
 119 10  O  1S         -0.01378  -0.02580   0.01642   0.00929  -0.00493
 120        2S         -0.02247  -0.04189   0.02666   0.01515  -0.00813
 121        2PX         0.14547   0.07450  -0.04717  -0.04557   0.04023
 122        2PY         0.08339  -0.07907   0.06882  -0.00486   0.05974
 123        2PZ        -0.03134  -0.02275  -0.07625   0.01922  -0.08838
 124        3S          0.06914   0.12557  -0.07897  -0.04651   0.02739
 125        3PX         0.20885   0.10572  -0.06750  -0.06394   0.05731
 126        3PY         0.12270  -0.11484   0.09936  -0.00751   0.08689
 127        3PZ        -0.04563  -0.03428  -0.11158   0.02786  -0.12871
 128        4S          0.08709   0.16717  -0.11192  -0.06472   0.03372
 129        4PX         0.14570   0.07758  -0.05234  -0.05124   0.04126
 130        4PY         0.08468  -0.08330   0.07326  -0.00563   0.06775
 131        4PZ        -0.02573  -0.03048  -0.08471   0.02258  -0.10469
 132        5S         -0.00581   0.06853  -0.04739  -0.03275   0.01239
 133        5PX         0.00782  -0.00312  -0.00179  -0.00419   0.01981
 134        5PY        -0.00398  -0.00143   0.00834  -0.00366   0.01694
 135        5PZ        -0.00171  -0.00018  -0.00779   0.00687  -0.01763
 136        6D 0        0.00189   0.00697   0.00069  -0.00182   0.00356
 137        6D+1       -0.00138  -0.00121   0.00592  -0.00184   0.00391
 138        6D-1       -0.00363  -0.00040  -0.00530   0.00091  -0.00509
 139        6D+2       -0.01401   0.00172  -0.00110   0.00318  -0.00584
 140        6D-2        0.00284   0.00704  -0.00704  -0.00032  -0.00363
 141 11  H  1S         -0.07409   0.05438   0.00445   0.00745  -0.00987
 142        2S         -0.08679   0.06376   0.00602   0.01287  -0.01312
 143        3S         -0.02113   0.00930   0.00020   0.01073  -0.01340
 144        4PX         0.00220   0.00228  -0.00416   0.00348  -0.00113
 145        4PY        -0.00472   0.00065  -0.00363   0.00053  -0.00306
 146        4PZ        -0.00460   0.00191   0.00217   0.00073   0.00077
 147 12  H  1S         -0.10954  -0.03875   0.00228   0.03522  -0.04955
 148        2S         -0.14905  -0.06271   0.00866   0.05401  -0.07310
 149        3S         -0.04943  -0.03205  -0.00519   0.02929  -0.02416
 150        4PX        -0.01825  -0.00294  -0.00010   0.00520  -0.00842
 151        4PY         0.00003  -0.01386   0.01012   0.00280   0.00541
 152        4PZ         0.00648   0.00224  -0.01003   0.00149  -0.00512
                          16        17        18        19        20
                           O         O         O         O         O
     Eigenvalues --    -0.34645  -0.32826  -0.29886  -0.25230  -0.19222
   1 1   O  1S         -0.00547   0.02488  -0.01510  -0.00012   0.00294
   2        2S         -0.00883   0.04019  -0.02442  -0.00029   0.00493
   3        2PX        -0.03336   0.14262  -0.02819  -0.03828   0.19137
   4        2PY        -0.00845   0.11794  -0.10810   0.04032  -0.16607
   5        2PZ         0.05975  -0.02731   0.02106   0.04382   0.05642
   6        3S          0.02495  -0.11496   0.07069   0.00290  -0.01937
   7        3PX        -0.04762   0.20324  -0.03900  -0.05433   0.27392
   8        3PY        -0.01118   0.16838  -0.15488   0.05914  -0.23838
   9        3PZ         0.08677  -0.03876   0.03000   0.06290   0.08153
  10        4S          0.04146  -0.18478   0.10781  -0.02155   0.00911
  11        4PX        -0.03375   0.14693  -0.02505  -0.06148   0.28686
  12        4PY        -0.00425   0.12184  -0.12606   0.04807  -0.23952
  13        4PZ         0.06974  -0.02622   0.02475   0.06178   0.07787
  14        5S          0.03104  -0.12483   0.05619  -0.04641  -0.00802
  15        5PX        -0.00319   0.02355  -0.01936  -0.01578   0.10615
  16        5PY        -0.00486   0.03056  -0.02053   0.01211  -0.10354
  17        5PZ         0.00706  -0.00600   0.00571   0.02439   0.04239
  18        6D 0       -0.00062  -0.00571   0.00273   0.00013  -0.00211
  19        6D+1        0.00509  -0.00301   0.00053   0.00311   0.00105
  20        6D-1        0.00462  -0.00141   0.00307   0.00061   0.00130
  21        6D+2       -0.00297   0.00403   0.00626  -0.00368   0.00926
  22        6D-2       -0.00108   0.01189  -0.00462   0.00048  -0.00178
  23 2   C  1S          0.00724  -0.01494  -0.00643   0.00959   0.00025
  24        2S          0.01159  -0.02439  -0.00989   0.01547   0.00056
  25        2PX         0.00195  -0.05298   0.13824  -0.03148  -0.03963
  26        2PY         0.06050  -0.12594  -0.02978   0.02152   0.03295
  27        2PZ         0.09043   0.04393  -0.00166   0.01030  -0.01475
  28        3S         -0.03494   0.07802   0.02585  -0.05117  -0.00636
  29        3PX         0.00461  -0.08485   0.20800  -0.04976  -0.05373
  30        3PY         0.08998  -0.19390  -0.04072   0.03390   0.04532
  31        3PZ         0.12908   0.06557  -0.00454   0.01353  -0.02065
  32        4S         -0.03467   0.08077   0.04687  -0.01691   0.00380
  33        4PX         0.00699  -0.05129   0.14948  -0.05272  -0.00732
  34        4PY         0.06355  -0.13914  -0.03727  -0.01238   0.03652
  35        4PZ         0.09209   0.04221  -0.00801   0.02588  -0.00280
  36        5S         -0.03286   0.00289   0.00883   0.13992   0.18771
  37        5PX        -0.01237   0.00691   0.03040   0.00420   0.08858
  38        5PY         0.01077  -0.00943  -0.00503  -0.03601   0.01522
  39        5PZ         0.02073   0.00165  -0.00353   0.00621  -0.01428
  40        6D 0        0.01120  -0.01302   0.00298   0.00765   0.00984
  41        6D+1       -0.00332  -0.01166  -0.00220  -0.00593   0.00573
  42        6D-1        0.01164  -0.00025   0.01040  -0.00176  -0.01864
  43        6D+2       -0.00298   0.00357  -0.00320   0.00171  -0.03996
  44        6D-2       -0.00040   0.02061  -0.01276  -0.00415   0.00502
  45 3   C  1S          0.00055   0.00012   0.00228  -0.00191   0.01705
  46        2S          0.00096   0.00057   0.00389  -0.00296   0.02745
  47        2PX        -0.00044   0.00234  -0.12016  -0.02238   0.07335
  48        2PY        -0.05648   0.04317   0.03418  -0.04545  -0.04468
  49        2PZ        -0.09785  -0.04831  -0.01066  -0.06938  -0.02298
  50        3S         -0.00526  -0.00394  -0.01356   0.00784  -0.08278
  51        3PX        -0.00013   0.00433  -0.17397  -0.03354   0.11357
  52        3PY        -0.08220   0.06977   0.05504  -0.06540  -0.06292
  53        3PZ        -0.14361  -0.07489  -0.01937  -0.09510  -0.03453
  54        4S         -0.00612   0.00542  -0.00892  -0.01184  -0.15349
  55        4PX        -0.00347   0.01590  -0.10689   0.00887   0.09123
  56        4PY        -0.07735   0.03624   0.03244   0.00077  -0.08594
  57        4PZ        -0.11101  -0.04820  -0.00956  -0.07328  -0.05679
  58        5S          0.02013   0.06047   0.04762   0.05061  -0.17535
  59        5PX        -0.00566   0.01723  -0.01717   0.07948   0.01631
  60        5PY        -0.01481   0.00646  -0.00157   0.04541  -0.06879
  61        5PZ        -0.02263   0.00248   0.01638  -0.02082  -0.02022
  62        6D 0        0.00952   0.00397   0.00173   0.03734   0.00215
  63        6D+1        0.00277   0.00242  -0.00026   0.00246   0.00654
  64        6D-1        0.02081   0.01655   0.00953  -0.00723  -0.00361
  65        6D+2       -0.01324   0.01483   0.00547   0.00543   0.00031
  66        6D-2        0.00185  -0.00125  -0.02707  -0.00336  -0.00093
  67 4   H  1S          0.09029  -0.02637   0.01744   0.00375   0.00379
  68        2S          0.13315  -0.03162   0.02398   0.00447   0.00264
  69        3S          0.08004  -0.01898   0.01682  -0.00371  -0.01989
  70        4PX        -0.00058  -0.00113   0.00706  -0.00175  -0.00283
  71        4PY        -0.00300  -0.00532  -0.00307   0.00146   0.00317
  72        4PZ        -0.00461   0.00365  -0.00050   0.00067  -0.00057
  73 5   H  1S         -0.03521  -0.07542  -0.04016   0.00541   0.07020
  74        2S         -0.04915  -0.10423  -0.06424   0.01178   0.12675
  75        3S         -0.02501  -0.06666  -0.04806   0.01310   0.14332
  76        4PX        -0.00120  -0.00398   0.00668  -0.00134  -0.00057
  77        4PY         0.00579  -0.00215   0.00075   0.00207   0.00032
  78        4PZ         0.00162  -0.00405  -0.00500  -0.00034   0.00145
  79 6   C  1S          0.00384  -0.00213   0.01289   0.01186  -0.00089
  80        2S          0.00617  -0.00335   0.02062   0.01891  -0.00145
  81        2PX         0.00854  -0.02984   0.08983   0.04490  -0.02039
  82        2PY         0.03344   0.00070   0.02496   0.04274   0.00187
  83        2PZ         0.10734   0.02680  -0.00551   0.01451   0.00355
  84        3S         -0.02151   0.00962  -0.06333  -0.05497   0.00486
  85        3PX         0.01502  -0.04227   0.13109   0.06454  -0.02998
  86        3PY         0.04739   0.00449   0.04148   0.06135   0.00122
  87        3PZ         0.15238   0.03697  -0.00820   0.01814   0.00461
  88        4S          0.00948   0.00292  -0.06571  -0.10959   0.02160
  89        4PX        -0.01242  -0.02839   0.10311   0.08461  -0.02502
  90        4PY         0.04129  -0.00164   0.02294   0.04886  -0.01881
  91        4PZ         0.11813   0.03407   0.00352   0.01230   0.00258
  92        5S          0.02423  -0.06548  -0.02407  -0.13670   0.02857
  93        5PX        -0.01030   0.01471   0.02348   0.03776  -0.00593
  94        5PY         0.00743   0.00420   0.00037   0.02293  -0.00457
  95        5PZ         0.01481   0.00585  -0.00508   0.01382  -0.00405
  96        6D 0        0.01526   0.00528  -0.00082   0.00637   0.00276
  97        6D+1        0.00614   0.00513  -0.00373   0.00359   0.00316
  98        6D-1        0.01147   0.00245  -0.00241  -0.00005   0.00004
  99        6D+2       -0.00382   0.00047   0.00536  -0.00505  -0.00941
 100        6D-2        0.00124   0.00222  -0.01212  -0.00047   0.00370
 101 7   H  1S         -0.03393  -0.01208   0.00374   0.01465   0.00949
 102        2S         -0.05419  -0.02038   0.00659   0.02844   0.02237
 103        3S         -0.03417  -0.00347   0.00849   0.01839   0.02892
 104        4PX         0.00036  -0.00118   0.00604   0.00323  -0.00235
 105        4PY         0.00599   0.00154   0.00161   0.00166   0.00066
 106        4PZ         0.00410   0.00064  -0.00057   0.00191   0.00068
 107 8   H  1S         -0.04112  -0.02797   0.05270  -0.00671  -0.02523
 108        2S         -0.05766  -0.04086   0.08278  -0.01399  -0.04755
 109        3S         -0.02406  -0.02463   0.05260  -0.02827  -0.05525
 110        4PX         0.00523   0.00077   0.00037   0.00290  -0.00023
 111        4PY        -0.00097  -0.00227   0.00409   0.00308  -0.00207
 112        4PZ         0.00504   0.00058   0.00137   0.00091  -0.00044
 113 9   H  1S          0.10537   0.02661  -0.00591   0.02209   0.00738
 114        2S          0.14763   0.03687  -0.01047   0.05141   0.01676
 115        3S          0.08550   0.02559  -0.00889   0.03376   0.01586
 116        4PX        -0.00062  -0.00185   0.00512   0.00093  -0.00207
 117        4PY        -0.00006  -0.00076   0.00122   0.00003   0.00006
 118        4PZ        -0.00618  -0.00112   0.00079  -0.00159  -0.00020
 119 10  O  1S          0.00358  -0.01222  -0.01749  -0.00035   0.00617
 120        2S          0.00584  -0.01975  -0.02842  -0.00051   0.01013
 121        2PX        -0.02530   0.07002   0.15355   0.00985   0.05599
 122        2PY        -0.07855  -0.09750  -0.06504   0.14585   0.03502
 123        2PZ        -0.08174   0.06030   0.04029   0.20659   0.01073
 124        3S         -0.01890   0.05597   0.08297  -0.00013  -0.03261
 125        3PX        -0.03664   0.10181   0.21854   0.01346   0.08161
 126        3PY        -0.11471  -0.14145  -0.09410   0.21017   0.04856
 127        3PZ        -0.11992   0.08732   0.05901   0.29911   0.01588
 128        4S         -0.02225   0.09254   0.13644   0.02335  -0.05196
 129        4PX        -0.03298   0.08130   0.18890   0.00977   0.08726
 130        4PY        -0.09871  -0.11760  -0.08085   0.21613   0.06021
 131        4PZ        -0.10609   0.07332   0.05175   0.28745   0.01551
 132        5S         -0.00508   0.04984   0.02333   0.04177  -0.07479
 133        5PX        -0.01133   0.01141   0.06285  -0.00267   0.03742
 134        5PY        -0.01701  -0.02424  -0.02388   0.07120   0.01984
 135        5PZ        -0.01366   0.01881   0.01091   0.10001   0.02166
 136        6D 0        0.00614   0.00260   0.00385  -0.00272   0.00065
 137        6D+1        0.00336  -0.00302  -0.00084  -0.00733  -0.00330
 138        6D-1       -0.00219   0.00405   0.00290   0.00285  -0.00013
 139        6D+2        0.00562   0.00057  -0.00486  -0.00367   0.00051
 140        6D-2        0.00257   0.00493   0.00184  -0.00565   0.00256
 141 11  H  1S          0.09885   0.03329   0.00687   0.09830   0.01278
 142        2S          0.13770   0.04479   0.00910   0.17215   0.01733
 143        3S          0.07391   0.03140   0.00615   0.14135   0.01077
 144        4PX         0.00130   0.00023  -0.00722  -0.00113   0.00441
 145        4PY         0.00016   0.00216   0.00116   0.00134  -0.00149
 146        4PZ         0.00526   0.00016  -0.00087   0.00657  -0.00060
 147 12  H  1S          0.01263  -0.02618  -0.07468   0.00029   0.01025
 148        2S          0.01317  -0.04247  -0.10840  -0.01067   0.05277
 149        3S          0.00546  -0.02449  -0.01555  -0.01934   0.07623
 150        4PX        -0.00019  -0.00041  -0.01790   0.00402  -0.01648
 151        4PY        -0.00820  -0.00695  -0.00476   0.01208   0.00803
 152        4PZ        -0.00617   0.00678   0.00738   0.02138   0.00253
                          21        22        23        24        25
                           O         V         V         V         V
     Eigenvalues --    -0.18104   0.01852   0.03236   0.03783   0.04439
   1 1   O  1S         -0.00104   0.00847   0.02007   0.00515  -0.00663
   2        2S         -0.00173   0.01416   0.03340   0.00854  -0.01095
   3        2PX         0.00015   0.00206   0.00118   0.01218   0.01984
   4        2PY         0.07231   0.02739   0.00248  -0.00695  -0.00608
   5        2PZ         0.25267   0.00111   0.00815  -0.01211   0.00458
   6        3S          0.00604  -0.05052  -0.11656  -0.02912   0.03652
   7        3PX         0.00051   0.00441   0.00382   0.01963   0.03251
   8        3PY         0.10337   0.03785   0.00144  -0.01519  -0.01141
   9        3PZ         0.36237   0.00318   0.01476  -0.02202   0.00811
  10        4S          0.00094  -0.03595  -0.11647  -0.04083   0.04024
  11        4PX        -0.00347  -0.01711  -0.02763   0.00500   0.01186
  12        4PY         0.10282   0.03528  -0.00563   0.00644   0.00770
  13        4PZ         0.36035  -0.00143   0.00573   0.00397   0.00068
  14        5S         -0.00010  -0.83358  -1.23974  -0.29458   0.23936
  15        5PX        -0.00254  -0.15885  -0.16795   0.08523   0.18351
  16        5PY         0.05143  -0.11165  -0.20511  -0.19636  -0.08955
  17        5PZ         0.18238   0.09348   0.14763  -0.13044   0.06156
  18        6D 0       -0.00303   0.00040  -0.00009   0.00074  -0.00037
  19        6D+1        0.00739   0.00028   0.00014  -0.00235   0.00082
  20        6D-1        0.00393   0.00002   0.00040  -0.00138   0.00212
  21        6D+2       -0.00105   0.00078   0.00016   0.00118   0.00325
  22        6D-2        0.00193  -0.00049   0.00055  -0.00106  -0.00048
  23 2   C  1S         -0.00228   0.01390  -0.00147   0.00932   0.01681
  24        2S         -0.00368   0.02339  -0.00159   0.01550   0.02739
  25        2PX         0.00773   0.00122  -0.01009  -0.01281   0.02274
  26        2PY        -0.01960  -0.04791  -0.02863  -0.02993  -0.03568
  27        2PZ        -0.05710   0.00185   0.00993  -0.03920   0.03039
  28        3S          0.01123  -0.08564  -0.01699  -0.05258  -0.08128
  29        3PX         0.01237   0.00699  -0.00725  -0.01507   0.03931
  30        3PY        -0.02817  -0.06732  -0.02895  -0.04712  -0.06087
  31        3PZ        -0.07725   0.00289   0.01559  -0.07101   0.05583
  32        4S          0.03242   0.00115   0.25516  -0.05517  -0.24859
  33        4PX         0.01387  -0.08530  -0.11509  -0.08146   0.03809
  34        4PY        -0.02953  -0.16469  -0.18864  -0.08103  -0.10448
  35        4PZ        -0.02023   0.04524   0.04469  -0.06754   0.03030
  36        5S         -0.05260   2.82289  -1.00682  -2.47386  -1.19206
  37        5PX        -0.01133   0.19724  -1.37988  -1.30706  -0.78242
  38        5PY        -0.00782  -0.07381  -0.33156   0.44725   0.86321
  39        5PZ         0.00777  -0.14843   0.14647   0.89437  -0.34730
  40        6D 0        0.00581  -0.00256   0.00701  -0.00310  -0.00636
  41        6D+1       -0.02706   0.00174   0.00464  -0.00339  -0.00656
  42        6D-1       -0.03406  -0.00325   0.00328   0.00056   0.00411
  43        6D+2        0.00976   0.00448  -0.00182  -0.00302  -0.00202
  44        6D-2       -0.01377  -0.00054  -0.01301  -0.00532   0.00307
  45 3   C  1S         -0.00793   0.00274   0.00416  -0.01598   0.00453
  46        2S         -0.01291   0.00517   0.00723  -0.02624   0.00661
  47        2PX        -0.03297   0.00251  -0.01976  -0.00559  -0.01493
  48        2PY         0.02671   0.01109  -0.01881  -0.00920   0.02116
  49        2PZ         0.01846   0.05256   0.02643  -0.04223  -0.00382
  50        3S          0.04205  -0.02788  -0.03122   0.08187   0.00012
  51        3PX        -0.05115   0.00583  -0.02481  -0.00521  -0.01829
  52        3PY         0.03668   0.02483  -0.02519  -0.01375   0.02279
  53        3PZ         0.02744   0.08190   0.03938  -0.07586   0.00675
  54        4S          0.07202   0.01666   0.05199   0.25307  -0.31277
  55        4PX        -0.02593  -0.02249  -0.02338  -0.03694  -0.00527
  56        4PY         0.08564  -0.05386  -0.07723  -0.07838   0.18721
  57        4PZ        -0.03108   0.13261   0.07714  -0.09772  -0.06261
  58        5S          0.38277  -0.88079  -0.89403   4.64974   0.41843
  59        5PX         0.07431   0.36161  -1.32031  -0.21663  -0.42027
  60        5PY         0.10908  -0.76564  -0.60829   1.34360   0.58523
[...]
 RMS     Displacement     0.000215     0.001200     YES
 Predicted change in Energy=-2.183864D-08
 Optimization completed.
    -- Stationary point found.
 GradGradGradGradGradGradGradGradGradGradGradGradGradGradGradGradGradGrad

 Leave Link  103 at Fri Jun  2 11:25:50 2023, MaxMem=  7381975040 cpu:               1.6 elap:               2.6
 (Enter /software/commercial/gaussian/g16/AVX/g16/l9999.exe)

 ----------------------------------------------------------------------

 Electric dipole moment (input orientation):
 (Debye = 10**-18 statcoulomb cm , SI units = C m)
                  (au)            (Debye)         (10**-30 SI)
   Tot        0.673041D+01      0.171070D+02      0.570628D+02
   x          0.649083D+01      0.164980D+02      0.550315D+02
   y         -0.147282D+01     -0.374354D+01     -0.124871D+02
   z         -0.999198D+00     -0.253971D+01     -0.847155D+01

 Dipole polarizability, Alpha (input orientation).
 (esu units = cm**3 , SI units = C**2 m**2 J**-1)
 Alpha(0;0):
               (au)            (10**-24 esu)      (10**-40 SI)
   iso        0.723763D+02      0.107251D+02      0.119332D+02
   aniso      0.813672D+01      0.120574D+01      0.134156D+01
   xx         0.758287D+02      0.112367D+02      0.125025D+02
   yx         0.244452D+01      0.362241D+00      0.403048D+00
   yy         0.730390D+02      0.108233D+02      0.120425D+02
   zx        -0.843726D+00     -0.125027D+00     -0.139112D+00
   zy        -0.857392D+00     -0.127052D+00     -0.141365D+00
   zz         0.682613D+02      0.101153D+02      0.112548D+02

 First dipole hyperpolarizability, Beta (input orientation).
 ||, _|_  parallel and perpendicular components, (z) with respect to z axis,
 vector components x,y,z.  Values do not include the 1/n! factor of 1/2.
 (esu units = statvolt**-1 cm**4 , SI units = C**3 m**3 J**-2)
 Beta(0;0,0):
               (au)            (10**-30 esu)      (10**-50 SI)
   || (z)    -0.143289D+03     -0.123790D+01     -0.459436D+00
   _|_(z)    -0.477630D+02     -0.412635D+00     -0.153145D+00
   x          0.126881D+04      0.109615D+02      0.406825D+01
   y          0.129076D+04      0.111512D+02      0.413864D+01
   z         -0.716445D+03     -0.618952D+01     -0.229718D+01
   ||         0.389319D+03      0.336341D+01      0.124830D+01
   xxx        0.208035D+03      0.179726D+01      0.667036D+00
   xxy        0.897326D+02      0.775220D+00      0.287715D+00
   yxy        0.160062D+03      0.138281D+01      0.513217D+00
   yyy        0.276515D+03      0.238887D+01      0.886607D+00
   xxz       -0.138801D+02     -0.119913D+00     -0.445045D-01
   yxz        0.134179D+02      0.115920D+00      0.430225D-01
   yyz       -0.939054D+02     -0.811270D+00     -0.301095D+00
   zxz        0.548381D+02      0.473758D+00      0.175831D+00
   zyz        0.640058D+02      0.552960D+00      0.205226D+00
   zzz       -0.131029D+03     -0.113199D+01     -0.420127D+00

 ----------------------------------------------------------------------

 Dipole orientation:
     8         -0.33536784         -0.56467014         -7.92553116
     6         -0.15222993         -2.70230988         -6.44464571
     6         -0.62475311         -2.01075676         -3.62614145
     1          1.75873637         -3.59289745         -6.53879000
     1         -1.50861015         -4.22246874         -6.95608891
     6          0.51276356         -3.86088695         -1.75513818
     1         -0.26291787         -5.75539117         -2.06446604
     1          0.10669618         -3.31910606          0.19838228
     1          2.56506527         -3.95364865         -1.99240092
     8          0.43091825          0.45987406         -3.29684446
     1         -2.68228062         -1.89517113         -3.31309480
     1          0.36421932          1.02622896         -5.09492281

 Electric dipole moment (dipole orientation):
 (Debye = 10**-18 statcoulomb cm , SI units = C m)
                  (au)            (Debye)         (10**-30 SI)
   Tot        0.673041D+01      0.171070D+02      0.570628D+02
   x          0.000000D+00      0.000000D+00      0.000000D+00
   y          0.000000D+00      0.000000D+00      0.000000D+00
   z          0.673041D+01      0.171070D+02      0.570628D+02

 Dipole polarizability, Alpha (dipole orientation).
 (esu units = cm**3 , SI units = C**2 m**2 J**-1)
 Alpha(0;0):
               (au)            (10**-24 esu)      (10**-40 SI)
   iso        0.723763D+02      0.107251D+02      0.119332D+02
   aniso      0.813672D+01      0.120574D+01      0.134156D+01
   xx         0.682537D+02      0.101142D+02      0.112535D+02
   yx        -0.761457D+00     -0.112836D+00     -0.125547D+00
   yy         0.741928D+02      0.109942D+02      0.122327D+02
   zx         0.970581D+00      0.143825D+00      0.160027D+00
   zy        -0.278209D+01     -0.412263D+00     -0.458704D+00
   zz         0.746825D+02      0.110668D+02      0.123135D+02

 First dipole hyperpolarizability, Beta (dipole orientation).
 ||, _|_  parallel and perpendicular components, (z) with respect to z axis,
 vector components x,y,z.  Values do not include the 1/n! factor of 1/2.
 (esu units = statvolt**-1 cm**4 , SI units = C**3 m**3 J**-2)
 Beta(0;0,0):
               (au)            (10**-30 esu)      (10**-50 SI)
   || (z)     0.209509D+03      0.181000D+01      0.671762D+00
   _|_(z)     0.698364D+02      0.603332D+00      0.223921D+00
   x         -0.212479D+03     -0.183565D+01     -0.681283D+00
   y         -0.162688D+04     -0.140549D+02     -0.521635D+01
   z          0.104755D+04      0.904998D+01      0.335881D+01
   ||         0.389319D+03      0.336341D+01      0.124830D+01
   xxx       -0.555100D+02     -0.479563D+00     -0.177985D+00
   xxy       -0.833850D+02     -0.720381D+00     -0.267362D+00
   yxy       -0.151359D+02     -0.130763D+00     -0.485313D-01
   yyy       -0.399836D+03     -0.345427D+01     -0.128202D+01
   xxz        0.675025D+02      0.583169D+00      0.216438D+00
   yxz       -0.416515D+02     -0.359837D+00     -0.133550D+00
   yyz        0.117316D+03      0.101352D+01      0.376157D+00
   zxz       -0.180256D+00     -0.155727D-02     -0.577965D-03
   zyz       -0.590709D+02     -0.510326D+00     -0.189403D+00
   zzz        0.164364D+03      0.141997D+01      0.527009D+00

 ----------------------------------------------------------------------
 Unable to Open any file for archive entry.
 1\1\GINC-NODE1939\Freq\RB3LYP\6-311+G(d,p)\C3H7O2(1-)\SVICCHI\02-Jun-2
 023\0\\#p freq=raman scale=0.967 pop=(nbo,full,hirshfeld) guess=read g
 eom=allcheck b3lyp/6-311+G(d,p) int=grid=ultrafine EmpiricalDispersion
 =GD3BJ SCRF=(Solvent=ethanol) scf=(xqc,intrep,maxconventionalcycle=350
 ) nosymm\\PG-H_dissociation-site_index-0.gjf\\-1,1\O,-4.0235525148,1.1
 715189828,0.3861027256\C,-3.0415012699,2.1018638375,0.1156848972\C,-1.
 7179022223,1.3788359346,-0.2668069647\H,-2.8106504461,2.750219254,0.99
 51930663\H,-3.2911763641,2.8000836473,-0.7123852164\C,-0.4686802365,2.
 2110107823,-0.0475218068\H,-0.5203720394,3.1321288091,-0.63846601\H,0.
 4347343678,1.6705619509,-0.3454876971\H,-0.3742283,2.4850957868,1.0077
 476357\O,-1.6838684456,0.1904713065,0.5321741502\H,-1.7764238964,1.083
 8926666,-1.3280540416\H,-2.6632846326,0.1049980417,0.7049792616\\Versi
 on=ES64L-G16RevC.01\HF=-269.1838498\RMSD=3.852e-09\RMSF=2.093e-05\Zero
 Point=0.0955088\Thermal=0.1012671\ETot=-269.0825827\HTot=-269.0816385\
 GTot=-269.1170178\Dipole=2.4334812,1.2499113,-0.7301249\DipoleDeriv=-1
 .680832,-0.3762329,0.1272603,-0.2797868,-1.3262586,0.103291,0.1228334,
 0.1298112,-0.9171366,0.9227516,0.5597308,-0.0411061,0.446344,0.9768097
 ,-0.0899298,-0.0255078,-0.1177119,0.6775641,0.2362125,0.0932556,0.0232
 2,0.2012052,0.775188,-0.25098,0.0303504,-0.2387337,0.6475885,-0.106673
 7,-0.1581466,-0.1145116,-0.1266896,-0.2849008,-0.2130836,-0.120337,-0.
 3013757,-0.2850811,-0.0253996,0.0428936,-0.0260114,0.0026235,-0.283185
 9,0.2352847,-0.0247082,0.3246069,-0.27496,-0.0522847,-0.151178,0.00863
 41,-0.0536283,0.0644922,-0.0044478,-0.0465411,-0.0182576,0.170146,0.07
 45917,0.0320786,-0.0334826,-0.0342511,-0.1332866,0.1241208,0.0030271,0
 .1493451,-0.0111627,-0.2031695,0.0768557,0.0613661,0.1221104,-0.005288
 6,-0.0438551,0.0627518,-0.0474878,0.061441,0.0422267,-0.0139172,0.0193
 84,-0.0302372,0.0574806,-0.0531156,-0.0629551,-0.0960796,-0.1942183,-1
 .0203989,0.1859996,-0.0349217,-0.0462948,-1.1476866,0.2977847,0.126638
 8,0.2357203,-0.7881143,-0.0238365,-0.0183189,-0.0350801,-0.0255884,-0.
 0812984,-0.0989824,-0.0102191,-0.045215,-0.3944256,0.8368125,-0.273020
 3,0.0452489,-0.1758068,0.3879351,-0.0060869,-0.0553331,0.0253777,0.308
 359\Polar=75.8287345,2.4445245,73.0389787,-0.843726,-0.8573915,68.2612
 56\PolarDeriv=-10.029796,-0.4625534,3.6716248,1.7021675,1.5411246,0.21
 57024,-4.9096166,0.4249044,3.0597055,0.8765646,0.6249891,1.2060075,0.7
 350661,-0.4147166,-1.5081143,-3.6953449,-0.7667622,0.1809372,-4.657522
 3,-1.9163621,-5.3522332,0.1290644,-5.2817477,-1.1777445,9.880637,-4.74
 82715,-16.117973,-3.8621751,0.455821,-8.7103257,-1.9787233,-4.5336816,
 -0.5603141,-3.5695176,-18.6707764,-2.2079167,3.6898047,-5.0349862,1.37
 27709,-0.7707861,1.1525595,2.3118163,-5.4996225,0.0336082,4.3312316,0.
 6476378,-0.5572432,4.0074739,-2.7446912,1.9686622,-1.5330756,2.913102,
 8.544166,20.0288284,2.8307263,2.5187001,2.0821101,2.1457102,2.5776226,
 1.7371464,-0.1655657,2.2058222,8.6470094,1.4712715,5.2290685,2.2814323
 ,3.0511482,2.8769366,7.8275662,2.4296504,8.6469891,8.6601299,-0.792813
 8,1.7756919,-1.5998409,-2.1979922,1.4635049,-1.1296282,-0.9064661,-1.2
 481285,9.1493802,0.5560292,-6.2687969,3.6720197,-0.5900544,0.8738025,-
 6.8697634,-0.2024059,9.3818421,-7.6101026,-3.8610593,7.0450411,-1.0087
 59,2.2761411,-0.9404225,-0.4022508,5.8502402,-2.1084899,-5.7020389,-1.
 3653602,4.2112338,-5.577571,3.3611171,-1.7931079,4.6117074,-3.4810671,
 -6.2347178,-8.7377548,-0.5588949,0.4714403,-0.4294446,-1.2436767,0.102
 4882,-0.5383701,1.4056012,1.7973899,9.9203365,-0.4789702,-3.9724023,2.
 9452994,-2.360626,-0.6664142,-4.5314163,0.8324392,3.8614198,-3.3826129
 ,12.8758628,-3.5102071,1.3551224,-2.389036,0.6490948,1.0478478,-5.0833
 073,2.8447675,-2.5420074,0.7069615,-1.3191683,-0.5411608,-3.0819814,0.
 7007346,-1.5923628,2.4261555,-0.2886222,-0.5629425,0.3228834,-0.334025
 6,-0.1065933,1.5329481,0.2989519,0.2484964,-0.5331582,0.7394427,1.9953
 734,0.5423989,1.6561615,1.6034368,2.8867863,1.250651,2.1406194,2.29220
 72,2.7843534,10.942325,8.5280291,-4.858684,4.1110497,1.8747329,-2.2878
 371,0.0445249,1.2038181,0.4392646,-6.7474228,-0.0536167,2.36476,4.1284
 404,-0.0022173,-0.1909388,2.6650391,-0.1334589,-2.6063244,-0.3816977,-
 0.3890136,0.4052229,-1.0565839,-2.4633264,-0.8572148,-1.7848295,0.5101
 93,0.3699471,-1.89099,0.2835805,-2.7163257,-3.1323601,-1.8512417,-0.20
 26127,-2.3645907,-0.0856026,-3.3428311,-18.308883,-7.9582064,3.9007221
 ,-3.0392231,-0.595947,1.5818756,-0.572711,-1.7527531,-0.7502567,-4.102
 6046,0.6756782,0.2919024,-1.8826923,2.5754177,0.1306849,1.7147051,0.27
 38427,-1.3087363,1.3796894\HyperPolar=208.0353279,89.7325984,160.06216
 46,276.5148461,-13.8800654,13.4178576,-93.9054389,54.8380888,64.005769
 ,-131.0293406\Quadrupole=-31.3400762,14.4110265,16.9290497,12.7967026,
 5.2621259,-1.8360036\PG=C01 [X(C3H7O2)]\NImag=0\\0.23011689,0.13133193
 ,0.18569503,-0.04026978,-0.03537473,0.06381908,-0.14868228,-0.07998879
 ,0.02202436,0.39052655,-0.06818126,-0.14355583,0.01601188,-0.00658619,
 0.49204417,0.01847129,0.02207349,-0.08392320,0.03595772,-0.01892144,0.
 51349985,-0.04753319,-0.01017978,0.01306609,-0.09741477,0.02958051,0.0
 1694666,0.47783673,-0.01658892,-0.00006856,0.01500380,0.03687606,-0.09
 157417,-0.02218636,0.05161951,0.44659504,0.00425807,0.00745772,0.00057
 579,0.01232997,-0.01579333,-0.08163034,-0.00323121,0.03883661,0.546261
 20,-0.01395352,-0.02983611,-0.01477585,-0.04823760,-0.01052527,-0.0275
 3226,-0.00047770,0.01350457,0.02301014,0.06429679,-0.02488086,-0.02644
 017,-0.01200131,-0.00595525,-0.09782358,-0.08180215,-0.00003179,-0.008
 53288,-0.01813797,0.02715471,0.12168425,-0.00776032,-0.00419186,0.0181
 3360,-0.01876776,-0.07663539,-0.18029163,-0.00116688,-0.00478633,-0.01
 305518,0.02896470,0.09850615,0.19512746,0.00388993,-0.02410341,0.02248
 130,-0.06540272,0.03506035,-0.04399833,-0.00434303,0.01322068,-0.02112
 377,0.00056697,0.00338693,-0.00363703,0.06966179,-0.01162852,-0.026077
 22,0.02061793,0.03943397,-0.11149179,0.08350806,0.00716941,-0.00996245
 ,0.01455522,-0.00340272,0.00997284,-0.01106152,-0.03325215,0.13835867,
 0.01331380,0.01637623,-0.00011018,-0.05220931,0.08475366,-0.16271534,0
 .00391651,-0.00585232,0.00159452,-0.01102958,0.01315373,-0.02352676,0.
 04477381,-0.10622121,0.18084043,-0.00463994,0.00117119,0.00206870,-0.0
 2424999,-0.01585843,-0.00254608,-0.16252647,-0.05455591,-0.01887445,0.
 00086636,-0.00154254,-0.00123883,0.00039008,0.00032815,-0.00067608,0.5
 0439556,0.00654229,0.00224575,-0.00279224,0.00361920,0.01234102,0.0032
 8402,-0.04315011,-0.10559221,-0.01435505,0.00118318,0.00059430,0.00010
 408,0.00008062,-0.00097423,0.00037457,-0.04226562,0.52589970,0.0022818
 9,-0.00046052,0.00083144,0.00601252,0.00435743,0.00015213,-0.02495080,
 -0.01861300,-0.08094555,0.00128408,-0.00006611,0.00038936,-0.00002575,
 -0.00049835,-0.00001045,-0.01118491,-0.00844119,0.55895999,0.00058188,
 0.00072209,-0.00043927,0.00031053,0.00002807,0.00031776,0.00494956,-0.
 01969017,0.01663369,0.00008409,0.00027413,0.00013919,-0.00028712,0.000
 11245,-0.00017116,-0.04748829,0.01119181,-0.00864347,0.04857461,-0.000
 92804,0.00023267,-0.00027246,0.00126829,0.00025072,0.00008155,0.004409
 20,-0.01320749,0.01088793,-0.00019656,0.00010287,0.00008204,-0.0003223
 2,0.00043868,-0.00017937,0.01013898,-0.22498069,0.11500562,-0.01039933
 ,0.24602625,0.00047829,-0.00003755,-0.00018737,-0.00055915,0.00009481,
 0.00043871,0.00119268,-0.00488220,0.00093159,0.00008329,-0.00004834,-0
 .00009560,0.00018721,-0.00004749,0.00003124,-0.00769101,0.11577436,-0.
 12099645,0.00849064,-0.12910761,0.12805963,-0.00297773,-0.00046458,0.0
 0096652,0.00080682,-0.00578184,-0.00199391,-0.02457548,0.01637045,0.00
 820616,0.00033676,-0.00006573,0.00014090,-0.00020059,0.00059485,-0.000
 38753,-0.21729674,0.10662085,0.05823270,-0.00091063,0.00052596,-0.0004
 3044,0.23912611,-0.00184660,-0.00029860,0.00058904,-0.00057444,-0.0023
 8722,-0.00098329,-0.01793018,0.00965315,0.00633717,-0.00000585,0.00016
 069,0.00029018,-0.00023780,0.00023913,-0.00005651,0.10761042,-0.111066
 92,-0.03648248,0.02160384,-0.01344290,-0.00818284,-0.11621888,0.118376
 09,-0.00040718,0.00017236,0.00051154,-0.00000844,-0.00160895,0.0001462
 5,-0.00575906,0.00365607,0.00011353,-0.00001806,0.00062100,0.00046147,
 0.00043178,-0.00013233,0.00017281,0.05839137,-0.03675474,-0.06657134,-
 0.01529705,0.00829580,0.00480282,-0.06346334,0.04065436,0.06757513,-0.
 00006576,0.00022571,0.00069809,0.00135536,-0.00090432,-0.00185860,-0.0
 0360647,-0.00637956,-0.02852729,-0.00008176,0.00044649,0.00064188,-0.0
 0006944,-0.00006071,0.00012566,-0.04747461,-0.00418608,-0.01724130,-0.
 00136709,-0.00041557,-0.00152273,0.00247048,0.00518599,0.02556879,0.05
 106187,0.00002008,-0.00006590,0.00021798,0.00147891,-0.00023291,0.0004
 0935,-0.00282949,-0.00600369,-0.01936097,-0.00002763,0.00041230,0.0004
 1451,0.00023467,0.00013519,0.00002302,-0.00371483,-0.06087665,-0.06009
 172,0.00187440,0.00805931,0.02601042,-0.00189568,-0.00439727,-0.015696
 71,0.00682759,0.06268058,-0.00017745,0.00012529,0.00026254,0.00144636,
 -0.00054125,-0.00015338,-0.00165116,-0.00070362,-0.00841150,-0.0003274
 0,0.00076546,0.00081359,0.00014143,0.00006229,0.00027962,-0.01902060,-
 0.06066262,-0.28574095,-0.00099557,-0.00423284,-0.01491499,-0.00034541
 ,-0.00156954,-0.00757534,0.02187064,0.06824942,0.31178903,-0.03014111,
 0.03171387,-0.00868369,-0.01583847,0.01657107,-0.01397722,-0.08666851,
 -0.00877474,0.00303682,0.00194954,0.00076504,0.00059255,-0.00244638,0.
 00488633,0.00020354,0.00339010,-0.03103615,0.02114062,-0.00587013,-0.0
 0552270,-0.00048508,0.00246257,0.00149326,0.00050874,0.00183869,0.0015
 7862,0.00040493,0.46662038,-0.00187124,0.00274806,0.00139612,0.0125869
 5,-0.03588501,0.02462097,0.02297072,-0.14024434,0.04497752,-0.00122775
 ,0.00131211,-0.00112596,0.00651052,-0.00203828,-0.00138246,-0.00076141
 ,-0.02720574,0.01840350,-0.00468792,-0.00248327,0.00020184,-0.00007064
 ,0.00203382,-0.00002513,0.00205380,0.00164155,-0.00033995,-0.00136344,
 0.24055985,0.00684538,-0.00267885,0.00794273,-0.00498147,0.00888739,0.
 00039345,-0.01128908,0.05579067,-0.10909980,-0.00122300,0.00078338,0.0
 0194165,-0.00007987,-0.00094152,0.00221174,0.00142438,0.00612334,0.000
 31707,0.00030752,0.00035429,0.00113538,-0.00030379,-0.00090041,-0.0000
 5195,0.00095262,0.00037131,0.00252506,-0.04907065,-0.12258183,0.153938
 52,0.00153852,-0.00040958,-0.00224642,0.00022926,0.01070292,0.02484950
 ,-0.05266989,-0.00464966,-0.00974652,-0.00372156,0.00242874,0.00277892
 ,0.00133987,-0.00083514,-0.00039109,-0.00391190,-0.01057601,-0.0269286
 0,0.00084464,0.00012057,0.00064247,0.00125551,0.00106199,0.00014662,-0
 .00408656,-0.00348628,-0.00154781,0.00449456,0.00055641,-0.00096276,0.
 05505309,0.00005046,0.00185787,0.00095715,-0.00074964,-0.00661421,-0.0
 1522129,-0.00529247,-0.06677833,-0.07086117,0.00280756,-0.00166894,-0.
 00200069,-0.00008606,0.00044055,0.00005971,-0.00115099,-0.00424898,-0.
 01742962,0.00058725,0.00039416,0.00030227,-0.00008707,0.00070838,0.000
 75242,-0.00308816,-0.00157680,-0.00105031,0.00045426,-0.00326266,0.039
 53925,0.00503694,0.08132023,0.00150015,0.00075903,0.00112976,-0.002517
 27,-0.00462831,-0.00803067,-0.01108792,-0.07235402,-0.24858907,0.00179
 047,-0.00128561,0.00030913,0.00042107,-0.00044208,0.00166030,0.0003282
 7,-0.00354539,-0.00490292,-0.00062943,-0.00083178,0.00019015,-0.000528
 80,0.00041920,0.00050079,-0.00063546,-0.00047773,0.00107186,0.00086538
 ,0.01779852,-0.02559269,0.01323432,0.06414550,0.28343649,0.01186631,-0
 .02018255,0.00510994,0.00659731,0.01589438,-0.00463653,-0.00297078,-0.
 02095230,0.01402839,-0.00162836,-0.00197989,-0.00068733,-0.00309935,-0
 .00334593,0.00253143,-0.00145416,0.00197603,0.00002302,0.00057796,0.00
 132153,-0.00038616,-0.00049708,-0.00014176,-0.00009416,0.00002529,-0.0
 0006038,0.00020204,-0.33979125,-0.03469601,0.05838073,-0.00036554,0.00
 151792,-0.00274078,0.33073965,-0.01201933,0.00372690,-0.00435317,-0.00
 140909,-0.01507117,0.00513708,-0.03633553,-0.01428406,0.01545630,0.000
 57186,0.00022621,0.00040479,-0.00049204,0.00095892,-0.00104904,0.00060
 099,-0.00613536,0.00431643,-0.00161662,-0.00139030,-0.00007767,0.00047
 231,0.00042166,0.00006585,0.00029483,0.00022429,-0.00010233,-0.0107654
 2,-0.03717609,0.01525297,0.00004908,-0.00057127,0.00044267,0.06064895,
 0.06907027,0.00146585,-0.00422061,-0.00898573,0.00127248,0.00402351,0.
 00211419,0.02401417,0.01609070,-0.00774517,-0.00022653,-0.00048823,-0.
 00020708,0.00042816,0.00060098,-0.00042792,-0.00098076,0.00089084,-0.0
 0148233,0.00028714,-0.00008316,0.00060488,-0.00009306,-0.00011488,-0.0
 0008572,-0.00007230,-0.00006889,0.00005445,0.04546405,0.01805686,-0.03
 566115,0.00017138,0.00080678,-0.00118314,-0.07173058,-0.03549390,0.053
 00472\\-0.00001490,-0.00006099,-0.00000019,0.00000606,-0.00001295,-0.0
 0002557,0.00000586,-0.00000150,0.00000595,-0.00000617,0.00001070,0.000
 00409,-0.00000856,-0.00000883,-0.00002414,-0.00000863,0.00002874,-0.00
 000415,-0.00000872,0.00000300,-0.00000856,-0.00000066,0.00001654,0.000
 00709,-0.00001014,0.00002025,-0.00000470,0.00006903,0.00002507,0.00003
 608,0.00000731,-0.00001207,0.00000082,-0.00003048,-0.00000794,0.000013
 28\\\@
 The archive entry for this job was punched.


 ALL SCIENCE IS EITHER PHYSICS, OR STAMP COLLECTING.
   --ERNEST RUTHERFORD, 1871-1937.
 Job cpu time:       0 days  0 hours 13 minutes 32.1 seconds.
 Elapsed time:       0 days  0 hours  7 minutes 28.8 seconds.
 File lengths (MBytes):  RWF=     69 Int=      0 D2E=      0 Chk=     11 Scr=      1
 Normal termination of Gaussian 16 at Fri Jun  2 11:25:54 2023.
