 Entering Gaussian System, Link 0=g16
 Input=bentriz-CO2_binding-site_index-6-freq.gjf
 Output=bentriz-CO2_binding-site_index-6-freq.log
 Initial command:
 /software/commercial/gaussian/g16/AVX/g16/l1.exe "/scratch1/svicchi/G09-672258.pbs02/Gau-1504235.inp" -scrdir="/scratch1/svicchi/G09-672258.pbs02/"
 Entering Link 1 = /software/commercial/gaussian/g16/AVX/g16/l1.exe PID=   1504236.
  
 Copyright (c) 1988-2019, Gaussian, Inc.  All Rights Reserved.
  
 This is part of the Gaussian(R) 16 program.  It is based on
 the Gaussian(R) 09 system (copyright 2009, Gaussian, Inc.),
 the Gaussian(R) 03 system (copyright 2003, Gaussian, Inc.),
 the Gaussian(R) 98 system (copyright 1998, Gaussian, Inc.),
 the Gaussian(R) 94 system (copyright 1995, Gaussian, Inc.),
 the Gaussian 92(TM) system (copyright 1992, Gaussian, Inc.),
 the Gaussian 90(TM) system (copyright 1990, Gaussian, Inc.),
 the Gaussian 88(TM) system (copyright 1988, Gaussian, Inc.),
 the Gaussian 86(TM) system (copyright 1986, Carnegie Mellon
 University), and the Gaussian 82(TM) system (copyright 1983,
 Carnegie Mellon University). Gaussian is a federally registered
 trademark of Gaussian, Inc.
  
 This software contains proprietary and confidential information,
 including trade secrets, belonging to Gaussian, Inc.
  
 This software is provided under written license and may be
 used, copied, transmitted, or stored only in accord with that
 written license.
  
 The following legend is applicable only to US Government
 contracts under FAR:
  
                    RESTRICTED RIGHTS LEGEND
  
 Use, reproduction and disclosure by the US Government is
 subject to restrictions as set forth in subparagraphs (a)
 and (c) of the Commercial Computer Software - Restricted
 Rights clause in FAR 52.227-19.
  
 Gaussian, Inc.
 340 Quinnipiac St., Bldg. 40, Wallingford CT 06492
  
  
 ---------------------------------------------------------------
 Warning -- This program may not be used in any manner that
 competes with the business of Gaussian, Inc. or will provide
 assistance to any competitor of Gaussian, Inc.  The licensee
 of this program is prohibited from giving any competitor of
 Gaussian, Inc. access to this program.  By using this program,
 the user acknowledges that Gaussian, Inc. is engaged in the
 business of creating and licensing software in the field of
 computational chemistry and represents and warrants to the
 licensee that it is not a competitor of Gaussian, Inc. and that
 it will not use this program in any manner prohibited above.
 ---------------------------------------------------------------
  

 Cite this work as:
 Gaussian 16, Revision C.01,
 M. J. Frisch, G. W. Trucks, H. B. Schlegel, G. E. Scuseria, 
 M. A. Robb, J. R. Cheeseman, G. Scalmani, V. Barone, 
 G. A. Petersson, H. Nakatsuji, X. Li, M. Caricato, A. V. Marenich, 
 J. Bloino, B. G. Janesko, R. Gomperts, B. Mennucci, H. P. Hratchian, 
 J. V. Ortiz, A. F. Izmaylov, J. L. Sonnenberg, D. Williams-Young, 
 F. Ding, F. Lipparini, F. Egidi, J. Goings, B. Peng, A. Petrone, 
 T. Henderson, D. Ranasinghe, V. G. Zakrzewski, J. Gao, N. Rega, 
 G. Zheng, W. Liang, M. Hada, M. Ehara, K. Toyota, R. Fukuda, 
 J. Hasegawa, M. Ishida, T. Nakajima, Y. Honda, O. Kitao, H. Nakai, 
 T. Vreven, K. Throssell, J. A. Montgomery, Jr., J. E. Peralta, 
 F. Ogliaro, M. J. Bearpark, J. J. Heyd, E. N. Brothers, K. N. Kudin, 
 V. N. Staroverov, T. A. Keith, R. Kobayashi, J. Normand, 
 K. Raghavachari, A. P. Rendell, J. C. Burant, S. S. Iyengar, 
 J. Tomasi, M. Cossi, J. M. Millam, M. Klene, C. Adamo, R. Cammi, 
 J. W. Ochterski, R. L. Martin, K. Morokuma, O. Farkas, 
 J. B. Foresman, and D. J. Fox, Gaussian, Inc., Wallingford CT, 2019.
 
 ******************************************
 Gaussian 16:  ES64L-G16RevC.01  3-Jul-2019
                 5-Jun-2023 
 ******************************************
 %NProcShared=2
 Will use up to    2 processors via shared memory.
 %mem=55gb
 %chk=/scratch1/svicchi/G09-672258.pbs02/02-freq/bentriz-CO2_binding-site_index-6
 -freq.chk
 ----------------------------------------------------------------------
 #p freq=raman scale=0.967 pop=(nbo,full,hirshfeld) guess=read geom=all
 check b3lyp/6-311+G(d,p) int=grid=ultrafine EmpiricalDispersion=GD3BJ 
 SCRF=(Solvent=ethanol) scf=(xqc,intrep,maxconventionalcycle=350) nosym
 m
 ----------------------------------------------------------------------
 1/10=4,29=7,30=1,38=1,114=967000/1,3;
 2/12=2,15=1,40=1/2;
 3/5=4,6=6,7=111,11=2,14=-4,25=1,30=1,70=2201,71=2,72=4,74=-5,75=-5,116=-2,124=41,140=1/1,2,3;
 4/5=1/1;
 5/5=2,8=3,13=1,17=20,38=6,53=4,85=350,98=1/2,8;
 8/6=4,10=90,11=11/1;
 10/13=10,15=4,31=1/2;
 11/6=3,8=1,9=11,15=111,16=1,31=1/1,2,10;
 10/6=1,31=1/2;
 6/7=3,28=1,40=1,79=1/1,7;
 7/8=1,10=1,25=1,30=1/1,2,3,16;
 1/10=4,30=1/3;
 99//99;
 Leave Link    1 at Mon Jun  5 11:41:22 2023, MaxMem=  7381975040 cpu:               1.4 elap:               1.4
 (Enter /software/commercial/gaussian/g16/AVX/g16/l101.exe)
 Structure from the checkpoint file:  "/scratch1/svicchi/G09-672258.pbs02/02-freq/bentriz-CO2_binding-site_index-6-freq.chk"
 ------------------------------------
 bentriz-CO2_binding-site_index-6.gjf
 ------------------------------------
 Charge = -1 Multiplicity = 1
 No Z-Matrix found in chk file; cartesian coordinates used.
  C                                                -1.859409657587     -0.997446356589     -0.000001805270
  C                                                -1.779073179185     -2.410759428493     -0.000000848523
  C                                                -0.731000878905     -0.194054713005     -0.000000845518
  C                                                 0.508154058096     -0.851673163836      0.000001051128
  C                                                 0.594062324213     -2.256970551025      0.000001589435
  C                                                -0.557176801056     -3.058787856712      0.000000827399
  N                                                 1.818205083888     -0.437616160556      0.000001071018
  N                                                 2.635063063408     -1.519990299401      0.000001627606
  N                                                 1.928524519463     -2.606466261674      0.000002272102
  H                                                -0.785959996964      0.883670731967     -0.000001547714
  H                                                -2.837442248988     -0.530405849765     -0.000003384621
  H                                                -2.694880713137     -2.989600661589     -0.000001617158
  H                                                -0.482572624425     -4.139270238525      0.000001315127
  C                                                 2.364608104556      0.976020368232      0.000000368510
  O                                                 1.465314417455      1.826125745168      0.000015162084
  O                                                 3.594347529168      1.051677695805     -0.000015235604
 Recover connectivity data from disk.
 ITRead=  0  0  0  0  0  0  0  0  0  0  0  0  0  0  0  0
 MicOpt= -1 -1 -1 -1 -1 -1 -1 -1 -1 -1 -1 -1 -1 -1 -1 -1
 NAtoms=     16 NQM=       16 NQMF=       0 NMMI=      0 NMMIF=      0
                NMic=       0 NMicF=      0.
                    Isotopes and Nuclear Properties:
 (Nuclear quadrupole moments (NQMom) in fm**2, nuclear magnetic moments (NMagM)
  in nuclear magnetons)

  Atom         1           2           3           4           5           6           7           8           9          10
 IAtWgt=          12          12          12          12          12          12          14          14          14           1
 AtmWgt=  12.0000000  12.0000000  12.0000000  12.0000000  12.0000000  12.0000000  14.0030740  14.0030740  14.0030740   1.0078250
 NucSpn=           0           0           0           0           0           0           2           2           2           1
 AtZEff=   3.6000000   3.6000000   3.6000000   3.6000000   3.6000000   3.6000000   4.5500000   4.5500000   4.5500000   1.0000000
 NQMom=    0.0000000   0.0000000   0.0000000   0.0000000   0.0000000   0.0000000   2.0440000   2.0440000   2.0440000   0.0000000
 NMagM=    0.0000000   0.0000000   0.0000000   0.0000000   0.0000000   0.0000000   0.4037610   0.4037610   0.4037610   2.7928460
 AtZNuc=   6.0000000   6.0000000   6.0000000   6.0000000   6.0000000   6.0000000   7.0000000   7.0000000   7.0000000   1.0000000

  Atom        11          12          13          14          15          16
 IAtWgt=           1           1           1          12          16          16
 AtmWgt=   1.0078250   1.0078250   1.0078250  12.0000000  15.9949146  15.9949146
 NucSpn=           1           1           1           0           0           0
 AtZEff=   1.0000000   1.0000000   1.0000000   3.6000000   5.6000000   5.6000000
 NQMom=    0.0000000   0.0000000   0.0000000   0.0000000   0.0000000   0.0000000
 NMagM=    2.7928460   2.7928460   2.7928460   0.0000000   0.0000000   0.0000000
 AtZNuc=   1.0000000   1.0000000   1.0000000   6.0000000   8.0000000   8.0000000
 Leave Link  101 at Mon Jun  5 11:41:24 2023, MaxMem=  7381975040 cpu:               0.5 elap:               1.4
 (Enter /software/commercial/gaussian/g16/AVX/g16/l103.exe)

 GradGradGradGradGradGradGradGradGradGradGradGradGradGradGradGradGradGrad
 Berny optimization.
 Initialization pass.
 Trust Radius=3.00D-01 FncErr=1.00D-07 GrdErr=1.00D-07 EigMax=2.50D+02 EigMin=1.00D-04
 Number of steps in this run=      2 maximum allowed number of steps=      2.
 GradGradGradGradGradGradGradGradGradGradGradGradGradGradGradGradGradGrad

 Leave Link  103 at Mon Jun  5 11:41:27 2023, MaxMem=  7381975040 cpu:               0.2 elap:               0.9
 (Enter /software/commercial/gaussian/g16/AVX/g16/l202.exe)
                          Input orientation:                          
 ---------------------------------------------------------------------
 Center     Atomic      Atomic             Coordinates (Angstroms)
 Number     Number       Type             X           Y           Z
 ---------------------------------------------------------------------
      1          6           0       -1.859410   -0.997446   -0.000002
      2          6           0       -1.779073   -2.410759   -0.000001
      3          6           0       -0.731001   -0.194055   -0.000001
      4          6           0        0.508154   -0.851673    0.000001
      5          6           0        0.594062   -2.256971    0.000002
      6          6           0       -0.557177   -3.058788    0.000001
      7          7           0        1.818205   -0.437616    0.000001
      8          7           0        2.635063   -1.519990    0.000002
      9          7           0        1.928525   -2.606466    0.000002
     10          1           0       -0.785960    0.883671   -0.000002
     11          1           0       -2.837442   -0.530406   -0.000003
     12          1           0       -2.694881   -2.989601   -0.000002
     13          1           0       -0.482573   -4.139270    0.000001
     14          6           0        2.364608    0.976020    0.000000
     15          8           0        1.465314    1.826126    0.000015
     16          8           0        3.594348    1.051678   -0.000015
 ---------------------------------------------------------------------
                    Distance matrix (angstroms):
                    1          2          3          4          5
     1  C    0.000000
     2  C    1.415595   0.000000
     3  C    1.385188   2.451986   0.000000
     4  C    2.372047   2.768060   1.402842   0.000000
     5  C    2.757884   2.378113   2.451819   1.407921   0.000000
     6  C    2.438225   1.383102   2.870002   2.450772   1.402948
     7  N    3.719981   4.102890   2.560815   1.373928   2.192847
     8  N    4.524747   4.503118   3.617802   2.229437   2.169982
     9  N    4.115506   3.712759   3.590655   2.257599   1.379470
    10  H    2.165848   3.440864   1.079126   2.164752   3.430465
    11  H    1.083824   2.157748   2.133126   3.360986   3.841386
    12  H    2.160252   1.083402   3.416416   3.850995   3.369554
    13  H    3.430268   2.160709   3.953029   3.433633   2.168455
    14  C    4.662285   5.351670   3.309361   2.605165   3.686063
    15  O    4.361920   5.336408   2.984113   2.843723   4.175016
    16  O    5.826009   6.392349   4.501165   3.625925   4.466415
                    6          7          8          9         10
     6  C    0.000000
     7  N    3.537369   0.000000
     8  N    3.543768   1.356020   0.000000
     9  N    2.526521   2.171654   1.296004   0.000000
    10  H    3.949091   2.920184   4.181027   4.421480   0.000000
    11  H    3.404751   4.656572   5.561258   5.198506   2.491624
    12  H    2.138823   5.184647   5.528839   4.639253   4.318126
    13  H    1.083055   4.358420   4.071889   2.857075   5.032095
    14  C    4.981617   1.515561   2.510620   3.608930   3.151921
    15  O    5.287046   2.291083   3.544687   4.456729   2.440586
    16  O    5.842181   2.317904   2.744759   4.019575   4.383528
                   11         12         13         14         15
    11  H    0.000000
    12  H    2.463324   0.000000
    13  H    4.309213   2.493200   0.000000
    14  C    5.415778   6.428419   5.854284   0.000000
    15  O    4.905808   6.363839   6.275366   1.237501   0.000000
    16  O    6.623512   7.475716   6.600547   1.232065   2.265514
                   16
    16  O    0.000000
 Symmetry turned off by external request.
 Stoichiometry    C7H4N3O2(1-)
 Framework group  C1[X(C7H4N3O2)]
 Deg. of freedom    42
 Full point group                 C1      NOp   1
 Rotational constants (GHZ):           2.0909794           0.7855503           0.5710247
 Leave Link  202 at Mon Jun  5 11:41:29 2023, MaxMem=  7381975040 cpu:               0.0 elap:               0.9
 (Enter /software/commercial/gaussian/g16/AVX/g16/l301.exe)
 Standard basis: 6-311+G(d,p) (5D, 7F)
 Ernie: Thresh=  0.10000D-02 Tol=  0.10000D-05 Strict=F.
   288 basis functions,   464 primitive gaussians,   300 cartesian basis functions
    42 alpha electrons       42 beta electrons
       nuclear repulsion energy       647.1062019849 Hartrees.
 IExCor=  402 DFT=T Ex+Corr=B3LYP ExCW=0 ScaHFX=  0.200000
 ScaDFX=  0.800000  0.720000  1.000000  0.810000 ScalE2=  1.000000  1.000000
 IRadAn=      5 IRanWt=     -1 IRanGd=            0 ICorTp=0 IEmpDi=141
 NAtoms=   16 NActive=   16 NUniq=   16 SFac= 1.00D+00 NAtFMM=   60 NAOKFM=F Big=F
 Integral buffers will be    131072 words long.
 Raffenetti 2 integral format.
 Two-electron integral symmetry is turned off.
 R6Disp:  Grimme-D3(BJ) Dispersion energy=       -0.0329319435 Hartrees.
 Nuclear repulsion after empirical dispersion term =      647.0732700414 Hartrees.
 Force inversion solution in PCM.
 ------------------------------------------------------------------------------
 Polarizable Continuum Model (PCM)
 =================================
 Model                : PCM.
 Atomic radii         : UFF (Universal Force Field).
 Polarization charges : Total charges.
 Charge compensation  : None.
 Solution method      : Matrix inversion.
 Cavity type          : Scaled VdW (van der Waals Surface) (Alpha=1.100).
 Cavity algorithm     : GePol (No added spheres)
                        Default sphere list used, NSphG=   16.
                        Lebedev-Laikov grids with approx.  5.0 points / Ang**2.
                        Smoothing algorithm: York/Karplus (Gamma=1.0000).
                        Polarization charges: spherical gaussians, with
                                              point-specific exponents (IZeta= 3).
                        Self-potential: point-specific (ISelfS= 7).
                        Self-field    : sphere-specific E.n sum rule (ISelfD= 2).
 1st derivatives      : Analytical E(r).r(x)/FMM algorithm (CHGder, D1EAlg=3).
                        Cavity 1st derivative terms included.
 2nd derivatives      : Analytical E(r).r(xy)/FMM algorithm (CHGder, D2EAlg=3).
                        Cavity 2nd derivative terms included.
 Solvent              : Ethanol, Eps=  24.852000 Eps(inf)=   1.852593
 ------------------------------------------------------------------------------
 Spheres list:
 ISph  on   Nord     Re0    Alpha      Xe            Ye            Ze
    1   C      1    1.9255  1.100     -1.859410     -0.997446     -0.000002
    2   C      2    1.9255  1.100     -1.779073     -2.410759     -0.000001
    3   C      3    1.9255  1.100     -0.731001     -0.194055     -0.000001
    4   C      4    1.9255  1.100      0.508154     -0.851673      0.000001
    5   C      5    1.9255  1.100      0.594062     -2.256971      0.000002
    6   C      6    1.9255  1.100     -0.557177     -3.058788      0.000001
    7   N      7    1.8300  1.100      1.818205     -0.437616      0.000001
    8   N      8    1.8300  1.100      2.635063     -1.519990      0.000002
    9   N      9    1.8300  1.100      1.928525     -2.606466      0.000002
   10   H     10    1.4430  1.100     -0.785960      0.883671     -0.000002
   11   H     11    1.4430  1.100     -2.837442     -0.530406     -0.000003
   12   H     12    1.4430  1.100     -2.694881     -2.989601     -0.000002
   13   H     13    1.4430  1.100     -0.482573     -4.139270      0.000001
   14   C     14    1.9255  1.100      2.364608      0.976020      0.000000
   15   O     15    1.7500  1.100      1.465314      1.826126      0.000015
   16   O     16    1.7500  1.100      3.594348      1.051678     -0.000015
 ------------------------------------------------------------------------------
 GePol: Number of generator spheres                  =      16
 GePol: Total number of spheres                      =      16
 GePol: Number of exposed spheres                    =      16 (100.00%)
 GePol: Number of points                             =    1528
 GePol: Average weight of points                     =       0.13
 GePol: Minimum weight of points                     =   0.30D-07
 GePol: Maximum weight of points                     =    0.20577
 GePol: Number of points with low weight             =      59
 GePol: Fraction of low-weight points (<1% of avg)   =       3.86%
 GePol: Cavity surface area                          =    199.631 Ang**2
 GePol: Cavity volume                                =    202.928 Ang**3
 Leave Link  301 at Mon Jun  5 11:41:31 2023, MaxMem=  7381975040 cpu:               0.6 elap:               1.2
 (Enter /software/commercial/gaussian/g16/AVX/g16/l302.exe)
 NPDir=0 NMtPBC=     1 NCelOv=     1 NCel=       1 NClECP=     1 NCelD=      1
         NCelK=      1 NCelE2=     1 NClLst=     1 CellRange=     0.0.
 One-electron integrals computed using PRISM.
 NBasis=   288 RedAO= T EigKep=  1.37D-06  NBF=   288
 NBsUse=   288 1.00D-06 EigRej= -1.00D+00 NBFU=   288
 Precomputing XC quadrature grid using
 IXCGrd= 4 IRadAn=           5 IRanWt=          -1 IRanGd=           0 AccXCQ= 0.00D+00.
 Generated NRdTot=       0 NPtTot=           0 NUsed=           0 NTot=          32
 NSgBfM=   300   300   300   300   300 MxSgAt=    16 MxSgA2=    16.
 Leave Link  302 at Mon Jun  5 11:41:33 2023, MaxMem=  7381975040 cpu:               1.0 elap:               1.4
 (Enter /software/commercial/gaussian/g16/AVX/g16/l303.exe)
 DipDrv:  MaxL=1.
 Leave Link  303 at Mon Jun  5 11:41:36 2023, MaxMem=  7381975040 cpu:               0.2 elap:               1.2
 (Enter /software/commercial/gaussian/g16/AVX/g16/l401.exe)
 Initial guess from the checkpoint file:  "/scratch1/svicchi/G09-672258.pbs02/02-freq/bentriz-CO2_binding-site_index-6-freq.chk"
 B after Tr=     0.000000    0.000000    0.000000
         Rot=    1.000000    0.000000    0.000000    0.000000 Ang=   0.00 deg.
 Guess basis will be translated and rotated to current coordinates.
 JPrj=2 DoOrth=T DoCkMO=T.
 Leave Link  401 at Mon Jun  5 11:41:38 2023, MaxMem=  7381975040 cpu:               1.3 elap:               1.6
 (Enter /software/commercial/gaussian/g16/AVX/g16/l502.exe)
 Keep R1 ints in memory in canonical form, NReq=879603038.
 FoFCou: FMM=F IPFlag=           0 FMFlag=           0 FMFlg1=           0
         NFxFlg=           0 DoJE=F BraDBF=F KetDBF=F FulRan=T
         wScrn=  0.000000 ICntrl=       600 IOpCl=  0 I1Cent=           0 NGrid=           0
         NMat0=    1 NMatS0=  41616 NMatT0=    0 NMatD0=    1 NMtDS0=    0 NMtDT0=    0
 Symmetry not used in FoFCou.
 Two-electron integral symmetry not used.
 Closed shell SCF:
 Using DIIS extrapolation, IDIIS=  1040.
 NGot=  7381975040 LenX=  6515824206 LenY=  6515733765
 Requested convergence on RMS density matrix=1.00D-08 within 350 cycles.
 Requested convergence on MAX density matrix=1.00D-06.
 Requested convergence on             energy=1.00D-06.
 No special actions if energy rises.

 Cycle   1  Pass 1  IDiag  1:
 Inv3:  Mode=1 IEnd=     7004352.
 Iteration    1 A*A^-1 deviation from unit magnitude is 5.33D-15 for   1519.
 Iteration    1 A*A^-1 deviation from orthogonality  is 2.51D-15 for    388    194.
 Iteration    1 A^-1*A deviation from unit magnitude is 5.11D-15 for   1519.
 Iteration    1 A^-1*A deviation from orthogonality  is 1.02D-15 for   1429   1329.
 E= -584.200722224213    
 DIIS: error= 2.82D-08 at cycle   1 NSaved=   1.
 NSaved= 1 IEnMin= 1 EnMin= -584.200722224213     IErMin= 1 ErrMin= 2.82D-08
 ErrMax= 2.82D-08  0.00D+00 EMaxC= 1.00D-01 BMatC= 1.27D-13 BMatP= 1.27D-13
 IDIUse=1 WtCom= 1.00D+00 WtEn= 0.00D+00
 Coeff-Com:  0.100D+01
 Coeff:      0.100D+01
 Gap=     0.189 Goal=   None    Shift=    0.000
 RMSDP=1.28D-08 MaxDP=8.81D-07              OVMax= 2.96D-07

 Cycle   2  Pass 1  IDiag  1:
 E= -584.200722224219     Delta-E=       -0.000000000006 Rises=F Damp=F
 DIIS: error= 6.33D-08 at cycle   2 NSaved=   2.
 NSaved= 2 IEnMin= 2 EnMin= -584.200722224219     IErMin= 1 ErrMin= 2.82D-08
 ErrMax= 6.33D-08  0.00D+00 EMaxC= 1.00D-01 BMatC= 6.06D-13 BMatP= 1.27D-13
 IDIUse=1 WtCom= 1.00D+00 WtEn= 0.00D+00
 Coeff-Com:  0.687D+00 0.313D+00
 Coeff:      0.687D+00 0.313D+00
 Gap=     0.189 Goal=   None    Shift=    0.000
 RMSDP=1.03D-08 MaxDP=9.37D-07 DE=-6.25D-12 OVMax= 2.13D-07

 Cycle   3  Pass 1  IDiag  1:
 E= -584.200722224212     Delta-E=        0.000000000008 Rises=F Damp=F
 DIIS: error= 2.57D-09 at cycle   3 NSaved=   3.
 NSaved= 3 IEnMin= 2 EnMin= -584.200722224219     IErMin= 3 ErrMin= 2.57D-09
 ErrMax= 2.57D-09  0.00D+00 EMaxC= 1.00D-01 BMatC= 2.79D-15 BMatP= 1.27D-13
 IDIUse=1 WtCom= 1.00D+00 WtEn= 0.00D+00
 Coeff-Com:  0.426D+00 0.198D+00 0.377D+00
 Coeff:      0.426D+00 0.198D+00 0.377D+00
 Gap=     0.189 Goal=   None    Shift=    0.000
 RMSDP=1.30D-09 MaxDP=1.12D-07 DE= 7.62D-12 OVMax= 1.09D-08

 Error on total polarization charges =  0.01909
 SCF Done:  E(RB3LYP) =  -584.200722224     A.U. after    3 cycles
            NFock=  3  Conv=0.13D-08     -V/T= 2.0039
 KE= 5.819525821700D+02 PE=-2.673148865992D+03 EE= 8.599222915561D+02
 Leave Link  502 at Mon Jun  5 11:42:40 2023, MaxMem=  7381975040 cpu:             102.7 elap:              60.1
 (Enter /software/commercial/gaussian/g16/AVX/g16/l508.exe)
 QCSCF skips out because SCF is already converged.
 Leave Link  508 at Mon Jun  5 11:42:43 2023, MaxMem=  7381975040 cpu:               0.0 elap:               1.8
 (Enter /software/commercial/gaussian/g16/AVX/g16/l801.exe)
 DoSCS=F DFT=T ScalE2(SS,OS)=  1.000000  1.000000
 Range of M.O.s used for correlation:     1   288
 NBasis=   288 NAE=    42 NBE=    42 NFC=     0 NFV=     0
 NROrb=    288 NOA=    42 NOB=    42 NVA=   246 NVB=   246

 **** Warning!!: The largest alpha MO coefficient is  0.25740440D+03

 Leave Link  801 at Mon Jun  5 11:42:45 2023, MaxMem=  7381975040 cpu:               0.2 elap:               1.1
 (Enter /software/commercial/gaussian/g16/AVX/g16/l1002.exe)
 Minotr:  Closed shell wavefunction.
 NEqPCM:  Using equilibrium solvation (IEInf=0, Eps=  24.8520, EpsInf=   1.8526)
          Direct CPHF calculation.
          Differentiating once with respect to electric field.
                with respect to dipole field.
          Electric field/nuclear overlap derivatives assumed to be zero.
          Requested convergence is 1.0D-08 RMS, and 1.0D-07 maximum.
          Secondary convergence is 1.0D-12 RMS, and 1.0D-12 maximum.
          NewPWx=F KeepS1=T KeepF1=T KeepIn=T MapXYZ=F SortEE=F KeepMc=T.
         4916 words used for storage of precomputed grid.
 Keep R1 ints in memory in canonical form, NReq=879609998.
 FoFCou: FMM=F IPFlag=           0 FMFlag=           0 FMFlg1=           0
         NFxFlg=           0 DoJE=F BraDBF=F KetDBF=F FulRan=T
         wScrn=  0.000000 ICntrl=       600 IOpCl=  0 I1Cent=           0 NGrid=           0
         NMat0=    1 NMatS0=  41616 NMatT0=    0 NMatD0=    1 NMtDS0=    0 NMtDT0=    0
 Symmetry not used in FoFCou.
 Two-electron integral symmetry not used.
          MDV=    7381975040 using IRadAn=       1.
          Solving linear equations simultaneously, MaxMat=       0.
          There are     3 degrees of freedom in the 1st order CPHF.  IDoFFX=0 NUNeed=     3.
      3 vectors produced by pass  0 Test12= 3.44D-13 3.33D-08 XBig12= 2.06D+02 9.09D+00.
 AX will form     3 AO Fock derivatives at one time.
      3 vectors produced by pass  1 Test12= 3.44D-13 3.33D-08 XBig12= 8.60D+01 2.17D+00.
      3 vectors produced by pass  2 Test12= 3.44D-13 3.33D-08 XBig12= 1.71D+01 1.22D+00.
      3 vectors produced by pass  3 Test12= 3.44D-13 3.33D-08 XBig12= 1.05D+01 8.19D-01.
      3 vectors produced by pass  4 Test12= 3.44D-13 3.33D-08 XBig12= 1.40D+00 2.54D-01.
      3 vectors produced by pass  5 Test12= 3.44D-13 3.33D-08 XBig12= 5.57D-01 2.20D-01.
      3 vectors produced by pass  6 Test12= 3.44D-13 3.33D-08 XBig12= 2.46D-01 1.00D-01.
      3 vectors produced by pass  7 Test12= 3.44D-13 3.33D-08 XBig12= 5.86D-02 7.27D-02.
      3 vectors produced by pass  8 Test12= 3.44D-13 3.33D-08 XBig12= 5.97D-03 1.62D-02.
      3 vectors produced by pass  9 Test12= 3.44D-13 3.33D-08 XBig12= 1.04D-03 7.77D-03.
      3 vectors produced by pass 10 Test12= 3.44D-13 3.33D-08 XBig12= 1.01D-04 2.46D-03.
      3 vectors produced by pass 11 Test12= 3.44D-13 3.33D-08 XBig12= 2.77D-05 1.49D-03.
      2 vectors produced by pass 12 Test12= 3.44D-13 3.33D-08 XBig12= 2.90D-06 2.02D-04.
      2 vectors produced by pass 13 Test12= 3.44D-13 3.33D-08 XBig12= 8.63D-08 3.90D-05.
      2 vectors produced by pass 14 Test12= 3.44D-13 3.33D-08 XBig12= 2.49D-09 7.97D-06.
      2 vectors produced by pass 15 Test12= 3.44D-13 3.33D-08 XBig12= 5.90D-11 1.26D-06.
      1 vectors produced by pass 16 Test12= 3.44D-13 3.33D-08 XBig12= 1.18D-12 1.18D-07.
 InvSVY:  IOpt=1 It=  1 EMax= 1.81D-15
 Solved reduced A of dimension    45 with     3 vectors.
 End of Minotr F.D. properties file   721 does not exist.
 End of Minotr F.D. properties file   722 does not exist.
 End of Minotr F.D. properties file   788 does not exist.
 Leave Link 1002 at Mon Jun  5 11:45:56 2023, MaxMem=  7381975040 cpu:             362.2 elap:             189.1
 (Enter /software/commercial/gaussian/g16/AVX/g16/l1101.exe)
 Using compressed storage, NAtomX=    16.
 Will process     17 centers per pass.
 R6Disp: Adding Grimme-D3(BJ) dispersion energy 1st derivatives to the gradient.
 Leave Link 1101 at Mon Jun  5 11:46:01 2023, MaxMem=  7381975040 cpu:               0.7 elap:               3.0
 (Enter /software/commercial/gaussian/g16/AVX/g16/l1102.exe)
 Symmetrizing basis deriv contribution to polar:
 IMax=3 JMax=2 DiffMx= 0.00D+00
 Leave Link 1102 at Mon Jun  5 11:46:05 2023, MaxMem=  7381975040 cpu:               0.2 elap:               2.2
 (Enter /software/commercial/gaussian/g16/AVX/g16/l1110.exe)
 Forming Gx(P) for the SCF density, NAtomX=    16.
 Integral derivatives from FoFJK, PRISM(SPDF).
 Do as many integral derivatives as possible in FoFJK.
 G2DrvN: MDV=    7381973288.
 G2DrvN: will do    17 centers at a time, making    1 passes.
 PxScal for G2LodP:  IOpCl= 0 ISclPx=1 IMOff=     1 NMtTot=     4 NTT=   41616 ScalPx= 5.85D+01
 Calling FoFCou, ICntrl=  3107 FMM=F I1Cent=   0 AccDes= 0.00D+00.
 FoFJK:  IHMeth= 1 ICntrl=    3107 DoSepK=F KAlg= 0 I1Cent=           0 FoldK=F
 IRaf=         0 NMat=       1 IRICut=       1 DoRegI=T DoRafI=F ISym2E= 0 IDoP0=0 IntGTp=1.
 FoFCou: FMM=F IPFlag=           0 FMFlag=      100000 FMFlg1=           0
         NFxFlg=           0 DoJE=F BraDBF=F KetDBF=F FulRan=T
         wScrn=  0.000000 ICntrl=      3107 IOpCl=  0 I1Cent=           0 NGrid=           0
         NMat0=    1 NMatS0=      1 NMatT0=    0 NMatD0=    4 NMtDS0=    3 NMtDT0=    0
 Symmetry not used in FoFCou.
 PxScal for G2LodP:  IOpCl= 0 ISclPx=0 IMOff=     1 NMtTot=     4 NTT=   41616 ScalPx= 1.00D+00
 NEqPCM:  Using equilibrium solvation (IEInf=0, Eps=  24.8520, EpsInf=   1.8526)
 G2PCM: DoFxE=T DoFxN=T DoGrad=T DoDP/DQ/DG/TGxP=TFFF NFrqRd=   0 IEInf=0 SqF1=F DoCFld=F IF1Alg=4.
 GePol: Maximum number of non-zero 1st derivatives   =     215
 End of G2Drv F.D. properties file   721 does not exist.
 End of G2Drv F.D. properties file   722 does not exist.
 End of G2Drv F.D. properties file   788 does not exist.
 Leave Link 1110 at Mon Jun  5 11:53:16 2023, MaxMem=  7381975040 cpu:             843.2 elap:             429.9
 (Enter /software/commercial/gaussian/g16/AVX/g16/l1002.exe)
 Minotr:  Closed shell wavefunction.
          IDoAtm=1111111111111111
 NEqPCM:  Using equilibrium solvation (IEInf=0, Eps=  24.8520, EpsInf=   1.8526)
          Direct CPHF calculation.
          Differentiating once with respect to electric field.
                with respect to dipole field.
          Differentiating once with respect to nuclear coordinates.
          Requested convergence is 1.0D-08 RMS, and 1.0D-07 maximum.
          Secondary convergence is 1.0D-12 RMS, and 1.0D-12 maximum.
          NewPWx=T KeepS1=F KeepF1=F KeepIn=T MapXYZ=F SortEE=F KeepMc=T.
         4916 words used for storage of precomputed grid.
 Keep R1 ints in memory in canonical form, NReq=879610366.
 FoFCou: FMM=F IPFlag=           0 FMFlag=           0 FMFlg1=           0
         NFxFlg=           0 DoJE=F BraDBF=F KetDBF=F FulRan=T
         wScrn=  0.000000 ICntrl=       600 IOpCl=  0 I1Cent=           0 NGrid=           0
         NMat0=    1 NMatS0=  41616 NMatT0=    0 NMatD0=    1 NMtDS0=    0 NMtDT0=    0
 Symmetry not used in FoFCou.
 Two-electron integral symmetry not used.
          MDV=    7381975040 using IRadAn=       1.
          Solving linear equations simultaneously, MaxMat=       0.
          There are    51 degrees of freedom in the 1st order CPHF.  IDoFFX=5 NUNeed=    51.
 Will reuse    3 saved solutions.
     45 vectors produced by pass  0 Test12= 2.03D-14 1.96D-09 XBig12= 2.53D-01 1.40D-01.
 AX will form    45 AO Fock derivatives at one time.
     45 vectors produced by pass  1 Test12= 2.03D-14 1.96D-09 XBig12= 7.66D-02 6.42D-02.
     45 vectors produced by pass  2 Test12= 2.03D-14 1.96D-09 XBig12= 1.11D-03 5.47D-03.
     45 vectors produced by pass  3 Test12= 2.03D-14 1.96D-09 XBig12= 1.01D-05 4.20D-04.
     45 vectors produced by pass  4 Test12= 2.03D-14 1.96D-09 XBig12= 4.36D-08 2.58D-05.
     45 vectors produced by pass  5 Test12= 2.03D-14 1.96D-09 XBig12= 9.44D-11 1.10D-06.
     29 vectors produced by pass  6 Test12= 2.03D-14 1.96D-09 XBig12= 1.64D-13 5.04D-08.
      1 vectors produced by pass  7 Test12= 2.03D-14 1.96D-09 XBig12= 2.70D-16 2.97D-09.
 InvSVY:  IOpt=1 It=  1 EMax= 8.88D-16
 Solved reduced A of dimension   300 with    51 vectors.
 FullF1:  Do perturbations      1 to       3.
 Isotropic polarizability for W=    0.000000      153.56 Bohr**3.
 FullF1:  Do perturbations      1 to       6.
 End of Minotr F.D. properties file   721 does not exist.
 End of Minotr F.D. properties file   722 does not exist.
 End of Minotr F.D. properties file   788 does not exist.
 Leave Link 1002 at Mon Jun  5 12:03:49 2023, MaxMem=  7381975040 cpu:            1221.3 elap:             631.2
 (Enter /software/commercial/gaussian/g16/AVX/g16/l601.exe)
 Copying SCF densities to generalized density rwf, IOpCl= 0 IROHF=0.

 **********************************************************************

            Population analysis using the SCF Density.

 **********************************************************************

 Alpha  occ. eigenvalues --  -19.07654 -19.07641 -14.38737 -14.38070 -14.34316
 Alpha  occ. eigenvalues --  -10.29836 -10.21830 -10.20361 -10.18622 -10.18398
 Alpha  occ. eigenvalues --  -10.18324 -10.18104  -1.10134  -1.04950  -0.96978
 Alpha  occ. eigenvalues --   -0.89822  -0.86842  -0.77750  -0.75725  -0.65495
 Alpha  occ. eigenvalues --   -0.64173  -0.62159  -0.56111  -0.52620  -0.48182
 Alpha  occ. eigenvalues --   -0.47819  -0.46886  -0.45313  -0.44204  -0.42233
 Alpha  occ. eigenvalues --   -0.41333  -0.38136  -0.37802  -0.36269  -0.34049
 Alpha  occ. eigenvalues --   -0.31874  -0.28943  -0.27153  -0.27051  -0.25672
 Alpha  occ. eigenvalues --   -0.25469  -0.24322
 Alpha virt. eigenvalues --   -0.05392  -0.00751   0.01056   0.01577   0.02332
 Alpha virt. eigenvalues --    0.03027   0.04546   0.05020   0.05062   0.05690
 Alpha virt. eigenvalues --    0.07247   0.07645   0.07873   0.08043   0.08875
 Alpha virt. eigenvalues --    0.09356   0.11655   0.12069   0.12384   0.13427
 Alpha virt. eigenvalues --    0.13674   0.14315   0.14845   0.16032   0.16738
 Alpha virt. eigenvalues --    0.17012   0.17852   0.18191   0.18441   0.18665
 Alpha virt. eigenvalues --    0.19308   0.19967   0.20277   0.21241   0.21721
 Alpha virt. eigenvalues --    0.22443   0.22927   0.22981   0.23528   0.24236
 Alpha virt. eigenvalues --    0.24408   0.24853   0.25774   0.26065   0.26592
 Alpha virt. eigenvalues --    0.26876   0.27033   0.27384   0.28673   0.29556
 Alpha virt. eigenvalues --    0.29826   0.30305   0.31207   0.31698   0.32710
 Alpha virt. eigenvalues --    0.34486   0.35342   0.36510   0.37370   0.39790
 Alpha virt. eigenvalues --    0.40732   0.41636   0.42324   0.43424   0.44393
 Alpha virt. eigenvalues --    0.47714   0.49130   0.49705   0.52373   0.52819
 Alpha virt. eigenvalues --    0.53860   0.54196   0.57095   0.57802   0.58605
 Alpha virt. eigenvalues --    0.61260   0.61853   0.62589   0.63672   0.64960
 Alpha virt. eigenvalues --    0.65641   0.68979   0.68996   0.70976   0.72579
 Alpha virt. eigenvalues --    0.74997   0.75884   0.78619   0.79494   0.82097
 Alpha virt. eigenvalues --    0.82229   0.82811   0.83241   0.85074   0.86785
 Alpha virt. eigenvalues --    0.87159   0.87701   0.88410   0.90603   0.90955
 Alpha virt. eigenvalues --    0.92295   0.94471   0.95527   0.99275   0.99494
 Alpha virt. eigenvalues --    1.00008   1.00852   1.01744   1.02795   1.07783
 Alpha virt. eigenvalues --    1.09376   1.09595   1.10475   1.15619   1.15656
 Alpha virt. eigenvalues --    1.17834   1.19238   1.19842   1.20829   1.24508
 Alpha virt. eigenvalues --    1.26422   1.28830   1.30304   1.32470   1.33899
 Alpha virt. eigenvalues --    1.39870   1.40668   1.45325   1.48813   1.49967
 Alpha virt. eigenvalues --    1.55254   1.55408   1.56037   1.57311   1.59900
 Alpha virt. eigenvalues --    1.60231   1.61520   1.65626   1.68010   1.68213
 Alpha virt. eigenvalues --    1.73363   1.74310   1.75777   1.77163   1.78385
 Alpha virt. eigenvalues --    1.84291   1.85392   1.86395   1.89214   1.90704
 Alpha virt. eigenvalues --    1.91527   1.93143   1.95431   1.96712   2.00590
 Alpha virt. eigenvalues --    2.01621   2.04176   2.04782   2.11728   2.14556
 Alpha virt. eigenvalues --    2.17538   2.20291   2.26441   2.28910   2.30772
 Alpha virt. eigenvalues --    2.32636   2.39840   2.40602   2.44018   2.47342
 Alpha virt. eigenvalues --    2.54527   2.56712   2.58721   2.65867   2.66951
 Alpha virt. eigenvalues --    2.68814   2.69210   2.72712   2.72993   2.73127
 Alpha virt. eigenvalues --    2.76360   2.76776   2.78325   2.80770   2.80885
 Alpha virt. eigenvalues --    2.81558   2.83892   2.84914   2.89159   2.90697
 Alpha virt. eigenvalues --    2.91558   2.92790   2.95032   2.96398   2.99429
 Alpha virt. eigenvalues --    3.06942   3.08889   3.16077   3.16817   3.29679
 Alpha virt. eigenvalues --    3.30813   3.31737   3.36496   3.40886   3.44711
 Alpha virt. eigenvalues --    3.44929   3.46774   3.51441   3.56444   3.59800
 Alpha virt. eigenvalues --    3.64841   3.72659   3.80062   3.86203   3.91405
 Alpha virt. eigenvalues --    3.94568   3.99771   4.02045   4.02983   4.07448
 Alpha virt. eigenvalues --    4.09433   4.19676   4.21101   4.63149   4.82635
 Alpha virt. eigenvalues --    4.88936   4.90711   5.04519   5.06981   5.17110
 Alpha virt. eigenvalues --    5.22086   5.61974   5.75043   5.90392  23.60981
 Alpha virt. eigenvalues --   23.89115  23.92356  23.96452  24.04936  24.10554
 Alpha virt. eigenvalues --   24.18598  35.42591  35.52441  35.67871  49.96659
 Alpha virt. eigenvalues --   50.06964
     Molecular Orbital Coefficients:
                           1         2         3         4         5
                           O         O         O         O         O
     Eigenvalues --   -19.07654 -19.07641 -14.38737 -14.38070 -14.34316
   1 1   C  1S         -0.00000  -0.00000  -0.00000  -0.00000  -0.00001
   2        2S          0.00001   0.00001   0.00002   0.00001   0.00004
   3        2PX         0.00001   0.00002   0.00008   0.00001   0.00001
   4        2PY         0.00001  -0.00001   0.00004   0.00001  -0.00002
   5        2PZ        -0.00000   0.00000   0.00000   0.00000   0.00000
   6        3S         -0.00013  -0.00005  -0.00013  -0.00011  -0.00035
   7        3PX        -0.00003  -0.00010  -0.00045  -0.00008  -0.00009
   8        3PY        -0.00002   0.00002  -0.00019  -0.00003   0.00016
   9        3PZ         0.00000  -0.00000  -0.00000  -0.00000  -0.00000
  10        4S          0.00149  -0.00184  -0.00865   0.00133   0.00487
  11        4PX         0.00121  -0.00043  -0.00282   0.00053   0.00291
  12        4PY        -0.00016  -0.00142   0.00104  -0.00007  -0.00177
  13        4PZ         0.00000   0.00000  -0.00000   0.00000   0.00000
  14        5S         -0.01730  -0.02668  -0.00456   0.01129   0.02519
  15        5PX        -0.00527  -0.00561   0.00040   0.00255   0.00593
  16        5PY        -0.01076  -0.00702   0.00225  -0.00852   0.00393
  17        5PZ         0.00000   0.00000  -0.00000   0.00000   0.00000
  18        6D 0       -0.00003  -0.00000  -0.00005  -0.00002  -0.00005
  19        6D+1       -0.00000   0.00000  -0.00000   0.00000   0.00000
  20        6D-1        0.00000  -0.00000  -0.00000  -0.00000  -0.00000
  21        6D+2       -0.00002  -0.00001  -0.00010   0.00000   0.00005
  22        6D-2       -0.00001   0.00000  -0.00006  -0.00002  -0.00003
  23 2   C  1S         -0.00000  -0.00000  -0.00001  -0.00000  -0.00000
  24        2S          0.00000   0.00001   0.00004   0.00001   0.00002
  25        2PX         0.00000   0.00001   0.00000   0.00002   0.00008
  26        2PY         0.00002   0.00001   0.00003  -0.00001  -0.00002
  27        2PZ        -0.00000   0.00000   0.00000   0.00000   0.00000
  28        3S         -0.00001  -0.00005  -0.00043  -0.00004  -0.00010
  29        3PX        -0.00003  -0.00004  -0.00007  -0.00015  -0.00048
  30        3PY        -0.00010  -0.00005  -0.00019   0.00004   0.00013
  31        3PZ         0.00000  -0.00000  -0.00000  -0.00000  -0.00000
  32        4S         -0.00080   0.00025   0.00589   0.00006  -0.00843
  33        4PX        -0.00056   0.00085   0.00306   0.00005  -0.00280
  34        4PY        -0.00003  -0.00036   0.00245  -0.00084  -0.00094
  35        4PZ        -0.00000   0.00000   0.00000   0.00000  -0.00000
  36        5S         -0.00874  -0.00134   0.01463  -0.03036  -0.02828
  37        5PX         0.00237   0.00218   0.00177  -0.00342  -0.00675
  38        5PY        -0.00454  -0.00024   0.00105  -0.00114   0.00319
  39        5PZ        -0.00000  -0.00000   0.00000  -0.00000  -0.00000
  40        6D 0        0.00000  -0.00000  -0.00006  -0.00001  -0.00003
  41        6D+1        0.00000   0.00000   0.00000  -0.00000  -0.00000
  42        6D-1       -0.00000  -0.00000   0.00000   0.00000   0.00000
  43        6D+2        0.00002  -0.00000   0.00004  -0.00003  -0.00013
  44        6D-2        0.00001  -0.00000   0.00003   0.00004   0.00004
  45 3   C  1S         -0.00000  -0.00000  -0.00001  -0.00000  -0.00001
  46        2S          0.00001   0.00001   0.00004   0.00002   0.00003
  47        2PX         0.00005  -0.00001   0.00004   0.00006   0.00008
  48        2PY         0.00005   0.00001   0.00010  -0.00002  -0.00009
  49        2PZ         0.00000  -0.00000   0.00000   0.00000   0.00000
  50        3S         -0.00003  -0.00003  -0.00057  -0.00009   0.00001
  51        3PX        -0.00018   0.00009  -0.00008  -0.00035  -0.00052
  52        3PY        -0.00017  -0.00005  -0.00042   0.00017   0.00058
  53        3PZ        -0.00000   0.00000   0.00000  -0.00000  -0.00000
  54        4S         -0.00022   0.00031   0.01765  -0.00246  -0.01134
  55        4PX         0.00076  -0.00263   0.00215  -0.00020  -0.00246
  56        4PY         0.00100  -0.00104  -0.00988   0.00045   0.00424
  57        4PZ        -0.00000  -0.00000   0.00000  -0.00000  -0.00000
  58        5S         -0.02956   0.05868  -0.03480  -0.11663   0.00503
  59        5PX        -0.02457  -0.00765  -0.00663  -0.03120   0.01419
  60        5PY        -0.00173  -0.00959  -0.00080   0.00854   0.00635
  61        5PZ        -0.00000  -0.00000  -0.00000  -0.00000   0.00000
  62        6D 0        0.00004   0.00003  -0.00012   0.00000   0.00006
  63        6D+1       -0.00000  -0.00000   0.00000  -0.00000  -0.00000
  64        6D-1        0.00000  -0.00000  -0.00000   0.00000   0.00000
  65        6D+2       -0.00004  -0.00000  -0.00032  -0.00013  -0.00010
  66        6D-2       -0.00006   0.00004  -0.00006   0.00006   0.00019
  67 4   C  1S         -0.00000  -0.00000   0.00001  -0.00001  -0.00001
  68        2S          0.00001   0.00001   0.00003   0.00004   0.00008
  69        2PX        -0.00003   0.00006   0.00048   0.00004   0.00004
  70        2PY         0.00004   0.00009   0.00023  -0.00000  -0.00004
  71        2PZ         0.00000   0.00000   0.00000  -0.00000   0.00000
  72        3S         -0.00011   0.00004   0.00057  -0.00032  -0.00080
  73        3PX         0.00021  -0.00034  -0.00135  -0.00046  -0.00036
  74        3PY        -0.00009  -0.00046  -0.00080   0.00011   0.00057
  75        3PZ        -0.00000  -0.00000  -0.00000   0.00000  -0.00000
  76        4S          0.00579  -0.00307   0.00256  -0.00073   0.00492
  77        4PX         0.00265  -0.00036   0.02483  -0.00183  -0.01310
  78        4PY         0.00088   0.00351   0.00317   0.00270  -0.00079
  79        4PZ         0.00000  -0.00000   0.00000  -0.00000  -0.00000
  80        5S          0.04364  -0.01716  -0.02754   0.03301   0.10827
  81        5PX        -0.01520   0.02512  -0.01402  -0.04504   0.01728
  82        5PY         0.02926  -0.00152   0.03313   0.05854  -0.04786
  83        5PZ        -0.00000  -0.00000  -0.00000  -0.00000   0.00000
  84        6D 0       -0.00003   0.00004   0.00018  -0.00009  -0.00013
  85        6D+1        0.00000  -0.00000  -0.00000   0.00000   0.00000
  86        6D-1       -0.00000  -0.00000  -0.00000  -0.00000  -0.00000
  87        6D+2        0.00005   0.00001  -0.00087  -0.00002   0.00037
  88        6D-2        0.00001  -0.00012  -0.00038  -0.00009  -0.00009
  89 5   C  1S         -0.00000  -0.00000  -0.00001  -0.00001   0.00001
  90        2S          0.00000   0.00002   0.00006   0.00003  -0.00002
  91        2PX        -0.00001  -0.00000  -0.00003   0.00008   0.00046
  92        2PY         0.00001  -0.00000   0.00005  -0.00006  -0.00017
  93        2PZ         0.00000   0.00000  -0.00000   0.00000   0.00000
  94        3S         -0.00001  -0.00021  -0.00071  -0.00025   0.00091
  95        3PX         0.00003  -0.00000   0.00001  -0.00065  -0.00114
  96        3PY        -0.00006  -0.00002  -0.00065   0.00015   0.00055
  97        3PZ        -0.00000  -0.00000   0.00000  -0.00000  -0.00000
  98        4S         -0.00123   0.00441   0.00465   0.00080   0.00027
  99        4PX        -0.00187  -0.00016  -0.01535   0.00121   0.02195
 100        4PY        -0.00079   0.00197  -0.00190   0.00145  -0.00040
 101        4PZ         0.00000   0.00000  -0.00000   0.00000   0.00000
 102        5S          0.00667   0.02067   0.06161   0.09260  -0.11778
 103        5PX         0.00788  -0.01522   0.00105   0.00434  -0.00862
 104        5PY         0.00829  -0.00942   0.01717   0.01640  -0.04869
 105        5PZ         0.00000   0.00000  -0.00000   0.00000   0.00000
 106        6D 0       -0.00000  -0.00005  -0.00015  -0.00009   0.00016
 107        6D+1        0.00000  -0.00000   0.00000  -0.00000  -0.00000
 108        6D-1       -0.00000   0.00000   0.00000  -0.00000   0.00000
 109        6D+2        0.00002   0.00005   0.00040  -0.00019  -0.00070
 110        6D-2        0.00001   0.00003   0.00028   0.00030   0.00036
 111 6   C  1S         -0.00000  -0.00000  -0.00001  -0.00000  -0.00001
 112        2S          0.00001   0.00000   0.00003   0.00002   0.00004
 113        2PX         0.00001   0.00002   0.00008   0.00005   0.00003
 114        2PY         0.00001   0.00002   0.00010   0.00001  -0.00008
 115        2PZ        -0.00000   0.00000   0.00000   0.00000   0.00000
 116        3S         -0.00009   0.00001  -0.00002  -0.00015  -0.00053
 117        3PX        -0.00007  -0.00011  -0.00053  -0.00032  -0.00013
 118        3PY        -0.00005  -0.00010  -0.00067  -0.00012   0.00034
 119        3PZ         0.00000  -0.00000  -0.00000  -0.00000  -0.00000
 120        4S         -0.00030  -0.00101  -0.01323   0.00103   0.01623
 121        4PX        -0.00050   0.00069  -0.00214   0.00130   0.00012
 122        4PY         0.00012  -0.00062  -0.00528   0.00046   0.00922
 123        4PZ        -0.00000   0.00000  -0.00000   0.00000  -0.00000
 124        5S          0.01506  -0.02959  -0.00743   0.00680   0.00692
 125        5PX         0.00484  -0.00548   0.00353  -0.00619  -0.01442
 126        5PY         0.00273  -0.00293  -0.00336   0.00022   0.00705
 127        5PZ         0.00000  -0.00000   0.00000  -0.00000  -0.00000
 128        6D 0       -0.00001   0.00001   0.00005  -0.00001  -0.00012
 129        6D+1        0.00000  -0.00000  -0.00000  -0.00000   0.00000
 130        6D-1       -0.00000   0.00000  -0.00000  -0.00000   0.00000
 131        6D+2       -0.00000  -0.00000  -0.00011  -0.00008  -0.00026
 132        6D-2       -0.00001  -0.00004  -0.00020  -0.00014  -0.00010
 133 7   N  1S         -0.00000  -0.00000   0.55728  -0.00951   0.00019
 134        2S          0.00001   0.00002   0.46563  -0.00794   0.00025
 135        2PX         0.00007   0.00005   0.00016   0.00020  -0.00001
 136        2PY         0.00009   0.00012  -0.00039  -0.00024  -0.00004
 137        2PZ        -0.00000  -0.00000  -0.00000  -0.00000   0.00000
 138        3S          0.00010  -0.00002   0.01697  -0.00026  -0.00069
 139        3PX        -0.00037  -0.00016  -0.00098  -0.00039   0.00010
 140        3PY        -0.00034  -0.00048  -0.00036   0.00050   0.00028
 141        3PZ         0.00000  -0.00000   0.00000   0.00000  -0.00000
 142        4S         -0.00183  -0.00091  -0.02677   0.00387   0.00438
 143        4PX         0.00389  -0.00199   0.00640   0.00145  -0.00317
 144        4PY        -0.00070   0.00126   0.00200  -0.00442   0.00042
 145        4PZ        -0.00000   0.00000  -0.00000  -0.00000   0.00000
 146        5S          0.01466  -0.01764   0.01344  -0.00764  -0.01884
 147        5PX         0.01451  -0.00992   0.01024   0.00242  -0.00383
 148        5PY        -0.01382   0.00111  -0.00936  -0.00755   0.01008
 149        5PZ        -0.00000   0.00000  -0.00000   0.00000  -0.00000
 150        6D 0        0.00004   0.00005  -0.00024   0.00013   0.00001
 151        6D+1       -0.00000  -0.00000   0.00000  -0.00000  -0.00000
 152        6D-1       -0.00000   0.00000  -0.00000  -0.00000   0.00000
 153        6D+2        0.00012   0.00012   0.00012   0.00008   0.00001
 154        6D-2       -0.00010  -0.00014   0.00009   0.00038   0.00017
 155 8   N  1S          0.00000  -0.00000   0.00950   0.55729  -0.00250
 156        2S          0.00000   0.00002   0.00796   0.46583  -0.00202
 157        2PX         0.00000  -0.00000  -0.00018  -0.00202  -0.00015
 158        2PY         0.00004   0.00004   0.00020   0.00009  -0.00030
 159        2PZ         0.00000  -0.00000  -0.00000   0.00000   0.00000
 160        3S          0.00009  -0.00017   0.00039   0.01558  -0.00027
 161        3PX        -0.00001   0.00002   0.00019  -0.00006   0.00031
 162        3PY        -0.00018  -0.00010  -0.00019  -0.00043   0.00056
 163        3PZ        -0.00000   0.00000   0.00000   0.00000  -0.00000
 164        4S         -0.00246   0.00238   0.00121  -0.01824   0.00541
 165        4PX         0.00075  -0.00109  -0.00121   0.00352  -0.00249
 166        4PY        -0.00025   0.00065  -0.00006  -0.00050  -0.00068
 167        4PZ         0.00000  -0.00000   0.00000   0.00000  -0.00000
 168        5S         -0.02663   0.02242  -0.01661   0.04410  -0.00335
 169        5PX         0.00371  -0.00331   0.00241  -0.01072   0.00088
 170        5PY        -0.00707   0.00133  -0.00483  -0.00615   0.00945
 171        5PZ         0.00000   0.00000   0.00000   0.00000  -0.00000
 172        6D 0        0.00002  -0.00001   0.00020  -0.00016   0.00026
 173        6D+1       -0.00000   0.00000  -0.00000  -0.00000   0.00000
 174        6D-1        0.00000  -0.00000   0.00000  -0.00000   0.00000
 175        6D+2        0.00006   0.00001   0.00013  -0.00023   0.00025
 176        6D-2        0.00001  -0.00002   0.00039   0.00021  -0.00053
 177 9   N  1S         -0.00000  -0.00000  -0.00016   0.00247   0.55736
 178        2S          0.00001   0.00000  -0.00004   0.00213   0.46577
 179        2PX         0.00001  -0.00000   0.00001   0.00027  -0.00046
 180        2PY        -0.00001   0.00001   0.00002   0.00028   0.00163
 181        2PZ         0.00000   0.00000  -0.00000  -0.00000  -0.00000
 182        3S         -0.00015   0.00001  -0.00074  -0.00002   0.01667
 183        3PX        -0.00001   0.00001   0.00001  -0.00068  -0.00048
 184        3PY         0.00003  -0.00003  -0.00021  -0.00051   0.00046
 185        3PZ        -0.00000  -0.00000   0.00000   0.00000  -0.00000
 186        4S          0.00164  -0.00068   0.00561   0.00348  -0.02587
 187        4PX        -0.00015  -0.00001  -0.00230   0.00064   0.00498
 188        4PY         0.00056  -0.00064   0.00051   0.00177  -0.00463
 189        4PZ         0.00000   0.00000  -0.00000  -0.00000   0.00000
 190        5S          0.00086  -0.01000   0.00150  -0.03447   0.02761
 191        5PX        -0.00186   0.00041  -0.00128  -0.00371   0.00411
 192        5PY         0.00043  -0.00323   0.00022  -0.00884   0.00937
 193        5PZ        -0.00000  -0.00000   0.00000  -0.00000  -0.00000
 194        6D 0       -0.00002   0.00002   0.00000   0.00030  -0.00020
 195        6D+1       -0.00000   0.00000  -0.00000   0.00000   0.00000
 196        6D-1       -0.00000   0.00000  -0.00000   0.00000  -0.00000
 197        6D+2       -0.00001   0.00002   0.00002   0.00031   0.00014
 198        6D-2        0.00000  -0.00001  -0.00007  -0.00063   0.00020
 199 10  H  1S          0.00006  -0.00004  -0.00016   0.00002  -0.00002
 200        2S         -0.00034   0.00047   0.00113  -0.00030  -0.00034
 201        3S         -0.00015  -0.00122   0.00364   0.00108  -0.00084
 202        4PX        -0.00006   0.00002   0.00003  -0.00003   0.00003
 203        4PY        -0.00003  -0.00003  -0.00002   0.00008   0.00009
 204        4PZ        -0.00000  -0.00000   0.00000   0.00000   0.00000
 205 11  H  1S         -0.00002  -0.00003  -0.00004  -0.00001  -0.00008
 206        2S          0.00015   0.00025   0.00004  -0.00002   0.00039
 207        3S          0.00061   0.00008  -0.00018   0.00008   0.00083
 208        4PX         0.00000   0.00002   0.00003  -0.00002  -0.00003
 209        4PY        -0.00002   0.00002   0.00000  -0.00000   0.00002
 210        4PZ        -0.00000  -0.00000   0.00000  -0.00000  -0.00000
 211 12  H  1S          0.00000  -0.00002  -0.00008   0.00001  -0.00004
 212        2S         -0.00009   0.00012   0.00043  -0.00021   0.00004
 213        3S         -0.00013   0.00015   0.00096   0.00030  -0.00018
 214        4PX        -0.00002  -0.00001  -0.00003  -0.00004   0.00002
 215        4PY        -0.00001   0.00002  -0.00002   0.00001  -0.00001
 216        4PZ         0.00000   0.00000  -0.00000  -0.00000   0.00000
 217 13  H  1S         -0.00002  -0.00000  -0.00001  -0.00002  -0.00018
 218        2S          0.00008  -0.00009  -0.00045  -0.00011   0.00121
 219        3S         -0.00023  -0.00019  -0.00089  -0.00000   0.00234
 220        4PX         0.00001  -0.00001   0.00005  -0.00007   0.00000
 221        4PY        -0.00001  -0.00001  -0.00012  -0.00006   0.00002
 222        4PZ         0.00000  -0.00000   0.00000  -0.00000  -0.00000
 223 14  C  1S         -0.00002  -0.00003   0.00001  -0.00000  -0.00000
 224        2S          0.00009   0.00012  -0.00003   0.00002   0.00001
 225        2PX        -0.00028   0.00034  -0.00007   0.00001  -0.00002
 226        2PY         0.00026   0.00007  -0.00027  -0.00004  -0.00005
 227        2PZ         0.00000  -0.00000  -0.00000   0.00000  -0.00000
 228        3S          0.00016   0.00026   0.00002  -0.00027  -0.00009
 229        3PX         0.00060  -0.00070   0.00003  -0.00008   0.00010
 230        3PY        -0.00053  -0.00019   0.00048   0.00014   0.00021
 231        3PZ        -0.00000   0.00000   0.00000   0.00000  -0.00000
 232        4S          0.00171   0.00280   0.00311   0.00312  -0.00061
 233        4PX        -0.00950   0.00913  -0.00282  -0.00290   0.00197
 234        4PY         0.00415  -0.00206  -0.00165  -0.00053  -0.00149
 235        4PZ         0.00000  -0.00000   0.00000   0.00000  -0.00000
 236        5S         -0.00746  -0.00497  -0.00284   0.00093  -0.00307
 237        5PX         0.00214  -0.00021   0.00074   0.00135   0.00009
 238        5PY         0.00143   0.00156   0.00003  -0.00143   0.00109
 239        5PZ        -0.00000   0.00000  -0.00000   0.00000  -0.00000
 240        6D 0        0.00018   0.00026  -0.00011  -0.00012  -0.00002
 241        6D+1        0.00000   0.00000  -0.00000  -0.00000  -0.00000
 242        6D-1       -0.00000  -0.00000   0.00000   0.00000  -0.00000
 243        6D+2       -0.00003  -0.00085   0.00037   0.00014   0.00002
 244        6D-2        0.00085   0.00010  -0.00024  -0.00004  -0.00008
 245 15  O  1S          0.54899   0.05054   0.00000   0.00000   0.00000
 246        2S          0.46772   0.04311   0.00002   0.00000   0.00001
 247        2PX         0.00081   0.00014   0.00002   0.00000   0.00002
 248        2PY        -0.00076  -0.00008  -0.00005  -0.00004   0.00000
 249        2PZ        -0.00000  -0.00000  -0.00000   0.00000  -0.00000
 250        3S          0.01402   0.00086  -0.00003   0.00002  -0.00012
 251        3PX         0.00038  -0.00021  -0.00011  -0.00003  -0.00008
 252        3PY        -0.00045   0.00003   0.00025   0.00016   0.00002
 253        3PZ        -0.00000   0.00000   0.00000  -0.00000   0.00000
 254        4S         -0.01304   0.00205  -0.00129  -0.00109   0.00087
 255        4PX        -0.00121   0.00029  -0.00021  -0.00022   0.00036
 256        4PY         0.00197  -0.00117   0.00046   0.00007  -0.00019
 257        4PZ         0.00000  -0.00000   0.00000   0.00000  -0.00000
 258        5S          0.00541   0.00471   0.00098  -0.00005   0.00117
 259        5PX        -0.00153  -0.00037   0.00089   0.00025   0.00028
 260        5PY        -0.00116  -0.00126   0.00002   0.00039  -0.00019
 261        5PZ        -0.00000  -0.00000  -0.00000  -0.00000  -0.00000
 262        6D 0       -0.00014   0.00000   0.00001  -0.00000   0.00000
 263        6D+1       -0.00000   0.00000  -0.00000   0.00000   0.00000
 264        6D-1        0.00000   0.00000  -0.00000  -0.00000  -0.00000
 265        6D+2        0.00006  -0.00022   0.00007   0.00002  -0.00001
 266        6D-2       -0.00021  -0.00001   0.00010   0.00003   0.00001
 267 16  O  1S         -0.05054   0.54899   0.00000   0.00000   0.00000
 268        2S         -0.04301   0.46772   0.00003   0.00002   0.00000
 269        2PX         0.00006  -0.00112  -0.00005  -0.00002  -0.00001
 270        2PY         0.00004  -0.00006   0.00001  -0.00001  -0.00002
 271        2PZ        -0.00000   0.00000   0.00000   0.00000   0.00000
 272        3S         -0.00171   0.01401  -0.00015  -0.00013   0.00001
 273        3PX         0.00028  -0.00064   0.00025   0.00011   0.00003
 274        3PY        -0.00009  -0.00011  -0.00002   0.00001   0.00006
 275        3PZ        -0.00000   0.00000  -0.00000  -0.00000  -0.00000
 276        4S          0.00419  -0.01292   0.00031   0.00064  -0.00066
 277        4PX        -0.00114   0.00248  -0.00004  -0.00027   0.00016
 278        4PY        -0.00080   0.00057   0.00050   0.00014   0.00004
 279        4PZ         0.00000  -0.00000   0.00000   0.00000  -0.00000
 280        5S          0.00425   0.00455   0.00010   0.00236  -0.00166
 281        5PX        -0.00157  -0.00029  -0.00004  -0.00080   0.00049
 282        5PY        -0.00043  -0.00126   0.00025  -0.00050   0.00057
 283        5PZ         0.00000  -0.00000  -0.00000   0.00000  -0.00000
 284        6D 0        0.00004  -0.00013   0.00004   0.00002  -0.00002
 285        6D+1        0.00000  -0.00000   0.00000   0.00000  -0.00000
 286        6D-1       -0.00000  -0.00000   0.00000   0.00000   0.00000
 287        6D+2       -0.00008   0.00020  -0.00007  -0.00000  -0.00001
 288        6D-2        0.00021   0.00002  -0.00007  -0.00001  -0.00001
                           6         7         8         9        10
                           O         O         O         O         O
     Eigenvalues --   -10.29836 -10.21830 -10.20361 -10.18622 -10.18398
   1 1   C  1S         -0.00000  -0.00004  -0.00019   0.00197   0.24589
   2        2S         -0.00000   0.00003  -0.00009   0.00166   0.20251
   3        2PX         0.00001   0.00009  -0.00001  -0.00001   0.00049
   4        2PY        -0.00000   0.00010  -0.00004  -0.00020   0.00037
   5        2PZ         0.00000   0.00000   0.00000   0.00000   0.00000
   6        3S          0.00005  -0.00028  -0.00061   0.00014   0.00814
   7        3PX        -0.00003  -0.00098  -0.00013  -0.00010  -0.00197
   8        3PY         0.00003  -0.00062   0.00033   0.00125  -0.00139
   9        3PZ        -0.00000  -0.00000  -0.00000  -0.00000  -0.00000
  10        4S         -0.00254  -0.00503   0.00893  -0.00727   0.00275
  11        4PX        -0.00093  -0.00219   0.00448  -0.00382   0.00361
  12        4PY        -0.00188   0.00182  -0.00164   0.00135  -0.00037
  13        4PZ         0.00000  -0.00000   0.00000  -0.00000   0.00000
  14        5S          0.06598  -0.03180  -0.00401  -0.03160   0.00618
  15        5PX         0.02417  -0.00797   0.00208  -0.00488   0.00040
  16        5PY         0.03923  -0.00706   0.00449   0.00325  -0.00544
  17        5PZ        -0.00000  -0.00000   0.00000  -0.00000   0.00000
  18        6D 0        0.00002  -0.00003  -0.00009   0.00006  -0.00021
  19        6D+1        0.00000   0.00000   0.00000   0.00000   0.00000
  20        6D-1       -0.00000  -0.00000   0.00000   0.00000  -0.00000
  21        6D+2        0.00001  -0.00013   0.00015   0.00064  -0.00054
  22        6D-2        0.00001  -0.00060  -0.00003   0.00006  -0.00125
  23 2   C  1S         -0.00000  -0.00011  -0.00000   0.03235   0.01927
  24        2S          0.00000  -0.00002   0.00006   0.02682   0.01594
  25        2PX        -0.00001   0.00000   0.00014   0.00067  -0.00008
  26        2PY         0.00000   0.00003  -0.00009  -0.00039   0.00046
  27        2PZ         0.00000   0.00000   0.00000   0.00000  -0.00000
  28        3S         -0.00004  -0.00059  -0.00017   0.00063   0.00068
  29        3PX         0.00003  -0.00022  -0.00119  -0.00273   0.00025
  30        3PY        -0.00000  -0.00029   0.00053   0.00160  -0.00218
  31        3PZ        -0.00000  -0.00000  -0.00000  -0.00000   0.00000
  32        4S          0.00146   0.00648  -0.00790   0.00952  -0.00361
  33        4PX         0.00131   0.00302  -0.00330   0.00686  -0.00177
  34        4PY        -0.00092   0.00165  -0.00234   0.00285  -0.00041
  35        4PZ         0.00000   0.00000  -0.00000   0.00000  -0.00000
  36        5S         -0.01396   0.00812  -0.01482   0.02345  -0.03016
  37        5PX        -0.02089   0.00439  -0.00579   0.00341  -0.00406
  38        5PY         0.02469  -0.00248   0.00751   0.00558  -0.00261
  39        5PZ        -0.00000   0.00000  -0.00000   0.00000  -0.00000
  40        6D 0       -0.00001  -0.00008   0.00002   0.00058   0.00020
  41        6D+1        0.00000   0.00000  -0.00000  -0.00000   0.00000
  42        6D-1       -0.00000   0.00000   0.00000   0.00000   0.00000
  43        6D+2       -0.00000   0.00012  -0.00031  -0.00108   0.00114
  44        6D-2        0.00001   0.00008   0.00056   0.00127   0.00010
  45 3   C  1S         -0.00001   0.00410  -0.00019  -0.00118   0.50592
  46        2S          0.00000   0.00355  -0.00013  -0.00091   0.41633
  47        2PX         0.00001   0.00069   0.00009  -0.00001  -0.00007
  48        2PY         0.00002  -0.00033  -0.00009  -0.00003  -0.00028
  49        2PZ        -0.00000   0.00000   0.00000  -0.00000   0.00000
  50        3S          0.00005  -0.00011   0.00011  -0.00046   0.01808
  51        3PX        -0.00001  -0.00303  -0.00065   0.00007   0.00092
  52        3PY        -0.00005   0.00135   0.00071   0.00035   0.00070
  53        3PZ         0.00000  -0.00000  -0.00000   0.00000   0.00000
  54        4S         -0.00221   0.00743  -0.01015   0.00456  -0.02033
  55        4PX        -0.00479   0.00239   0.00059  -0.00062  -0.00139
  56        4PY        -0.00058  -0.00553   0.00703  -0.00305   0.00887
  57        4PZ        -0.00000   0.00000  -0.00000   0.00000  -0.00000
  58        5S          0.00760   0.02039   0.00946   0.03801   0.00981
  59        5PX         0.07160  -0.01374   0.00703   0.00231  -0.00035
  60        5PY         0.01690  -0.00711   0.00171  -0.00663  -0.00084
  61        5PZ         0.00000  -0.00000   0.00000   0.00000  -0.00000
  62        6D 0        0.00009   0.00058   0.00000  -0.00001  -0.00134
  63        6D+1       -0.00000  -0.00000  -0.00000  -0.00000   0.00000
  64        6D-1       -0.00000   0.00000   0.00000  -0.00000  -0.00000
  65        6D+2       -0.00006  -0.00087  -0.00021  -0.00005  -0.00059
  66        6D-2        0.00001   0.00168   0.00036  -0.00007  -0.00060
  67 4   C  1S         -0.00002   0.56278  -0.00966   0.00013  -0.00377
  68        2S         -0.00000   0.46308  -0.00780   0.00016  -0.00296
  69        2PX         0.00002   0.00070   0.00006  -0.00002  -0.00065
  70        2PY         0.00007   0.00035  -0.00079  -0.00009   0.00037
  71        2PZ        -0.00000  -0.00000   0.00000   0.00000  -0.00000
  72        3S         -0.00005   0.01990  -0.00043   0.00004  -0.00013
  73        3PX        -0.00018  -0.00092  -0.00036   0.00011   0.00255
  74        3PY        -0.00040  -0.00084   0.00300   0.00065  -0.00149
  75        3PZ         0.00000  -0.00000  -0.00000  -0.00000   0.00000
  76        4S         -0.00251  -0.02014   0.00560  -0.00912   0.00215
  77        4PX        -0.00321   0.00823  -0.01037   0.00052  -0.01167
  78        4PY         0.00734   0.00245  -0.00626   0.00297  -0.00200
  79        4PZ        -0.00000   0.00000  -0.00000   0.00000  -0.00000
  80        5S          0.05934  -0.04929   0.04001  -0.04422   0.01402
  81        5PX         0.03290  -0.01327   0.00349   0.00986  -0.01297
  82        5PY        -0.09278   0.01379  -0.02461   0.00240  -0.01990
  83        5PZ         0.00000  -0.00000   0.00000   0.00000   0.00000
  84        6D 0        0.00001  -0.00167   0.00069   0.00011   0.00070
  85        6D+1       -0.00000   0.00000   0.00000   0.00000  -0.00000
  86        6D-1       -0.00000  -0.00000   0.00000   0.00000   0.00000
  87        6D+2        0.00003   0.00046   0.00159   0.00043  -0.00101
  88        6D-2       -0.00009  -0.00093   0.00019  -0.00003   0.00104
  89 5   C  1S         -0.00001   0.00955   0.56270  -0.00822   0.00019
  90        2S          0.00001   0.00801   0.46309  -0.00661   0.00021
  91        2PX         0.00001  -0.00001   0.00040  -0.00065  -0.00006
  92        2PY         0.00003   0.00074  -0.00025  -0.00048   0.00007
  93        2PZ         0.00000  -0.00000   0.00000  -0.00000  -0.00000
  94        3S         -0.00027   0.00014   0.01963  -0.00056  -0.00016
  95        3PX        -0.00005  -0.00010  -0.00096   0.00242   0.00046
  96        3PY        -0.00016  -0.00283   0.00105   0.00191  -0.00061
  97        3PZ        -0.00000   0.00000  -0.00000   0.00000   0.00000
  98        4S          0.00626   0.00354  -0.02039   0.01038  -0.00425
  99        4PX        -0.00005  -0.00665   0.01101  -0.01128   0.00207
 100        4PY         0.00547   0.00368  -0.00439   0.00115  -0.00053
 101        4PZ         0.00000  -0.00000   0.00000  -0.00000   0.00000
 102        5S         -0.15862   0.03684  -0.03418   0.04079  -0.06539
 103        5PX        -0.00354   0.00505  -0.00826  -0.01365   0.01620
 104        5PY        -0.05132   0.01658  -0.03074  -0.00171  -0.00210
 105        5PZ         0.00000  -0.00000   0.00000  -0.00000   0.00000
 106        6D 0       -0.00005   0.00057  -0.00165   0.00070   0.00003
 107        6D+1       -0.00000   0.00000   0.00000  -0.00000   0.00000
 108        6D-1        0.00000   0.00000  -0.00000  -0.00000   0.00000
 109        6D+2       -0.00002   0.00157   0.00006  -0.00070   0.00042
 110        6D-2        0.00003   0.00022   0.00086  -0.00124   0.00008
 111 6   C  1S          0.00000   0.00001   0.00813   0.56189  -0.00093
 112        2S         -0.00000   0.00005   0.00687   0.46233  -0.00069
 113        2PX         0.00001   0.00010   0.00066   0.00015  -0.00008
 114        2PY         0.00001   0.00010   0.00040  -0.00001   0.00005
 115        2PZ         0.00000   0.00000   0.00000   0.00000  -0.00000
 116        3S          0.00009  -0.00008  -0.00019   0.02002  -0.00044
 117        3PX        -0.00010  -0.00066  -0.00287  -0.00028   0.00051
 118        3PY        -0.00005  -0.00077  -0.00160   0.00017  -0.00053
 119        3PZ        -0.00000  -0.00000  -0.00000  -0.00000   0.00000
 120        4S         -0.00067  -0.00625   0.01062  -0.02352   0.00347
 121        4PX         0.00207   0.00139   0.00076  -0.00005   0.00008
 122        4PY        -0.00175  -0.00422   0.00746  -0.01195   0.00136
 123        4PZ         0.00000   0.00000  -0.00000   0.00000  -0.00000
 124        5S          0.04374  -0.00278  -0.00892  -0.03278   0.04730
 125        5PX        -0.02703   0.00562  -0.01752  -0.00410   0.00149
 126        5PY         0.00673  -0.00224   0.00189  -0.00450   0.00776
 127        5PZ        -0.00000   0.00000  -0.00000  -0.00000   0.00000
 128        6D 0        0.00001   0.00000   0.00053  -0.00180   0.00001
 129        6D+1       -0.00000   0.00000  -0.00000   0.00000  -0.00000
 130        6D-1       -0.00000  -0.00000  -0.00000  -0.00000   0.00000
 131        6D+2       -0.00001  -0.00013  -0.00046  -0.00030  -0.00021
 132        6D-2       -0.00005  -0.00045  -0.00179  -0.00014   0.00026
 133 7   N  1S         -0.00002  -0.00005   0.00000   0.00000   0.00000
 134        2S         -0.00006  -0.00006   0.00004   0.00003   0.00005
 135        2PX         0.00005  -0.00036  -0.00008  -0.00005  -0.00007
 136        2PY         0.00008  -0.00019   0.00006  -0.00003   0.00003
 137        2PZ         0.00000  -0.00000   0.00000   0.00000  -0.00000
 138        3S          0.00030   0.00096  -0.00035  -0.00025  -0.00048
 139        3PX        -0.00001   0.00070   0.00046   0.00027   0.00031
 140        3PY         0.00033   0.00044  -0.00013   0.00020  -0.00006
 141        3PZ        -0.00000   0.00000  -0.00000  -0.00000   0.00000
 142        4S          0.00182  -0.00578   0.00267   0.00077   0.00503
 143        4PX        -0.00009   0.00320  -0.00315  -0.00148  -0.00250
 144        4PY        -0.00183   0.00159   0.00056  -0.00206  -0.00070
 145        4PZ         0.00000  -0.00000   0.00000   0.00000   0.00000
 146        5S          0.01540   0.00856   0.02204   0.00564  -0.00022
 147        5PX         0.00839  -0.01358  -0.00111  -0.00238  -0.01034
 148        5PY         0.00811  -0.00511  -0.01237  -0.00466   0.00513
 149        5PZ        -0.00000   0.00000  -0.00000  -0.00000   0.00000
 150        6D 0        0.00012   0.00059   0.00001  -0.00001  -0.00003
 151        6D+1        0.00000   0.00000   0.00000   0.00000  -0.00000
 152        6D-1       -0.00000  -0.00000  -0.00000   0.00000  -0.00000
 153        6D+2        0.00015  -0.00052  -0.00021  -0.00005  -0.00016
 154        6D-2       -0.00010  -0.00062   0.00005  -0.00002   0.00008
 155 8   N  1S          0.00000   0.00000  -0.00000   0.00000   0.00000
 156        2S          0.00001   0.00002   0.00001   0.00002   0.00002
 157        2PX         0.00001   0.00008   0.00008  -0.00003  -0.00002
 158        2PY         0.00004  -0.00002   0.00003   0.00000   0.00001
 159        2PZ        -0.00000   0.00000   0.00000   0.00000  -0.00000
 160        3S         -0.00009  -0.00021  -0.00020  -0.00012  -0.00015
 161        3PX        -0.00003  -0.00023  -0.00027   0.00015   0.00009
 162        3PY        -0.00020   0.00012  -0.00016  -0.00001  -0.00005
 163        3PZ         0.00000  -0.00000  -0.00000  -0.00000   0.00000
 164        4S         -0.00065   0.00134   0.00203  -0.00063  -0.00004
 165        4PX         0.00056  -0.00051  -0.00060   0.00010  -0.00006
 166        4PY         0.00013  -0.00081   0.00105   0.00022   0.00059
 167        4PZ        -0.00000   0.00000   0.00000  -0.00000  -0.00000
 168        5S         -0.00636   0.00507  -0.03356  -0.00709   0.01484
 169        5PX         0.00067   0.00078   0.00823   0.00184  -0.00208
 170        5PY        -0.01022   0.00293  -0.00030   0.00104   0.00366
 171        5PZ         0.00000  -0.00000   0.00000  -0.00000  -0.00000
 172        6D 0        0.00000  -0.00007  -0.00008   0.00000  -0.00001
 173        6D+1        0.00000  -0.00000  -0.00000   0.00000   0.00000
 174        6D-1       -0.00000   0.00000   0.00000  -0.00000  -0.00000
 175        6D+2       -0.00001   0.00021   0.00015   0.00000   0.00002
 176        6D-2       -0.00002  -0.00004   0.00006  -0.00002   0.00001
 177 9   N  1S          0.00000   0.00000  -0.00005   0.00000   0.00000
 178        2S          0.00001   0.00005  -0.00008   0.00004   0.00003
 179        2PX         0.00000  -0.00007  -0.00038  -0.00006  -0.00004
 180        2PY         0.00000  -0.00005   0.00019  -0.00002  -0.00000
 181        2PZ        -0.00000  -0.00000  -0.00000  -0.00000   0.00000
 182        3S         -0.00010  -0.00041   0.00121  -0.00032  -0.00024
 183        3PX         0.00001   0.00042   0.00078   0.00029   0.00021
 184        3PY         0.00001   0.00008  -0.00051   0.00006  -0.00002
 185        3PZ         0.00000   0.00000   0.00000   0.00000  -0.00000
 186        4S          0.00064   0.00199  -0.00741   0.00401   0.00034
 187        4PX        -0.00008  -0.00171   0.00284  -0.00129  -0.00002
 188        4PY        -0.00003  -0.00071  -0.00082   0.00074   0.00045
 189        4PZ         0.00000  -0.00000   0.00000  -0.00000  -0.00000
 190        5S         -0.00250  -0.00057   0.01870   0.00752  -0.00010
 191        5PX        -0.00562  -0.00002  -0.00001   0.00093  -0.00085
 192        5PY         0.00007  -0.00129   0.00656   0.00102  -0.00010
 193        5PZ        -0.00000  -0.00000  -0.00000   0.00000   0.00000
 194        6D 0       -0.00000   0.00002   0.00062   0.00001  -0.00000
 195        6D+1        0.00000  -0.00000  -0.00000  -0.00000   0.00000
 196        6D-1        0.00000  -0.00000   0.00000   0.00000   0.00000
 197        6D+2        0.00001  -0.00020  -0.00052  -0.00016  -0.00010
 198        6D-2        0.00002   0.00004   0.00052  -0.00001   0.00003
 199 10  H  1S         -0.00001  -0.00024   0.00002  -0.00007   0.00023
 200        2S          0.00041   0.00011  -0.00131   0.00023  -0.00511
 201        3S         -0.00113   0.00204  -0.00169   0.00072   0.00097
 202        4PX         0.00005  -0.00021  -0.00007   0.00003  -0.00008
 203        4PY         0.00000   0.00037   0.00022   0.00008   0.00236
 204        4PZ         0.00000  -0.00000  -0.00000   0.00000  -0.00000
 205 11  H  1S         -0.00001  -0.00008  -0.00010  -0.00003  -0.00003
 206        2S          0.00018  -0.00059   0.00030  -0.00081  -0.00182
 207        3S          0.00013  -0.00005   0.00150  -0.00030   0.00280
 208        4PX         0.00003  -0.00019  -0.00008  -0.00018  -0.00122
 209        4PY         0.00003   0.00005   0.00004   0.00010   0.00047
 210        4PZ         0.00000  -0.00000  -0.00000  -0.00000  -0.00000
 211 12  H  1S          0.00000  -0.00009  -0.00006  -0.00021  -0.00009
 212        2S          0.00000   0.00017  -0.00067   0.00024  -0.00084
 213        3S          0.00018   0.00114  -0.00046   0.00254   0.00065
 214        4PX        -0.00003  -0.00008  -0.00018  -0.00044  -0.00029
 215        4PY         0.00003  -0.00006  -0.00008  -0.00015  -0.00024
 216        4PZ        -0.00000  -0.00000  -0.00000  -0.00000  -0.00000
 217 13  H  1S          0.00002  -0.00001  -0.00023   0.00040  -0.00006
 218        2S         -0.00036  -0.00096   0.00021  -0.00565  -0.00023
 219        3S         -0.00114  -0.00071   0.00264   0.00029   0.00034
 220        4PX        -0.00004  -0.00006  -0.00013   0.00019   0.00003
 221        4PY        -0.00004  -0.00021  -0.00042  -0.00240  -0.00017
 222        4PZ         0.00000  -0.00000   0.00000   0.00000   0.00000
 223 14  C  1S          0.56309   0.00002   0.00001  -0.00000   0.00000
 224        2S          0.46329   0.00003   0.00003  -0.00001   0.00002
 225        2PX        -0.00025  -0.00002  -0.00004   0.00000  -0.00003
 226        2PY        -0.00073  -0.00004  -0.00004   0.00002  -0.00001
 227        2PZ        -0.00000   0.00000  -0.00000  -0.00000   0.00000
 228        3S          0.01860  -0.00017  -0.00022   0.00002  -0.00004
 229        3PX         0.00051   0.00009   0.00019  -0.00004   0.00011
 230        3PY         0.00173   0.00021   0.00019  -0.00017   0.00002
 231        3PZ         0.00000  -0.00000   0.00000   0.00000  -0.00000
 232        4S         -0.01448  -0.00036  -0.00023   0.00154   0.00025
 233        4PX         0.00259  -0.00206  -0.00048   0.00068   0.00066
 234        4PY         0.00038   0.00099  -0.00135  -0.00114  -0.00010
 235        4PZ        -0.00000   0.00000  -0.00000  -0.00000   0.00000
 236        5S         -0.00960   0.01165   0.00764   0.00305   0.01157
 237        5PX         0.00272  -0.00236  -0.00193  -0.00070  -0.00279
 238        5PY         0.00270  -0.00290  -0.00178  -0.00109  -0.00256
 239        5PZ        -0.00000   0.00000   0.00000  -0.00000   0.00000
 240        6D 0       -0.00153  -0.00002  -0.00004  -0.00003   0.00001
 241        6D+1       -0.00000  -0.00000  -0.00000  -0.00000  -0.00000
 242        6D-1        0.00000   0.00000   0.00000  -0.00000  -0.00000
 243        6D+2        0.00152   0.00005  -0.00002  -0.00004   0.00003
 244        6D-2       -0.00119  -0.00004  -0.00008   0.00002  -0.00004
 245 15  O  1S         -0.00007   0.00000   0.00000   0.00000   0.00000
 246        2S         -0.00003   0.00001   0.00000   0.00001   0.00001
 247        2PX         0.00033  -0.00001   0.00001  -0.00000  -0.00002
 248        2PY        -0.00038  -0.00001  -0.00001  -0.00000  -0.00001
 249        2PZ        -0.00000  -0.00000  -0.00000  -0.00000  -0.00000
 250        3S          0.00029  -0.00003  -0.00002  -0.00008  -0.00012
 251        3PX        -0.00102   0.00002  -0.00006   0.00000   0.00005
 252        3PY         0.00120   0.00005   0.00004   0.00001   0.00004
 253        3PZ         0.00000   0.00000   0.00000   0.00000   0.00000
 254        4S         -0.00308  -0.00039  -0.00008   0.00042   0.00059
 255        4PX        -0.00112  -0.00012   0.00025   0.00010   0.00009
 256        4PY         0.00088   0.00030  -0.00000  -0.00011  -0.00008
 257        4PZ         0.00000  -0.00000  -0.00000  -0.00000  -0.00000
 258        5S          0.00977  -0.00441   0.00318   0.00083  -0.00302
 259        5PX         0.00304  -0.00078  -0.00001   0.00030  -0.00037
 260        5PY        -0.00377   0.00129  -0.00140  -0.00026   0.00097
 261        5PZ        -0.00000   0.00000  -0.00000  -0.00000   0.00000
 262        6D 0        0.00054   0.00001  -0.00001  -0.00001   0.00000
 263        6D+1        0.00000   0.00000   0.00000  -0.00000  -0.00000
 264        6D-1       -0.00000  -0.00000   0.00000   0.00000   0.00000
 265        6D+2        0.00009   0.00001  -0.00000  -0.00000  -0.00001
 266        6D-2        0.00087  -0.00000   0.00001  -0.00000  -0.00002
 267 16  O  1S         -0.00007   0.00000   0.00000   0.00000   0.00000
 268        2S         -0.00004   0.00001   0.00001   0.00000   0.00001
 269        2PX        -0.00050  -0.00002  -0.00001   0.00000  -0.00001
 270        2PY        -0.00005  -0.00002  -0.00001  -0.00001  -0.00001
 271        2PZ         0.00000   0.00000   0.00000  -0.00000  -0.00000
 272        3S          0.00029  -0.00007  -0.00010  -0.00000  -0.00004
 273        3PX         0.00156   0.00008   0.00006  -0.00000   0.00004
 274        3PY         0.00016   0.00006   0.00005   0.00004   0.00006
 275        3PZ        -0.00000  -0.00000  -0.00000   0.00000   0.00000
 276        4S         -0.00384   0.00056   0.00027  -0.00032  -0.00013
 277        4PX         0.00187  -0.00041  -0.00019   0.00011  -0.00002
 278        4PY         0.00042  -0.00027  -0.00005  -0.00002  -0.00020
 279        4PZ        -0.00000   0.00000   0.00000  -0.00000  -0.00000
 280        5S          0.00097   0.00511   0.00148  -0.00037  -0.00002
 281        5PX        -0.00107  -0.00181  -0.00063   0.00011   0.00011
 282        5PY        -0.00142  -0.00073   0.00020   0.00028   0.00020
 283        5PZ         0.00000   0.00000   0.00000  -0.00000   0.00000
 284        6D 0        0.00053   0.00001  -0.00001  -0.00001  -0.00001
 285        6D+1        0.00000   0.00000   0.00000  -0.00000   0.00000
 286        6D-1        0.00000  -0.00000   0.00000   0.00000   0.00000
 287        6D+2       -0.00084  -0.00000  -0.00001   0.00000  -0.00001
 288        6D-2       -0.00025   0.00000  -0.00001  -0.00001   0.00000
                          11        12        13        14        15
                           O         O         O         O         O
     Eigenvalues --   -10.18324 -10.18104  -1.10134  -1.04950  -0.96978
   1 1   C  1S          0.50310  -0.05735  -0.00107   0.00044   0.00085
   2        2S          0.41390  -0.04706  -0.00166   0.00066   0.00131
   3        2PX        -0.00037  -0.00001   0.00100  -0.00049  -0.00071
   4        2PY        -0.00032  -0.00072  -0.00006   0.00014  -0.00009
   5        2PZ         0.00000   0.00000   0.00000  -0.00000  -0.00000
   6        3S          0.01780  -0.00227   0.00495  -0.00160  -0.00352
   7        3PX         0.00148   0.00016   0.00208  -0.00003  -0.00096
   8        3PY         0.00155   0.00260  -0.00042   0.00054  -0.00020
   9        3PZ         0.00000  -0.00000   0.00000   0.00000  -0.00000
  10        4S         -0.02150   0.01357   0.01073   0.00672   0.00333
  11        4PX        -0.01060   0.00801  -0.00364   0.00222   0.00365
  12        4PY         0.00396  -0.00455   0.00298   0.00254   0.00125
  13        4PZ        -0.00000   0.00000  -0.00000  -0.00000   0.00000
  14        5S         -0.00290  -0.00379   0.00749   0.20700  -0.03535
[...]
   || (z)    -0.755173D+01     -0.652411D-01     -0.242136D-01
   _|_(z)    -0.251724D+01     -0.217470D-01     -0.807120D-02
   x          0.365315D+02      0.315604D+00      0.117133D+00
   y         -0.236983D+03     -0.204735D+01     -0.759852D+00
   z         -0.377587D+02     -0.326205D+00     -0.121068D+00
   ||         0.485473D+02      0.419411D+00      0.155660D+00
   xxx        0.812644D+01      0.702061D-01      0.260563D-01
   xxy       -0.172866D+02     -0.149343D+00     -0.554272D-01
   yxy       -0.634644D-01     -0.548283D-03     -0.203490D-03
   yyy       -0.350265D+02     -0.302602D+00     -0.112308D+00
   xxz        0.141640D+03      0.122366D+01      0.454149D+00
   yxz        0.507431D+02      0.438380D+00      0.162701D+00
   yyz       -0.179748D+03     -0.155288D+01     -0.576338D+00
   zxz        0.411419D+01      0.355434D-01      0.131916D-01
   zyz       -0.266811D+02     -0.230504D+00     -0.855493D-01
   zzz        0.255219D+02      0.220489D+00      0.818325D-01

 ----------------------------------------------------------------------
 Unable to Open any file for archive entry.
 1\1\GINC-NODE1689\Freq\RB3LYP\6-311+G(d,p)\C7H4N3O2(1-)\SVICCHI\05-Jun
 -2023\0\\#p freq=raman scale=0.967 pop=(nbo,full,hirshfeld) guess=read
  geom=allcheck b3lyp/6-311+G(d,p) int=grid=ultrafine EmpiricalDispersi
 on=GD3BJ SCRF=(Solvent=ethanol) scf=(xqc,intrep,maxconventionalcycle=3
 50) nosymm\\bentriz-CO2_binding-site_index-6.gjf\\-1,1\C,-1.8594096576
 ,-0.9974463566,-0.0000018053\C,-1.7790731792,-2.4107594285,-0.00000084
 85\C,-0.7310008789,-0.194054713,-0.0000008455\C,0.5081540581,-0.851673
 1638,0.0000010511\C,0.5940623242,-2.256970551,0.0000015894\C,-0.557176
 8011,-3.0587878567,0.0000008274\N,1.8182050839,-0.4376161606,0.0000010
 71\N,2.6350630634,-1.5199902994,0.0000016276\N,1.9285245195,-2.6064662
 617,0.0000022721\H,-0.785959997,0.883670732,-0.0000015477\H,-2.8374422
 49,-0.5304058498,-0.0000033846\H,-2.6948807131,-2.9896006616,-0.000001
 6172\H,-0.4825726244,-4.1392702385,0.0000013151\C,2.3646081046,0.97602
 03682,0.0000003685\O,1.4653144175,1.8261257452,0.0000151621\O,3.594347
 5292,1.0516776958,-0.0000152356\\Version=ES64L-G16RevC.01\HF=-584.2007
 222\RMSD=1.305e-09\RMSF=1.054e-05\ZeroPoint=0.1032698\Thermal=0.112101
 2\ETot=-584.0886211\HTot=-584.0876769\GTot=-584.1326228\Dipole=-4.4482
 973,-2.4886332,-0.0000014\DipoleDeriv=-0.044729,-0.0229654,0.0000002,-
 0.1554979,0.2251874,-0.0000005,0.0000007,0.0000003,-0.1864293,-0.15464
 66,0.1273877,0.,0.2128702,-0.0797566,0.0000002,-0.0000003,0.,-0.210794
 1,-0.0036956,-0.190142,0.0000006,-0.0377308,0.0227885,-0.0000002,-0.00
 00003,-0.0000004,-0.160024,0.5173457,0.4037181,0.0000002,0.1892481,-0.
 1215638,0.0000008,0.,-0.0000004,0.1294852,0.0562179,0.1934521,0.,-0.04
 5218,-0.1475446,0.0000001,-0.0000007,-0.0000001,0.0603669,0.2652965,-0
 .0660691,0.0000005,0.033145,0.1046213,0.,0.0000006,0.,-0.1503969,-0.54
 34854,-0.0685563,0.0000031,-0.789343,-1.8557987,-0.0000006,0.0000027,0
 .,0.0256465,-0.8533258,-0.2742007,-0.0000011,-0.1625675,1.1239111,-0.0
 000014,0.,-0.0000005,-0.2127086,0.0960636,-0.5554312,0.0000003,0.09290
 02,-0.8643348,0.,-0.0000005,0.000001,-0.2844415,0.1399721,0.0295371,-0
 .0000003,0.059872,0.0157287,0.0000005,-0.0000003,0.0000003,0.1928646,-
 0.0974868,0.0873308,-0.0000004,0.0897021,0.0536239,0.0000002,-0.000000
 3,0.0000001,0.1740648,-0.0745945,-0.1108289,-0.0000002,-0.1072454,0.02
 85404,0.,-0.0000003,0.,0.1807145,0.0974353,0.0199502,0.,-0.0099566,-0.
 0949199,0.0000001,0.,0.0000002,0.1835331,3.3017197,0.3174763,-0.000035
 6,0.7253889,3.3705263,0.0000114,-0.0000362,0.0000087,0.4151278,-1.4152
 986,0.4910746,0.0000144,0.2989505,-1.7434014,-0.0000112,0.0000133,-0.0
 000115,-0.5831024,-2.2867884,-0.3817333,0.0000185,-0.3945176,-1.037607
 9,0.0000006,0.0000218,0.0000024,-0.5739064\Polar=205.7708814,10.349570
 8,174.0446473,-0.000165,0.0000463,80.8586283\PolarDeriv=-7.3090635,-2.
 5576919,-11.7568968,0.0000104,0.0000019,-4.9435245,6.3925913,-3.015353
 7,-20.435071,-0.0000035,0.0000113,1.0654325,0.0000298,-0.0000134,0.000
 0065,-8.3813378,1.1630175,0.0000057,-4.2812226,-2.2788638,-14.5439209,
 0.0000095,0.0000084,-4.8655321,-11.617724,0.6559439,20.0480508,-0.0000
 082,-0.0000143,-1.5863011,0.0000083,0.0000004,-0.00005,-8.1031103,-2.8
 225337,-0.0000365,16.1275292,6.6296224,13.5282287,0.0000102,-0.0000101
 ,1.5527126,2.4983987,-0.6876986,6.5598604,0.0000007,0.000002,4.8118721
 ,-0.0000425,-0.0000014,-0.0000172,-0.4165216,7.2175835,-0.0000725,-2.6
 586106,-4.5101882,-8.0132882,0.0000011,-0.0000026,2.6365102,39.1378992
 ,2.6835936,-1.0883553,0.0000357,0.0000022,0.8325155,0.0000479,0.000031
 ,0.0000971,0.7973401,2.384593,0.0000524,17.7713999,-0.4317853,-6.07390
 06,0.0000045,0.0000094,1.4535194,-39.8565926,-2.8768505,-3.1845943,-0.
 0000288,-0.0000055,-0.5672827,-0.0000431,-0.000024,-0.0000404,1.329906
 3,-2.8919912,0.0000019,6.306687,1.4605165,14.4973895,0.0000097,0.00000
 39,2.5444097,-1.5942334,-1.3400096,-4.7156338,0.0000036,0.0000001,-4.4
 100095,0.0000348,0.0000123,0.0000383,0.0566064,-7.7154742,0.000033,-13
 .6482217,4.3805337,5.524545,-0.000028,-0.0000079,0.1290022,9.2882628,1
 0.7143861,14.0004539,-0.0000042,0.0000288,-0.0955507,0.0000344,0.00000
 17,-0.0000505,2.6869339,2.6900125,-0.000024,40.2848909,1.883932,10.146
 1908,0.000033,-0.0000004,0.8346919,8.103077,0.2120731,-3.5398819,0.000
 0016,-0.0000089,0.5077138,0.0000368,-0.0000039,0.0000232,4.8957983,-0.
 1844566,0.0000677,-29.0916666,-7.7826449,2.7987922,-0.0000054,-0.00000
 49,1.4211863,-16.1070585,4.6881146,-11.3963066,-0.0000065,0.0000053,-1
 .955464,-0.0000116,0.000003,0.0000073,3.0120618,-4.3526186,-0.0000215,
 0.3400639,2.7519333,-1.200295,0.0000013,0.0000046,-0.0903489,2.6768513
 ,-1.6442628,14.7097116,0.000005,-0.0000145,1.0667723,0.0000053,0.00000
 65,0.000002,0.0462833,-0.7000535,-0.0000053,-16.1916312,4.9502067,-2.8
 763472,-0.0000216,0.0000069,-0.6216333,5.7499892,-4.0478137,2.170522,0
 .0000087,-0.000005,0.3290468,-0.0000251,0.0000088,-0.0000027,0.7003938
 ,0.3214764,0.0000005,-13.7178014,-6.2252077,-4.2296302,-0.0000114,-0.0
 000047,-0.5772354,-6.2537971,-5.2617471,-4.3664818,-0.0000026,-0.00000
 32,-0.3902363,-0.0000167,-0.0000031,0.0000014,0.7973159,-0.043022,0.00
 00016,0.311297,-1.9839628,1.0970375,0.0000012,-0.0000028,0.0587217,-1.
 3919643,-0.8377178,-18.3702646,0.0000006,0.0000094,-0.9368768,0.000001
 2,-0.0000056,0.0000058,0.0609167,0.3266779,0.,-7.8636442,-6.5780746,4.
 1755203,0.0000651,0.0000486,0.7878377,-2.5966349,-3.9539969,-9.2289797
 ,0.000077,-0.0000549,0.5388218,0.0001087,0.0001003,-0.0000974,-0.81947
 67,-1.6211693,0.0000102,-8.6068929,1.3984877,-11.0879482,0.0000531,-0.
 0000341,-2.7213362,3.7270387,-0.9037702,15.8000728,-0.0000379,0.000101
 6,1.3661085,0.0000419,-0.0000023,0.0001744,-2.4874984,4.6412778,0.0001
 852,22.2268867,8.8931868,8.014523,-0.0001324,-0.0000163,2.4010189,1.84
 38966,5.6151097,3.0368976,-0.0000411,-0.0000544,-0.5765623,-0.0002101,
 -0.0001105,-0.000098,5.8243883,1.5866805,-0.0001986\HyperPolar=0.44291
 65,-84.583116,169.1584238,47.9922272,0.0015168,0.0007761,-0.0002699,-1
 44.986025,-40.4861484,-0.0000496\Quadrupole=-16.9177378,1.9013543,15.0
 163835,-0.6272973,0.000085,-0.0000242\PG=C01 [X(C7H4N3O2)]\NImag=0\\0.
 73249665,-0.01376143,0.63820056,0.00000077,-0.00000033,0.13507387,-0.1
 2545958,-0.02215460,-0.00000007,0.73424221,0.03889988,-0.28462831,0.00
 000019,0.02662507,0.63954444,-0.00000010,0.00000011,-0.06312642,0.0000
 0068,-0.00000025,0.13145991,-0.27639467,-0.08096316,-0.00000023,0.0334
 2811,-0.06527866,0.00000006,0.63882527,-0.13701506,-0.20727404,-0.0000
 0007,-0.02442482,-0.03331988,0.,0.00980119,0.76495352,-0.00000020,0.,-
 0.05879209,0.00000006,-0.00000006,0.00596767,0.00000061,-0.00000036,0.
 12626338,-0.06786701,-0.03283616,-0.00000008,-0.01822824,0.03591518,-0
 .00000004,-0.24489050,0.11057937,-0.00000029,0.76488344,0.00338926,0.0
 5062972,-0.00000002,0.02081643,-0.03402887,0.00000004,0.07822343,-0.17
 997910,0.00000018,-0.09802424,0.64621767,-0.00000007,-0.00000007,0.002
 36138,-0.00000003,0.00000005,-0.00283595,-0.00000027,0.00000023,-0.053
 61484,0.00000048,-0.00000032,0.14064370,-0.01403334,-0.03420165,0.,-0.
 06929082,0.02139944,-0.00000009,0.02924495,0.02877998,0.00000001,-0.12
 288866,0.01981440,-0.00000003,0.72298377,-0.01549348,-0.03791752,0.,-0
 .01529942,0.04883671,-0.00000003,0.05522842,-0.01438719,0.00000008,-0.
 00693287,-0.26782485,0.,0.11468954,0.68147906,0.,-0.00000001,-0.003225
 99,-0.00000007,0.,0.00396622,0.,0.00000003,0.00121531,-0.00000005,0.00
 000007,-0.07346813,0.00000033,-0.00000012,0.14382975,0.02127139,0.0736
 7942,-0.00000002,-0.30820827,0.06886801,-0.00000032,-0.05519300,-0.006
 21477,-0.00000007,0.03962865,-0.04850013,0.00000007,-0.22223682,-0.087
 47482,-0.00000011,0.65549797,0.03117974,-0.02288501,0.00000005,0.12448
 083,-0.17782270,0.00000019,-0.00056829,0.00060546,0.,-0.02411627,-0.02
 569061,0.,-0.11409589,-0.20636071,-0.00000005,-0.02303663,0.74853225,0
 .,0.00000010,0.00548800,-0.00000034,0.00000012,-0.05921544,-0.00000006
 ,0.,0.00058327,0.00000004,-0.00000004,0.00054726,-0.00000012,-0.000000
 02,-0.05361385,0.00000055,-0.00000029,0.12856142,0.01072997,0.01493724
 ,0.00000001,0.00022477,-0.01265615,0.,-0.04651377,-0.00827890,-0.00000
 001,-0.23483398,-0.05556831,-0.00000009,-0.00352283,-0.07450519,0.0000
 0010,-0.00661189,0.00057919,-0.00000002,0.60723087,0.00792513,0.007587
 33,0.00000002,0.00587265,-0.00757821,0.,-0.00099597,0.02097774,-0.0000
 0003,-0.03018805,-0.15173807,-0.00000004,-0.00614736,-0.04741458,0.000
 00008,-0.00610982,-0.00696043,0.,0.06763114,0.60247955,0.,0.00000002,0
 .00602291,0.,0.,-0.00148550,-0.00000004,-0.00000002,-0.00351179,0.0000
 0006,-0.00000008,-0.05452886,-0.00000002,0.,0.00410748,-0.00000001,0.,
 0.00346132,-0.00000090,0.00000003,0.09930068,-0.00850412,-0.00850400,0
 .,-0.00830323,0.00925319,-0.00000002,0.00957754,-0.00835386,0.00000001
 ,-0.09508050,0.01773233,-0.00000002,-0.11103973,-0.03372404,0.,0.00888
 693,0.01004586,0.00000001,-0.18440158,0.00753896,0.00000012,0.55975597
 ,0.00121142,-0.00972397,0.,-0.01125903,0.00506270,-0.00000001,0.000152
 32,-0.00289535,0.00000003,0.05004924,-0.00028514,0.00000004,-0.0816929
 9,-0.00989944,-0.00000002,0.01825323,0.00452251,0.,0.06855770,-0.11919
 897,0.00000013,0.10146880,0.45064870,0.,-0.00000001,0.00023034,0.,0.00
 000001,-0.00019533,0.00000001,0.,0.00654054,-0.00000009,-0.00000002,0.
 01251405,-0.00000006,0.00000003,0.02635416,0.,0.,0.00774122,0.00000001
 ,0.00000018,-0.06368744,-0.00000003,-0.00000046,0.10653641,0.00474870,
 0.01834046,0.,0.01721324,-0.02125863,0.00000003,-0.00933263,0.00463802
 ,-0.00000001,-0.01263412,0.06319529,-0.00000008,-0.20168645,0.08512051
 ,-0.00000011,-0.05546738,-0.00267105,-0.00000002,-0.00668144,-0.027008
 83,-0.00000002,-0.19257331,-0.15534317,0.00000014,0.45676348,-0.001985
 63,0.00086417,0.,-0.00195298,-0.00323150,0.,-0.00142951,-0.00544332,0.
 ,0.01940920,-0.02732212,0.00000004,0.04833428,-0.13852006,0.00000005,-
 0.02250105,0.01753498,-0.00000002,0.01343638,-0.15206784,0.00000015,-0
 .09187984,-0.27187620,0.00000016,0.02319467,0.56720948,0.,0.00000001,-
 0.00165604,0.,-0.00000001,0.00618462,-0.00000002,0.,0.00323530,0.00000
 002,0.00000006,0.01485014,-0.00000006,0.00000005,-0.06802490,-0.000000
 03,0.,-0.00629490,0.00000002,-0.00000002,0.02868677,0.00000002,0.00000
 015,-0.08697123,0.00000006,-0.00000032,0.10642371,0.00605431,-0.025445
 29,0.00000002,-0.00357145,-0.00214842,-0.00000002,-0.05620684,0.016699
 07,-0.00000003,0.00310441,0.02932546,-0.00000002,-0.00395381,0.0004096
 2,-0.00000001,-0.00111825,-0.00005010,0.,0.00164997,-0.00287828,0.,-0.
 00032038,0.00117815,0.,-0.00128067,0.00142971,0.,0.05422596,0.00258298
 ,-0.00968769,0.00000001,-0.00253780,0.00099559,0.,0.02021656,-0.348851
 09,0.00000022,-0.00023913,-0.00946104,0.,0.00157710,0.00163779,0.,0.00
 027294,0.00046359,0.,-0.00105018,0.00026631,0.,0.00032327,-0.00042988,
 0.,0.00041342,-0.00074172,0.,-0.01951776,0.36718720,0.,0.,0.00346166,0
 .,0.,0.00840897,0.,0.00000019,-0.03604562,0.,0.00000004,0.00380041,0.,
 0.,0.00578287,0.,0.,-0.00111085,0.,-0.00000002,-0.00300518,0.,0.,0.000
 23803,0.,0.,0.00000596,0.00000005,-0.00000022,0.02476648,-0.28458968,0
 .10813982,-0.00000040,0.00200359,-0.00189614,0.,-0.01878442,0.01256914
 ,-0.00000004,-0.00229374,-0.00361802,0.,0.00010785,-0.00058925,0.,0.00
 153834,-0.00014068,0.,-0.00060254,0.00099107,0.,-0.00078680,-0.0006398
 3,0.,0.00032867,0.00033162,0.,0.00111636,-0.00005578,0.,0.30128091,0.1
 0861884,-0.10989719,0.00000019,0.02905148,-0.00925248,0.00000004,-0.01
 788190,0.01083797,-0.00000003,-0.00373112,-0.00165977,0.,-0.00107044,-
 0.00075770,0.,-0.00070688,-0.00548717,0.,-0.00033967,0.00104749,0.,-0.
 00032691,-0.00014220,0.,0.00028889,0.00019497,0.,0.00063754,0.00078959
 ,0.,-0.11552589,0.11368769,-0.00000039,0.00000019,-0.03679244,-0.00000
 002,0.,0.00291188,-0.00000002,0.,0.00386761,0.,0.,0.00774398,0.,0.,-0.
 00067109,0.,0.,0.00547998,0.,0.,0.00134419,0.,0.,-0.00131046,0.,0.,-0.
 00004511,0.,0.,-0.00504712,0.00000043,-0.00000021,0.02560503,0.0051055
 3,0.00375704,0.,-0.25726590,-0.12620768,-0.00000019,0.00123397,0.00094
 390,0.,-0.00001828,0.00050856,0.,-0.00278579,0.00413429,-0.00000001,-0
 .01920891,-0.01648935,-0.00000002,0.00021645,-0.00042908,0.,-0.0010115
 8,0.00020995,0.,-0.00030983,-0.00136880,0.,0.00010806,0.00020199,0.,0.
 00069222,-0.00041936,0.,0.27198677,-0.02747399,-0.01239282,-0.00000002
 ,-0.12659583,-0.13787351,-0.00000009,0.00175789,-0.00526269,0.,0.00116
 259,-0.00048705,0.,0.00308982,-0.00104721,0.,0.01447939,0.01125826,0.0
 0000001,-0.00015880,0.00001394,0.,0.00023438,0.00013292,0.,0.00028658,
 0.00070455,0.,-0.00116802,-0.00045763,0.,0.00034258,0.00118149,0.,0.13
 488087,0.14347052,0.00000002,0.00000001,0.00231202,-0.00000020,-0.0000
 0009,-0.03556234,0.,0.,0.00531715,0.,0.,-0.00056573,-0.00000001,0.,0.0
 0801388,-0.00000003,-0.00000002,0.00330175,0.,0.,-0.00018487,0.,0.,-0.
 00135609,0.,0.,0.00145074,0.,0.,0.00022399,0.,0.,-0.00326344,0.0000002
 2,0.00000009,0.02531193,-0.00445912,0.00156185,-0.00000002,0.00361865,
 0.02832220,-0.00000001,-0.00099415,0.00002047,0.,-0.00381132,-0.001401
 43,0.,0.00730553,-0.02657475,0.00000001,-0.05979854,0.01670593,-0.0000
 0003,-0.00024563,-0.00189787,0.,0.00019926,-0.00012141,0.,0.00185898,0
 .00155729,0.,0.00017108,-0.00001179,0.,-0.00001650,0.00134742,0.,0.001
 19726,-0.00064727,0.,0.05528269,0.00241976,0.00138851,0.,-0.00163437,-
 0.00880630,0.,-0.00032994,0.00029308,0.,-0.00243296,0.00058129,0.,0.00
 344598,-0.01331794,0.00000001,0.01744016,-0.33805013,0.00000013,0.0003
 4068,-0.00112978,0.,-0.00059422,-0.00035337,0.,0.00068130,0.00127803,0
 .,0.00003640,-0.00009029,0.,-0.00012691,-0.00053566,0.,0.00009607,0.00
 080261,0.,-0.01920823,0.35754498,-0.00000002,0.,0.00837951,0.,0.000000
 04,0.00389623,0.,0.,-0.00115944,-0.00000001,0.,0.00566792,0.,-0.000000
 03,0.00359004,-0.00000002,0.00000013,-0.03528728,0.,0.,-0.00004710,0.,
 0.,-0.00004135,0.,0.,-0.00307259,0.,0.,-0.00129879,0.,0.,0.00010390,0.
 ,0.,-0.00500955,0.00000004,-0.00000015,0.02404045,-0.00074434,-0.00163
 787,0.,-0.00011583,0.00179685,0.,0.00365740,0.00127253,-0.00000002,-0.
 01223751,-0.02205388,0.00000004,-0.00905493,0.00085854,-0.00000002,0.0
 0178973,-0.00042606,0.,-0.09066563,0.01355298,0.00000004,0.02558367,-0
 .00464614,0.00000007,0.00070186,0.02095305,0.,-0.00359909,-0.00018800,
 0.,0.00040043,0.00003099,0.,0.00023973,0.00028524,0.,-0.00003927,0.000
 21923,0.,0.93765325,0.00043406,-0.00628077,-0.00000001,-0.00003963,0.0
 0294648,0.,0.00505275,0.00089600,-0.00000002,-0.03646893,0.00557481,0.
 00000004,-0.00445462,0.01102950,-0.00000003,0.00117546,0.00024698,0.,0
 .00666483,-0.03363392,0.,0.01862550,-0.05228001,-0.00000006,0.01714731
 ,0.02817192,0.,0.00411978,-0.00077776,0.00000002,0.00073854,0.00003151
 ,0.,0.00059264,0.00000860,0.,0.00079076,0.00098344,0.,-0.20774660,0.41
 864548,0.00000002,0.,0.00025864,0.,-0.00000002,-0.00044225,-0.00000004
 ,-0.00000002,-0.00016805,0.00000001,0.,-0.00658888,0.00000002,0.000000
 02,0.00215077,-0.00000001,-0.00000001,0.00078427,-0.00000012,0.0000000
 4,-0.04975485,0.00000006,0.00000012,-0.01331574,-0.00000001,-0.0000000
 5,0.00804157,0.00000006,0.,-0.00031189,0.,0.,0.00005913,0.,0.,0.000017
 58,0.,0.,0.00037967,-0.00000957,0.00000326,0.22327899,0.00092925,-0.00
 233753,-0.00000001,-0.00044950,-0.00006811,0.,-0.00446227,-0.00043944,
 0.,-0.00458526,0.00142875,0.,-0.00031714,0.00263581,-0.00000002,0.0000
 7448,-0.00039453,0.,0.00832470,0.01862646,0.00000016,0.00413342,-0.001
 37665,0.,0.00241523,0.00140846,-0.00000001,0.00205624,-0.00218106,-0.0
 0000002,-0.00006501,0.00002784,0.,0.00002182,-0.00028672,0.,0.00008597
 ,0.00001900,0.,-0.31753870,0.21188102,0.00000374,0.41116625,-0.0005476
 9,0.00106852,-0.00000001,-0.00055958,-0.00047797,0.,-0.00270230,-0.000
 88153,0.,0.01002242,0.00173343,-0.00000003,0.00276636,-0.00232436,0.,0
 .00006093,0.00038211,0.,0.03528295,-0.08768797,-0.00000065,-0.01658415
 ,0.00444220,-0.00000011,-0.00226741,-0.01358890,0.00000007,-0.00175779
 ,-0.00115068,0.,-0.00029970,-0.00001876,0.,-0.00023587,-0.00005785,0.,
 -0.00016082,-0.00028344,0.,0.21997363,-0.28740753,-0.00000364,-0.28331
 890,0.37159386,0.,-0.00000002,0.00025623,-0.00000001,0.,-0.00009058,-0
 .00000003,0.00000001,0.00058059,0.00000005,0.00000003,0.00015898,0.,-0
 .00000002,0.00049761,0.,0.,-0.00004357,0.00000034,-0.00000059,0.016840
 05,-0.00000015,-0.00000003,0.00454113,0.,-0.00000007,-0.00227209,-0.00
 000003,-0.00000002,-0.00007192,0.,0.,0.00002114,0.,0.,-0.00004260,0.,0
 .,-0.00004106,0.00000371,-0.00000351,-0.08224558,-0.00000578,0.0000049
 7,0.03136901,0.00071607,0.00142585,0.,0.00016227,-0.00156603,0.,-0.003
 19499,-0.00057682,0.,0.01175261,-0.00526791,0.00000005,0.00116820,-0.0
 0248293,-0.00000001,-0.00084442,-0.00100270,0.,-0.05429742,-0.04648312
 ,0.00000061,-0.00611557,0.01399842,-0.00000005,-0.00406433,-0.00893684
 ,-0.00000001,0.00156408,0.00019325,0.,-0.00032968,-0.00000082,0.,-0.00
 020154,-0.00018871,0.,-0.00035488,-0.00037196,0.,-0.53603077,-0.018512
 87,0.00000587,-0.10178948,0.04032793,0.00000190,0.69185986,-0.00038378
 ,0.00094853,0.,-0.00038840,-0.00036618,0.,-0.00028284,-0.00026958,0.,0
 .00783174,-0.00626030,0.00000006,-0.00223393,-0.00321150,-0.00000002,0
 .00031456,-0.00028939,0.,-0.05487292,-0.02496262,0.00000045,-0.0052552
 7,0.00227549,0.00000028,-0.00475735,-0.00316646,0.,-0.00087007,0.00030
 771,0.,-0.00022058,-0.00001978,0.,-0.00017516,0.00000588,0.,-0.0002823
 7,-0.00030503,0.,-0.02224449,-0.08815474,0.00000031,0.05437559,0.01465
 887,-0.00000076,0.02944527,0.10880911,0.,0.,-0.00025156,0.,0.00000001,
 0.00015831,0.00000004,0.,-0.00027899,-0.00000010,0.00000009,0.00331455
 ,0.00000003,0.00000001,-0.00050412,0.,0.00000001,-0.00038259,0.0000006
 5,0.00000035,0.01644221,0.,0.00000004,0.00218177,0.00000004,0.00000007
 ,-0.00054197,-0.00000003,0.,0.00020301,0.,0.,-0.00000717,0.,0.,0.00003
 559,0.,0.,-0.00010056,0.00000574,0.00000030,-0.08214337,0.00000194,-0.
 00000059,0.03054267,-0.00000833,-0.00000030,0.03133221\\-0.00000020,0.
 00000655,0.,-0.00000619,0.00000572,0.,0.00000093,-0.00000014,0.,-0.000
 00292,-0.00000446,0.,-0.00000840,-0.00000562,0.,-0.00001145,0.00000116
 ,0.,-0.00000079,-0.00002699,0.,-0.00000506,-0.00001122,0.,-0.00000874,
 -0.00001081,0.,-0.00000334,-0.00000298,0.,0.00000124,0.00000325,0.,-0.
 00000425,0.00000475,0.,-0.00001204,-0.00000298,0.,0.00004002,0.0000305
 9,0.00000005,0.00002822,0.00001613,0.,-0.00000703,-0.00000296,-0.00000
 004\\\@
 The archive entry for this job was punched.


 What some people mistake for the high cost
 of living is really the cost of living high.
                              -- Doug Larson
 Job cpu time:       0 days  0 hours 58 minutes 44.8 seconds.
 Elapsed time:       0 days  0 hours 30 minutes 44.2 seconds.
 File lengths (MBytes):  RWF=    211 Int=      0 D2E=      0 Chk=     24 Scr=      1
 Normal termination of Gaussian 16 at Mon Jun  5 12:12:34 2023.
