 Entering Gaussian System, Link 0=g16
 Input=TDA-CO2_binding-site_index-10-freq.gjf
 Output=TDA-CO2_binding-site_index-10-freq.log
 Initial command:
 /software/commercial/gaussian/g16/AVX/g16/l1.exe "/scratch1/svicchi/G09-659900.pbs02/Gau-359378.inp" -scrdir="/scratch1/svicchi/G09-659900.pbs02/"
 Entering Link 1 = /software/commercial/gaussian/g16/AVX/g16/l1.exe PID=    359381.
  
 Copyright (c) 1988-2019, Gaussian, Inc.  All Rights Reserved.
  
 This is part of the Gaussian(R) 16 program.  It is based on
 the Gaussian(R) 09 system (copyright 2009, Gaussian, Inc.),
 the Gaussian(R) 03 system (copyright 2003, Gaussian, Inc.),
 the Gaussian(R) 98 system (copyright 1998, Gaussian, Inc.),
 the Gaussian(R) 94 system (copyright 1995, Gaussian, Inc.),
 the Gaussian 92(TM) system (copyright 1992, Gaussian, Inc.),
 the Gaussian 90(TM) system (copyright 1990, Gaussian, Inc.),
 the Gaussian 88(TM) system (copyright 1988, Gaussian, Inc.),
 the Gaussian 86(TM) system (copyright 1986, Carnegie Mellon
 University), and the Gaussian 82(TM) system (copyright 1983,
 Carnegie Mellon University). Gaussian is a federally registered
 trademark of Gaussian, Inc.
  
 This software contains proprietary and confidential information,
 including trade secrets, belonging to Gaussian, Inc.
  
 This software is provided under written license and may be
 used, copied, transmitted, or stored only in accord with that
 written license.
  
 The following legend is applicable only to US Government
 contracts under FAR:
  
                    RESTRICTED RIGHTS LEGEND
  
 Use, reproduction and disclosure by the US Government is
 subject to restrictions as set forth in subparagraphs (a)
 and (c) of the Commercial Computer Software - Restricted
 Rights clause in FAR 52.227-19.
  
 Gaussian, Inc.
 340 Quinnipiac St., Bldg. 40, Wallingford CT 06492
  
  
 ---------------------------------------------------------------
 Warning -- This program may not be used in any manner that
 competes with the business of Gaussian, Inc. or will provide
 assistance to any competitor of Gaussian, Inc.  The licensee
 of this program is prohibited from giving any competitor of
 Gaussian, Inc. access to this program.  By using this program,
 the user acknowledges that Gaussian, Inc. is engaged in the
 business of creating and licensing software in the field of
 computational chemistry and represents and warrants to the
 licensee that it is not a competitor of Gaussian, Inc. and that
 it will not use this program in any manner prohibited above.
 ---------------------------------------------------------------
  

 Cite this work as:
 Gaussian 16, Revision C.01,
 M. J. Frisch, G. W. Trucks, H. B. Schlegel, G. E. Scuseria, 
 M. A. Robb, J. R. Cheeseman, G. Scalmani, V. Barone, 
 G. A. Petersson, H. Nakatsuji, X. Li, M. Caricato, A. V. Marenich, 
 J. Bloino, B. G. Janesko, R. Gomperts, B. Mennucci, H. P. Hratchian, 
 J. V. Ortiz, A. F. Izmaylov, J. L. Sonnenberg, D. Williams-Young, 
 F. Ding, F. Lipparini, F. Egidi, J. Goings, B. Peng, A. Petrone, 
 T. Henderson, D. Ranasinghe, V. G. Zakrzewski, J. Gao, N. Rega, 
 G. Zheng, W. Liang, M. Hada, M. Ehara, K. Toyota, R. Fukuda, 
 J. Hasegawa, M. Ishida, T. Nakajima, Y. Honda, O. Kitao, H. Nakai, 
 T. Vreven, K. Throssell, J. A. Montgomery, Jr., J. E. Peralta, 
 F. Ogliaro, M. J. Bearpark, J. J. Heyd, E. N. Brothers, K. N. Kudin, 
 V. N. Staroverov, T. A. Keith, R. Kobayashi, J. Normand, 
 K. Raghavachari, A. P. Rendell, J. C. Burant, S. S. Iyengar, 
 J. Tomasi, M. Cossi, J. M. Millam, M. Klene, C. Adamo, R. Cammi, 
 J. W. Ochterski, R. L. Martin, K. Morokuma, O. Farkas, 
 J. B. Foresman, and D. J. Fox, Gaussian, Inc., Wallingford CT, 2019.
 
 ******************************************
 Gaussian 16:  ES64L-G16RevC.01  3-Jul-2019
                 2-Jun-2023 
 ******************************************
 %NProcShared=2
 Will use up to    2 processors via shared memory.
 %mem=55gb
 %chk=/scratch1/svicchi/G09-659900.pbs02/02-freq/TDA-CO2_binding-site_index-10-fr
 eq.chk
 ----------------------------------------------------------------------
 #p freq=raman scale=0.967 pop=(nbo,full,hirshfeld) guess=read geom=all
 check b3lyp/6-311+G(d,p) int=grid=ultrafine EmpiricalDispersion=GD3BJ 
 SCRF=(Solvent=ethanol) scf=(xqc,intrep,maxconventionalcycle=350) nosym
 m
 ----------------------------------------------------------------------
 1/10=4,29=7,30=1,38=1,114=967000/1,3;
 2/12=2,15=1,40=1/2;
 3/5=4,6=6,7=111,11=2,14=-4,25=1,30=1,70=2201,71=2,72=4,74=-5,75=-5,116=-2,124=41,140=1/1,2,3;
 4/5=1/1;
 5/5=2,8=3,13=1,17=20,38=6,53=4,85=350,98=1/2,8;
 8/6=4,10=90,11=11/1;
 10/13=10,15=4,31=1/2;
 11/6=3,8=1,9=11,15=111,16=1,31=1/1,2,10;
 10/6=1,31=1/2;
 6/7=3,28=1,40=1,79=1/1,7;
 7/8=1,10=1,25=1,30=1/1,2,3,16;
 1/10=4,30=1/3;
 99//99;
 Leave Link    1 at Fri Jun  2 15:34:28 2023, MaxMem=  7381975040 cpu:               0.5 elap:               3.2
 (Enter /software/commercial/gaussian/g16/AVX/g16/l101.exe)
 Structure from the checkpoint file:  "/scratch1/svicchi/G09-659900.pbs02/02-freq/TDA-CO2_binding-site_index-10-freq.chk"
 ---------------------------------
 TDA-CO2_binding-site_index-10.gjf
 ---------------------------------
 Charge = -1 Multiplicity = 1
 No Z-Matrix found in chk file; cartesian coordinates used.
  C                                                -3.596168968917      0.772228512396      0.261069566509
  C                                                -2.453395676398      1.643177659491     -0.251506688304
  C                                                -1.081065421775      0.985165658360     -0.060392880173
  H                                                -2.458358164225      2.602805964995      0.277630452215
  H                                                -2.612072624989      1.859339651727     -1.314126746820
  N                                                -4.899536539936      1.420935888244      0.035625336409
  H                                                -3.418519774799      0.536936410028      1.321531014596
  H                                                -3.600837860973     -0.181235197729     -0.277688432979
  H                                                -4.949108249830      2.283204016250      0.572083680736
  H                                                -5.648397588656      0.829260776551      0.383734615432
  N                                                 0.041217480311      1.799953178407     -0.500393331241
  H                                                -1.051221935906      0.036658739149     -0.608221269699
  H                                                -0.927336851801      0.754994567225      0.995083945774
  H                                                 0.090555177798      1.964191592523     -1.496217550203
  C                                                 0.495809977775      2.906365355474      0.256837760170
  O                                                 0.203184786339      2.930536408083      1.483342494652
  O                                                 1.193211235983      3.752524818827     -0.376059967073
 Recover connectivity data from disk.
 ITRead=  0  0  0  0  0  0  0  0  0  0  0  0  0  0  0  0  0
 MicOpt= -1 -1 -1 -1 -1 -1 -1 -1 -1 -1 -1 -1 -1 -1 -1 -1 -1
 NAtoms=     17 NQM=       17 NQMF=       0 NMMI=      0 NMMIF=      0
                NMic=       0 NMicF=      0.
                    Isotopes and Nuclear Properties:
 (Nuclear quadrupole moments (NQMom) in fm**2, nuclear magnetic moments (NMagM)
  in nuclear magnetons)

  Atom         1           2           3           4           5           6           7           8           9          10
 IAtWgt=          12          12          12           1           1          14           1           1           1           1
 AtmWgt=  12.0000000  12.0000000  12.0000000   1.0078250   1.0078250  14.0030740   1.0078250   1.0078250   1.0078250   1.0078250
 NucSpn=           0           0           0           1           1           2           1           1           1           1
 AtZEff=   3.6000000   3.6000000   3.6000000   1.0000000   1.0000000   4.5500000   1.0000000   1.0000000   1.0000000   1.0000000
 NQMom=    0.0000000   0.0000000   0.0000000   0.0000000   0.0000000   2.0440000   0.0000000   0.0000000   0.0000000   0.0000000
 NMagM=    0.0000000   0.0000000   0.0000000   2.7928460   2.7928460   0.4037610   2.7928460   2.7928460   2.7928460   2.7928460
 AtZNuc=   6.0000000   6.0000000   6.0000000   1.0000000   1.0000000   7.0000000   1.0000000   1.0000000   1.0000000   1.0000000

  Atom        11          12          13          14          15          16          17
 IAtWgt=          14           1           1           1          12          16          16
 AtmWgt=  14.0030740   1.0078250   1.0078250   1.0078250  12.0000000  15.9949146  15.9949146
 NucSpn=           2           1           1           1           0           0           0
 AtZEff=   4.5500000   1.0000000   1.0000000   1.0000000   3.6000000   5.6000000   5.6000000
 NQMom=    2.0440000   0.0000000   0.0000000   0.0000000   0.0000000   0.0000000   0.0000000
 NMagM=    0.4037610   2.7928460   2.7928460   2.7928460   0.0000000   0.0000000   0.0000000
 AtZNuc=   7.0000000   1.0000000   1.0000000   1.0000000   6.0000000   8.0000000   8.0000000
 Leave Link  101 at Fri Jun  2 15:34:31 2023, MaxMem=  7381975040 cpu:               0.3 elap:               2.9
 (Enter /software/commercial/gaussian/g16/AVX/g16/l103.exe)

 GradGradGradGradGradGradGradGradGradGradGradGradGradGradGradGradGradGrad
 Berny optimization.
 Initialization pass.
 Trust Radius=3.00D-01 FncErr=1.00D-07 GrdErr=1.00D-07 EigMax=2.50D+02 EigMin=1.00D-04
 Number of steps in this run=      2 maximum allowed number of steps=      2.
 GradGradGradGradGradGradGradGradGradGradGradGradGradGradGradGradGradGrad

 Leave Link  103 at Fri Jun  2 15:34:33 2023, MaxMem=  7381975040 cpu:               0.1 elap:               1.2
 (Enter /software/commercial/gaussian/g16/AVX/g16/l202.exe)
                          Input orientation:                          
 ---------------------------------------------------------------------
 Center     Atomic      Atomic             Coordinates (Angstroms)
 Number     Number       Type             X           Y           Z
 ---------------------------------------------------------------------
      1          6           0       -3.596169    0.772229    0.261070
      2          6           0       -2.453396    1.643178   -0.251507
      3          6           0       -1.081065    0.985166   -0.060393
      4          1           0       -2.458358    2.602806    0.277630
      5          1           0       -2.612073    1.859340   -1.314127
      6          7           0       -4.899537    1.420936    0.035625
      7          1           0       -3.418520    0.536936    1.321531
      8          1           0       -3.600838   -0.181235   -0.277688
      9          1           0       -4.949108    2.283204    0.572084
     10          1           0       -5.648398    0.829261    0.383735
     11          7           0        0.041217    1.799953   -0.500393
     12          1           0       -1.051222    0.036659   -0.608221
     13          1           0       -0.927337    0.754995    0.995084
     14          1           0        0.090555    1.964192   -1.496218
     15          6           0        0.495810    2.906365    0.256838
     16          8           0        0.203185    2.930536    1.483342
     17          8           0        1.193211    3.752525   -0.376060
 ---------------------------------------------------------------------
                    Distance matrix (angstroms):
                    1          2          3          4          5
     1  C    0.000000
     2  C    1.525522   0.000000
     3  C    2.544489   1.533882   0.000000
     4  H    2.155435   1.095855   2.151268   0.000000
     5  H    2.152092   1.095931   2.163334   1.763537   0.000000
     6  N    1.473232   2.472942   3.844455   2.723001   2.691936
     7  H    1.100682   2.151670   2.752148   2.505884   3.057090
     8  H    1.095160   2.155410   2.785132   3.060151   2.493152
     9  H    2.051882   2.704906   4.128763   2.528376   3.033016
    10  H    2.056682   3.357682   4.591522   3.651448   3.628094
    11  N    3.855726   2.511895   1.454991   2.738206   2.775903
    12  H    2.788097   2.161999   1.095752   3.057757   2.501344
    13  H    2.767985   2.161415   1.091166   2.504630   3.064371
    14  H    4.254500   2.850270   2.095896   3.170382   2.710784
    15  C    4.615068   3.248364   2.505630   2.969796   3.636362
    16  O    4.537327   3.424093   2.795869   2.940231   4.110836
    17  O    5.676818   4.214570   3.595867   3.883700   4.352506
                    6          7          8          9         10
     6  N    0.000000
     7  H    2.151376   0.000000
     8  H    2.086081   1.762530   0.000000
     9  H    1.016736   2.440046   2.934861   0.000000
    10  H    1.015900   2.436652   2.377201   1.624325   0.000000
    11  N    4.984177   4.109063   4.152020   5.127094   5.839148
    12  H    4.140083   3.094886   2.580169   4.651194   4.769300
    13  H    4.140339   2.521926   3.105492   4.323077   4.761058
    14  H    5.248112   4.721268   4.440051   5.456908   6.144743
    15  C    5.600464   4.697844   5.157666   5.489521   6.487045
    16  O    5.514757   4.344220   5.220626   5.272149   6.313914
    17  O    6.536617   5.872809   6.202181   6.386389   7.478661
                   11         12         13         14         15
    11  N    0.000000
    12  H    2.077079   0.000000
    13  H    2.065548   1.761233   0.000000
    14  H    1.010482   2.409891   2.950397   0.000000
    15  C    1.415698   3.372959   2.683049   2.031041   0.000000
    16  O    2.289030   3.784535   2.499892   3.134372   1.261161
    17  O    2.270481   4.347303   3.919432   2.380911   1.266062
                   16         17
    16  O    0.000000
    17  O    2.261237   0.000000
 Symmetry turned off by external request.
 Stoichiometry    C4H9N2O2(1-)
 Framework group  C1[X(C4H9N2O2)]
 Deg. of freedom    45
 Full point group                 C1      NOp   1
 Rotational constants (GHZ):           5.0693069           0.8112238           0.7880798
 Leave Link  202 at Fri Jun  2 15:34:34 2023, MaxMem=  7381975040 cpu:               0.0 elap:               0.2
 (Enter /software/commercial/gaussian/g16/AVX/g16/l301.exe)
 Standard basis: 6-311+G(d,p) (5D, 7F)
 Ernie: Thresh=  0.10000D-02 Tol=  0.10000D-05 Strict=F.
   230 basis functions,   360 primitive gaussians,   238 cartesian basis functions
    32 alpha electrons       32 beta electrons
       nuclear repulsion energy       371.3168841801 Hartrees.
 IExCor=  402 DFT=T Ex+Corr=B3LYP ExCW=0 ScaHFX=  0.200000
 ScaDFX=  0.800000  0.720000  1.000000  0.810000 ScalE2=  1.000000  1.000000
 IRadAn=      5 IRanWt=     -1 IRanGd=            0 ICorTp=0 IEmpDi=141
 NAtoms=   17 NActive=   17 NUniq=   17 SFac= 1.00D+00 NAtFMM=   60 NAOKFM=F Big=F
 Integral buffers will be    131072 words long.
 Raffenetti 2 integral format.
 Two-electron integral symmetry is turned off.
 R6Disp:  Grimme-D3(BJ) Dispersion energy=       -0.0226358413 Hartrees.
 Nuclear repulsion after empirical dispersion term =      371.2942483388 Hartrees.
 Force inversion solution in PCM.
 ------------------------------------------------------------------------------
 Polarizable Continuum Model (PCM)
 =================================
 Model                : PCM.
 Atomic radii         : UFF (Universal Force Field).
 Polarization charges : Total charges.
 Charge compensation  : None.
 Solution method      : Matrix inversion.
 Cavity type          : Scaled VdW (van der Waals Surface) (Alpha=1.100).
 Cavity algorithm     : GePol (No added spheres)
                        Default sphere list used, NSphG=   17.
                        Lebedev-Laikov grids with approx.  5.0 points / Ang**2.
                        Smoothing algorithm: York/Karplus (Gamma=1.0000).
                        Polarization charges: spherical gaussians, with
                                              point-specific exponents (IZeta= 3).
                        Self-potential: point-specific (ISelfS= 7).
                        Self-field    : sphere-specific E.n sum rule (ISelfD= 2).
 1st derivatives      : Analytical E(r).r(x)/FMM algorithm (CHGder, D1EAlg=3).
                        Cavity 1st derivative terms included.
 2nd derivatives      : Analytical E(r).r(xy)/FMM algorithm (CHGder, D2EAlg=3).
                        Cavity 2nd derivative terms included.
 Solvent              : Ethanol, Eps=  24.852000 Eps(inf)=   1.852593
 ------------------------------------------------------------------------------
 Spheres list:
 ISph  on   Nord     Re0    Alpha      Xe            Ye            Ze
    1   C      1    1.9255  1.100     -3.596169      0.772229      0.261070
    2   C      2    1.9255  1.100     -2.453396      1.643178     -0.251507
    3   C      3    1.9255  1.100     -1.081065      0.985166     -0.060393
    4   H      4    1.4430  1.100     -2.458358      2.602806      0.277630
    5   H      5    1.4430  1.100     -2.612073      1.859340     -1.314127
    6   N      6    1.8300  1.100     -4.899537      1.420936      0.035625
    7   H      7    1.4430  1.100     -3.418520      0.536936      1.321531
    8   H      8    1.4430  1.100     -3.600838     -0.181235     -0.277688
    9   H      9    1.4430  1.100     -4.949108      2.283204      0.572084
   10   H     10    1.4430  1.100     -5.648398      0.829261      0.383735
   11   N     11    1.8300  1.100      0.041217      1.799953     -0.500393
   12   H     12    1.4430  1.100     -1.051222      0.036659     -0.608221
   13   H     13    1.4430  1.100     -0.927337      0.754995      0.995084
   14   H     14    1.4430  1.100      0.090555      1.964192     -1.496218
   15   C     15    1.9255  1.100      0.495810      2.906365      0.256838
   16   O     16    1.7500  1.100      0.203185      2.930536      1.483342
   17   O     17    1.7500  1.100      1.193211      3.752525     -0.376060
 ------------------------------------------------------------------------------
 GePol: Number of generator spheres                  =      17
 GePol: Total number of spheres                      =      17
 GePol: Number of exposed spheres                    =      17 (100.00%)
 GePol: Number of points                             =    1407
 GePol: Average weight of points                     =       0.14
 GePol: Minimum weight of points                     =   0.17D-07
 GePol: Maximum weight of points                     =    0.20577
 GePol: Number of points with low weight             =      72
 GePol: Fraction of low-weight points (<1% of avg)   =       5.12%
 GePol: Cavity surface area                          =    191.415 Ang**2
 GePol: Cavity volume                                =    180.725 Ang**3
 Leave Link  301 at Fri Jun  2 15:34:37 2023, MaxMem=  7381975040 cpu:               0.3 elap:               2.4
 (Enter /software/commercial/gaussian/g16/AVX/g16/l302.exe)
 NPDir=0 NMtPBC=     1 NCelOv=     1 NCel=       1 NClECP=     1 NCelD=      1
         NCelK=      1 NCelE2=     1 NClLst=     1 CellRange=     0.0.
 One-electron integrals computed using PRISM.
 NBasis=   230 RedAO= T EigKep=  2.33D-05  NBF=   230
 NBsUse=   230 1.00D-06 EigRej= -1.00D+00 NBFU=   230
 Precomputing XC quadrature grid using
 IXCGrd= 4 IRadAn=           5 IRanWt=          -1 IRanGd=           0 AccXCQ= 0.00D+00.
 Generated NRdTot=       0 NPtTot=           0 NUsed=           0 NTot=          32
 NSgBfM=   238   238   238   238   238 MxSgAt=    17 MxSgA2=    17.
 Leave Link  302 at Fri Jun  2 15:34:40 2023, MaxMem=  7381975040 cpu:               0.8 elap:               2.2
 (Enter /software/commercial/gaussian/g16/AVX/g16/l303.exe)
 DipDrv:  MaxL=1.
 Leave Link  303 at Fri Jun  2 15:34:43 2023, MaxMem=  7381975040 cpu:               0.1 elap:               2.7
 (Enter /software/commercial/gaussian/g16/AVX/g16/l401.exe)
 Initial guess from the checkpoint file:  "/scratch1/svicchi/G09-659900.pbs02/02-freq/TDA-CO2_binding-site_index-10-freq.chk"
 B after Tr=     0.000000    0.000000    0.000000
         Rot=    1.000000    0.000000    0.000000    0.000000 Ang=   0.00 deg.
 Guess basis will be translated and rotated to current coordinates.
 JPrj=2 DoOrth=T DoCkMO=T.
 Leave Link  401 at Fri Jun  2 15:34:46 2023, MaxMem=  7381975040 cpu:               0.4 elap:               2.2
 (Enter /software/commercial/gaussian/g16/AVX/g16/l502.exe)
 Keep R1 ints in memory in canonical form, NReq=359689959.
 FoFCou: FMM=F IPFlag=           0 FMFlag=           0 FMFlg1=           0
         NFxFlg=           0 DoJE=F BraDBF=F KetDBF=F FulRan=T
         wScrn=  0.000000 ICntrl=       600 IOpCl=  0 I1Cent=           0 NGrid=           0
         NMat0=    1 NMatS0=  26565 NMatT0=    0 NMatD0=    1 NMtDS0=    0 NMtDT0=    0
 Symmetry not used in FoFCou.
 Two-electron integral symmetry not used.
 Closed shell SCF:
 Using DIIS extrapolation, IDIIS=  1040.
 NGot=  7381975040 LenX=  7028995155 LenY=  7028938070
 Requested convergence on RMS density matrix=1.00D-08 within 350 cycles.
 Requested convergence on MAX density matrix=1.00D-06.
 Requested convergence on             energy=1.00D-06.
 No special actions if energy rises.

 Cycle   1  Pass 1  IDiag  1:
 Inv3:  Mode=1 IEnd=     5938947.
 Iteration    1 A*A^-1 deviation from unit magnitude is 3.33D-15 for   1379.
 Iteration    1 A*A^-1 deviation from orthogonality  is 3.45D-15 for   1383    342.
 Iteration    1 A^-1*A deviation from unit magnitude is 3.33D-15 for   1379.
 Iteration    1 A^-1*A deviation from orthogonality  is 1.24D-15 for   1385   1000.
 E= -418.124852227890    
 DIIS: error= 3.79D-08 at cycle   1 NSaved=   1.
 NSaved= 1 IEnMin= 1 EnMin= -418.124852227890     IErMin= 1 ErrMin= 3.79D-08
 ErrMax= 3.79D-08  0.00D+00 EMaxC= 1.00D-01 BMatC= 2.16D-13 BMatP= 2.16D-13
 IDIUse=1 WtCom= 1.00D+00 WtEn= 0.00D+00
 Coeff-Com:  0.100D+01
 Coeff:      0.100D+01
 Gap=     0.227 Goal=   None    Shift=    0.000
 RMSDP=4.91D-09 MaxDP=1.49D-07              OVMax= 4.60D-07

 Error on total polarization charges =  0.02101
 SCF Done:  E(RB3LYP) =  -418.124852228     A.U. after    1 cycles
            NFock=  1  Conv=0.49D-08     -V/T= 2.0041
 KE= 4.164009798726D+02 PE=-1.732781989158D+03 EE= 5.269619087189D+02
 Leave Link  502 at Fri Jun  2 15:35:07 2023, MaxMem=  7381975040 cpu:              34.5 elap:              20.9
 (Enter /software/commercial/gaussian/g16/AVX/g16/l508.exe)
 QCSCF skips out because SCF is already converged.
 Leave Link  508 at Fri Jun  2 15:35:12 2023, MaxMem=  7381975040 cpu:               0.0 elap:               3.3
 (Enter /software/commercial/gaussian/g16/AVX/g16/l801.exe)
 DoSCS=F DFT=T ScalE2(SS,OS)=  1.000000  1.000000
 Range of M.O.s used for correlation:     1   230
 NBasis=   230 NAE=    32 NBE=    32 NFC=     0 NFV=     0
 NROrb=    230 NOA=    32 NOB=    32 NVA=   198 NVB=   198

 **** Warning!!: The largest alpha MO coefficient is  0.46424105D+02

 Leave Link  801 at Fri Jun  2 15:35:15 2023, MaxMem=  7381975040 cpu:               0.1 elap:               1.8
 (Enter /software/commercial/gaussian/g16/AVX/g16/l1002.exe)
 Minotr:  Closed shell wavefunction.
 NEqPCM:  Using equilibrium solvation (IEInf=0, Eps=  24.8520, EpsInf=   1.8526)
          Direct CPHF calculation.
          Differentiating once with respect to electric field.
                with respect to dipole field.
          Electric field/nuclear overlap derivatives assumed to be zero.
          Requested convergence is 1.0D-08 RMS, and 1.0D-07 maximum.
          Secondary convergence is 1.0D-12 RMS, and 1.0D-12 maximum.
          NewPWx=F KeepS1=T KeepF1=T KeepIn=T MapXYZ=F SortEE=F KeepMc=T.
         5235 words used for storage of precomputed grid.
 Keep R1 ints in memory in canonical form, NReq=359697125.
 FoFCou: FMM=F IPFlag=           0 FMFlag=           0 FMFlg1=           0
         NFxFlg=           0 DoJE=F BraDBF=F KetDBF=F FulRan=T
         wScrn=  0.000000 ICntrl=       600 IOpCl=  0 I1Cent=           0 NGrid=           0
         NMat0=    1 NMatS0=  26565 NMatT0=    0 NMatD0=    1 NMtDS0=    0 NMtDT0=    0
 Symmetry not used in FoFCou.
 Two-electron integral symmetry not used.
          MDV=    7381975040 using IRadAn=       1.
          Solving linear equations simultaneously, MaxMat=       0.
          There are     3 degrees of freedom in the 1st order CPHF.  IDoFFX=0 NUNeed=     3.
      3 vectors produced by pass  0 Test12= 2.11D-13 3.33D-08 XBig12= 5.73D+01 2.06D+00.
 AX will form     3 AO Fock derivatives at one time.
      3 vectors produced by pass  1 Test12= 2.11D-13 3.33D-08 XBig12= 1.27D+01 6.45D-01.
      3 vectors produced by pass  2 Test12= 2.11D-13 3.33D-08 XBig12= 4.17D+00 3.01D-01.
      3 vectors produced by pass  3 Test12= 2.11D-13 3.33D-08 XBig12= 3.54D-01 9.82D-02.
      3 vectors produced by pass  4 Test12= 2.11D-13 3.33D-08 XBig12= 9.52D-02 4.68D-02.
      3 vectors produced by pass  5 Test12= 2.11D-13 3.33D-08 XBig12= 8.39D-03 1.78D-02.
      3 vectors produced by pass  6 Test12= 2.11D-13 3.33D-08 XBig12= 8.76D-04 5.49D-03.
      3 vectors produced by pass  7 Test12= 2.11D-13 3.33D-08 XBig12= 9.16D-05 1.44D-03.
      3 vectors produced by pass  8 Test12= 2.11D-13 3.33D-08 XBig12= 3.60D-06 3.36D-04.
      3 vectors produced by pass  9 Test12= 2.11D-13 3.33D-08 XBig12= 9.92D-08 6.36D-05.
      3 vectors produced by pass 10 Test12= 2.11D-13 3.33D-08 XBig12= 2.78D-09 6.16D-06.
      3 vectors produced by pass 11 Test12= 2.11D-13 3.33D-08 XBig12= 6.74D-11 1.27D-06.
      3 vectors produced by pass 12 Test12= 2.11D-13 3.33D-08 XBig12= 1.40D-12 1.80D-07.
 InvSVY:  IOpt=1 It=  1 EMax= 2.56D-15
 Solved reduced A of dimension    39 with     3 vectors.
 End of Minotr F.D. properties file   721 does not exist.
 End of Minotr F.D. properties file   722 does not exist.
 End of Minotr F.D. properties file   788 does not exist.
 Leave Link 1002 at Fri Jun  2 15:36:53 2023, MaxMem=  7381975040 cpu:             185.2 elap:              97.2
 (Enter /software/commercial/gaussian/g16/AVX/g16/l1101.exe)
 Using compressed storage, NAtomX=    17.
 Will process     18 centers per pass.
 R6Disp: Adding Grimme-D3(BJ) dispersion energy 1st derivatives to the gradient.
 Leave Link 1101 at Fri Jun  2 15:36:56 2023, MaxMem=  7381975040 cpu:               0.5 elap:               2.7
 (Enter /software/commercial/gaussian/g16/AVX/g16/l1102.exe)
 Symmetrizing basis deriv contribution to polar:
 IMax=3 JMax=2 DiffMx= 0.00D+00
 Leave Link 1102 at Fri Jun  2 15:36:59 2023, MaxMem=  7381975040 cpu:               0.1 elap:               2.3
 (Enter /software/commercial/gaussian/g16/AVX/g16/l1110.exe)
 Forming Gx(P) for the SCF density, NAtomX=    17.
 Integral derivatives from FoFJK, PRISM(SPDF).
 Do as many integral derivatives as possible in FoFJK.
 G2DrvN: MDV=    7381973153.
 G2DrvN: will do    18 centers at a time, making    1 passes.
 PxScal for G2LodP:  IOpCl= 0 ISclPx=1 IMOff=     1 NMtTot=     4 NTT=   26565 ScalPx= 1.14D+01
 Calling FoFCou, ICntrl=  3107 FMM=F I1Cent=   0 AccDes= 0.00D+00.
 FoFJK:  IHMeth= 1 ICntrl=    3107 DoSepK=F KAlg= 0 I1Cent=           0 FoldK=F
 IRaf=         0 NMat=       1 IRICut=       1 DoRegI=T DoRafI=F ISym2E= 0 IDoP0=0 IntGTp=1.
 FoFCou: FMM=F IPFlag=           0 FMFlag=      100000 FMFlg1=           0
         NFxFlg=           0 DoJE=F BraDBF=F KetDBF=F FulRan=T
         wScrn=  0.000000 ICntrl=      3107 IOpCl=  0 I1Cent=           0 NGrid=           0
         NMat0=    1 NMatS0=      1 NMatT0=    0 NMatD0=    4 NMtDS0=    3 NMtDT0=    0
 Symmetry not used in FoFCou.
 PxScal for G2LodP:  IOpCl= 0 ISclPx=0 IMOff=     1 NMtTot=     4 NTT=   26565 ScalPx= 1.00D+00
 NEqPCM:  Using equilibrium solvation (IEInf=0, Eps=  24.8520, EpsInf=   1.8526)
 G2PCM: DoFxE=T DoFxN=T DoGrad=T DoDP/DQ/DG/TGxP=TFFF NFrqRd=   0 IEInf=0 SqF1=F DoCFld=F IF1Alg=4.
 GePol: Maximum number of non-zero 1st derivatives   =     219
 End of G2Drv F.D. properties file   721 does not exist.
 End of G2Drv F.D. properties file   722 does not exist.
 End of G2Drv F.D. properties file   788 does not exist.
 Leave Link 1110 at Fri Jun  2 15:41:48 2023, MaxMem=  7381975040 cpu:             568.4 elap:             288.5
 (Enter /software/commercial/gaussian/g16/AVX/g16/l1002.exe)
 Minotr:  Closed shell wavefunction.
          IDoAtm=11111111111111111
 NEqPCM:  Using equilibrium solvation (IEInf=0, Eps=  24.8520, EpsInf=   1.8526)
          Direct CPHF calculation.
          Differentiating once with respect to electric field.
                with respect to dipole field.
          Differentiating once with respect to nuclear coordinates.
          Requested convergence is 1.0D-08 RMS, and 1.0D-07 maximum.
          Secondary convergence is 1.0D-12 RMS, and 1.0D-12 maximum.
          NewPWx=T KeepS1=F KeepF1=F KeepIn=T MapXYZ=F SortEE=F KeepMc=T.
         5235 words used for storage of precomputed grid.
 Keep R1 ints in memory in canonical form, NReq=359697516.
 FoFCou: FMM=F IPFlag=           0 FMFlag=           0 FMFlg1=           0
         NFxFlg=           0 DoJE=F BraDBF=F KetDBF=F FulRan=T
         wScrn=  0.000000 ICntrl=       600 IOpCl=  0 I1Cent=           0 NGrid=           0
         NMat0=    1 NMatS0=  26565 NMatT0=    0 NMatD0=    1 NMtDS0=    0 NMtDT0=    0
 Symmetry not used in FoFCou.
 Two-electron integral symmetry not used.
          MDV=    7381975040 using IRadAn=       1.
          Solving linear equations simultaneously, MaxMat=       0.
          There are    54 degrees of freedom in the 1st order CPHF.  IDoFFX=5 NUNeed=    54.
 Will reuse    3 saved solutions.
     48 vectors produced by pass  0 Test12= 1.17D-14 1.85D-09 XBig12= 1.66D-01 6.94D-02.
 AX will form    48 AO Fock derivatives at one time.
     48 vectors produced by pass  1 Test12= 1.17D-14 1.85D-09 XBig12= 5.01D-03 1.01D-02.
     48 vectors produced by pass  2 Test12= 1.17D-14 1.85D-09 XBig12= 8.74D-05 1.64D-03.
     48 vectors produced by pass  3 Test12= 1.17D-14 1.85D-09 XBig12= 4.69D-07 1.09D-04.
     48 vectors produced by pass  4 Test12= 1.17D-14 1.85D-09 XBig12= 8.17D-10 3.41D-06.
     40 vectors produced by pass  5 Test12= 1.17D-14 1.85D-09 XBig12= 7.59D-13 1.04D-07.
     12 vectors produced by pass  6 Test12= 1.17D-14 1.85D-09 XBig12= 9.02D-16 6.16D-09.
 InvSVY:  IOpt=1 It=  1 EMax= 3.89D-16
 Solved reduced A of dimension   292 with    54 vectors.
 FullF1:  Do perturbations      1 to       3.
 Isotropic polarizability for W=    0.000000      101.39 Bohr**3.
 FullF1:  Do perturbations      1 to       6.
 End of Minotr F.D. properties file   721 does not exist.
 End of Minotr F.D. properties file   722 does not exist.
 End of Minotr F.D. properties file   788 does not exist.
 Leave Link 1002 at Fri Jun  2 15:46:22 2023, MaxMem=  7381975040 cpu:             530.1 elap:             273.0
 (Enter /software/commercial/gaussian/g16/AVX/g16/l601.exe)
 Copying SCF densities to generalized density rwf, IOpCl= 0 IROHF=0.

 **********************************************************************

            Population analysis using the SCF Density.

 **********************************************************************

 Alpha  occ. eigenvalues --  -19.04251 -19.04108 -14.29273 -14.29193 -10.25787
 Alpha  occ. eigenvalues --  -10.18689 -10.18309 -10.15434  -1.01705  -0.91957
 Alpha  occ. eigenvalues --   -0.88254  -0.87265  -0.74897  -0.64892  -0.58759
 Alpha  occ. eigenvalues --   -0.53680  -0.48709  -0.46753  -0.46123  -0.43084
 Alpha  occ. eigenvalues --   -0.41570  -0.40242  -0.37858  -0.37737  -0.36119
 Alpha  occ. eigenvalues --   -0.34387  -0.32885  -0.25273  -0.24661  -0.23830
 Alpha  occ. eigenvalues --   -0.22224  -0.21793
 Alpha virt. eigenvalues --    0.00868   0.01831   0.02755   0.03463   0.04824
 Alpha virt. eigenvalues --    0.05724   0.06206   0.07241   0.07918   0.08994
 Alpha virt. eigenvalues --    0.09116   0.09627   0.10402   0.11701   0.12787
 Alpha virt. eigenvalues --    0.14012   0.14574   0.15799   0.16592   0.17473
 Alpha virt. eigenvalues --    0.17652   0.18241   0.20172   0.20261   0.20871
 Alpha virt. eigenvalues --    0.21310   0.21774   0.23378   0.24095   0.24468
 Alpha virt. eigenvalues --    0.24844   0.25455   0.25915   0.26812   0.27813
 Alpha virt. eigenvalues --    0.28192   0.29117   0.29720   0.29726   0.30717
 Alpha virt. eigenvalues --    0.31092   0.32109   0.33380   0.34233   0.35363
 Alpha virt. eigenvalues --    0.38116   0.38768   0.43220   0.45750   0.46769
 Alpha virt. eigenvalues --    0.48802   0.50213   0.51497   0.54090   0.57130
 Alpha virt. eigenvalues --    0.61099   0.61471   0.62994   0.64237   0.65905
 Alpha virt. eigenvalues --    0.66161   0.66877   0.69441   0.70433   0.71125
 Alpha virt. eigenvalues --    0.72190   0.74005   0.75357   0.76384   0.77936
 Alpha virt. eigenvalues --    0.81141   0.83396   0.86032   0.86542   0.90454
 Alpha virt. eigenvalues --    0.91394   0.93151   0.96117   0.99437   1.03153
 Alpha virt. eigenvalues --    1.10023   1.10705   1.12597   1.16516   1.18497
 Alpha virt. eigenvalues --    1.19612   1.20176   1.21373   1.22921   1.23453
 Alpha virt. eigenvalues --    1.25968   1.28657   1.34618   1.36733   1.39545
 Alpha virt. eigenvalues --    1.43194   1.44561   1.49649   1.54292   1.55764
 Alpha virt. eigenvalues --    1.56732   1.59604   1.60804   1.63446   1.65834
 Alpha virt. eigenvalues --    1.66897   1.68700   1.69152   1.70820   1.71641
 Alpha virt. eigenvalues --    1.73825   1.76353   1.79577   1.80060   1.81466
 Alpha virt. eigenvalues --    1.83507   1.85465   1.88355   1.91289   1.96560
 Alpha virt. eigenvalues --    1.99167   2.02733   2.05976   2.06999   2.12802
 Alpha virt. eigenvalues --    2.16301   2.17419   2.19985   2.27381   2.33131
 Alpha virt. eigenvalues --    2.35553   2.40500   2.46474   2.48681   2.49979
 Alpha virt. eigenvalues --    2.52788   2.54702   2.55415   2.58126   2.60246
 Alpha virt. eigenvalues --    2.61577   2.64607   2.68026   2.69359   2.70127
 Alpha virt. eigenvalues --    2.72095   2.75290   2.75786   2.77806   2.81109
 Alpha virt. eigenvalues --    2.83529   2.86737   2.87620   2.89418   2.92884
 Alpha virt. eigenvalues --    2.96530   2.96976   3.00273   3.00831   3.06856
 Alpha virt. eigenvalues --    3.12117   3.14649   3.24695   3.30281   3.33334
 Alpha virt. eigenvalues --    3.37558   3.41380   3.45122   3.54225   3.60914
 Alpha virt. eigenvalues --    3.69158   3.79304   3.83660   3.85075   3.89167
 Alpha virt. eigenvalues --    4.04524   4.08764   4.12452   4.14617   4.30649
 Alpha virt. eigenvalues --    4.72376   4.81757   4.84104   4.93333   5.08297
 Alpha virt. eigenvalues --    5.11326   5.15935   5.22717   5.68315   5.90545
 Alpha virt. eigenvalues --   23.83126  23.85855  23.90135  23.91795  35.58928
 Alpha virt. eigenvalues --   35.59789  49.97078  50.06779
     Molecular Orbital Coefficients:
                           1         2         3         4         5
                           O         O         O         O         O
     Eigenvalues --   -19.04251 -19.04108 -14.29273 -14.29193 -10.25787
   1 1   C  1S         -0.00000  -0.00000   0.00001  -0.00000  -0.00000
   2        2S          0.00000   0.00001  -0.00003   0.00001   0.00000
   3        2PX         0.00001  -0.00000  -0.00029   0.00002  -0.00000
   4        2PY        -0.00000  -0.00000   0.00018   0.00001  -0.00000
   5        2PZ        -0.00000  -0.00001  -0.00007  -0.00001  -0.00000
   6        3S         -0.00002  -0.00014   0.00002  -0.00020  -0.00011
   7        3PX        -0.00005   0.00001   0.00047  -0.00011  -0.00000
   8        3PY         0.00000  -0.00001  -0.00051  -0.00009   0.00000
   9        3PZ         0.00002   0.00004   0.00025   0.00008   0.00001
  10        4S         -0.00040   0.00156   0.00569   0.00174   0.00107
  11        4PX         0.00043   0.00043  -0.00140   0.00131   0.00034
  12        4PY        -0.00006   0.00048   0.00138   0.00023   0.00054
  13        4PZ         0.00061   0.00013  -0.00091   0.00047   0.00064
  14        5S          0.00233   0.01302  -0.00487  -0.01063  -0.00832
  15        5PX         0.00006   0.00140   0.00113  -0.00160   0.00018
  16        5PY         0.00027   0.00204  -0.00147  -0.00132  -0.00148
  17        5PZ        -0.00030  -0.00101   0.00068   0.00092   0.00096
  18        6D 0        0.00002  -0.00000   0.00031   0.00003  -0.00001
  19        6D+1        0.00001   0.00001  -0.00009   0.00004   0.00002
  20        6D-1       -0.00001   0.00001   0.00008   0.00001   0.00000
  21        6D+2        0.00001  -0.00000  -0.00027  -0.00000   0.00003
  22        6D-2        0.00001   0.00002   0.00033   0.00001   0.00003
  23 2   C  1S          0.00000  -0.00000   0.00000   0.00000   0.00001
  24        2S         -0.00001   0.00001  -0.00000  -0.00000  -0.00001
  25        2PX        -0.00003   0.00004  -0.00004   0.00007   0.00001
  26        2PY        -0.00002   0.00001  -0.00003  -0.00003   0.00001
  27        2PZ        -0.00002   0.00001   0.00002   0.00000   0.00000
  28        3S          0.00011   0.00004   0.00020   0.00022   0.00034
  29        3PX         0.00016  -0.00019   0.00028  -0.00034   0.00000
  30        3PY         0.00010  -0.00008   0.00015   0.00016  -0.00004
  31        3PZ         0.00011  -0.00004  -0.00011  -0.00004  -0.00000
  32        4S         -0.00015  -0.00154  -0.00314  -0.00262  -0.00314
  33        4PX        -0.00111   0.00056  -0.00026  -0.00077  -0.00159
  34        4PY        -0.00024   0.00015   0.00159   0.00072   0.00021
  35        4PZ        -0.00068  -0.00118  -0.00050  -0.00141  -0.00151
  36        5S          0.01609  -0.00408   0.01037   0.01494  -0.00285
  37        5PX         0.00613   0.00748   0.00383  -0.00145  -0.00816
  38        5PY        -0.00059   0.00231  -0.00096  -0.00206  -0.00045
  39        5PZ         0.00036  -0.00182   0.00028   0.00127   0.00051
  40        6D 0        0.00002   0.00004   0.00005   0.00012   0.00007
  41        6D+1       -0.00001  -0.00002   0.00007  -0.00003  -0.00003
  42        6D-1       -0.00002  -0.00003   0.00002  -0.00004  -0.00003
  43        6D+2       -0.00003   0.00001  -0.00006  -0.00017  -0.00005
  44        6D-2        0.00006  -0.00004  -0.00013   0.00011   0.00000
  45 3   C  1S          0.00000  -0.00001  -0.00000   0.00001  -0.00004
  46        2S         -0.00001   0.00004   0.00001  -0.00002   0.00000
  47        2PX         0.00000   0.00004  -0.00002   0.00027  -0.00000
  48        2PY         0.00002   0.00004   0.00001   0.00020  -0.00000
  49        2PZ         0.00001  -0.00001   0.00000  -0.00015  -0.00001
  50        3S          0.00006  -0.00041  -0.00026   0.00006  -0.00050
  51        3PX         0.00005  -0.00019   0.00009  -0.00039  -0.00004
  52        3PY         0.00000  -0.00027  -0.00011  -0.00049  -0.00008
  53        3PZ         0.00001   0.00008   0.00002   0.00043   0.00006
  54        4S          0.00292   0.00065   0.00236   0.00650   0.00331
  55        4PX         0.00100  -0.00030  -0.00138   0.00179  -0.00073
  56        4PY         0.00059   0.00131   0.00003   0.00239   0.00158
  57        4PZ         0.00004   0.00098   0.00002   0.00009   0.00132
  58        5S         -0.01684  -0.00969  -0.00882  -0.00745   0.01651
  59        5PX         0.00401   0.00034   0.00133  -0.00046   0.00005
  60        5PY        -0.00291  -0.00164  -0.00084  -0.00193   0.00326
  61        5PZ         0.00083   0.00060   0.00019   0.00062  -0.00035
  62        6D 0        0.00002   0.00011   0.00003   0.00019   0.00005
  63        6D+1        0.00001   0.00000   0.00001   0.00033   0.00008
  64        6D-1       -0.00004  -0.00002   0.00003   0.00014   0.00000
  65        6D+2        0.00007  -0.00003   0.00000  -0.00014   0.00002
  66        6D-2       -0.00003  -0.00003  -0.00001  -0.00040   0.00003
  67 4   H  1S          0.00000  -0.00005   0.00005   0.00001  -0.00001
  68        2S          0.00027   0.00040  -0.00021   0.00018   0.00050
  69        3S         -0.00086   0.00083  -0.00124  -0.00109  -0.00050
  70        4PX        -0.00004   0.00002   0.00012  -0.00010  -0.00008
  71        4PY         0.00004  -0.00009   0.00008   0.00005  -0.00007
  72        4PZ         0.00001   0.00000   0.00008   0.00012   0.00000
  73 5   H  1S         -0.00001   0.00002   0.00003   0.00007   0.00002
  74        2S         -0.00001  -0.00027  -0.00011  -0.00050  -0.00015
  75        3S         -0.00114  -0.00009  -0.00108  -0.00115  -0.00096
  76        4PX         0.00006  -0.00003   0.00011  -0.00007   0.00003
  77        4PY         0.00003   0.00001  -0.00004   0.00001   0.00002
  78        4PZ        -0.00000  -0.00003  -0.00013  -0.00014  -0.00004
  79 6   N  1S          0.00000  -0.00000   0.55739  -0.00016  -0.00000
  80        2S         -0.00000  -0.00000   0.46575  -0.00013  -0.00000
  81        2PX        -0.00000   0.00000   0.00020  -0.00001  -0.00001
  82        2PY        -0.00001   0.00000  -0.00026  -0.00001   0.00000
  83        2PZ         0.00000   0.00000   0.00117   0.00001  -0.00000
  84        3S          0.00001   0.00002   0.01562   0.00003   0.00007
  85        3PX         0.00002  -0.00001  -0.00049   0.00004   0.00006
  86        3PY         0.00001   0.00000   0.00020   0.00003  -0.00001
  87        3PZ        -0.00001  -0.00000   0.00071  -0.00002   0.00000
  88        4S          0.00015  -0.00032  -0.00910  -0.00001  -0.00037
  89        4PX        -0.00005   0.00003  -0.00259  -0.00022  -0.00035
  90        4PY        -0.00037   0.00001   0.00087  -0.00028  -0.00012
  91        4PZ        -0.00008  -0.00013   0.00045  -0.00003  -0.00025
  92        5S         -0.00011  -0.00091   0.00697   0.00129   0.00026
  93        5PX         0.00003   0.00026   0.00202  -0.00004  -0.00069
  94        5PY         0.00033   0.00056   0.00005  -0.00047  -0.00108
  95        5PZ        -0.00014  -0.00031  -0.00047   0.00018   0.00041
  96        6D 0       -0.00000  -0.00000  -0.00034   0.00000   0.00001
  97        6D+1       -0.00001   0.00000  -0.00036  -0.00001  -0.00001
  98        6D-1       -0.00002   0.00000   0.00030  -0.00001  -0.00001
  99        6D+2        0.00001   0.00000  -0.00023  -0.00000  -0.00001
 100        6D-2        0.00000  -0.00001   0.00039   0.00001  -0.00000
 101 7   H  1S          0.00002   0.00001  -0.00001   0.00007   0.00002
 102        2S         -0.00027  -0.00021  -0.00100  -0.00070  -0.00030
 103        3S         -0.00013  -0.00022  -0.00022  -0.00016  -0.00037
 104        4PX         0.00000   0.00001   0.00020  -0.00002   0.00003
 105        4PY        -0.00000  -0.00001  -0.00016  -0.00000  -0.00002
 106        4PZ         0.00003   0.00004   0.00033   0.00011   0.00002
 107 8   H  1S         -0.00000  -0.00000  -0.00001   0.00004  -0.00001
 108        2S          0.00012  -0.00004  -0.00107  -0.00034   0.00008
 109        3S          0.00002   0.00004  -0.00041   0.00031   0.00031
 110        4PX        -0.00004  -0.00001   0.00006  -0.00006  -0.00002
 111        4PY         0.00003  -0.00001  -0.00029  -0.00002   0.00002
 112        4PZ        -0.00002  -0.00001  -0.00010  -0.00006  -0.00001
 113 9   H  1S         -0.00001  -0.00000  -0.00000  -0.00000   0.00000
 114        2S          0.00021   0.00008  -0.00167   0.00015   0.00017
 115        3S         -0.00009  -0.00002   0.00033  -0.00008   0.00032
 116        4PX        -0.00000  -0.00001   0.00006  -0.00000   0.00000
 117        4PY        -0.00002  -0.00001   0.00138  -0.00001  -0.00003
 118        4PZ        -0.00003  -0.00001   0.00085  -0.00004  -0.00003
 119 10  H  1S          0.00001   0.00000  -0.00001  -0.00001  -0.00001
 120        2S         -0.00016   0.00007  -0.00186  -0.00003   0.00009
 121        3S          0.00023   0.00057   0.00105  -0.00046  -0.00078
 122        4PX        -0.00001   0.00003  -0.00110   0.00002   0.00003
 123        4PY        -0.00000   0.00002  -0.00106  -0.00001   0.00000
 124        4PZ         0.00003   0.00000   0.00056   0.00002   0.00003
 125 11  N  1S         -0.00000  -0.00000   0.00016   0.55737  -0.00004
 126        2S          0.00002   0.00004   0.00013   0.46571  -0.00006
 127        2PX         0.00003   0.00004   0.00000  -0.00057   0.00011
 128        2PY         0.00010   0.00008  -0.00000   0.00027   0.00026
 129        2PZ         0.00007   0.00006   0.00000  -0.00008   0.00017
 130        3S         -0.00004  -0.00015   0.00005   0.01608   0.00072
 131        3PX        -0.00017  -0.00014  -0.00001  -0.00001  -0.00021
 132        3PY        -0.00047  -0.00032   0.00001   0.00046  -0.00045
 133        3PZ        -0.00026  -0.00028  -0.00001  -0.00054  -0.00021
 134        4S         -0.00046  -0.00069  -0.00015  -0.01319  -0.00249
 135        4PX         0.00144  -0.00070   0.00016   0.00169   0.00017
 136        4PY         0.00177  -0.00090  -0.00007  -0.00002  -0.00072
 137        4PZ        -0.00193   0.00142   0.00022  -0.00317  -0.00068
 138        5S          0.00393  -0.00352   0.00023   0.00488   0.00860
 139        5PX         0.00029   0.00013   0.00020  -0.00081  -0.00027
 140        5PY         0.00083  -0.00318  -0.00059  -0.00031   0.00353
 141        5PZ        -0.00060   0.00034   0.00028   0.00077  -0.00028
 142        6D 0        0.00001   0.00009  -0.00001   0.00062  -0.00002
 143        6D+1       -0.00006  -0.00010   0.00000   0.00002  -0.00012
 144        6D-1       -0.00021  -0.00009   0.00000  -0.00005  -0.00046
 145        6D+2        0.00001   0.00010  -0.00001  -0.00014   0.00033
 146        6D-2        0.00001  -0.00008  -0.00001   0.00027  -0.00036
 147 12  H  1S          0.00003  -0.00006   0.00004  -0.00003  -0.00003
 148        2S         -0.00025   0.00040  -0.00050  -0.00066   0.00024
 149        3S          0.00037   0.00056  -0.00002  -0.00016   0.00004
 150        4PX        -0.00004  -0.00002   0.00004  -0.00009   0.00002
 151        4PY        -0.00001  -0.00000  -0.00005  -0.00026  -0.00001
 152        4PZ        -0.00003  -0.00000  -0.00006  -0.00012  -0.00000
 153 13  H  1S          0.00008   0.00004   0.00004   0.00001   0.00004
 154        2S         -0.00080  -0.00063  -0.00048  -0.00154  -0.00096
 155        3S          0.00077   0.00057  -0.00003  -0.00013  -0.00188
 156        4PX        -0.00010   0.00005   0.00005  -0.00001  -0.00000
 157        4PY        -0.00009  -0.00008   0.00000  -0.00014  -0.00022
 158        4PZ         0.00006   0.00008   0.00007   0.00032   0.00009
 159 14  H  1S         -0.00002  -0.00003  -0.00000   0.00001  -0.00013
 160        2S         -0.00091   0.00047   0.00015  -0.00229   0.00056
 161        3S         -0.00066   0.00230   0.00017   0.00095  -0.00342
 162        4PX        -0.00005  -0.00005   0.00000  -0.00003   0.00008
 163        4PY         0.00007  -0.00007   0.00001   0.00033   0.00014
 164        4PZ        -0.00015   0.00004   0.00003  -0.00172   0.00013
 165 15  C  1S         -0.00001  -0.00001   0.00000   0.00001   0.56309
 166        2S          0.00005   0.00006  -0.00000   0.00001   0.46339
 167        2PX        -0.00009   0.00021   0.00000  -0.00011  -0.00001
 168        2PY         0.00002   0.00027   0.00001  -0.00032  -0.00022
 169        2PZ         0.00035  -0.00017  -0.00000  -0.00028  -0.00014
 170        3S          0.00042   0.00024   0.00004   0.00023   0.01765
 171        3PX         0.00015  -0.00042  -0.00002   0.00015   0.00009
 172        3PY        -0.00006  -0.00057  -0.00005   0.00066   0.00054
 173        3PZ        -0.00065   0.00028   0.00001   0.00075   0.00054
 174        4S          0.00105   0.00343  -0.00042   0.00271  -0.01059
 175        4PX        -0.00229   0.00309   0.00005  -0.00162   0.00102
 176        4PY        -0.00115   0.00320   0.00016  -0.00301   0.00074
 177        4PZ         0.00659  -0.00504  -0.00029  -0.00076  -0.00034
 178        5S         -0.00660  -0.00237  -0.00056  -0.00013  -0.00857
 179        5PX         0.00185   0.00022   0.00005  -0.00008   0.00129
 180        5PY         0.00116  -0.00062   0.00009  -0.00029   0.00206
 181        5PZ         0.00011   0.00060   0.00026  -0.00023   0.00093
 182        6D 0       -0.00071   0.00022   0.00001   0.00021   0.00103
 183        6D+1        0.00028   0.00037   0.00001  -0.00040  -0.00096
 184        6D-1        0.00006   0.00063   0.00000  -0.00072  -0.00031
 185        6D+2       -0.00021  -0.00005   0.00001   0.00025  -0.00032
 186        6D-2        0.00024  -0.00028  -0.00001  -0.00006   0.00097
 187 16  O  1S          0.55131   0.00410  -0.00000   0.00000  -0.00006
 188        2S          0.46971   0.00354  -0.00000   0.00003  -0.00006
 189        2PX         0.00025   0.00003   0.00001   0.00003   0.00011
 190        2PY        -0.00002   0.00001   0.00000  -0.00001  -0.00001
 191        2PZ        -0.00101  -0.00007  -0.00000  -0.00008  -0.00044
 192        3S          0.01379  -0.00022   0.00001  -0.00008   0.00055
 193        3PX         0.00006  -0.00011  -0.00003  -0.00013  -0.00034
 194        3PY        -0.00008  -0.00001  -0.00001   0.00003   0.00002
 195        3PZ        -0.00057   0.00028   0.00000   0.00038   0.00120
 196        4S         -0.01146   0.00156   0.00008  -0.00082  -0.00310
 197        4PX        -0.00017  -0.00022   0.00010   0.00036  -0.00014
 198        4PY         0.00044  -0.00073   0.00002   0.00051   0.00017
 199        4PZ         0.00212  -0.00070  -0.00006   0.00020   0.00150
 200        5S          0.00307   0.00352   0.00049  -0.00028   0.00495
 201        5PX        -0.00065  -0.00005   0.00003   0.00019   0.00022
 202        5PY        -0.00053  -0.00018  -0.00004   0.00044  -0.00033
 203        5PZ         0.00020  -0.00079  -0.00028   0.00043  -0.00252
 204        6D 0        0.00020  -0.00003   0.00000  -0.00014  -0.00085
 205        6D+1       -0.00009   0.00011  -0.00000  -0.00001   0.00032
 206        6D-1       -0.00001   0.00015  -0.00000  -0.00010  -0.00010
 207        6D+2        0.00002  -0.00003  -0.00000  -0.00002  -0.00001
 208        6D-2       -0.00001  -0.00003  -0.00000   0.00005  -0.00004
 209 17  O  1S         -0.00410   0.55131  -0.00000   0.00000  -0.00006
 210        2S         -0.00345   0.46972  -0.00000   0.00004  -0.00005
 211        2PX        -0.00002  -0.00056  -0.00000  -0.00004  -0.00024
 212        2PY        -0.00003  -0.00069   0.00000  -0.00005  -0.00029
 213        2PZ         0.00004   0.00050   0.00000   0.00003   0.00019
 214        3S         -0.00042   0.01373  -0.00000  -0.00025   0.00050
 215        3PX         0.00012  -0.00034   0.00001   0.00022   0.00063
 216        3PY         0.00018  -0.00039  -0.00001   0.00025   0.00077
 217        3PZ        -0.00016   0.00023  -0.00001  -0.00016  -0.00050
 218        4S          0.00181  -0.01143  -0.00001   0.00030  -0.00305
 219        4PX        -0.00038   0.00131  -0.00004  -0.00009   0.00087
 220        4PY        -0.00092   0.00158  -0.00002   0.00004   0.00115
 221        4PZ        -0.00036  -0.00072   0.00007   0.00046  -0.00076
 222        5S          0.00297   0.00371   0.00015   0.00111   0.00218
 223        5PX        -0.00084  -0.00044   0.00010  -0.00013  -0.00086
 224        5PY        -0.00053  -0.00025  -0.00003   0.00014  -0.00121
 225        5PZ         0.00020  -0.00063  -0.00022   0.00037   0.00045
 226        6D 0       -0.00012  -0.00001   0.00000   0.00009   0.00014
 227        6D+1        0.00011  -0.00011  -0.00000   0.00002   0.00038
 228        6D-1        0.00010  -0.00013  -0.00001   0.00006   0.00045
 229        6D+2       -0.00005  -0.00002  -0.00000   0.00001   0.00014
 230        6D-2        0.00003   0.00013   0.00001  -0.00008  -0.00061
                           6         7         8         9        10
                           O         O         O         O         O
     Eigenvalues --   -10.18689 -10.18309 -10.15434  -1.01705  -0.91957
   1 1   C  1S          0.56303   0.00030  -0.00198  -0.00046   0.00070
   2        2S          0.46329   0.00026  -0.00163  -0.00073   0.00107
   3        2PX        -0.00052   0.00005   0.00034   0.00028  -0.00008
   4        2PY         0.00042   0.00005   0.00033   0.00016  -0.00024
   5        2PZ        -0.00016  -0.00002  -0.00018  -0.00006   0.00009
   6        3S          0.01871   0.00007  -0.00011   0.00244  -0.00250
   7        3PX         0.00082  -0.00028  -0.00067   0.00077  -0.00043
   8        3PY        -0.00190  -0.00025  -0.00096   0.00054  -0.00058
   9        3PZ         0.00071   0.00009   0.00048  -0.00035   0.00012
  10        4S         -0.01466  -0.00224   0.00615  -0.00475  -0.00664
  11        4PX        -0.00092   0.00047   0.00158  -0.00368   0.00009
  12        4PY        -0.00164  -0.00112   0.00169  -0.00142  -0.00182
  13        4PZ         0.00097   0.00031  -0.00083  -0.00163   0.00064
  14        5S         -0.03691  -0.01608  -0.00900  -0.03000  -0.04472
  15        5PX        -0.00322  -0.00113  -0.00161  -0.00304  -0.00403
  16        5PY        -0.00449  -0.00284  -0.00133  -0.00517  -0.00716
  17        5PZ         0.00242   0.00179   0.00048   0.00186   0.00358
  18        6D 0        0.00070   0.00005   0.00028  -0.00014   0.00019
  19        6D+1        0.00020   0.00009   0.00037  -0.00016   0.00001
  20        6D-1        0.00035   0.00005   0.00032  -0.00007   0.00002
  21        6D+2       -0.00071  -0.00004  -0.00012   0.00012  -0.00012
  22        6D-2        0.00011  -0.00016  -0.00056   0.00004  -0.00007
  23 2   C  1S          0.00195   0.00209   0.56295  -0.00235   0.00148
  24        2S          0.00161   0.00173   0.46325  -0.00360   0.00225
  25        2PX        -0.00036   0.00039  -0.00003   0.00208  -0.00095
  26        2PY        -0.00034  -0.00027  -0.00019  -0.00006   0.00004
  27        2PZ         0.00020   0.00008   0.00010   0.00020  -0.00047
  28        3S          0.00013  -0.00005   0.01937   0.00857  -0.00584
  29        3PX         0.00082  -0.00083  -0.00020   0.00429  -0.00074
  30        3PY         0.00099   0.00080   0.00162  -0.00077   0.00088
  31        3PZ        -0.00055  -0.00026  -0.00071   0.00041  -0.00042
  32        4S          0.00449   0.00661  -0.01854   0.01087   0.00480
  33        4PX        -0.00205   0.00203  -0.00125   0.00219  -0.00296
  34        4PY        -0.00117  -0.00099   0.00242  -0.00155  -0.00018
  35        4PZ         0.00073   0.00082  -0.00149   0.00622   0.00286
  36        5S          0.03359   0.03957  -0.00532  -0.06642   0.07190
  37        5PX        -0.00660   0.00103  -0.00553  -0.03988  -0.01215
  38        5PY        -0.00620  -0.00584  -0.00207  -0.00200  -0.01169
  39        5PZ         0.00333   0.00261   0.00145   0.00220   0.00904
  40        6D 0        0.00028   0.00035   0.00066  -0.00079   0.00017
  41        6D+1        0.00036  -0.00016   0.00018   0.00023  -0.00011
  42        6D-1        0.00034   0.00014   0.00032   0.00014   0.00007
  43        6D+2       -0.00011  -0.00033  -0.00063   0.00088  -0.00037
  44        6D-2       -0.00061   0.00057  -0.00002  -0.00051   0.00037
  45 3   C  1S         -0.00030   0.56302  -0.00212  -0.00969   0.00371
  46        2S         -0.00024   0.46324  -0.00174  -0.01488   0.00562
  47        2PX        -0.00007   0.00033  -0.00042   0.00697  -0.00173
  48        2PY         0.00002   0.00049   0.00027   0.00641  -0.00212
  49        2PZ        -0.00001  -0.00035  -0.00007  -0.00151  -0.00125
  50        3S         -0.00002   0.01920  -0.00017   0.03863  -0.01306
  51        3PX         0.00036   0.00016   0.00092   0.01153  -0.00217
  52        3PY        -0.00012  -0.00178  -0.00080   0.01210  -0.00250
  53        3PZ         0.00003   0.00105   0.00025  -0.00286  -0.00198
  54        4S         -0.00085  -0.01495   0.00690  -0.00269   0.00093
  55        4PX        -0.00043   0.00196  -0.00266  -0.00237   0.00567
  56        4PY        -0.00087  -0.00235   0.00186  -0.00476  -0.00652
  57        4PZ         0.00050  -0.00003   0.00008  -0.00228  -0.00566
  58        5S         -0.00822  -0.03796   0.01216   0.10408  -0.01938
  59        5PX         0.00059   0.00393  -0.00145  -0.01284   0.01424
  60        5PY        -0.00208  -0.00536   0.00281   0.02010  -0.00434
  61        5PZ         0.00077   0.00101  -0.00047  -0.00404  -0.00067
  62        6D 0        0.00008   0.00074   0.00042  -0.00204   0.00010
  63        6D+1       -0.00005   0.00025  -0.00014  -0.00108  -0.00021
  64        6D-1       -0.00001   0.00037   0.00008  -0.00080  -0.00026
  65        6D+2       -0.00009  -0.00059  -0.00031   0.00044   0.00001
  66        6D-2        0.00015  -0.00017   0.00050   0.00386  -0.00091
  67 4   H  1S         -0.00011  -0.00009   0.00009   0.00170  -0.00106
  68        2S         -0.00063  -0.00087  -0.00251   0.00036  -0.00277
  69        3S         -0.00080  -0.00093   0.00402   0.00177  -0.00590
  70        4PX        -0.00003   0.00006   0.00001   0.00042  -0.00038
  71        4PY         0.00023   0.00028   0.00174  -0.00016   0.00058
  72        4PZ         0.00019   0.00018   0.00117  -0.00026   0.00005
  73 5   H  1S         -0.00011  -0.00011   0.00009   0.00103  -0.00070
  74        2S         -0.00063  -0.00058  -0.00258   0.00256   0.00004
  75        3S         -0.00080  -0.00103   0.00378   0.00556  -0.00230
  76        4PX        -0.00007  -0.00002  -0.00026   0.00031   0.00009
  77        4PY         0.00001   0.00002   0.00025  -0.00007   0.00001
  78        4PZ        -0.00029  -0.00029  -0.00207   0.00059  -0.00017
  79 6   N  1S         -0.00003   0.00000   0.00000  -0.00017   0.00063
  80        2S         -0.00005   0.00001   0.00000  -0.00027   0.00098
  81        2PX         0.00021   0.00003   0.00002   0.00010  -0.00019
  82        2PY        -0.00011  -0.00001  -0.00003  -0.00001   0.00006
  83        2PZ         0.00005  -0.00000   0.00002   0.00004  -0.00021
  84        3S          0.00042  -0.00018   0.00015   0.00059  -0.00278
  85        3PX        -0.00017  -0.00014  -0.00007   0.00016  -0.00028
  86        3PY         0.00008   0.00007   0.00012  -0.00010   0.00018
  87        3PZ        -0.00012   0.00001  -0.00006   0.00011  -0.00031
  88        4S          0.00019   0.00115  -0.00161   0.00101  -0.00014
  89        4PX         0.00044   0.00078  -0.00068   0.00037  -0.00008
  90        4PY        -0.00020  -0.00014   0.00028   0.00094  -0.00075
  91        4PZ        -0.00006   0.00025  -0.00009   0.00034   0.00012
  92        5S          0.01226   0.00336   0.00127   0.00089   0.00198
  93        5PX         0.00069  -0.00018   0.00016  -0.00041  -0.00145
  94        5PY        -0.00204  -0.00040   0.00014  -0.00115  -0.00182
  95        5PZ         0.00157   0.00016   0.00036   0.00143   0.00056
  96        6D 0        0.00018  -0.00002   0.00004  -0.00002   0.00004
  97        6D+1       -0.00012  -0.00001  -0.00001   0.00002  -0.00003
  98        6D-1        0.00002   0.00003   0.00001   0.00004  -0.00003
  99        6D+2       -0.00013  -0.00000  -0.00005   0.00002  -0.00002
 100        6D-2        0.00027   0.00002   0.00009  -0.00001   0.00004
 101 7   H  1S          0.00009   0.00002  -0.00006   0.00015  -0.00038
 102        2S         -0.00282  -0.00014  -0.00097   0.00188  -0.00049
 103        3S          0.00390  -0.00043   0.00073   0.00084   0.00088
 104        4PX         0.00032  -0.00010   0.00013   0.00001  -0.00002
 105        4PY        -0.00029   0.00003  -0.00001   0.00004   0.00001
 106        4PZ         0.00206   0.00008   0.00028  -0.00025   0.00007
 107 8   H  1S          0.00006   0.00003  -0.00007   0.00019  -0.00034
 108        2S         -0.00286  -0.00028  -0.00098   0.00067  -0.00025
 109        3S          0.00405  -0.00029   0.00093  -0.00030  -0.00008
 110        4PX        -0.00003  -0.00010   0.00007   0.00015  -0.00006
 111        4PY        -0.00179  -0.00005  -0.00023   0.00010  -0.00006
 112        4PZ        -0.00121  -0.00006  -0.00020   0.00013  -0.00007
 113 9   H  1S         -0.00014   0.00001   0.00000   0.00013  -0.00046
 114        2S          0.00054  -0.00028   0.00010  -0.00045  -0.00042
 115        3S         -0.00112  -0.00007  -0.00070  -0.00019   0.00059
 116        4PX         0.00016  -0.00002  -0.00006   0.00003   0.00000
 117        4PY        -0.00015   0.00005  -0.00000   0.00004   0.00011
 118        4PZ        -0.00002   0.00002   0.00001   0.00007   0.00002
 119 10  H  1S         -0.00014  -0.00002  -0.00005   0.00008  -0.00041
 120        2S          0.00048  -0.00002   0.00040   0.00028  -0.00091
 121        3S         -0.00339  -0.00064  -0.00027  -0.00140  -0.00116
 122        4PX         0.00002  -0.00006   0.00013  -0.00004  -0.00017
 123        4PY        -0.00003  -0.00001  -0.00001  -0.00000  -0.00010
 124        4PZ         0.00002  -0.00002  -0.00001  -0.00007   0.00007
 125 11  N  1S          0.00000  -0.00003   0.00000  -0.03353  -0.00106
 126        2S          0.00001  -0.00006  -0.00000  -0.05259  -0.00168
 127        2PX        -0.00002  -0.00019  -0.00003   0.00203   0.00640
 128        2PY        -0.00001  -0.00015  -0.00002   0.01669   0.00608
 129        2PZ         0.00001   0.00008   0.00003   0.00911  -0.01017
 130        3S         -0.00011   0.00048   0.00014   0.14316   0.00460
 131        3PX         0.00009   0.00015   0.00012   0.00397   0.00924
 132        3PY         0.00004   0.00010   0.00008   0.02872   0.00852
 133        3PZ        -0.00006  -0.00006  -0.00011   0.01740  -0.01499
 134        4S          0.00072   0.00034  -0.00110   0.09079   0.00430
 135        4PX        -0.00036   0.00019   0.00097  -0.00564   0.01114
 136        4PY         0.00007   0.00100   0.00057   0.00281   0.01309
 137        4PZ        -0.00007  -0.00136  -0.00030   0.00839  -0.01568
 138        5S          0.00525   0.00880   0.00173  -0.02932   0.02567
 139        5PX        -0.00158  -0.00437  -0.00112   0.00156  -0.00038
 140        5PY         0.00018  -0.00290   0.00020   0.00449   0.01558
 141        5PZ        -0.00068  -0.00109   0.00124  -0.00540  -0.00170
 142        6D 0        0.00003   0.00020   0.00003   0.00007  -0.00274
 143        6D+1        0.00001   0.00020   0.00007   0.00085   0.00043
 144        6D-1        0.00001   0.00014   0.00001   0.00404  -0.00203
 145        6D+2        0.00000  -0.00009  -0.00006  -0.00255  -0.00131
 146        6D-2       -0.00001  -0.00034  -0.00010   0.00385   0.00203
 147 12  H  1S          0.00002   0.00010  -0.00009   0.00331  -0.00097
 148        2S         -0.00022  -0.00297  -0.00071   0.00498  -0.00447
 149        3S         -0.00090   0.00304   0.00013  -0.00247  -0.00205
 150        4PX         0.00009  -0.00002  -0.00006   0.00047  -0.00015
 151        4PY        -0.00003  -0.00176  -0.00021   0.00141  -0.00038
 152        4PZ        -0.00008  -0.00121  -0.00015   0.00065  -0.00034
 153 13  H  1S          0.00003   0.00007  -0.00004   0.00479  -0.00348
 154        2S         -0.00034  -0.00290  -0.00123   0.01044  -0.00394
 155        3S         -0.00061   0.00538  -0.00062  -0.00418   0.00058
 156        4PX         0.00011   0.00026  -0.00002   0.00020  -0.00059
 157        4PY         0.00004  -0.00023  -0.00008   0.00099  -0.00051
 158        4PZ         0.00008   0.00215   0.00033  -0.00160   0.00034
 159 14  H  1S          0.00001  -0.00006   0.00004   0.01953   0.00696
 160        2S         -0.00026  -0.00076  -0.00025   0.01934   0.00210
 161        3S         -0.00120  -0.00104  -0.00037  -0.00655  -0.00971
 162        4PX         0.00005  -0.00009   0.00006   0.00038   0.00042
 163        4PY        -0.00000  -0.00004   0.00001   0.00033   0.00076
 164        4PZ        -0.00006  -0.00010  -0.00007   0.00590   0.00090
 165 15  C  1S          0.00000   0.00003  -0.00000  -0.07923  -0.00123
 166        2S          0.00000   0.00007  -0.00002  -0.12122  -0.00196
 167        2PX        -0.00001  -0.00001  -0.00001   0.00942   0.05649
 168        2PY        -0.00001  -0.00005   0.00001   0.02093   0.04656
 169        2PZ        -0.00000  -0.00000  -0.00001   0.01681  -0.10664
 170        3S          0.00001  -0.00036   0.00022   0.32598   0.00599
 171        3PX         0.00004   0.00008  -0.00004   0.01182   0.07502
 172        3PY         0.00003   0.00026  -0.00006   0.02595   0.06212
 173        3PZ         0.00003   0.00010   0.00006   0.02007  -0.14088
 174        4S         -0.00038  -0.00071  -0.00069   0.08518  -0.00808
 175        4PX        -0.00001  -0.00245   0.00002  -0.00205  -0.00188
 176        4PY        -0.00007  -0.00305   0.00031  -0.00485  -0.00075
 177        4PZ         0.00063   0.00369   0.00105  -0.00580   0.00961
 178        5S          0.00304   0.00490   0.00034   0.03892  -0.01403
 179        5PX        -0.00087  -0.00049   0.00013  -0.00716   0.00870
 180        5PY        -0.00048  -0.00167   0.00056  -0.00154   0.00946
 181        5PZ        -0.00051  -0.00043  -0.00095  -0.00248  -0.00786
 182        6D 0        0.00001   0.00006   0.00003   0.01499  -0.01989
 183        6D+1       -0.00003  -0.00007   0.00000  -0.01472  -0.00190
 184        6D-1        0.00001   0.00005  -0.00002  -0.00670  -0.01187
 185        6D+2       -0.00000   0.00003  -0.00002  -0.00291  -0.00334
 186        6D-2       -0.00003   0.00003  -0.00005   0.01353   0.01253
 187 16  O  1S          0.00000   0.00000  -0.00000  -0.06769   0.08098
 188        2S          0.00000  -0.00001  -0.00001  -0.10801   0.12955
 189        2PX        -0.00001  -0.00003   0.00001   0.01184  -0.00710
 190        2PY         0.00000  -0.00003   0.00001  -0.00043   0.00644
 191        2PZ        -0.00000  -0.00003   0.00000  -0.04829   0.04461
 192        3S         -0.00000   0.00015   0.00010   0.30885  -0.37176
 193        3PX         0.00004   0.00010  -0.00006   0.01827  -0.01017
 194        3PY        -0.00000   0.00009  -0.00005   0.00009   0.01005
 195        3PZ         0.00000   0.00011  -0.00002  -0.07188   0.06583
 196        4S         -0.00013  -0.00197  -0.00028   0.21326  -0.28486
 197        4PX        -0.00012  -0.00010   0.00010   0.00595  -0.00139
 198        4PY         0.00002   0.00023   0.00016   0.00010   0.00845
 199        4PZ         0.00008   0.00043   0.00024  -0.02498   0.02740
 200        5S         -0.00090  -0.00134  -0.00223  -0.02052   0.00165
 201        5PX         0.00023  -0.00040   0.00019   0.00221  -0.00293
 202        5PY         0.00000   0.00011   0.00027   0.00199  -0.00356
 203        5PZ         0.00029   0.00077   0.00095   0.00257   0.00079
 204        6D 0       -0.00001  -0.00001  -0.00001   0.00936  -0.00997
 205        6D+1        0.00000  -0.00001  -0.00000  -0.00445   0.00247
 206        6D-1        0.00000  -0.00001  -0.00001  -0.00060  -0.00275
 207        6D+2       -0.00000   0.00000  -0.00001   0.00089  -0.00032
 208        6D-2        0.00000   0.00003  -0.00002  -0.00046   0.00118
 209 17  O  1S          0.00000   0.00000   0.00000  -0.06527  -0.08295
 210        2S          0.00001   0.00003   0.00001  -0.10415  -0.13270
 211        2PX         0.00000  -0.00001   0.00000  -0.02636  -0.02633
 212        2PY        -0.00000  -0.00002   0.00001  -0.03172  -0.03441
 213        2PZ        -0.00001   0.00002  -0.00001   0.02460   0.01764
 214        3S         -0.00007  -0.00034  -0.00007   0.29798   0.38086
 215        3PX         0.00000   0.00006  -0.00001  -0.03912  -0.03896
 216        3PY         0.00001   0.00011  -0.00003  -0.04692  -0.05122
 217        3PZ         0.00002  -0.00008   0.00004   0.03745   0.02553
 218        4S          0.00041   0.00232   0.00049   0.20438   0.29234
 219        4PX        -0.00010  -0.00063  -0.00008  -0.01399  -0.01695
 220        4PY        -0.00010  -0.00082  -0.00008  -0.01575  -0.02388
 221        4PZ        -0.00006   0.00045  -0.00007   0.01324   0.00629
 222        5S         -0.00059   0.00444  -0.00034  -0.02381  -0.00633
 223        5PX         0.00024  -0.00085  -0.00013   0.00547   0.00041
 224        5PY         0.00008  -0.00101  -0.00029   0.00369   0.00197
 225        5PZ         0.00021   0.00058   0.00021   0.00005   0.00332
 226        6D 0       -0.00001  -0.00002  -0.00001  -0.00079  -0.00385
 227        6D+1       -0.00000  -0.00001  -0.00000  -0.00515  -0.00373
 228        6D-1        0.00000  -0.00000  -0.00001  -0.00641  -0.00548
 229        6D+2       -0.00000   0.00001  -0.00000  -0.00074  -0.00197
 230        6D-2        0.00000   0.00000   0.00001   0.00566   0.00749
                          11        12        13        14        15
                           O         O         O         O         O
     Eigenvalues --    -0.88254  -0.87265  -0.74897  -0.64892  -0.58759
   1 1   C  1S         -0.05040   0.02517  -0.04103   0.06284   0.05188
   2        2S         -0.07772   0.03884  -0.06356   0.09793   0.08111
   3        2PX        -0.02531   0.02266   0.04713  -0.01530   0.02183
   4        2PY         0.01751  -0.00905   0.00555   0.00864   0.05968
   5        2PZ        -0.00507   0.00158  -0.00871   0.00228  -0.01962
   6        3S          0.20326  -0.10203   0.16842  -0.26606  -0.22247
   7        3PX        -0.04215   0.03774   0.07237  -0.02043   0.03714
   8        3PY         0.03365  -0.01676   0.01306   0.00745   0.08477
   9        3PZ        -0.01003   0.00309  -0.01559   0.00575  -0.02789
  10        4S          0.07736  -0.03689   0.10026  -0.17337  -0.14662
  11        4PX        -0.00729   0.00631   0.01976  -0.00445   0.01343
  12        4PY         0.00246  -0.00091   0.00335   0.00621   0.05099
  13        4PZ         0.00396  -0.00385  -0.00168  -0.00533  -0.01864
  14        5S          0.12531   0.06235   0.11289  -0.06739  -0.08275
  15        5PX         0.01043   0.00779   0.01433  -0.00419  -0.00321
  16        5PY         0.01786   0.00942   0.01511  -0.00843  -0.00752
  17        5PZ        -0.01013  -0.00681  -0.00450  -0.00135   0.00622
  18        6D 0       -0.00881   0.00465  -0.00028  -0.00214  -0.00427
  19        6D+1        0.00072  -0.00153  -0.00410  -0.00062  -0.00534
  20        6D-1       -0.00188   0.00059  -0.00263   0.00080  -0.00567
  21        6D+2        0.00826  -0.00420  -0.00115   0.00436  -0.00102
  22        6D-2       -0.00777   0.00660   0.01026  -0.00319   0.00550
  23 2   C  1S         -0.02844  -0.00649  -0.07928   0.00929  -0.06325
  24        2S         -0.04376  -0.01002  -0.12265   0.01439  -0.09867
  25        2PX        -0.00453   0.01899   0.00215   0.05828   0.00234
  26        2PY        -0.00694   0.00005  -0.01618   0.00338   0.05438
  27        2PZ         0.00395  -0.00194   0.00710  -0.00657  -0.02114
  28        3S          0.11139   0.02588   0.32165  -0.03783   0.26695
  29        3PX        -0.00740   0.03265   0.00473   0.09074   0.00491
  30        3PY        -0.01549  -0.00081  -0.03101   0.00558   0.07715
  31        3PZ         0.00835  -0.00256   0.01386  -0.01046  -0.02971
  32        4S          0.06779   0.01084   0.18224  -0.03347   0.17076
  33        4PX        -0.00156   0.01271   0.00115   0.03177  -0.00268
  34        4PY        -0.00853   0.00179  -0.01004   0.00579   0.04535
  35        4PZ         0.00316   0.00080   0.00381  -0.00276  -0.01706
  36        5S         -0.14581  -0.05317  -0.11545  -0.04849   0.06855
  37        5PX         0.00528   0.04401   0.02047  -0.02712  -0.02804
  38        5PY         0.02793   0.01520   0.02971   0.00622  -0.00463
  39        5PZ        -0.01344  -0.00934  -0.01690   0.00300   0.00135
  40        6D 0       -0.00366  -0.00130  -0.00345  -0.00147   0.00593
  41        6D+1       -0.00194   0.00179  -0.00064   0.00531   0.00206
  42        6D-1       -0.00147   0.00047  -0.00283   0.00215   0.00498
  43        6D+2        0.00442   0.00197   0.00097   0.00365  -0.00263
  44        6D-2        0.00183  -0.00442  -0.00023  -0.01319  -0.00258
  45 3   C  1S         -0.03107  -0.04391  -0.04424  -0.07083   0.03247
  46        2S         -0.04788  -0.06768  -0.06854  -0.11033   0.05072
  47        2PX         0.00787   0.02622  -0.04332   0.00889  -0.04505
  48        2PY         0.01221   0.02051  -0.00254  -0.01414   0.03980
  49        2PZ        -0.00639  -0.01164   0.00348   0.00177  -0.00950
  50        3S          0.12520   0.17695   0.18176   0.29957  -0.13967
  51        3PX         0.01116   0.04075  -0.06767   0.01481  -0.07089
  52        3PY         0.02261   0.03598   0.00105  -0.01487   0.05611
  53        3PZ        -0.01150  -0.02032   0.00322  -0.00082  -0.01231
  54        4S          0.04181   0.06561   0.10412   0.19490  -0.07824
  55        4PX         0.00044   0.00252  -0.02071  -0.00099  -0.02348
  56        4PY         0.00012   0.00255  -0.00280  -0.00969   0.03517
  57        4PZ        -0.00241  -0.00548  -0.00008  -0.00043  -0.01174
  58        5S          0.07833   0.00967   0.05996   0.14498  -0.02205
  59        5PX        -0.00545   0.00437  -0.00366  -0.01358  -0.00677
  60        5PY         0.01163   0.00187   0.00610   0.02031  -0.00485
  61        5PZ        -0.00358  -0.00005  -0.00425  -0.00468   0.00104
  62        6D 0       -0.00391  -0.00485  -0.00237   0.00236  -0.00444
  63        6D+1       -0.00301  -0.00569   0.00329  -0.00037   0.00451
  64        6D-1       -0.00271  -0.00479   0.00094   0.00063  -0.00222
  65        6D+2        0.00307   0.00248   0.00426  -0.00159   0.00052
  66        6D-2        0.00451   0.01026  -0.00918  -0.00022  -0.00979
  67 4   H  1S          0.01614   0.00373   0.05124  -0.00787   0.08062
  68        2S          0.01873   0.00311   0.05942  -0.00956   0.09998
  69        3S          0.00308   0.00136  -0.00270  -0.00167   0.00836
  70        4PX        -0.00055   0.00123   0.00002   0.00254  -0.00031
  71        4PY        -0.00403  -0.00074  -0.01037   0.00128  -0.00950
  72        4PZ        -0.00218  -0.00069  -0.00505   0.00040  -0.00779
  73 5   H  1S          0.01594   0.00371   0.05157  -0.00840   0.07574
  74        2S          0.01781   0.00544   0.06019  -0.01004   0.09477
  75        3S          0.00182   0.00161  -0.00463   0.00273   0.00523
  76        4PX         0.00038   0.00139   0.00174   0.00252   0.00239
  77        4PY        -0.00085  -0.00024  -0.00294   0.00035   0.00011
  78        4PZ         0.00438   0.00099   0.01102  -0.00179   0.01163
  79 6   N  1S         -0.08394   0.05429   0.03825  -0.02840  -0.01398
  80        2S         -0.13183   0.08530   0.06037  -0.04495  -0.02217
  81        2PX         0.01250  -0.00570   0.02561  -0.05324  -0.03237
  82        2PY        -0.00866   0.00527  -0.00357   0.02161   0.05135
  83        2PZ         0.02968  -0.01969  -0.01914   0.01913   0.00877
  84        3S          0.36107  -0.23419  -0.16903   0.12696   0.06300
  85        3PX         0.02266  -0.01108   0.03741  -0.07895  -0.04826
  86        3PY        -0.01508   0.00914  -0.00497   0.03221   0.07566
  87        3PZ         0.04570  -0.03014  -0.02856   0.02799   0.01235
  88        4S          0.25064  -0.16275  -0.12549   0.10376   0.04620
  89        4PX         0.01495  -0.00669   0.01649  -0.03899  -0.02730
  90        4PY        -0.00699   0.00520  -0.00051   0.01666   0.04598
  91        4PZ         0.01653  -0.01120  -0.01222   0.01350   0.00325
  92        5S         -0.03141   0.00501  -0.03992   0.05840   0.02291
  93        5PX        -0.01305   0.01195   0.00153   0.00367  -0.00504
  94        5PY         0.00297   0.00417   0.00039  -0.00404  -0.00677
  95        5PZ         0.00144  -0.00393  -0.00812   0.01078   0.00600
  96        6D 0       -0.00509   0.00302  -0.00019   0.00186   0.00149
  97        6D+1       -0.00009   0.00026   0.00263  -0.00516  -0.00387
  98        6D-1        0.00109  -0.00066  -0.00105   0.00299   0.00608
  99        6D+2        0.00158  -0.00059   0.00305  -0.00410  -0.00118
 100        6D-2       -0.00137   0.00062  -0.00270   0.00614   0.00610
 101 7   H  1S          0.02526  -0.01224   0.02901  -0.05169  -0.06398
 102        2S          0.03118  -0.01464   0.03268  -0.06073  -0.07947
 103        3S         -0.00893   0.00460  -0.00535   0.00110  -0.00704
 104        4PX        -0.00175   0.00126   0.00119   0.00077   0.00221
 105        4PY         0.00200  -0.00101   0.00149  -0.00151   0.00058
 106        4PZ        -0.00725   0.00348  -0.00606   0.00932   0.00970
 107 8   H  1S          0.02532  -0.01228   0.02989  -0.05591  -0.07360
 108        2S          0.03367  -0.01632   0.03482  -0.06811  -0.09118
 109        3S         -0.00639   0.00154  -0.00371  -0.00396  -0.00702
 110        4PX        -0.00069   0.00079   0.00221  -0.00095   0.00040
 111        4PY         0.00700  -0.00348   0.00566  -0.00877  -0.00799
 112        4PZ         0.00334  -0.00163   0.00252  -0.00495  -0.00724
 113 9   H  1S          0.06520  -0.04281  -0.03936   0.04585   0.04998
 114        2S          0.06105  -0.04091  -0.04289   0.05278   0.06068
 115        3S         -0.00269   0.00190   0.00837  -0.00519   0.00950
 116        4PX         0.00160  -0.00093   0.00125  -0.00305  -0.00104
 117        4PY        -0.01338   0.00880   0.00742  -0.00686  -0.00539
 118        4PZ        -0.00608   0.00405   0.00338  -0.00357  -0.00438
 119 10  H  1S          0.06432  -0.04283  -0.04523   0.04745   0.01117
 120        2S          0.06148  -0.04117  -0.04740   0.05522   0.01767
 121        3S         -0.00440   0.00957   0.00938  -0.00699  -0.00561
 122        4PX         0.01192  -0.00774  -0.00582   0.00384  -0.00111
 123        4PY         0.00816  -0.00538  -0.00599   0.00733   0.00518
 124        4PZ        -0.00333   0.00213   0.00194  -0.00189  -0.00026
 125 11  N  1S         -0.04555  -0.08385   0.03635   0.02278  -0.00001
 126        2S         -0.07157  -0.13185   0.05747   0.03612   0.00002
 127        2PX        -0.01307  -0.02039  -0.01905  -0.05124   0.02122
 128        2PY         0.00074   0.00377  -0.02472  -0.06590   0.05031
 129        2PZ        -0.00074  -0.00177   0.00723   0.01475  -0.00730
 130        3S          0.19545   0.36163  -0.16200  -0.10261  -0.00056
 131        3PX        -0.02103  -0.03324  -0.02802  -0.07655   0.03134
 132        3PY         0.00046   0.00461  -0.03717  -0.09856   0.07445
 133        3PZ        -0.00029  -0.00105   0.00980   0.02149  -0.01123
 134        4S          0.14686   0.26581  -0.11842  -0.08469  -0.00489
 135        4PX        -0.01337  -0.01874  -0.01483  -0.03986   0.01999
 136        4PY        -0.00022   0.00119  -0.01604  -0.05261   0.05039
 137        4PZ         0.00377   0.00760   0.00378   0.01138  -0.00566
 138        5S         -0.02284  -0.04362  -0.00928  -0.04654   0.02514
 139        5PX         0.00864   0.01494   0.01165   0.01532  -0.00632
 140        5PY         0.00393  -0.00229   0.00628   0.00596  -0.00299
 141        5PZ        -0.00310  -0.00587   0.01089   0.00972   0.00191
 142        6D 0        0.00083   0.00193  -0.00351  -0.00466   0.00065
 143        6D+1       -0.00123  -0.00186  -0.00160  -0.00403   0.00211
 144        6D-1        0.00001   0.00030  -0.00193  -0.00462   0.00323
 145        6D+2        0.00040  -0.00010   0.00398   0.00544  -0.00064
 146        6D-2        0.00433   0.00750  -0.00073   0.00300  -0.00349
 147 12  H  1S          0.01602   0.02209   0.03222   0.06396  -0.04894
 148        2S          0.02013   0.02733   0.03597   0.07668  -0.06196
 149        3S         -0.00220  -0.00316  -0.00381   0.00043  -0.00971
 150        4PX         0.00014   0.00085  -0.00217  -0.00007  -0.00151
 151        4PY         0.00426   0.00596   0.00549   0.00940  -0.00534
 152        4PZ         0.00208   0.00273   0.00348   0.00633  -0.00494
 153 13  H  1S          0.01563   0.02147   0.03129   0.06013  -0.04415
 154        2S          0.02052   0.02776   0.03641   0.07332  -0.05549
 155        3S         -0.00181  -0.00143  -0.00553  -0.00437  -0.00573
 156        4PX        -0.00057  -0.00013  -0.00288  -0.00128  -0.00069
[...]
 816,11.9223993,8.3242453,-1.6744753,-1.6155624,1.1246159,-0.3982811,-1
 .262737,-4.8014009,-0.9439139,8.7374826,0.1712656,2.2902267,3.2280228,
 0.577162,0.059888,4.8038318,-1.7245141,7.3687313,-8.0239043,1.0384059,
 1.621559,-0.0365634,1.6954044,0.1235337,-0.0663895,1.3856285,-0.306656
 2,9.929097,-0.0737716,2.8682805,2.1045847,3.3097401,0.2630074,4.646016
 4,-0.4118228,3.1977024,1.5615715,-0.6987575,-0.1611681,-0.4027303,-1.8
 754329,0.4390366,-1.2310032,-1.479326,-0.4811099,1.6309045,0.2353033,-
 1.4830206,1.0941693,-2.7574109,0.1077194,-1.6622293,-1.3055549,3.13453
 66,-12.5277254,-2.546577,3.8194229,2.3354727,-3.3043516,-1.6059271,1.8
 075938,5.7127009,1.5449628,-2.388152,-1.3007858,-5.1213418,-2.5728806,
 -6.0342689,-0.6580823,-5.1762429,0.8636773,-2.5902191,1.1971215,2.5731
 382,-0.295524,0.6943365,2.6389414,-0.9930073,1.8615404,0.9781615,0.924
 2317,-2.4268054,-0.4205336,2.273819,-1.3410775,3.5251367,-1.2105092,2.
 1840441,2.4497313,-4.7641883,12.7381227,0.0218546,-1.5123764,0.1670767
 ,-1.3093935,-0.1288971,-0.271603,-1.0919396,-0.7480114,-10.9253156,-0.
 0974177,-3.2645177,-1.5530562,-2.2289216,-0.4494598,-4.7108604,0.39571
 02,-3.6886274,-1.7307184,0.1787964,1.5099075,-0.1388564,0.5161454,-0.3
 3653,-0.6435292,1.9678253,-1.9424658,7.6469494,-0.9845021,3.7019427,4.
 0352749,1.486225,-1.081439,4.033703,-1.2950301,2.5349088,0.4381599,-10
 .9719304,-3.7337784,-2.2678963,2.9913013,1.5430555,-2.1293756,-5.97153
 49,-3.1799775,-3.4054251,1.7104706,1.0627383,-1.3049442,3.6713518,1.32
 03784,0.6808385,-1.8365514,-0.0910161,-0.8344114,1.9893464,-1.3074586,
 0.5607967,-2.9692113,0.6850079,0.0424616,-1.0116749,2.7012051,-3.23933
 71,2.284506,0.1584353,-3.7407807,-0.3735842,3.0052346,-0.1260991,0.976
 4377,-1.5769754,8.4337478,-0.8845354,-1.9370465,-0.6075425,-1.2173846,
 -0.0980434,0.3537405,-1.2639972,-0.4547629,-12.7597604,0.015853,-3.590
 5623,-1.8478892,-2.7617038,-0.8757994,-5.8091623,0.2664377,-3.6962567,
 -2.3934634,0.6272729,0.3036331,1.0146703,1.8744959,0.1113508,0.6404954
 ,1.3978194,1.166999,-1.6587425,0.0623768,2.056058,-1.7224559,2.9894615
 ,0.3352216,2.7487644,1.4867461,-3.5379648,9.5559189,0.4597781,0.279334
 5,0.4309203,-0.5816609,-0.5544471,0.0170251,-0.1912797,0.0878184,-0.25
 20303,-0.9898643,-0.9442548,1.3956265,-2.3844452,-1.4129055,-2.6447994
 ,0.6332709,-0.3235975,-12.7683404,0.8517616,-2.4830917,-0.1759652,0.61
 28014,1.8011911,0.3303103,0.1177871,-3.4889804,-0.3995312,0.7946415,1.
 0320156,-0.2398461,1.7906739,-0.836099,1.1789686,-0.3194801,-0.9186739
 ,-6.9326363,-2.8646151,0.3688573,-1.7910866,3.8069219,-2.065332,-1.552
 2424,0.0546172,-0.6090481,-0.1990468,-1.5657584,2.4002409,-0.2581501,3
 .5711847,2.7748611,5.5578667,0.2036655,1.3739311,15.4126085,8.0629669,
 5.6831959,2.5629229,-2.3420189,0.2568311,2.2118927,2.5488666,5.0162699
 ,9.6769996,-0.5605301,-2.7461828,3.0838086,-2.7094028,-2.3648219,-4.57
 7318,2.024779,2.3839401,-4.5184853\HyperPolar=-100.3855691,-87.3355622
 ,-9.8691842,-14.2743007,51.189976,82.5266251,74.0450024,24.5236242,-21
 .2596899,-116.7926458\Quadrupole=14.0950863,-27.5627147,13.4676283,-10
 .9461851,-6.0788423,-5.0558821\PG=C01 [X(C4H9N2O2)]\NImag=0\\0.4513882
 9,0.00662417,0.55500075,0.00800637,0.03508830,0.55807719,-0.12592365,-
 0.04081484,0.02530044,0.44874666,-0.05361205,-0.12441130,0.02565464,0.
 00017745,0.54168114,0.02910194,0.02451231,-0.09367034,0.01475271,0.020
 22416,0.57615872,-0.02631284,0.00443735,0.00008379,-0.13931349,0.04812
 577,-0.01798899,0.43432629,-0.01507123,0.01051295,-0.00496853,0.043861
 13,-0.10581732,0.00915671,0.00920308,0.54135480,0.00893731,-0.00654598
 ,-0.00004283,-0.01438825,0.00866337,-0.08328527,0.01292710,0.02808209,
 0.60783673,-0.00231875,-0.02371910,-0.01280673,-0.04549801,-0.00073355
 ,0.00048329,-0.00307405,0.02832239,0.01536163,0.05387003,-0.00042394,-
 0.01874109,-0.00954052,0.00080748,-0.23568820,-0.10669088,0.00086861,-
 0.01516072,-0.00746245,0.00051405,0.26066870,0.00053101,0.01145148,0.0
 0556199,0.00087277,-0.10851447,-0.11164246,-0.00012667,0.00398813,0.00
 189687,-0.00163289,0.11761910,0.11640195,0.00153177,-0.00519757,0.0258
 4361,-0.05067506,0.00619036,-0.03547605,-0.00718990,0.00636458,-0.0304
 3716,-0.00047283,-0.00009440,0.00037589,0.05838391,0.00204594,-0.00542
 459,0.02063039,0.00613727,-0.05647868,0.04144738,0.00301951,-0.0042446
 6,0.01558685,-0.00374503,0.00581849,-0.02688070,-0.00719518,0.05998393
 ,-0.00178487,0.00282644,-0.01235874,-0.03439662,0.04282773,-0.28475713
 ,0.00041909,0.00085590,-0.00405618,-0.00196362,0.00261547,-0.01541799,
 0.03794782,-0.05033886,0.31002958,-0.17236246,0.04308021,-0.04153086,-
 0.03761304,0.01592144,-0.00398553,0.00009950,-0.00503490,0.00159067,0.
 00213280,0.00080465,-0.00096141,0.00213162,0.00112443,-0.00035586,0.53
 441609,0.04018209,-0.12150451,0.01698782,-0.01946571,0.01089163,-0.004
 33732,-0.00125867,-0.00317772,0.00138207,-0.00022688,0.00154170,0.0000
 8547,0.00040743,0.00093780,-0.00108815,0.08242583,0.62043732,-0.000366
 02,-0.00262434,-0.06799333,0.00915947,-0.00558985,0.00301308,0.0007338
 3,0.00126464,-0.00047688,-0.00045145,0.00017875,0.00033973,-0.00018098
 ,-0.00127665,0.00142965,-0.09237434,0.09322557,0.26142047,-0.05052071,
 0.00399879,-0.02763333,0.00217407,-0.00461666,0.02468003,0.00126051,-0
 .00046162,0.00109844,0.00093289,0.00039185,-0.00078458,-0.00365620,-0.
 00302366,0.00185197,-0.01850107,0.01398928,-0.03238597,0.06489482,0.00
 368905,-0.06077998,0.03852462,0.00036855,-0.00402909,0.02074682,0.0009
 4984,0.00024512,0.00011903,0.00105981,0.00067314,-0.00015530,-0.002827
 57,-0.00152457,0.00192207,0.01062656,-0.00391813,0.01644878,-0.0087398
 0,0.06249093,-0.02619340,0.03951682,-0.27072712,-0.00045704,0.00203847
 ,-0.01289957,-0.00117058,0.00023849,-0.00015855,-0.00011082,0.00027400
 ,0.00105322,0.00185166,0.00185200,0.00042325,-0.00764863,0.00426263,0.
 00067755,0.03488777,-0.04992468,0.29509452,-0.04734187,-0.00917431,-0.
 00525585,-0.00132479,-0.02219365,-0.01326756,0.00118395,-0.00108086,-0
 .00058189,-0.00364664,-0.00274011,0.00218221,0.00097186,0.00091992,0.0
 0010096,-0.00522869,0.03388587,0.01443134,0.00101746,-0.00350446,-0.00
 134359,0.05949543,-0.00298014,-0.23168724,-0.10705117,-0.00241450,-0.0
 1779636,-0.00966177,0.00137815,0.00022422,-0.00025280,-0.00279571,-0.0
 0129373,0.00175117,0.00060080,0.00067683,0.00026638,0.00420763,-0.0156
 1098,-0.00617110,-0.00053678,0.00588739,0.00189354,0.00032308,0.258025
 67,-0.00290010,-0.11141877,-0.11702166,0.00015979,0.01102338,0.0058649
 5,-0.00013801,-0.00008030,0.00036060,0.00191565,0.00171123,0.00057006,
 -0.00071418,-0.00002672,0.00103071,0.00086469,0.00600867,0.00453097,-0
 .00142247,-0.02686711,-0.01686055,0.00295993,0.11861908,0.12037336,-0.
 00309841,0.03268627,0.01959333,0.00181562,0.00131402,0.00087184,-0.000
 37039,-0.00009552,-0.00033204,-0.00055979,-0.00105799,-0.00032499,-0.0
 0007802,-0.00009815,-0.00008577,-0.05978731,0.00339907,0.01014614,0.00
 113104,-0.00043447,-0.00026397,-0.00583760,0.00305026,-0.00087185,0.06
 490695,0.00170040,-0.01540911,-0.01041552,-0.00042346,0.00172322,0.000
 29465,-0.00013325,0.00010014,0.00021574,0.00046707,0.00023313,-0.00041
 509,-0.00001604,-0.00003899,0.00007852,0.00725737,-0.30185645,-0.15844
 617,-0.00146521,0.00055586,0.00033892,0.00311018,0.00029080,0.00148365
 ,-0.01215449,0.33477929,-0.00511284,0.00914419,-0.00027637,0.00032267,
 -0.00022715,-0.00000183,0.00023710,0.00022369,0.00007518,0.00038962,0.
 00011376,-0.00002394,0.00011079,-0.00004385,-0.00014781,0.01406919,-0.
 20769561,-0.13513304,0.00052065,0.00090223,0.00143883,-0.00004954,0.00
 036259,0.00114454,-0.01092353,0.18178181,0.12933829,-0.02435629,-0.021
 03717,0.01327542,-0.00536902,0.00557273,-0.00201517,0.00034817,-0.0018
 0200,0.00090788,0.00037989,0.00008637,-0.00020251,0.00032200,0.0001618
 6,0.00007303,-0.24181511,-0.15082143,0.09015129,0.00153357,-0.00084217
 ,-0.00068280,0.00101572,0.00011456,0.00047763,0.00149024,0.00180597,0.
 00062962,0.26765074,0.01713361,0.01149912,-0.00533101,0.00223475,-0.00
 145146,0.00064468,0.00055014,0.00083501,-0.00018261,0.00020535,0.00028
 643,0.00017505,-0.00002558,-0.00011636,-0.00011212,-0.16057742,-0.1884
 2815,0.06290752,0.00020508,0.00014995,-0.00010214,-0.00046748,0.000387
 52,-0.00033170,-0.02629169,-0.02028543,0.01539219,0.16661969,0.1971767
 5,-0.01067574,-0.00170162,-0.00266001,0.00092724,-0.00046784,0.0002162
 6,-0.00032682,0.00038520,0.00060542,0.00002968,0.00024181,-0.00003476,
 -0.00033013,-0.00020786,0.00039560,0.12987394,0.09091906,-0.06846978,-
 0.00001806,-0.00094735,0.00096161,0.00044146,-0.00014265,0.00007791,-0
 .01773040,-0.01499842,0.00366912,-0.10258275,-0.07302149,0.06527589,-0
 .00326083,0.00709395,-0.00329307,-0.03892033,-0.02742675,0.01592022,-0
 .14752197,-0.05829871,0.02443029,0.00313157,-0.00071796,0.00039275,0.0
 0321315,-0.00106969,-0.00025030,-0.00329186,-0.00220720,0.00089063,-0.
 00019408,-0.00024892,0.00060204,-0.00000662,-0.00034726,-0.00028544,0.
 00014971,-0.00002877,-0.00003595,-0.00121143,0.00054299,0.00028012,0.3
 0888762,0.00149014,0.00153505,-0.00036386,-0.00234617,0.00564071,-0.00
 047580,-0.08429595,-0.10622839,0.00853576,-0.00076491,0.00185831,0.000
 03912,0.00043604,0.00017009,-0.00091133,-0.00065882,-0.00014908,0.0002
 8320,-0.00005787,-0.00014125,0.00009896,0.00035133,0.00020609,-0.00006
 630,-0.00000123,-0.00000862,-0.00005465,-0.00022089,-0.00001279,0.0001
 3822,0.23984823,0.36562066,-0.00050633,0.00096431,0.00011315,0.0001581
 9,-0.00447445,0.00303522,0.04179105,0.01645775,-0.12470263,-0.00030406
 ,0.00085330,-0.00008982,0.00021469,-0.00093698,0.00141383,-0.00060202,
 -0.00004090,0.00056909,-0.00029480,-0.00042817,0.00066715,0.00021352,0
 .00037928,-0.00005830,-0.00006341,0.00004586,-0.00000499,-0.00020170,0
 .00010394,0.00006912,-0.05149634,-0.01180927,0.74106917,0.00144848,0.0
 0136453,0.00022441,-0.00324388,0.02575704,0.01568946,-0.04711225,0.012
 43310,0.00747867,-0.00524479,0.00255995,-0.00067636,0.00133628,-0.0007
 1045,-0.00035537,-0.00008976,-0.00021619,-0.00016897,-0.00004837,-0.00
 008618,0.00000393,-0.00027682,-0.00060753,-0.00017439,0.00020540,-0.00
 015701,-0.00012597,-0.00002897,-0.00007899,-0.00001292,-0.00692725,-0.
 02943343,-0.01764360,0.06096209,-0.00074820,-0.00013819,0.00016883,0.0
 0318945,-0.01444438,-0.00918536,0.00929914,-0.22721183,-0.10782343,0.0
 0294511,-0.00053918,0.00065862,-0.00056457,0.00053146,0.00045144,0.000
 29537,0.00050505,0.00019468,0.00004964,0.00001472,-0.00000111,0.000439
 02,0.00059111,-0.00003726,-0.00029004,-0.00002007,0.00004304,0.0001312
 4,0.00001504,-0.00003926,-0.00919617,-0.01988254,-0.01103666,-0.005203
 56,0.25347168,0.00010813,-0.00015322,0.00022048,-0.00173760,0.00493075
 ,0.00278790,0.00371154,-0.11177007,-0.11866424,-0.00084776,0.00072923,
 0.00116614,0.00075048,0.00019084,0.00084871,0.00022705,0.00019014,-0.0
 0001312,-0.00001992,-0.00004399,-0.00000075,0.00028156,0.00002993,-0.0
 0002201,-0.00004116,-0.00000503,-0.00003674,0.00006372,-0.00005654,-0.
 00004379,0.00311178,0.01327576,0.00757072,-0.00630476,0.12004848,0.120
 78116,0.00103851,0.00059973,-0.00151295,-0.00647353,0.00599497,-0.0289
 8309,-0.05329786,0.00954854,-0.04212387,0.00124887,-0.00032054,0.00053
 675,-0.00493698,0.00254793,-0.00031131,-0.00005549,-0.00018132,0.00048
 745,-0.00020105,-0.00024295,0.00073833,-0.00004060,-0.00007505,0.00009
 190,0.00002992,0.00004438,-0.00005062,0.00000795,-0.00004527,0.0001386
 1,-0.00068546,-0.00744674,0.03237186,-0.00013580,-0.00011137,0.0013343
 1,0.06602283,-0.00094639,0.00018789,0.00016532,0.00456155,-0.00329954,
 0.01630769,0.00798090,-0.05746086,0.04420601,-0.00080521,0.00032206,0.
 00014690,0.00282868,-0.00071426,0.00071983,0.00003728,-0.00000178,-0.0
 0021083,0.00013585,0.00029131,-0.00029528,0.00003291,0.00003692,-0.000
 04835,0.00000344,-0.00005753,0.00005108,0.00002925,0.00002384,-0.00012
 439,-0.00201106,-0.00533515,0.02257893,-0.00339141,0.00723656,-0.02655
 343,-0.00685951,0.06003192,0.00038733,0.00001797,0.00010362,-0.0020069
 9,0.00091419,-0.00400129,-0.03617303,0.05161330,-0.29175574,-0.0001134
 2,0.00013334,0.00063140,-0.00035525,0.00043383,0.00119955,0.00011021,-
 0.00020560,0.00030036,-0.00036797,-0.00030925,0.00043635,-0.00002126,0
 .00005076,-0.00001994,0.00002656,0.00003468,-0.00003842,-0.00010767,0.
 00000401,0.00000759,0.00527209,0.00549700,-0.01291464,-0.00207133,0.00
 209098,-0.01356005,0.03669064,-0.05804879,0.31950785,-0.00034130,-0.00
 009757,-0.00029028,0.00127599,-0.00015001,0.00148259,-0.00366196,-0.00
 282441,0.02778515,-0.00010278,0.00009287,-0.00001607,-0.00060687,0.000
 20355,-0.00056827,-0.00000763,-0.00000004,-0.00010086,0.00011707,0.000
 18308,-0.00020597,0.00003010,0.00002673,0.00002403,-0.00000220,-0.0000
 1714,0.00001569,0.00000823,-0.00000402,-0.00002934,-0.03186096,-0.0331
 0525,-0.00029586,0.00059342,0.00013072,-0.00062582,-0.00271177,-0.0020
 7070,0.00067993,0.03567628,0.00018486,0.00015228,0.00002905,0.00033833
 ,0.00002892,-0.00052888,0.00360236,-0.00387690,0.02003387,0.00003425,0
 .00003550,-0.00004824,-0.00016942,0.00023979,-0.00015895,-0.00016934,-
 0.00003628,-0.00002654,0.00001125,-0.00000525,-0.00005970,-0.00001798,
 -0.00006544,-0.00001929,0.00001768,0.00000245,-0.00001094,-0.00002616,
 0.00001009,0.00003241,-0.03294779,-0.04862794,0.07490985,0.00065170,0.
 00016979,-0.00034559,-0.00426589,-0.00272827,0.00148728,0.02980872,0.0
 5404269,-0.00009640,0.00006733,0.00013710,-0.00026302,-0.00085116,0.00
 084990,-0.00302263,0.00122657,-0.00436059,0.00004662,0.00000048,-0.000
 03571,0.00056930,-0.00014097,-0.00009002,-0.00011556,-0.00003334,-0.00
 000658,-0.00013468,-0.00004890,0.00000721,-0.00000537,-0.00001942,-0.0
 0001865,0.00000707,0.00000008,-0.00000515,-0.00003873,0.00001522,0.000
 01935,0.01962698,0.05299176,-0.43041212,0.00017530,0.00022153,0.000395
 94,0.00071358,0.00051842,0.00120820,-0.01983364,-0.06047964,0.45039117
 ,-0.00040993,-0.00044632,0.00082282,0.00007912,-0.00127217,-0.00184462
 ,-0.01553282,-0.02207726,-0.00991750,-0.00077040,0.00042559,0.00015172
 ,0.00009091,0.00014540,0.00033411,0.00080533,0.00036237,-0.00004021,0.
 00007564,0.00001724,-0.00010651,0.00019809,0.00034649,-0.00001744,-0.0
 0013261,0.00001331,0.00003823,0.00024405,-0.00007064,-0.00010185,-0.08
 925308,-0.02946643,-0.00428166,0.00094987,0.00170265,0.00098889,0.0009
 5760,-0.00004950,0.00000287,0.00117724,0.00378528,0.00209216,0.3985517
 2,0.00070476,-0.00291424,0.00138745,0.00546553,0.00814627,-0.00371697,
 -0.00850265,-0.03180028,0.00649759,-0.00066521,-0.00011579,-0.00026531
 ,-0.00052815,0.00006807,0.00045393,0.00232630,0.00098247,-0.00038964,0
 .00016384,0.00014444,-0.00027676,0.00010029,0.00024351,0.00014335,-0.0
 0014284,0.00000857,0.00002500,0.00069725,-0.00027307,-0.00024018,-0.05
 896869,-0.12600248,-0.05126750,0.00029988,0.00235231,0.00108305,0.0007
 2402,0.00044812,-0.00226961,0.01435935,0.00411970,0.00943808,0.1768340
 3,0.48551718,0.00091473,-0.00227842,0.00077563,0.00284991,0.00526548,-
 0.00280794,-0.00800324,-0.00216133,0.02079330,0.00093211,-0.00145782,-
 0.00005311,-0.00062981,-0.00038150,-0.00022021,0.00142366,0.00064611,-
 0.00041651,0.00009854,0.00017956,-0.00027826,-0.00022086,-0.00009566,0
 .00011383,-0.00001454,-0.00001520,0.00004625,0.00047901,-0.00015494,-0
 .00012059,-0.01217373,-0.02177754,-0.13244638,0.00518008,0.00540062,-0
 .00327869,0.00150628,0.00297404,-0.00417768,-0.00592781,-0.03046406,-0
 .02083144,-0.14691215,-0.04458822,0.73307103,0.00065721,-0.00010895,-0
 .00042688,0.00015356,0.00175592,0.00012020,0.00032040,-0.00120381,0.00
 125465,-0.00000465,-0.00143185,-0.00044081,-0.00025311,-0.00050346,-0.
 00043178,-0.00019738,-0.00005124,-0.00001507,0.00000932,0.00005213,0.0
 0003770,-0.00020025,-0.00021746,0.00005331,0.00008352,0.00000184,-0.00
 001765,-0.00004417,0.00001196,0.00003765,0.01684288,-0.00229168,-0.005
 28665,-0.00001848,0.00007269,-0.00137871,-0.00044252,0.00056455,-0.002
 02190,0.00356598,-0.00323957,-0.00134848,-0.10681677,-0.00349506,0.076
 42563,0.08508620,0.00017538,0.00057405,-0.00010202,-0.00002344,-0.0010
 0021,-0.00037501,0.00235399,-0.00100439,-0.00146127,-0.00027097,-0.000
 07044,0.00020511,-0.00019864,0.00011304,-0.00000582,-0.00044664,-0.000
 14525,0.00003880,-0.00000941,-0.00001493,0.00002781,0.00001561,-0.0000
 2498,-0.00002746,0.00002447,-0.00000651,-0.00000315,-0.00012114,0.0000
 4351,0.00004465,-0.00130619,-0.00133219,-0.04775435,-0.00047094,-0.000
 04335,-0.00167607,0.00022750,0.00082436,-0.00209373,-0.00464069,-0.004
 13780,-0.00491297,-0.00322823,-0.09643746,-0.00958089,0.03049338,0.089
 74174,-0.00026052,0.00124544,-0.00039605,-0.00158740,-0.00203309,0.001
 39802,0.00561269,0.00853424,-0.00522723,-0.00056554,0.00042583,-0.0002
 3242,0.00041144,-0.00001586,0.00009669,-0.00077120,-0.00037535,0.00021
 349,-0.00008524,-0.00010499,0.00016408,0.00006936,-0.00002718,-0.00006
 479,0.00003709,0.00001229,-0.00003731,-0.00026151,0.00007680,0.0000610
 6,0.00517690,-0.04006799,-0.07079252,-0.00104691,-0.00103678,0.0010574
 2,-0.00104208,-0.00139975,0.00214076,-0.00379101,-0.00626788,-0.000827
 12,0.06864104,-0.02100416,-0.41896253,-0.12221272,0.01849603,0.5610435
 5,0.00018278,0.00071085,-0.00040024,0.00010978,-0.00080487,0.00045873,
 0.00584872,-0.00178250,-0.00399107,-0.00000336,0.00023539,0.00012319,-
 0.00011254,0.00003981,-0.00022320,-0.00063555,-0.00022325,0.00008372,-
 0.00002492,-0.00001974,0.00006189,-0.00000872,-0.00007325,-0.00002306,
 0.00005394,-0.00000514,-0.00001745,-0.00017557,0.00005753,0.00007932,-
 0.00909107,-0.05203637,0.00622712,-0.00236918,-0.00214112,0.00037829,-
 0.00032463,-0.00004064,0.00006919,-0.00314883,0.00240172,0.00162750,-0
 .19021395,-0.12937264,0.08407219,0.00125826,-0.02257403,0.05167561,0.1
 9865484,-0.00014845,0.00154817,-0.00086379,-0.00165336,-0.00369535,0.0
 0163758,0.00242169,0.00271083,-0.00959383,0.00017855,0.00017167,0.0001
 5896,-0.00001077,0.00000261,-0.00040249,-0.00121996,-0.00046766,0.0001
 9317,-0.00003457,-0.00003964,0.00011804,0.00000065,-0.00009133,-0.0000
 6609,0.00007120,-0.00001076,-0.00000423,-0.00034794,0.00013999,0.00012
 971,-0.05271003,-0.06731048,0.01145505,-0.00271049,-0.00260818,0.00012
 577,-0.00013843,0.00019441,0.00064966,-0.00189518,0.00067667,0.0020069
 3,-0.12702180,-0.24448730,0.09848975,-0.02040938,0.01292083,0.04354239
 ,0.20562826,0.30034554,-0.00009059,-0.00011223,0.00015726,0.00033373,0
 .00061583,-0.00025821,0.00143379,-0.00304648,0.00116204,-0.00036230,0.
 00025538,-0.00009115,0.00004787,0.00010867,0.00018052,0.00018599,0.000
 06873,0.00001484,0.00000963,-0.00001337,0.00000100,0.00006559,0.000069
 03,-0.00000103,-0.00003037,0.00000921,-0.00000660,0.00003523,-0.000026
 85,-0.00003000,-0.00816896,-0.00533305,0.01691393,-0.00017126,-0.00011
 837,0.00079088,-0.00058580,-0.00098741,0.00093209,0.00169755,0.0019172
 4,0.00357852,0.09015013,0.10498991,-0.17120672,0.05565151,0.04918034,-
 0.06963511,-0.14020172,-0.14757658,0.21749774\\-0.00000376,0.00000641,
 0.00001691,0.00000577,-0.00001053,0.00000109,-0.00000095,-0.00000570,0
 .00002505,0.00000092,0.00000574,-0.00000845,0.00000195,-0.00001469,-0.
 00000626,0.00004181,-0.00000717,-0.00003692,-0.00000262,0.00001258,0.0
 0001197,-0.00000184,-0.00000394,0.00001685,0.00000244,0.00003217,0.000
 00818,-0.00004322,-0.00002864,0.00002074,0.00000364,-0.00001713,0.0000
 1110,0.00000122,-0.00000617,0.00002053,-0.00000167,0.00000994,0.000010
 48,0.00000263,-0.00001466,-0.00000243,-0.00000142,0.00000564,-0.000018
 95,-0.00000915,0.00004268,-0.00002161,0.00000426,-0.00000651,-0.000048
 27\\\@
 The archive entry for this job was punched.


 ... THIS SEEMS PLAINLY ABSURD; BUT WHOEVER WISHES TO BECOME A 
 PHILOSOPHER MUST LEARN NOT TO BE FRIGHTENED BY ABSURDITIES.

                          -- BERTRAND RUSSELL
 Job cpu time:       0 days  0 hours 32 minutes 14.9 seconds.
 Elapsed time:       0 days  0 hours 17 minutes  4.2 seconds.
 File lengths (MBytes):  RWF=    169 Int=      0 D2E=      0 Chk=     18 Scr=      1
 Normal termination of Gaussian 16 at Fri Jun  2 15:51:48 2023.
