 Entering Gaussian System, Link 0=g16
 Input=bentriz-H_dissociation-site_index-6-freq.gjf
 Output=bentriz-H_dissociation-site_index-6-freq.log
 Initial command:
 /software/commercial/gaussian/g16/AVX/g16/l1.exe "/scratch1/svicchi/G09-659812.pbs02/Gau-4059944.inp" -scrdir="/scratch1/svicchi/G09-659812.pbs02/"
 Entering Link 1 = /software/commercial/gaussian/g16/AVX/g16/l1.exe PID=   4059945.
  
 Copyright (c) 1988-2019, Gaussian, Inc.  All Rights Reserved.
  
 This is part of the Gaussian(R) 16 program.  It is based on
 the Gaussian(R) 09 system (copyright 2009, Gaussian, Inc.),
 the Gaussian(R) 03 system (copyright 2003, Gaussian, Inc.),
 the Gaussian(R) 98 system (copyright 1998, Gaussian, Inc.),
 the Gaussian(R) 94 system (copyright 1995, Gaussian, Inc.),
 the Gaussian 92(TM) system (copyright 1992, Gaussian, Inc.),
 the Gaussian 90(TM) system (copyright 1990, Gaussian, Inc.),
 the Gaussian 88(TM) system (copyright 1988, Gaussian, Inc.),
 the Gaussian 86(TM) system (copyright 1986, Carnegie Mellon
 University), and the Gaussian 82(TM) system (copyright 1983,
 Carnegie Mellon University). Gaussian is a federally registered
 trademark of Gaussian, Inc.
  
 This software contains proprietary and confidential information,
 including trade secrets, belonging to Gaussian, Inc.
  
 This software is provided under written license and may be
 used, copied, transmitted, or stored only in accord with that
 written license.
  
 The following legend is applicable only to US Government
 contracts under FAR:
  
                    RESTRICTED RIGHTS LEGEND
  
 Use, reproduction and disclosure by the US Government is
 subject to restrictions as set forth in subparagraphs (a)
 and (c) of the Commercial Computer Software - Restricted
 Rights clause in FAR 52.227-19.
  
 Gaussian, Inc.
 340 Quinnipiac St., Bldg. 40, Wallingford CT 06492
  
  
 ---------------------------------------------------------------
 Warning -- This program may not be used in any manner that
 competes with the business of Gaussian, Inc. or will provide
 assistance to any competitor of Gaussian, Inc.  The licensee
 of this program is prohibited from giving any competitor of
 Gaussian, Inc. access to this program.  By using this program,
 the user acknowledges that Gaussian, Inc. is engaged in the
 business of creating and licensing software in the field of
 computational chemistry and represents and warrants to the
 licensee that it is not a competitor of Gaussian, Inc. and that
 it will not use this program in any manner prohibited above.
 ---------------------------------------------------------------
  

 Cite this work as:
 Gaussian 16, Revision C.01,
 M. J. Frisch, G. W. Trucks, H. B. Schlegel, G. E. Scuseria, 
 M. A. Robb, J. R. Cheeseman, G. Scalmani, V. Barone, 
 G. A. Petersson, H. Nakatsuji, X. Li, M. Caricato, A. V. Marenich, 
 J. Bloino, B. G. Janesko, R. Gomperts, B. Mennucci, H. P. Hratchian, 
 J. V. Ortiz, A. F. Izmaylov, J. L. Sonnenberg, D. Williams-Young, 
 F. Ding, F. Lipparini, F. Egidi, J. Goings, B. Peng, A. Petrone, 
 T. Henderson, D. Ranasinghe, V. G. Zakrzewski, J. Gao, N. Rega, 
 G. Zheng, W. Liang, M. Hada, M. Ehara, K. Toyota, R. Fukuda, 
 J. Hasegawa, M. Ishida, T. Nakajima, Y. Honda, O. Kitao, H. Nakai, 
 T. Vreven, K. Throssell, J. A. Montgomery, Jr., J. E. Peralta, 
 F. Ogliaro, M. J. Bearpark, J. J. Heyd, E. N. Brothers, K. N. Kudin, 
 V. N. Staroverov, T. A. Keith, R. Kobayashi, J. Normand, 
 K. Raghavachari, A. P. Rendell, J. C. Burant, S. S. Iyengar, 
 J. Tomasi, M. Cossi, J. M. Millam, M. Klene, C. Adamo, R. Cammi, 
 J. W. Ochterski, R. L. Martin, K. Morokuma, O. Farkas, 
 J. B. Foresman, and D. J. Fox, Gaussian, Inc., Wallingford CT, 2019.
 
 ******************************************
 Gaussian 16:  ES64L-G16RevC.01  3-Jul-2019
                 2-Jun-2023 
 ******************************************
 %NProcShared=2
 Will use up to    2 processors via shared memory.
 %mem=55gb
 %chk=/scratch1/svicchi/G09-659812.pbs02/02-freq/bentriz-H_dissociation-site_inde
 x-6-freq.chk
 ----------------------------------------------------------------------
 #p freq=raman scale=0.967 pop=(nbo,full,hirshfeld) guess=read geom=all
 check b3lyp/6-311+G(d,p) int=grid=ultrafine EmpiricalDispersion=GD3BJ 
 SCRF=(Solvent=ethanol) scf=(xqc,intrep,maxconventionalcycle=350) nosym
 m
 ----------------------------------------------------------------------
 1/10=4,29=7,30=1,38=1,114=967000/1,3;
 2/12=2,15=1,40=1/2;
 3/5=4,6=6,7=111,11=2,14=-4,25=1,30=1,70=2201,71=2,72=4,74=-5,75=-5,116=-2,124=41,140=1/1,2,3;
 4/5=1/1;
 5/5=2,8=3,13=1,17=20,38=6,53=4,85=350,98=1/2,8;
 8/6=4,10=90,11=11/1;
 10/13=10,15=4,31=1/2;
 11/6=3,8=1,9=11,15=111,16=1,31=1/1,2,10;
 10/6=1,31=1/2;
 6/7=3,28=1,40=1,79=1/1,7;
 7/8=1,10=1,25=1,30=1/1,2,3,16;
 1/10=4,30=1/3;
 99//99;
 Leave Link    1 at Fri Jun  2 11:24:49 2023, MaxMem=  7381975040 cpu:               2.2 elap:               2.5
 (Enter /software/commercial/gaussian/g16/AVX/g16/l101.exe)
 Structure from the checkpoint file:  "/scratch1/svicchi/G09-659812.pbs02/02-freq/bentriz-H_dissociation-site_index-6-freq.chk"
 ---------------------------------------
 bentriz-H_dissociation-site_index-6.gjf
 ---------------------------------------
 Charge =  0 Multiplicity = 1
 No Z-Matrix found in chk file; cartesian coordinates used.
  C                                                -1.811851654187     -0.957867426637     -0.000000000000
  C                                                -1.774493556034     -2.374278403837      0.000000000001
  C                                                -0.658875689816     -0.192502611602     -0.000000000006
  C                                                 0.551115316193     -0.898340399941     -0.000000000004
  C                                                 0.602241989679     -2.305901545310     -0.000000000009
  C                                                -0.577580143899     -3.066222196438     -0.000000000008
  N                                                 1.865150795425     -0.536822337838      0.000000000011
  N                                                 2.665339634984     -1.626958159064      0.000000000014
  N                                                 1.926627284090     -2.690884258606      0.000000000001
  H                                                -0.690908298185      0.889092022810     -0.000000000003
  H                                                -2.774631835151     -0.461159570184      0.000000000005
  H                                                -2.709424763883     -2.921051083245      0.000000000013
  H                                                -0.542474378289     -4.148312629805     -0.000000000007
  H                                                 2.279348299074      0.384226599697     -0.000000000007
 Recover connectivity data from disk.
 ITRead=  0  0  0  0  0  0  0  0  0  0  0  0  0  0
 MicOpt= -1 -1 -1 -1 -1 -1 -1 -1 -1 -1 -1 -1 -1 -1
 NAtoms=     14 NQM=       14 NQMF=       0 NMMI=      0 NMMIF=      0
                NMic=       0 NMicF=      0.
                    Isotopes and Nuclear Properties:
 (Nuclear quadrupole moments (NQMom) in fm**2, nuclear magnetic moments (NMagM)
  in nuclear magnetons)

  Atom         1           2           3           4           5           6           7           8           9          10
 IAtWgt=          12          12          12          12          12          12          14          14          14           1
 AtmWgt=  12.0000000  12.0000000  12.0000000  12.0000000  12.0000000  12.0000000  14.0030740  14.0030740  14.0030740   1.0078250
 NucSpn=           0           0           0           0           0           0           2           2           2           1
 AtZEff=   3.6000000   3.6000000   3.6000000   3.6000000   3.6000000   3.6000000   4.5500000   4.5500000   4.5500000   1.0000000
 NQMom=    0.0000000   0.0000000   0.0000000   0.0000000   0.0000000   0.0000000   2.0440000   2.0440000   2.0440000   0.0000000
 NMagM=    0.0000000   0.0000000   0.0000000   0.0000000   0.0000000   0.0000000   0.4037610   0.4037610   0.4037610   2.7928460
 AtZNuc=   6.0000000   6.0000000   6.0000000   6.0000000   6.0000000   6.0000000   7.0000000   7.0000000   7.0000000   1.0000000

  Atom        11          12          13          14
 IAtWgt=           1           1           1           1
 AtmWgt=   1.0078250   1.0078250   1.0078250   1.0078250
 NucSpn=           1           1           1           1
 AtZEff=   1.0000000   1.0000000   1.0000000   1.0000000
 NQMom=    0.0000000   0.0000000   0.0000000   0.0000000
 NMagM=    2.7928460   2.7928460   2.7928460   2.7928460
 AtZNuc=   1.0000000   1.0000000   1.0000000   1.0000000
 Leave Link  101 at Fri Jun  2 11:24:51 2023, MaxMem=  7381975040 cpu:               0.3 elap:               0.8
 (Enter /software/commercial/gaussian/g16/AVX/g16/l103.exe)

 GradGradGradGradGradGradGradGradGradGradGradGradGradGradGradGradGradGrad
 Berny optimization.
 Initialization pass.
 Trust Radius=3.00D-01 FncErr=1.00D-07 GrdErr=1.00D-07 EigMax=2.50D+02 EigMin=1.00D-04
 Number of steps in this run=      2 maximum allowed number of steps=      2.
 GradGradGradGradGradGradGradGradGradGradGradGradGradGradGradGradGradGrad

 Leave Link  103 at Fri Jun  2 11:24:53 2023, MaxMem=  7381975040 cpu:               0.1 elap:               0.8
 (Enter /software/commercial/gaussian/g16/AVX/g16/l202.exe)
                          Input orientation:                          
 ---------------------------------------------------------------------
 Center     Atomic      Atomic             Coordinates (Angstroms)
 Number     Number       Type             X           Y           Z
 ---------------------------------------------------------------------
      1          6           0       -1.811852   -0.957867   -0.000000
      2          6           0       -1.774494   -2.374278    0.000000
      3          6           0       -0.658876   -0.192503   -0.000000
      4          6           0        0.551115   -0.898340   -0.000000
      5          6           0        0.602242   -2.305902   -0.000000
      6          6           0       -0.577580   -3.066222   -0.000000
      7          7           0        1.865151   -0.536822    0.000000
      8          7           0        2.665340   -1.626958    0.000000
      9          7           0        1.926627   -2.690884    0.000000
     10          1           0       -0.690908    0.889092   -0.000000
     11          1           0       -2.774632   -0.461160    0.000000
     12          1           0       -2.709425   -2.921051    0.000000
     13          1           0       -0.542474   -4.148313   -0.000000
     14          1           0        2.279348    0.384227   -0.000000
 ---------------------------------------------------------------------
                    Distance matrix (angstroms):
                    1          2          3          4          5
     1  C    0.000000
     2  C    1.416904   0.000000
     3  C    1.383885   2.450459   0.000000
     4  C    2.363717   2.754424   1.400816   0.000000
     5  C    2.764967   2.377719   2.461071   1.408489   0.000000
     6  C    2.443069   1.382530   2.874869   2.444108   1.403591
     7  N    3.701030   4.077163   2.547404   1.362859   2.173610
     8  N    4.526911   4.502289   3.620507   2.236253   2.171943
     9  N    4.120628   3.714638   3.595377   2.259479   1.379206
    10  H    2.160503   3.438567   1.082069   2.176588   3.446770
    11  H    1.083358   2.158773   2.132745   3.354359   3.847902
    12  H    2.158640   1.083077   3.413170   3.836988   3.368315
    13  H    3.433695   2.159877   3.957522   3.429032   2.169068
    14  H    4.305709   4.903365   2.994291   2.152154   3.170091
                    6          7          8          9         10
     6  C    0.000000
     7  N    3.516361   0.000000
     8  N    3.547959   1.352294   0.000000
     9  N    2.532180   2.154939   1.295235   0.000000
    10  H    3.956937   2.926887   4.194629   4.434831   0.000000
    11  H    3.407842   4.640400   5.563486   5.203221   2.482959
    12  H    2.136782   5.158613   5.528360   4.641762   4.311798
    13  H    1.082660   4.340452   4.080110   2.867152   5.039591
    14  H    4.479692   1.009896   2.047890   3.095274   3.012858
                   11         12         13         14
    11  H    0.000000
    12  H    2.460756   0.000000
    13  H    4.310177   2.490350   0.000000
    14  H    5.124197   5.984373   5.339157   0.000000
 Symmetry turned off by external request.
 Stoichiometry    C6H5N3
 Framework group  CS[SG(C6H5N3)]
 Deg. of freedom    25
 Full point group                 CS      NOp   2
 Rotational constants (GHZ):           4.0161093           1.6787456           1.1838802
 Leave Link  202 at Fri Jun  2 11:24:55 2023, MaxMem=  7381975040 cpu:               0.0 elap:               0.8
 (Enter /software/commercial/gaussian/g16/AVX/g16/l301.exe)
 Standard basis: 6-311+G(d,p) (5D, 7F)
 Ernie: Thresh=  0.10000D-02 Tol=  0.10000D-05 Strict=F.
   228 basis functions,   364 primitive gaussians,   237 cartesian basis functions
    31 alpha electrons       31 beta electrons
       nuclear repulsion energy       406.6408139764 Hartrees.
 IExCor=  402 DFT=T Ex+Corr=B3LYP ExCW=0 ScaHFX=  0.200000
 ScaDFX=  0.800000  0.720000  1.000000  0.810000 ScalE2=  1.000000  1.000000
 IRadAn=      5 IRanWt=     -1 IRanGd=            0 ICorTp=0 IEmpDi=141
 NAtoms=   14 NActive=   14 NUniq=   14 SFac= 1.00D+00 NAtFMM=   60 NAOKFM=F Big=F
 Integral buffers will be    131072 words long.
 Raffenetti 2 integral format.
 Two-electron integral symmetry is turned off.
 R6Disp:  Grimme-D3(BJ) Dispersion energy=       -0.0263453701 Hartrees.
 Nuclear repulsion after empirical dispersion term =      406.6144686063 Hartrees.
 Force inversion solution in PCM.
 ------------------------------------------------------------------------------
 Polarizable Continuum Model (PCM)
 =================================
 Model                : PCM.
 Atomic radii         : UFF (Universal Force Field).
 Polarization charges : Total charges.
 Charge compensation  : None.
 Solution method      : Matrix inversion.
 Cavity type          : Scaled VdW (van der Waals Surface) (Alpha=1.100).
 Cavity algorithm     : GePol (No added spheres)
                        Default sphere list used, NSphG=   14.
                        Lebedev-Laikov grids with approx.  5.0 points / Ang**2.
                        Smoothing algorithm: York/Karplus (Gamma=1.0000).
                        Polarization charges: spherical gaussians, with
                                              point-specific exponents (IZeta= 3).
                        Self-potential: point-specific (ISelfS= 7).
                        Self-field    : sphere-specific E.n sum rule (ISelfD= 2).
 1st derivatives      : Analytical E(r).r(x)/FMM algorithm (CHGder, D1EAlg=3).
                        Cavity 1st derivative terms included.
 2nd derivatives      : Analytical E(r).r(xy)/FMM algorithm (CHGder, D2EAlg=3).
                        Cavity 2nd derivative terms included.
 Solvent              : Ethanol, Eps=  24.852000 Eps(inf)=   1.852593
 ------------------------------------------------------------------------------
 Spheres list:
 ISph  on   Nord     Re0    Alpha      Xe            Ye            Ze
    1   C      1    1.9255  1.100     -1.811852     -0.957867     -0.000000
    2   C      2    1.9255  1.100     -1.774494     -2.374278      0.000000
    3   C      3    1.9255  1.100     -0.658876     -0.192503     -0.000000
    4   C      4    1.9255  1.100      0.551115     -0.898340     -0.000000
    5   C      5    1.9255  1.100      0.602242     -2.305902     -0.000000
    6   C      6    1.9255  1.100     -0.577580     -3.066222     -0.000000
    7   N      7    1.8300  1.100      1.865151     -0.536822      0.000000
    8   N      8    1.8300  1.100      2.665340     -1.626958      0.000000
    9   N      9    1.8300  1.100      1.926627     -2.690884      0.000000
   10   H     10    1.4430  1.100     -0.690908      0.889092     -0.000000
   11   H     11    1.4430  1.100     -2.774632     -0.461160      0.000000
   12   H     12    1.4430  1.100     -2.709425     -2.921051      0.000000
   13   H     13    1.4430  1.100     -0.542474     -4.148313     -0.000000
   14   H     14    1.4430  1.100      2.279348      0.384227     -0.000000
 ------------------------------------------------------------------------------
 GePol: Number of generator spheres                  =      14
 GePol: Total number of spheres                      =      14
 GePol: Number of exposed spheres                    =      14 (100.00%)
 GePol: Number of points                             =    1283
 GePol: Average weight of points                     =       0.13
 GePol: Minimum weight of points                     =   0.46D-06
 GePol: Maximum weight of points                     =    0.20577
 GePol: Number of points with low weight             =      58
 GePol: Fraction of low-weight points (<1% of avg)   =       4.52%
 GePol: Cavity surface area                          =    168.626 Ang**2
 GePol: Cavity volume                                =    165.338 Ang**3
 Leave Link  301 at Fri Jun  2 11:24:59 2023, MaxMem=  7381975040 cpu:               2.7 elap:               3.4
 (Enter /software/commercial/gaussian/g16/AVX/g16/l302.exe)
 NPDir=0 NMtPBC=     1 NCelOv=     1 NCel=       1 NClECP=     1 NCelD=      1
         NCelK=      1 NCelE2=     1 NClLst=     1 CellRange=     0.0.
 One-electron integrals computed using PRISM.
 NBasis=   228 RedAO= T EigKep=  1.68D-06  NBF=   228
 NBsUse=   228 1.00D-06 EigRej= -1.00D+00 NBFU=   228
 Precomputing XC quadrature grid using
 IXCGrd= 4 IRadAn=           5 IRanWt=          -1 IRanGd=           0 AccXCQ= 0.00D+00.
 Generated NRdTot=       0 NPtTot=           0 NUsed=           0 NTot=          32
 NSgBfM=   237   237   237   237   237 MxSgAt=    14 MxSgA2=    14.
 Leave Link  302 at Fri Jun  2 11:25:02 2023, MaxMem=  7381975040 cpu:               1.0 elap:               1.4
 (Enter /software/commercial/gaussian/g16/AVX/g16/l303.exe)
 DipDrv:  MaxL=1.
 Leave Link  303 at Fri Jun  2 11:25:04 2023, MaxMem=  7381975040 cpu:               0.1 elap:               0.8
 (Enter /software/commercial/gaussian/g16/AVX/g16/l401.exe)
 Initial guess from the checkpoint file:  "/scratch1/svicchi/G09-659812.pbs02/02-freq/bentriz-H_dissociation-site_index-6-freq.chk"
 B after Tr=     0.000000    0.000000    0.000000
         Rot=    1.000000    0.000000    0.000000    0.000000 Ang=   0.00 deg.
 Guess basis will be translated and rotated to current coordinates.
 JPrj=2 DoOrth=T DoCkMO=T.
 Leave Link  401 at Fri Jun  2 11:25:08 2023, MaxMem=  7381975040 cpu:               1.6 elap:               2.4
 (Enter /software/commercial/gaussian/g16/AVX/g16/l502.exe)
 Keep R1 ints in memory in canonical form, NReq=347516227.
 FoFCou: FMM=F IPFlag=           0 FMFlag=           0 FMFlg1=           0
         NFxFlg=           0 DoJE=F BraDBF=F KetDBF=F FulRan=T
         wScrn=  0.000000 ICntrl=       600 IOpCl=  0 I1Cent=           0 NGrid=           0
         NMat0=    1 NMatS0=  26106 NMatT0=    0 NMatD0=    1 NMtDS0=    0 NMtDT0=    0
 Symmetry not used in FoFCou.
 Two-electron integral symmetry not used.
 Closed shell SCF:
 Using DIIS extrapolation, IDIIS=  1040.
 NGot=  7381975040 LenX=  7041084530 LenY=  7041027920
 Requested convergence on RMS density matrix=1.00D-08 within 350 cycles.
 Requested convergence on MAX density matrix=1.00D-06.
 Requested convergence on             energy=1.00D-06.
 No special actions if energy rises.

 Cycle   1  Pass 1  IDiag  1:
 Inv3:  Mode=1 IEnd=     4938267.
 Iteration    1 A*A^-1 deviation from unit magnitude is 5.33D-15 for   1270.
 Iteration    1 A*A^-1 deviation from orthogonality  is 3.05D-15 for   1278   1118.
 Iteration    1 A^-1*A deviation from unit magnitude is 5.77D-15 for   1270.
 Iteration    1 A^-1*A deviation from orthogonality  is 1.50D-15 for   1269   1249.
 E= -396.008826197115    
 DIIS: error= 7.59D-09 at cycle   1 NSaved=   1.
 NSaved= 1 IEnMin= 1 EnMin= -396.008826197115     IErMin= 1 ErrMin= 7.59D-09
 ErrMax= 7.59D-09  0.00D+00 EMaxC= 1.00D-01 BMatC= 9.60D-15 BMatP= 9.60D-15
 IDIUse=1 WtCom= 1.00D+00 WtEn= 0.00D+00
 Coeff-Com:  0.100D+01
 Coeff:      0.100D+01
 Gap=     0.193 Goal=   None    Shift=    0.000
 RMSDP=3.17D-09 MaxDP=2.23D-07              OVMax= 6.81D-08

 Error on total polarization charges =  0.01402
 SCF Done:  E(RB3LYP) =  -396.008826197     A.U. after    1 cycles
            NFock=  1  Conv=0.32D-08     -V/T= 2.0042
 KE= 3.943704190821D+02 PE=-1.734623924572D+03 EE= 5.376302106867D+02
 Leave Link  502 at Fri Jun  2 11:25:33 2023, MaxMem=  7381975040 cpu:              37.2 elap:              24.0
 (Enter /software/commercial/gaussian/g16/AVX/g16/l508.exe)
 QCSCF skips out because SCF is already converged.
 Leave Link  508 at Fri Jun  2 11:25:36 2023, MaxMem=  7381975040 cpu:               0.1 elap:               1.3
 (Enter /software/commercial/gaussian/g16/AVX/g16/l801.exe)
 DoSCS=F DFT=T ScalE2(SS,OS)=  1.000000  1.000000
 Range of M.O.s used for correlation:     1   228
 NBasis=   228 NAE=    31 NBE=    31 NFC=     0 NFV=     0
 NROrb=    228 NOA=    31 NOB=    31 NVA=   197 NVB=   197

 **** Warning!!: The largest alpha MO coefficient is  0.25615571D+03

 Leave Link  801 at Fri Jun  2 11:25:39 2023, MaxMem=  7381975040 cpu:               0.4 elap:               1.1
 (Enter /software/commercial/gaussian/g16/AVX/g16/l1002.exe)
 Minotr:  Closed shell wavefunction.
 NEqPCM:  Using equilibrium solvation (IEInf=0, Eps=  24.8520, EpsInf=   1.8526)
          Direct CPHF calculation.
          Differentiating once with respect to electric field.
                with respect to dipole field.
          Electric field/nuclear overlap derivatives assumed to be zero.
          Requested convergence is 1.0D-08 RMS, and 1.0D-07 maximum.
          Secondary convergence is 1.0D-12 RMS, and 1.0D-12 maximum.
          NewPWx=F KeepS1=T KeepF1=T KeepIn=T MapXYZ=F SortEE=F KeepMc=T.
         4278 words used for storage of precomputed grid.
 Keep R1 ints in memory in canonical form, NReq=347522247.
 FoFCou: FMM=F IPFlag=           0 FMFlag=           0 FMFlg1=           0
         NFxFlg=           0 DoJE=F BraDBF=F KetDBF=F FulRan=T
         wScrn=  0.000000 ICntrl=       600 IOpCl=  0 I1Cent=           0 NGrid=           0
         NMat0=    1 NMatS0=  26106 NMatT0=    0 NMatD0=    1 NMtDS0=    0 NMtDT0=    0
 Symmetry not used in FoFCou.
 Two-electron integral symmetry not used.
          MDV=    7381975040 using IRadAn=       1.
          Solving linear equations simultaneously, MaxMat=       0.
          There are     3 degrees of freedom in the 1st order CPHF.  IDoFFX=0 NUNeed=     3.
      3 vectors produced by pass  0 Test12= 2.04D-13 3.33D-08 XBig12= 1.76D+02 9.84D+00.
 AX will form     3 AO Fock derivatives at one time.
      3 vectors produced by pass  1 Test12= 2.04D-13 3.33D-08 XBig12= 6.62D+01 1.82D+00.
      3 vectors produced by pass  2 Test12= 2.04D-13 3.33D-08 XBig12= 9.01D+00 9.29D-01.
      3 vectors produced by pass  3 Test12= 2.04D-13 3.33D-08 XBig12= 4.98D+00 5.90D-01.
      3 vectors produced by pass  4 Test12= 2.04D-13 3.33D-08 XBig12= 5.83D-01 1.68D-01.
      3 vectors produced by pass  5 Test12= 2.04D-13 3.33D-08 XBig12= 1.84D-01 1.50D-01.
      3 vectors produced by pass  6 Test12= 2.04D-13 3.33D-08 XBig12= 5.60D-02 6.58D-02.
      3 vectors produced by pass  7 Test12= 2.04D-13 3.33D-08 XBig12= 1.56D-02 3.40D-02.
      3 vectors produced by pass  8 Test12= 2.04D-13 3.33D-08 XBig12= 1.57D-03 8.97D-03.
      3 vectors produced by pass  9 Test12= 2.04D-13 3.33D-08 XBig12= 4.01D-04 4.60D-03.
      2 vectors produced by pass 10 Test12= 2.04D-13 3.33D-08 XBig12= 4.78D-05 2.05D-03.
      2 vectors produced by pass 11 Test12= 2.04D-13 3.33D-08 XBig12= 1.29D-06 2.07D-04.
      2 vectors produced by pass 12 Test12= 2.04D-13 3.33D-08 XBig12= 3.22D-08 3.50D-05.
      2 vectors produced by pass 13 Test12= 2.04D-13 3.33D-08 XBig12= 8.49D-10 8.09D-06.
      2 vectors produced by pass 14 Test12= 2.04D-13 3.33D-08 XBig12= 1.54D-11 7.21D-07.
      1 vectors produced by pass 15 Test12= 2.04D-13 3.33D-08 XBig12= 3.24D-13 8.62D-08.
 InvSVY:  IOpt=1 It=  1 EMax= 3.55D-15
 Solved reduced A of dimension    41 with     3 vectors.
 End of Minotr F.D. properties file   721 does not exist.
 End of Minotr F.D. properties file   722 does not exist.
 End of Minotr F.D. properties file   788 does not exist.
 Leave Link 1002 at Fri Jun  2 11:27:34 2023, MaxMem=  7381975040 cpu:             207.6 elap:             114.2
 (Enter /software/commercial/gaussian/g16/AVX/g16/l1101.exe)
 Using compressed storage, NAtomX=    14.
 Will process     15 centers per pass.
 R6Disp: Adding Grimme-D3(BJ) dispersion energy 1st derivatives to the gradient.
 Leave Link 1101 at Fri Jun  2 11:27:37 2023, MaxMem=  7381975040 cpu:               0.6 elap:               1.3
 (Enter /software/commercial/gaussian/g16/AVX/g16/l1102.exe)
 Symmetrizing basis deriv contribution to polar:
 IMax=3 JMax=2 DiffMx= 0.00D+00
 Leave Link 1102 at Fri Jun  2 11:27:38 2023, MaxMem=  7381975040 cpu:               0.2 elap:               1.0
 (Enter /software/commercial/gaussian/g16/AVX/g16/l1110.exe)
 Forming Gx(P) for the SCF density, NAtomX=    14.
 Integral derivatives from FoFJK, PRISM(SPDF).
 Do as many integral derivatives as possible in FoFJK.
 G2DrvN: MDV=    7381973490.
 G2DrvN: will do    15 centers at a time, making    1 passes.
 PxScal for G2LodP:  IOpCl= 0 ISclPx=1 IMOff=     1 NMtTot=     4 NTT=   26106 ScalPx= 3.14D+01
 Calling FoFCou, ICntrl=  3107 FMM=F I1Cent=   0 AccDes= 0.00D+00.
 FoFJK:  IHMeth= 1 ICntrl=    3107 DoSepK=F KAlg= 0 I1Cent=           0 FoldK=F
 IRaf=         0 NMat=       1 IRICut=       1 DoRegI=T DoRafI=F ISym2E= 0 IDoP0=0 IntGTp=1.
 FoFCou: FMM=F IPFlag=           0 FMFlag=      100000 FMFlg1=           0
         NFxFlg=           0 DoJE=F BraDBF=F KetDBF=F FulRan=T
         wScrn=  0.000000 ICntrl=      3107 IOpCl=  0 I1Cent=           0 NGrid=           0
         NMat0=    1 NMatS0=      1 NMatT0=    0 NMatD0=    4 NMtDS0=    3 NMtDT0=    0
 Symmetry not used in FoFCou.
 PxScal for G2LodP:  IOpCl= 0 ISclPx=0 IMOff=     1 NMtTot=     4 NTT=   26106 ScalPx= 1.00D+00
 NEqPCM:  Using equilibrium solvation (IEInf=0, Eps=  24.8520, EpsInf=   1.8526)
 G2PCM: DoFxE=T DoFxN=T DoGrad=T DoDP/DQ/DG/TGxP=TFFF NFrqRd=   0 IEInf=0 SqF1=F DoCFld=F IF1Alg=4.
 GePol: Maximum number of non-zero 1st derivatives   =     188
 End of G2Drv F.D. properties file   721 does not exist.
 End of G2Drv F.D. properties file   722 does not exist.
 End of G2Drv F.D. properties file   788 does not exist.
 Leave Link 1110 at Fri Jun  2 11:31:47 2023, MaxMem=  7381975040 cpu:             487.8 elap:             247.4
 (Enter /software/commercial/gaussian/g16/AVX/g16/l1002.exe)
 Minotr:  Closed shell wavefunction.
          IDoAtm=11111111111111
 NEqPCM:  Using equilibrium solvation (IEInf=0, Eps=  24.8520, EpsInf=   1.8526)
          Direct CPHF calculation.
          Differentiating once with respect to electric field.
                with respect to dipole field.
          Differentiating once with respect to nuclear coordinates.
          Requested convergence is 1.0D-08 RMS, and 1.0D-07 maximum.
          Secondary convergence is 1.0D-12 RMS, and 1.0D-12 maximum.
          NewPWx=T KeepS1=F KeepF1=F KeepIn=T MapXYZ=F SortEE=F KeepMc=T.
         4278 words used for storage of precomputed grid.
 Keep R1 ints in memory in canonical form, NReq=347522569.
 FoFCou: FMM=F IPFlag=           0 FMFlag=           0 FMFlg1=           0
         NFxFlg=           0 DoJE=F BraDBF=F KetDBF=F FulRan=T
         wScrn=  0.000000 ICntrl=       600 IOpCl=  0 I1Cent=           0 NGrid=           0
         NMat0=    1 NMatS0=  26106 NMatT0=    0 NMatD0=    1 NMtDS0=    0 NMtDT0=    0
 Symmetry not used in FoFCou.
 Two-electron integral symmetry not used.
          MDV=    7381975040 using IRadAn=       1.
          Solving linear equations simultaneously, MaxMat=       0.
          There are    45 degrees of freedom in the 1st order CPHF.  IDoFFX=5 NUNeed=    45.
 Will reuse    3 saved solutions.
     39 vectors produced by pass  0 Test12= 1.36D-14 2.22D-09 XBig12= 2.44D-01 1.60D-01.
 AX will form    39 AO Fock derivatives at one time.
     39 vectors produced by pass  1 Test12= 1.36D-14 2.22D-09 XBig12= 6.75D-02 7.53D-02.
     39 vectors produced by pass  2 Test12= 1.36D-14 2.22D-09 XBig12= 8.48D-04 4.88D-03.
     39 vectors produced by pass  3 Test12= 1.36D-14 2.22D-09 XBig12= 2.51D-06 3.21D-04.
     39 vectors produced by pass  4 Test12= 1.36D-14 2.22D-09 XBig12= 8.41D-09 1.42D-05.
     38 vectors produced by pass  5 Test12= 1.36D-14 2.22D-09 XBig12= 1.70D-11 5.56D-07.
     20 vectors produced by pass  6 Test12= 1.36D-14 2.22D-09 XBig12= 2.48D-14 2.18D-08.
 InvSVY:  IOpt=1 It=  1 EMax= 1.78D-15
 Solved reduced A of dimension   253 with    39 vectors.
 FullF1:  Do perturbations      1 to       3.
 Isotropic polarizability for W=    0.000000      119.64 Bohr**3.
 FullF1:  Do perturbations      1 to       6.
 End of Minotr F.D. properties file   721 does not exist.
 End of Minotr F.D. properties file   722 does not exist.
 End of Minotr F.D. properties file   788 does not exist.
 Leave Link 1002 at Fri Jun  2 11:36:59 2023, MaxMem=  7381975040 cpu:             601.4 elap:             311.1
 (Enter /software/commercial/gaussian/g16/AVX/g16/l601.exe)
 Copying SCF densities to generalized density rwf, IOpCl= 0 IROHF=0.

 **********************************************************************

            Population analysis using the SCF Density.

 **********************************************************************

 Alpha  occ. eigenvalues --  -14.40851 -14.39860 -14.35573 -10.23499 -10.21581
 Alpha  occ. eigenvalues --  -10.19857 -10.19557 -10.19421 -10.18955  -1.11573
 Alpha  occ. eigenvalues --   -0.92361  -0.88151  -0.79184  -0.76975  -0.66660
 Alpha  occ. eigenvalues --   -0.65400  -0.63575  -0.56613  -0.53840  -0.48818
 Alpha  occ. eigenvalues --   -0.48224  -0.46575  -0.45889  -0.39076  -0.38470
 Alpha  occ. eigenvalues --   -0.37473  -0.35600  -0.34070  -0.29545  -0.26898
 Alpha  occ. eigenvalues --   -0.25571
 Alpha virt. eigenvalues --   -0.06260  -0.01037   0.00585   0.00675   0.01818
 Alpha virt. eigenvalues --    0.02631   0.04351   0.04651   0.05516   0.06105
 Alpha virt. eigenvalues --    0.07622   0.08229   0.08634   0.08747   0.10932
 Alpha virt. eigenvalues --    0.12139   0.12265   0.12819   0.13378   0.13439
 Alpha virt. eigenvalues --    0.14767   0.15714   0.16375   0.16574   0.17536
 Alpha virt. eigenvalues --    0.18093   0.18285   0.18417   0.18864   0.19850
 Alpha virt. eigenvalues --    0.20242   0.21043   0.21793   0.22168   0.23428
 Alpha virt. eigenvalues --    0.23565   0.24647   0.24976   0.25274   0.26170
 Alpha virt. eigenvalues --    0.26598   0.26877   0.27514   0.29808   0.30580
 Alpha virt. eigenvalues --    0.31634   0.34043   0.34922   0.35801   0.36823
 Alpha virt. eigenvalues --    0.39540   0.41645   0.42760   0.47833   0.50963
 Alpha virt. eigenvalues --    0.51305   0.51614   0.52726   0.56003   0.56547
 Alpha virt. eigenvalues --    0.56965   0.59441   0.60620   0.60865   0.61096
 Alpha virt. eigenvalues --    0.65496   0.67563   0.68680   0.69580   0.71432
 Alpha virt. eigenvalues --    0.73166   0.74237   0.78623   0.78740   0.79108
 Alpha virt. eigenvalues --    0.80453   0.82134   0.83064   0.84159   0.84188
 Alpha virt. eigenvalues --    0.84568   0.87252   0.88513   0.89277   0.91096
 Alpha virt. eigenvalues --    0.93242   0.95058   0.96608   0.97129   0.98989
 Alpha virt. eigenvalues --    0.99947   1.00475   1.06714   1.09300   1.10436
 Alpha virt. eigenvalues --    1.13999   1.14675   1.18476   1.18945   1.27926
 Alpha virt. eigenvalues --    1.33495   1.36232   1.41106   1.46059   1.46942
 Alpha virt. eigenvalues --    1.50456   1.53909   1.54800   1.55138   1.58759
 Alpha virt. eigenvalues --    1.58982   1.63585   1.64392   1.66469   1.70883
 Alpha virt. eigenvalues --    1.73520   1.77221   1.78445   1.81099   1.85696
 Alpha virt. eigenvalues --    1.86949   1.87296   1.89454   1.89826   1.92730
 Alpha virt. eigenvalues --    1.93622   1.96196   1.99598   2.01196   2.03761
 Alpha virt. eigenvalues --    2.07855   2.13446   2.17634   2.21175   2.26267
 Alpha virt. eigenvalues --    2.27574   2.32976   2.35719   2.39066   2.39894
 Alpha virt. eigenvalues --    2.45214   2.51302   2.52810   2.58546   2.59490
 Alpha virt. eigenvalues --    2.64890   2.66817   2.68308   2.71592   2.71632
 Alpha virt. eigenvalues --    2.73386   2.75529   2.75982   2.78901   2.80069
 Alpha virt. eigenvalues --    2.80740   2.81476   2.83272   2.88024   2.91434
 Alpha virt. eigenvalues --    2.93468   2.98029   3.02154   3.05705   3.10235
 Alpha virt. eigenvalues --    3.15091   3.24437   3.33675   3.39252   3.42741
 Alpha virt. eigenvalues --    3.48077   3.49338   3.59363   3.69363   3.73951
 Alpha virt. eigenvalues --    3.88384   3.90219   3.97991   3.98687   4.01853
 Alpha virt. eigenvalues --    4.06407   4.12180   4.17720   4.60435   4.79924
 Alpha virt. eigenvalues --    4.88214   4.93884   5.63140  23.58336  23.90367
 Alpha virt. eigenvalues --   23.95052  24.03459  24.09669  24.17526  35.41532
 Alpha virt. eigenvalues --   35.53682  35.67140
     Molecular Orbital Coefficients:
                           1         2         3         4         5
                           O         O         O         O         O
     Eigenvalues --   -14.40851 -14.39860 -14.35573 -10.23499 -10.21581
   1 1   C  1S         -0.00000  -0.00000  -0.00001  -0.00004  -0.00019
   2        2S          0.00003   0.00001   0.00004   0.00004  -0.00008
   3        2PX         0.00007   0.00001  -0.00000   0.00012  -0.00000
   4        2PY         0.00002   0.00000  -0.00002   0.00011  -0.00004
   5        2PZ        -0.00000  -0.00000   0.00000   0.00000  -0.00000
   6        3S         -0.00017  -0.00009  -0.00037  -0.00027  -0.00066
   7        3PX        -0.00040  -0.00009  -0.00005  -0.00112  -0.00017
   8        3PY        -0.00014  -0.00001   0.00017  -0.00067   0.00028
   9        3PZ         0.00000   0.00000  -0.00000  -0.00000   0.00000
  10        4S         -0.00666   0.00103   0.00575  -0.00650   0.00901
  11        4PX        -0.00208   0.00019   0.00328  -0.00267   0.00463
  12        4PY         0.00086  -0.00014  -0.00188   0.00188  -0.00156
  13        4PZ         0.00000  -0.00000   0.00000   0.00000  -0.00000
  14        5S         -0.03029  -0.01516   0.02826  -0.01262   0.00755
  15        5PX        -0.00467  -0.00078   0.00509  -0.00359   0.00410
  16        5PY        -0.00084  -0.00202  -0.00171  -0.00461   0.00316
  17        5PZ         0.00000   0.00000   0.00000   0.00000   0.00000
  18        6D 0       -0.00006  -0.00002  -0.00005   0.00001  -0.00009
  19        6D+1        0.00000  -0.00000  -0.00000   0.00000   0.00000
  20        6D-1        0.00000  -0.00000   0.00000   0.00000   0.00000
  21        6D+2       -0.00010   0.00000   0.00005  -0.00016   0.00015
  22        6D-2       -0.00004  -0.00003  -0.00002  -0.00062  -0.00003
  23 2   C  1S         -0.00001  -0.00000  -0.00000  -0.00009  -0.00002
  24        2S          0.00004   0.00001   0.00002  -0.00000   0.00005
  25        2PX         0.00002   0.00002   0.00008   0.00001   0.00014
  26        2PY         0.00002  -0.00001  -0.00002   0.00003  -0.00010
  27        2PZ        -0.00000   0.00000  -0.00000  -0.00000   0.00000
  28        3S         -0.00039  -0.00005  -0.00007  -0.00064  -0.00016
  29        3PX        -0.00016  -0.00015  -0.00049  -0.00023  -0.00120
  30        3PY        -0.00013   0.00006   0.00015  -0.00026   0.00059
  31        3PZ         0.00000  -0.00000   0.00000   0.00000  -0.00000
  32        4S          0.00384   0.00040  -0.00905   0.00716  -0.00822
  33        4PX         0.00217   0.00024  -0.00317   0.00362  -0.00352
  34        4PY         0.00182  -0.00097  -0.00092   0.00174  -0.00214
  35        4PZ        -0.00000   0.00000  -0.00000  -0.00000   0.00000
  36        5S          0.01566  -0.01450  -0.03552   0.00895  -0.01003
  37        5PX         0.00302  -0.00299  -0.00600   0.00410  -0.00366
  38        5PY         0.00278   0.00639  -0.00096  -0.00200   0.00529
  39        5PZ        -0.00000  -0.00000  -0.00000   0.00000  -0.00000
  40        6D 0       -0.00006  -0.00001  -0.00002  -0.00009   0.00003
  41        6D+1        0.00000   0.00000   0.00000  -0.00000   0.00000
  42        6D-1        0.00000   0.00000   0.00000   0.00000   0.00000
  43        6D+2        0.00002  -0.00003  -0.00013   0.00013  -0.00026
  44        6D-2        0.00005   0.00004   0.00005   0.00006   0.00058
  45 3   C  1S         -0.00001  -0.00000  -0.00000   0.00388  -0.00021
  46        2S          0.00003   0.00002   0.00003   0.00340  -0.00014
  47        2PX        -0.00000   0.00005   0.00008   0.00069   0.00008
  48        2PY         0.00008  -0.00002  -0.00010  -0.00036  -0.00010
  49        2PZ        -0.00000   0.00000  -0.00000  -0.00000  -0.00000
  50        3S         -0.00055  -0.00009   0.00005  -0.00044   0.00004
  51        3PX         0.00011  -0.00032  -0.00051  -0.00310  -0.00061
  52        3PY        -0.00036   0.00017   0.00061   0.00154   0.00080
  53        3PZ         0.00000  -0.00000   0.00000   0.00000   0.00000
  54        4S          0.01805  -0.00133  -0.01248   0.01098  -0.00918
  55        4PX         0.00300   0.00011  -0.00215   0.00226   0.00126
  56        4PY        -0.00854   0.00006   0.00508  -0.00676   0.00654
  57        4PZ        -0.00000   0.00000  -0.00000  -0.00000  -0.00000
  58        5S          0.02944  -0.02311  -0.03679  -0.00574  -0.01525
  59        5PX        -0.00697  -0.01257   0.00031  -0.01074   0.00326
  60        5PY        -0.00867   0.00083   0.00805  -0.00130   0.00380
  61        5PZ         0.00000   0.00000  -0.00000   0.00000  -0.00000
  62        6D 0       -0.00016   0.00001   0.00006   0.00057   0.00000
  63        6D+1        0.00000  -0.00000   0.00000  -0.00000  -0.00000
  64        6D-1       -0.00000  -0.00000   0.00000   0.00000   0.00000
  65        6D+2       -0.00026  -0.00010  -0.00009  -0.00076  -0.00017
  66        6D-2       -0.00002   0.00007   0.00018   0.00181   0.00038
  67 4   C  1S          0.00001  -0.00001  -0.00001   0.56281  -0.00735
  68        2S          0.00003   0.00004   0.00007   0.46313  -0.00589
  69        2PX         0.00047   0.00006   0.00001   0.00078   0.00004
  70        2PY         0.00020   0.00001  -0.00004   0.00038  -0.00080
  71        2PZ         0.00000  -0.00000   0.00000   0.00000  -0.00000
  72        3S          0.00080  -0.00030  -0.00071   0.01939  -0.00051
  73        3PX        -0.00122  -0.00056  -0.00019  -0.00099  -0.00024
  74        3PY        -0.00064   0.00008   0.00058  -0.00085   0.00307
  75        3PZ        -0.00000   0.00000  -0.00000  -0.00000  -0.00000
  76        4S          0.00268  -0.00192   0.00587  -0.01662   0.00715
  77        4PX         0.02326  -0.00136  -0.01360   0.01153  -0.00897
  78        4PY        -0.00282   0.00163  -0.00002   0.00195  -0.00676
  79        4PZ         0.00000   0.00000   0.00000   0.00000   0.00000
  80        5S         -0.04249   0.04952   0.08815   0.00710   0.02883
  81        5PX         0.00981  -0.00445  -0.00644  -0.00500   0.00168
  82        5PY         0.01744   0.00969  -0.01622   0.01047  -0.00691
  83        5PZ        -0.00000  -0.00000   0.00000  -0.00000   0.00000
  84        6D 0        0.00026  -0.00006  -0.00014  -0.00181   0.00065
  85        6D+1        0.00000   0.00000   0.00000   0.00000   0.00000
  86        6D-1       -0.00000  -0.00000  -0.00000  -0.00000  -0.00000
  87        6D+2       -0.00088  -0.00005   0.00039   0.00048   0.00161
  88        6D-2       -0.00038  -0.00013  -0.00009  -0.00101   0.00010
  89 5   C  1S         -0.00001  -0.00001   0.00001   0.00724   0.56276
  90        2S          0.00005   0.00003  -0.00002   0.00612   0.46314
  91        2PX        -0.00003   0.00008   0.00045   0.00001   0.00042
  92        2PY         0.00003  -0.00004  -0.00021   0.00080  -0.00019
  93        2PZ        -0.00000  -0.00000   0.00000  -0.00000   0.00000
  94        3S         -0.00067  -0.00028   0.00094  -0.00001   0.01946
  95        3PX        -0.00006  -0.00063  -0.00115  -0.00017  -0.00102
  96        3PY        -0.00062   0.00007   0.00068  -0.00308   0.00089
  97        3PZ         0.00000   0.00000   0.00000   0.00000  -0.00000
  98        4S         -0.00018   0.00016   0.00001   0.00287  -0.02026
  99        4PX        -0.01046   0.00203   0.02231  -0.00813   0.01154
 100        4PY        -0.00238   0.00193  -0.00132   0.00403  -0.00450
 101        4PZ        -0.00000  -0.00000  -0.00000  -0.00000  -0.00000
 102        5S          0.07241   0.04718  -0.08292   0.02441   0.00680
 103        5PX        -0.01571  -0.02139   0.00536  -0.00584  -0.01195
 104        5PY         0.00047  -0.02516  -0.02247   0.00037  -0.01985
 105        5PZ         0.00000   0.00000  -0.00000   0.00000  -0.00000
 106        6D 0       -0.00021  -0.00011   0.00016   0.00061  -0.00167
 107        6D+1        0.00000  -0.00000  -0.00000   0.00000   0.00000
 108        6D-1       -0.00000   0.00000   0.00000  -0.00000  -0.00000
 109        6D+2        0.00042  -0.00014  -0.00071   0.00161   0.00017
 110        6D-2        0.00031   0.00030   0.00042   0.00007   0.00082
 111 6   C  1S         -0.00001  -0.00000  -0.00001  -0.00001   0.00693
 112        2S          0.00004   0.00002   0.00004   0.00004   0.00589
 113        2PX         0.00007   0.00005   0.00003   0.00009   0.00067
 114        2PY         0.00007   0.00001  -0.00009   0.00010   0.00038
 115        2PZ         0.00000   0.00000   0.00000   0.00000  -0.00000
 116        3S         -0.00019  -0.00016  -0.00056  -0.00007  -0.00026
 117        3PX        -0.00048  -0.00034  -0.00009  -0.00063  -0.00290
 118        3PY        -0.00054  -0.00013   0.00039  -0.00079  -0.00152
 119        3PZ        -0.00000  -0.00000  -0.00000  -0.00000   0.00000
 120        4S         -0.00845   0.00159   0.01686  -0.00739   0.01131
 121        4PX        -0.00163   0.00196   0.00031   0.00101   0.00083
 122        4PY        -0.00266   0.00055   0.00954  -0.00472   0.00778
 123        4PZ         0.00000   0.00000   0.00000   0.00000   0.00000
 124        5S         -0.04429  -0.04715   0.03639  -0.02699  -0.02251
 125        5PX        -0.00600  -0.02153  -0.00515   0.00075  -0.01448
 126        5PY        -0.00667  -0.00395   0.00980  -0.00466  -0.00067
 127        5PZ         0.00000   0.00000   0.00000  -0.00000   0.00000
 128        6D 0        0.00002  -0.00002  -0.00012   0.00000   0.00054
 129        6D+1        0.00000   0.00000  -0.00000   0.00000   0.00000
 130        6D-1        0.00000   0.00000  -0.00000   0.00000   0.00000
 131        6D+2       -0.00012  -0.00011  -0.00026  -0.00017  -0.00057
 132        6D-2       -0.00019  -0.00013  -0.00008  -0.00044  -0.00178
 133 7   N  1S          0.55733  -0.00643   0.00015  -0.00005   0.00000
 134        2S          0.46556  -0.00536   0.00021  -0.00008   0.00003
 135        2PX         0.00017   0.00018   0.00002  -0.00043  -0.00007
 136        2PY        -0.00021  -0.00024  -0.00004  -0.00023   0.00005
 137        2PZ        -0.00000  -0.00000   0.00000  -0.00000  -0.00000
 138        3S          0.01723  -0.00021  -0.00069   0.00120  -0.00022
 139        3PX        -0.00051  -0.00029   0.00002   0.00103   0.00047
 140        3PY         0.00023   0.00044   0.00031   0.00069  -0.00009
 141        3PZ         0.00000   0.00000  -0.00000   0.00000   0.00000
 142        4S         -0.02222   0.00407   0.00535  -0.00787   0.00211
 143        4PX         0.00644   0.00055  -0.00195   0.00317  -0.00247
 144        4PY         0.00743  -0.00249   0.00065   0.00204   0.00192
 145        4PZ        -0.00000  -0.00000   0.00000  -0.00000  -0.00000
 146        5S         -0.00372  -0.01874  -0.00976   0.00956   0.01487
 147        5PX        -0.00060  -0.00223  -0.00134  -0.00149   0.00004
 148        5PY        -0.00545   0.00028   0.00258  -0.00370  -0.00481
 149        5PZ         0.00000   0.00000  -0.00000   0.00000  -0.00000
 150        6D 0       -0.00065   0.00011  -0.00005   0.00063   0.00001
 151        6D+1       -0.00000  -0.00000   0.00000  -0.00000   0.00000
 152        6D-1       -0.00000   0.00000  -0.00000  -0.00000  -0.00000
 153        6D+2       -0.00027   0.00013  -0.00009  -0.00061  -0.00027
 154        6D-2        0.00064   0.00048   0.00020  -0.00060   0.00008
 155 8   N  1S          0.00642   0.55734  -0.00222   0.00000  -0.00000
 156        2S          0.00538   0.46588  -0.00180   0.00003   0.00002
 157        2PX        -0.00013  -0.00202  -0.00015   0.00007   0.00008
 158        2PY         0.00019   0.00018  -0.00029  -0.00003   0.00003
 159        2PZ        -0.00000  -0.00000  -0.00000   0.00000   0.00000
 160        3S          0.00020   0.01531  -0.00009  -0.00032  -0.00025
 161        3PX         0.00006  -0.00010   0.00028  -0.00019  -0.00025
 162        3PY        -0.00014  -0.00045   0.00055   0.00019  -0.00015
 163        3PZ         0.00000   0.00000   0.00000  -0.00000   0.00000
 164        4S          0.00393  -0.01551   0.00376   0.00276   0.00285
 165        4PX        -0.00234   0.00259  -0.00196  -0.00117  -0.00118
 166        4PY         0.00005  -0.00028  -0.00085  -0.00110   0.00103
 167        4PZ        -0.00000  -0.00000  -0.00000   0.00000  -0.00000
 168        5S          0.00229   0.03593  -0.00063  -0.01990  -0.02184
 169        5PX        -0.00028  -0.00794  -0.00022   0.00535   0.00592
 170        5PY        -0.00030   0.00130   0.00444   0.00258  -0.00054
 171        5PZ         0.00000   0.00000   0.00000  -0.00000  -0.00000
 172        6D 0        0.00017  -0.00022   0.00029  -0.00009  -0.00010
 173        6D+1       -0.00000  -0.00000  -0.00000  -0.00000   0.00000
 174        6D-1        0.00000   0.00000  -0.00000   0.00000   0.00000
 175        6D+2        0.00022  -0.00023   0.00026   0.00019   0.00015
 176        6D-2        0.00034   0.00022  -0.00056  -0.00004   0.00004
 177 9   N  1S         -0.00013   0.00219   0.55737  -0.00000  -0.00005
 178        2S         -0.00003   0.00188   0.46577   0.00005  -0.00009
 179        2PX         0.00001   0.00027  -0.00040  -0.00009  -0.00038
 180        2PY         0.00001   0.00029   0.00166  -0.00003   0.00022
 181        2PZ         0.00000   0.00000   0.00000   0.00000  -0.00000
 182        3S         -0.00065   0.00011   0.01654  -0.00032   0.00126
 183        3PX         0.00003  -0.00067  -0.00050   0.00047   0.00081
 184        3PY        -0.00023  -0.00059   0.00053  -0.00002  -0.00060
 185        3PZ        -0.00000  -0.00000  -0.00000  -0.00000   0.00000
 186        4S          0.00316   0.00198  -0.02509   0.00150  -0.00820
 187        4PX        -0.00200   0.00046   0.00509  -0.00241   0.00278
 188        4PY        -0.00003   0.00126  -0.00446  -0.00075  -0.00106
 189        4PZ         0.00000   0.00000   0.00000   0.00000  -0.00000
 190        5S         -0.00301  -0.01309   0.01306   0.01902   0.01520
 191        5PX         0.00109   0.00043   0.00178   0.00141  -0.00015
 192        5PY        -0.00107  -0.00215   0.00481   0.00477   0.00549
 193        5PZ        -0.00000  -0.00000   0.00000   0.00000   0.00000
 194        6D 0       -0.00002   0.00033  -0.00024   0.00004   0.00063
 195        6D+1       -0.00000  -0.00000  -0.00000  -0.00000  -0.00000
 196        6D-1       -0.00000  -0.00000   0.00000   0.00000   0.00000
 197        6D+2       -0.00001   0.00029   0.00013  -0.00019  -0.00050
 198        6D-2       -0.00009  -0.00067   0.00020   0.00002   0.00055
 199 10  H  1S         -0.00017   0.00001   0.00001  -0.00022   0.00004
 200        2S          0.00091  -0.00017  -0.00052   0.00005  -0.00136
 201        3S          0.00214   0.00055  -0.00073   0.00247  -0.00108
 202        4PX        -0.00002  -0.00004   0.00003  -0.00020  -0.00008
 203        4PY        -0.00000   0.00006   0.00010   0.00041   0.00022
 204        4PZ         0.00000  -0.00000   0.00000   0.00000   0.00000
 205 11  H  1S         -0.00004  -0.00001  -0.00008  -0.00008  -0.00010
 206        2S          0.00008  -0.00009   0.00043  -0.00059   0.00033
 207        3S          0.00000   0.00022   0.00087  -0.00014   0.00136
 208        4PX         0.00003  -0.00003  -0.00003  -0.00018  -0.00008
 209        4PY         0.00000   0.00001   0.00002   0.00007   0.00004
 210        4PZ        -0.00000   0.00000  -0.00000  -0.00000  -0.00000
 211 12  H  1S         -0.00008   0.00000  -0.00003  -0.00010  -0.00007
 212        2S          0.00033  -0.00018  -0.00001   0.00026  -0.00067
 213        3S          0.00077   0.00016  -0.00017   0.00124  -0.00043
 214        4PX        -0.00003  -0.00004   0.00002  -0.00008  -0.00018
 215        4PY        -0.00003   0.00001  -0.00001  -0.00005  -0.00008
 216        4PZ         0.00000   0.00000   0.00000   0.00000  -0.00000
 217 13  H  1S         -0.00003  -0.00000  -0.00019  -0.00000  -0.00023
 218        2S         -0.00021  -0.00026   0.00133  -0.00105   0.00025
 219        3S         -0.00004   0.00061   0.00206  -0.00052   0.00287
 220        4PX         0.00001  -0.00008   0.00000  -0.00005  -0.00014
 221        4PY        -0.00010  -0.00007   0.00003  -0.00021  -0.00040
 222        4PZ        -0.00000  -0.00000  -0.00000  -0.00000  -0.00000
 223 14  H  1S          0.00018  -0.00010  -0.00004   0.00007  -0.00000
 224        2S         -0.00442  -0.00008  -0.00069  -0.00094  -0.00079
 225        3S          0.00376   0.00247   0.00057   0.00019   0.00089
 226        4PX         0.00066  -0.00010   0.00020   0.00004   0.00016
 227        4PY         0.00178   0.00020   0.00015   0.00013   0.00007
 228        4PZ        -0.00000   0.00000  -0.00000   0.00000   0.00000
                           6         7         8         9        10
                           O         O         O         O         O
     Eigenvalues --   -10.19857 -10.19557 -10.19421 -10.18955  -1.11573
   1 1   C  1S          0.03788   0.00373   0.56092  -0.02800  -0.00109
   2        2S          0.03138   0.00312   0.46155  -0.02291  -0.00170
   3        2PX         0.00063  -0.00001  -0.00011  -0.00004   0.00104
   4        2PY         0.00045  -0.00020  -0.00011  -0.00072  -0.00010
   5        2PZ        -0.00000  -0.00000  -0.00000   0.00000   0.00000
   6        3S          0.00083   0.00018   0.01957  -0.00122   0.00516
   7        3PX        -0.00258  -0.00008   0.00061   0.00029   0.00208
   8        3PY        -0.00185   0.00123   0.00076   0.00263  -0.00044
   9        3PZ        -0.00000   0.00000  -0.00000   0.00000  -0.00000
  10        4S          0.00919  -0.00716  -0.01877   0.01214   0.00331
  11        4PX         0.00682  -0.00369  -0.00814   0.00718  -0.00583
  12        4PY        -0.00243   0.00145   0.00410  -0.00457   0.00046
  13        4PZ         0.00000  -0.00000   0.00000  -0.00000   0.00000
  14        5S          0.02508  -0.03176   0.01390  -0.00190   0.06392
  15        5PX         0.00381  -0.00494   0.00378   0.00062   0.00614
  16        5PY        -0.00589   0.00282  -0.00070  -0.00060   0.02405
  17        5PZ         0.00000   0.00000   0.00000   0.00000   0.00000
  18        6D 0        0.00056   0.00005  -0.00187   0.00061  -0.00001
  19        6D+1        0.00000  -0.00000   0.00000  -0.00000  -0.00000
  20        6D-1        0.00000   0.00000   0.00000   0.00000  -0.00000
  21        6D+2       -0.00082   0.00063   0.00035   0.00138   0.00039
  22        6D-2       -0.00144   0.00003   0.00028   0.00018  -0.00040
  23 2   C  1S          0.00074   0.02789   0.02771   0.56153  -0.00104
  24        2S          0.00065   0.02315   0.02292   0.46203  -0.00161
  25        2PX        -0.00002   0.00066  -0.00010  -0.00011   0.00096
  26        2PY         0.00020  -0.00041   0.00073   0.00006   0.00018
  27        2PZ        -0.00000  -0.00000  -0.00000  -0.00000  -0.00000
  28        3S          0.00010   0.00047   0.00073   0.01969   0.00461
  29        3PX        -0.00003  -0.00270   0.00051   0.00057   0.00205
  30        3PY        -0.00125   0.00169  -0.00267  -0.00047   0.00079
  31        3PZ         0.00000  -0.00000   0.00000   0.00000   0.00000
  32        4S         -0.00745   0.00942   0.00981  -0.02025   0.01647
  33        4PX        -0.00377   0.00694   0.00591  -0.00879   0.00247
  34        4PY        -0.00196   0.00264   0.00428  -0.00521  -0.00570
  35        4PZ        -0.00000   0.00000  -0.00000   0.00000  -0.00000
  36        5S         -0.03301   0.02409  -0.00550   0.00802   0.03009
  37        5PX        -0.00454   0.00397   0.00003   0.00265  -0.00520
  38        5PY        -0.00441   0.00504   0.00020   0.00072  -0.01434
  39        5PZ        -0.00000  -0.00000  -0.00000  -0.00000   0.00000
  40        6D 0        0.00007   0.00060   0.00041  -0.00190  -0.00006
  41        6D+1       -0.00000   0.00000  -0.00000   0.00000  -0.00000
  42        6D-1       -0.00000  -0.00000   0.00000  -0.00000  -0.00000
  43        6D+2        0.00065  -0.00098   0.00143   0.00027   0.00019
  44        6D-2        0.00004   0.00135  -0.00005  -0.00020   0.00036
  45 3   C  1S          0.56160   0.00078  -0.03801   0.00108  -0.00379
  46        2S          0.46208   0.00070  -0.03107   0.00091  -0.00560
  47        2PX         0.00027  -0.00001  -0.00075  -0.00006   0.00374
  48        2PY        -0.00005  -0.00003  -0.00040  -0.00009  -0.00212
  49        2PZ         0.00000   0.00000   0.00000   0.00000   0.00000
  50        3S          0.02000  -0.00040  -0.00180   0.00026   0.01460
  51        3PX        -0.00032   0.00009   0.00312   0.00049   0.00317
  52        3PY        -0.00012   0.00034   0.00169   0.00078  -0.00198
  53        3PZ         0.00000  -0.00000   0.00000  -0.00000  -0.00000
  54        4S         -0.02327   0.00456   0.00966  -0.01282  -0.01912
  55        4PX        -0.00155  -0.00069  -0.00049  -0.00105  -0.00842
  56        4PY         0.01168  -0.00300  -0.00677   0.00740   0.00781
  57        4PZ        -0.00000   0.00000  -0.00000   0.00000   0.00000
  58        5S         -0.03085   0.03310  -0.01457   0.00096   0.16242
  59        5PX        -0.00420   0.00032   0.00122  -0.00055   0.09055
  60        5PY         0.00432  -0.00648   0.00191   0.00069   0.00027
  61        5PZ        -0.00000  -0.00000  -0.00000  -0.00000  -0.00000
  62        6D 0       -0.00180  -0.00001   0.00079   0.00004   0.00010
  63        6D+1        0.00000  -0.00000   0.00000  -0.00000   0.00000
  64        6D-1        0.00000  -0.00000   0.00000  -0.00000   0.00000
  65        6D+2       -0.00041  -0.00005  -0.00063  -0.00016   0.00095
  66        6D-2        0.00006  -0.00007  -0.00169  -0.00034   0.00058
  67 4   C  1S         -0.00398   0.00009   0.00029   0.00007  -0.03031
  68        2S         -0.00311   0.00012   0.00029   0.00012  -0.04620
  69        2PX        -0.00068  -0.00003  -0.00006  -0.00003   0.03134
  70        2PY         0.00041  -0.00009   0.00006  -0.00002  -0.00691
  71        2PZ         0.00000  -0.00000   0.00000  -0.00000   0.00000
  72        3S         -0.00047   0.00001  -0.00012  -0.00062   0.11511
  73        3PX         0.00252   0.00018   0.00071   0.00027   0.04249
  74        3PY        -0.00162   0.00068  -0.00043   0.00022  -0.00881
  75        3PZ        -0.00000   0.00000  -0.00000   0.00000   0.00000
  76        4S          0.00918  -0.00837  -0.00810   0.00732   0.00699
  77        4PX        -0.01152   0.00090   0.00334  -0.00873  -0.03292
  78        4PY        -0.00143   0.00295   0.00129  -0.00132   0.02025
  79        4PZ         0.00000  -0.00000   0.00000  -0.00000  -0.00000
  80        5S          0.03555  -0.04148   0.00935  -0.00845  -0.28825
  81        5PX        -0.01398   0.00856  -0.00488   0.00092   0.02132
  82        5PY        -0.00037   0.00589  -0.00185   0.00121  -0.11042
  83        5PZ         0.00000   0.00000   0.00000   0.00000   0.00000
  84        6D 0        0.00068   0.00010   0.00003  -0.00005  -0.00921
  85        6D+1       -0.00000  -0.00000  -0.00000  -0.00000  -0.00000
  86        6D-1        0.00000   0.00000  -0.00000   0.00000  -0.00000
  87        6D+2       -0.00093   0.00043  -0.00019   0.00011   0.00723
  88        6D-2        0.00109  -0.00002   0.00035  -0.00000  -0.00173
  89 5   C  1S          0.00017  -0.00703   0.00023   0.00034  -0.02770
  90        2S          0.00018  -0.00562   0.00026   0.00033  -0.04227
  91        2PX        -0.00005  -0.00066  -0.00004  -0.00008   0.02652
  92        2PY         0.00011  -0.00045   0.00002  -0.00007   0.00986
  93        2PZ        -0.00000   0.00000  -0.00000   0.00000   0.00000
  94        3S          0.00004  -0.00055  -0.00061  -0.00002   0.10364
  95        3PX         0.00032   0.00243   0.00037   0.00073   0.03825
  96        3PY        -0.00080   0.00177  -0.00015   0.00052   0.01386
  97        3PZ         0.00000  -0.00000   0.00000  -0.00000   0.00000
  98        4S         -0.00707   0.01039   0.00650  -0.00835   0.06194
  99        4PX         0.00369  -0.01126  -0.00730   0.00530  -0.00969
 100        4PY        -0.00113   0.00159   0.00147  -0.00088   0.02938
 101        4PZ        -0.00000   0.00000  -0.00000   0.00000   0.00000
 102        5S         -0.03932   0.04223  -0.01775   0.00312  -0.33796
 103        5PX         0.01160  -0.01188   0.00535  -0.00054   0.16072
 104        5PY        -0.00002   0.00132   0.00055   0.00129   0.18258
 105        5PZ        -0.00000  -0.00000  -0.00000  -0.00000  -0.00000
 106        6D 0        0.00008   0.00069  -0.00005   0.00005  -0.00925
 107        6D+1        0.00000   0.00000   0.00000  -0.00000   0.00000
 108        6D-1       -0.00000   0.00000  -0.00000   0.00000   0.00000
 109        6D+2        0.00046  -0.00079   0.00006  -0.00020   0.00590
 110        6D-2        0.00009  -0.00118  -0.00002  -0.00039   0.00368
 111 6   C  1S         -0.00108   0.56214  -0.00507  -0.02780  -0.00337
 112        2S         -0.00082   0.46254  -0.00413  -0.02267  -0.00498
 113        2PX        -0.00002   0.00018  -0.00014  -0.00075   0.00310
 114        2PY         0.00002   0.00002   0.00011   0.00034   0.00222
 115        2PZ         0.00000   0.00000   0.00000   0.00000  -0.00000
 116        3S         -0.00052   0.02001  -0.00005  -0.00150   0.01306
 117        3PX         0.00015  -0.00035   0.00089   0.00317   0.00230
 118        3PY        -0.00028   0.00015  -0.00085  -0.00142   0.00186
 119        3PZ        -0.00000   0.00000  -0.00000   0.00000  -0.00000
 120        4S          0.00685  -0.02342  -0.01059   0.01162  -0.00669
 121        4PX        -0.00009  -0.00056  -0.00037  -0.00058   0.01145
 122        4PY         0.00357  -0.01186  -0.00619   0.00769  -0.01587
 123        4PZ         0.00000  -0.00000   0.00000  -0.00000   0.00000
 124        5S          0.03849  -0.02983   0.01134  -0.00410   0.41287
 125        5PX         0.00231  -0.00305   0.00072   0.00116   0.10952
 126        5PY         0.00660  -0.00416   0.00077   0.00023   0.03157
 127        5PZ         0.00000   0.00000   0.00000   0.00000   0.00000
 128        6D 0       -0.00003  -0.00180   0.00012   0.00075   0.00003
 129        6D+1       -0.00000   0.00000   0.00000   0.00000  -0.00000
 130        6D-1        0.00000  -0.00000  -0.00000  -0.00000   0.00000
 131        6D+2       -0.00006  -0.00031  -0.00029  -0.00080   0.00067
 132        6D-2        0.00006  -0.00016   0.00049   0.00158  -0.00061
 133 7   N  1S          0.00000   0.00000   0.00000   0.00000  -0.06645
 134        2S          0.00003   0.00003   0.00002   0.00003  -0.10405
 135        2PX        -0.00006  -0.00003  -0.00004  -0.00003   0.00514
 136        2PY         0.00001  -0.00001   0.00001  -0.00001  -0.04064
 137        2PZ        -0.00000   0.00000  -0.00000   0.00000  -0.00000
 138        3S         -0.00029  -0.00030  -0.00015  -0.00032   0.28195
 139        3PX         0.00028   0.00019   0.00020   0.00016   0.00941
 140        3PY         0.00003   0.00009   0.00001   0.00006  -0.06467
 141        3PZ         0.00000  -0.00000   0.00000  -0.00000  -0.00000
 142        4S          0.00412   0.00070  -0.00005   0.00342   0.19623
 143        4PX        -0.00135  -0.00097  -0.00044  -0.00123  -0.01709
 144        4PY        -0.00033  -0.00184  -0.00037  -0.00050  -0.04399
 145        4PZ        -0.00000   0.00000  -0.00000   0.00000   0.00000
 146        5S          0.00740   0.00830   0.00207   0.00511   0.00334
 147        5PX         0.00021  -0.00021   0.00062  -0.00100   0.00869
 148        5PY         0.00073  -0.00344   0.00175  -0.00085   0.05806
 149        5PZ         0.00000  -0.00000  -0.00000  -0.00000  -0.00000
 150        6D 0       -0.00001   0.00000  -0.00001  -0.00001  -0.01195
 151        6D+1        0.00000  -0.00000  -0.00000  -0.00000  -0.00000
 152        6D-1       -0.00000   0.00000   0.00000   0.00000   0.00000
 153        6D+2       -0.00019  -0.00006  -0.00007  -0.00005  -0.00462
 154        6D-2        0.00009  -0.00003   0.00003  -0.00001  -0.00398
 155 8   N  1S          0.00000   0.00000   0.00000   0.00000  -0.07300
 156        2S          0.00002   0.00002   0.00001   0.00001  -0.11435
 157        2PX        -0.00002  -0.00003  -0.00002  -0.00002  -0.06000
 158        2PY        -0.00000   0.00000   0.00000  -0.00000  -0.00081
 159        2PZ         0.00000  -0.00000   0.00000   0.00000  -0.00000
 160        3S         -0.00014  -0.00011  -0.00003  -0.00002   0.31756
 161        3PX         0.00009   0.00015   0.00008   0.00007  -0.09761
 162        3PY         0.00002  -0.00002   0.00000   0.00000   0.00099
 163        3PZ        -0.00000   0.00000  -0.00000  -0.00000  -0.00000
 164        4S          0.00017  -0.00075  -0.00027  -0.00020   0.16574
 165        4PX        -0.00029   0.00008   0.00006   0.00005  -0.01964
 166        4PY        -0.00006   0.00010   0.00017  -0.00015   0.00253
 167        4PZ         0.00000   0.00000   0.00000   0.00000  -0.00000
 168        5S         -0.00462  -0.00799   0.00001  -0.00027   0.01065
 169        5PX         0.00111   0.00190   0.00001   0.00015   0.00415
 170        5PY         0.00034  -0.00049  -0.00052  -0.00017  -0.01721
 171        5PZ        -0.00000  -0.00000  -0.00000  -0.00000   0.00000
 172        6D 0       -0.00002   0.00000   0.00001   0.00001  -0.01359
 173        6D+1       -0.00000  -0.00000  -0.00000  -0.00000   0.00000
 174        6D-1        0.00000  -0.00000  -0.00000  -0.00000   0.00000
 175        6D+2        0.00002   0.00000  -0.00000  -0.00000   0.00172
 176        6D-2        0.00001  -0.00001  -0.00001   0.00001  -0.00043
 177 9   N  1S          0.00000   0.00000   0.00000   0.00000  -0.05519
 178        2S          0.00002   0.00004   0.00003   0.00001  -0.08610
 179        2PX        -0.00004  -0.00006  -0.00003  -0.00004   0.00393
 180        2PY         0.00001  -0.00002  -0.00000  -0.00001   0.05248
 181        2PZ        -0.00000  -0.00000  -0.00000  -0.00000   0.00000
 182        3S         -0.00013  -0.00032  -0.00028  -0.00006   0.23258
 183        3PX         0.00020   0.00028   0.00015   0.00019   0.00557
 184        3PY        -0.00007   0.00005  -0.00001   0.00003   0.08179
 185        3PZ         0.00000   0.00000   0.00000   0.00000   0.00000
 186        4S         -0.00075   0.00402   0.00287  -0.00104   0.14928
 187        4PX        -0.00011  -0.00128  -0.00101  -0.00007  -0.00931
 188        4PY         0.00033   0.00080   0.00050   0.00005   0.02706
 189        4PZ        -0.00000  -0.00000  -0.00000  -0.00000  -0.00000
 190        5S          0.00519   0.00653   0.00380  -0.00082  -0.07637
 191        5PX        -0.00049   0.00021  -0.00163   0.00005  -0.02149
 192        5PY         0.00166   0.00081   0.00080  -0.00074  -0.04205
 193        5PZ         0.00000   0.00000   0.00000   0.00000   0.00000
 194        6D 0       -0.00000   0.00001   0.00000  -0.00001  -0.01045
 195        6D+1       -0.00000   0.00000  -0.00000   0.00000  -0.00000
 196        6D-1       -0.00000  -0.00000  -0.00000  -0.00000   0.00000
 197        6D+2       -0.00009  -0.00016  -0.00004  -0.00006  -0.00703
 198        6D-2        0.00002  -0.00001   0.00003  -0.00002   0.00475
 199 10  H  1S          0.00037  -0.00006  -0.00025   0.00004   0.00130
 200        2S         -0.00567   0.00021   0.00051  -0.00123   0.00130
 201        3S          0.00024   0.00073   0.00221  -0.00154  -0.00603
 202        4PX        -0.00003   0.00003   0.00009   0.00003   0.00003
 203        4PY         0.00245   0.00009   0.00022   0.00021  -0.00036
 204        4PZ         0.00000  -0.00000   0.00000  -0.00000  -0.00000
 205 11  H  1S         -0.00020  -0.00003   0.00040  -0.00024   0.00035
 206        2S          0.00019  -0.00081  -0.00512   0.00089  -0.00195
 207        3S          0.00254  -0.00025   0.00084   0.00253  -0.00296
 208        4PX        -0.00046  -0.00018  -0.00203  -0.00010  -0.00017
 209        4PY         0.00013   0.00011   0.00106   0.00012   0.00015
 210        4PZ        -0.00000   0.00000   0.00000   0.00000  -0.00000
 211 12  H  1S         -0.00003  -0.00021  -0.00020   0.00042   0.00034
 212        2S         -0.00086   0.00028   0.00034  -0.00527  -0.00178
 213        3S         -0.00026   0.00251   0.00259   0.00052  -0.00201
 214        4PX        -0.00017  -0.00043  -0.00029  -0.00197  -0.00021
 215        4PY        -0.00012  -0.00013  -0.00024  -0.00116  -0.00001
 216        4PZ         0.00000  -0.00000   0.00000   0.00000   0.00000
 217 13  H  1S         -0.00007   0.00039   0.00000  -0.00025   0.00124
 218        2S          0.00022  -0.00565  -0.00108   0.00057  -0.00201
 219        3S          0.00077   0.00027  -0.00126   0.00244  -0.00920
 220        4PX         0.00001   0.00010   0.00005   0.00010  -0.00023
 221        4PY        -0.00008  -0.00241  -0.00021  -0.00023   0.00002
 222        4PZ        -0.00000   0.00000  -0.00000   0.00000  -0.00000
 223 14  H  1S         -0.00005  -0.00006  -0.00003  -0.00002   0.02686
 224        2S         -0.00013   0.00077   0.00018   0.00001   0.03784
 225        3S         -0.00129   0.00049  -0.00118  -0.00017  -0.02974
 226        4PX         0.00007   0.00001   0.00006   0.00004  -0.00273
 227        4PY         0.00012  -0.00008   0.00001   0.00004  -0.00820
 228        4PZ         0.00000   0.00000   0.00000   0.00000  -0.00000
                          11        12        13        14        15
                           O         O         O         O         O
     Eigenvalues --    -0.92361  -0.88151  -0.79184  -0.76975  -0.66660
   1 1   C  1S         -0.00486  -0.04493   0.06064  -0.03228  -0.04496
   2        2S         -0.00742  -0.06916   0.09374  -0.04994  -0.07003
   3        2PX         0.00396   0.02432  -0.01034   0.02748  -0.03913
   4        2PY         0.00135  -0.00939   0.01672   0.03909  -0.02974
   5        2PZ         0.00000  -0.00000   0.00000  -0.00000   0.00000
   6        3S          0.01879   0.17831  -0.24553   0.13141   0.18854
   7        3PX         0.00662   0.03609  -0.01564   0.04028  -0.05441
   8        3PY         0.00224  -0.01493   0.02631   0.05691  -0.04432
   9        3PZ        -0.00000   0.00000  -0.00000   0.00000  -0.00000
  10        4S          0.02471   0.08523  -0.12612   0.06611   0.11850
  11        4PX         0.00813   0.00860  -0.00724   0.00881  -0.02413
  12        4PY        -0.00134  -0.00243   0.00956   0.01831  -0.01009
  13        4PZ         0.00000  -0.00000   0.00000  -0.00000   0.00000
  14        5S          0.13690  -0.09784  -0.04617  -0.13721  -0.03348
  15        5PX         0.04818  -0.02930  -0.00862  -0.04673  -0.02956
  16        5PY         0.06189  -0.02602  -0.03857  -0.03651  -0.02501
  17        5PZ        -0.00000   0.00000   0.00000   0.00000  -0.00000
  18        6D 0       -0.00091  -0.00830   0.00850  -0.00409  -0.00370
  19        6D+1        0.00000   0.00000  -0.00000   0.00000  -0.00000
  20        6D-1        0.00000   0.00000  -0.00000   0.00000  -0.00000
  21        6D+2        0.00164  -0.00009   0.00482   0.00806  -0.00832
  22        6D-2        0.00011   0.00127  -0.00163   0.00897   0.00002
  23 2   C  1S         -0.00076  -0.04460   0.05607   0.04108  -0.03426
  24        2S         -0.00123  -0.06863   0.08663   0.06356  -0.05331
  25        2PX        -0.00041   0.02376  -0.00616  -0.02994  -0.04370
  26        2PY         0.00227   0.01096  -0.02152   0.03319   0.03874
  27        2PZ         0.00000  -0.00000   0.00000   0.00000   0.00000
  28        3S          0.00357   0.17665  -0.22650  -0.16696   0.14312
  29        3PX        -0.00063   0.03517  -0.00904  -0.04396  -0.06103
  30        3PY         0.00347   0.01717  -0.03330   0.04806   0.05703
  31        3PZ         0.00000  -0.00000  -0.00000  -0.00000   0.00000
  32        4S         -0.01612   0.08330  -0.11176  -0.08086   0.10068
  33        4PX        -0.00649   0.00782  -0.00262  -0.00923  -0.02212
  34        4PY        -0.00018   0.00358  -0.01217   0.01416   0.01756
  35        4PZ        -0.00000   0.00000   0.00000   0.00000  -0.00000
  36        5S         -0.10198   0.00502  -0.04090   0.10721   0.01501
  37        5PX        -0.04590   0.00799   0.00852   0.04608   0.01460
  38        5PY         0.05243  -0.01257  -0.00379  -0.02328  -0.04271
  39        5PZ         0.00000  -0.00000  -0.00000  -0.00000   0.00000
  40        6D 0       -0.00023  -0.00821   0.00788   0.00525  -0.00269
  41        6D+1       -0.00000   0.00000  -0.00000  -0.00000  -0.00000
  42        6D-1       -0.00000   0.00000  -0.00000   0.00000   0.00000
  43        6D+2       -0.00126   0.00030   0.00566  -0.00814  -0.00929
  44        6D-2       -0.00046  -0.00101   0.00115   0.00817   0.00066
  45 3   C  1S         -0.01426  -0.04792   0.02231  -0.07025   0.02913
  46        2S         -0.02185  -0.07374   0.03457  -0.10871   0.04548
  47        2PX         0.01042   0.00303   0.03813   0.00136  -0.03902
  48        2PY        -0.00458  -0.02917   0.01209  -0.01638   0.01110
  49        2PZ        -0.00000   0.00000  -0.00000   0.00000   0.00000
  50        3S          0.05728   0.19017  -0.09051   0.28570  -0.12185
  51        3PX         0.01435   0.00486   0.05453   0.00390  -0.05572
  52        3PY        -0.00552  -0.04199   0.01750  -0.02373   0.01358
  53        3PZ         0.00000  -0.00000   0.00000  -0.00000  -0.00000
  54        4S         -0.03330   0.09170  -0.04826   0.16955  -0.06104
  55        4PX        -0.00810   0.00634   0.01688   0.00803  -0.01396
  56        4PY         0.02048  -0.01105   0.00348  -0.01251   0.00241
  57        4PZ        -0.00000   0.00000  -0.00000   0.00000   0.00000
  58        5S         -0.04799   0.05614  -0.13806  -0.00737  -0.25915
  59        5PX         0.11458  -0.06317  -0.08681  -0.08630  -0.09020
  60        5PY         0.04607  -0.02904  -0.00156  -0.01890   0.01330
  61        5PZ         0.00000  -0.00000  -0.00000  -0.00000   0.00000
  62        6D 0       -0.00194  -0.00858   0.00345  -0.00907   0.00374
  63        6D+1       -0.00000   0.00000  -0.00000   0.00000  -0.00000
  64        6D-1        0.00000   0.00000  -0.00000   0.00000  -0.00000
  65        6D+2        0.00419  -0.00017   0.00092   0.00367   0.00248
  66        6D-2       -0.00032  -0.00104  -0.00920  -0.00073   0.00953
  67 4   C  1S         -0.03845  -0.05140  -0.04461  -0.03366   0.02112
  68        2S         -0.05916  -0.07945  -0.06918  -0.05234   0.03311
  69        2PX         0.03409  -0.02591   0.03797  -0.03668   0.07410
  70        2PY         0.02518  -0.01715  -0.02118   0.02952   0.01874
  71        2PZ        -0.00000   0.00000   0.00000   0.00000   0.00000
  72        3S          0.15412   0.20918   0.18719   0.14129  -0.08885
  73        3PX         0.05105  -0.03655   0.05494  -0.05065   0.10404
  74        3PY         0.04065  -0.02564  -0.03093   0.04593   0.02816
  75        3PZ         0.00000   0.00000   0.00000   0.00000   0.00000
  76        4S          0.07022   0.09466   0.07442   0.06779  -0.07361
  77        4PX        -0.06252  -0.00456   0.00419   0.00077   0.04284
  78        4PY         0.01782  -0.00826  -0.00504   0.00608   0.00435
  79        4PZ         0.00000  -0.00000   0.00000  -0.00000   0.00000
  80        5S          0.67682  -0.14188  -0.02373  -0.41807   0.00469
  81        5PX         0.08304   0.02076  -0.07901  -0.04777  -0.16222
  82        5PY        -0.29517   0.13531   0.14142   0.22893   0.15784
  83        5PZ        -0.00000   0.00000   0.00000   0.00000  -0.00000
  84        6D 0       -0.00802  -0.00954  -0.00666  -0.00438   0.00154
  85        6D+1        0.00000  -0.00000   0.00000  -0.00000   0.00000
  86        6D-1       -0.00000  -0.00000  -0.00000   0.00000  -0.00000
  87        6D+2        0.01449  -0.00213  -0.00488   0.00702   0.00303
  88        6D-2        0.00774  -0.00244  -0.00021  -0.00896   0.00791
  89 5   C  1S          0.02320  -0.05692  -0.04994   0.02893   0.00734
  90        2S          0.03568  -0.08786  -0.07744   0.04494   0.01140
  91        2PX        -0.03366  -0.01852   0.03270   0.03554   0.08985
  92        2PY         0.02194   0.01077   0.01679   0.03432  -0.02363
  93        2PZ        -0.00000   0.00000   0.00000   0.00000   0.00000
  94        3S         -0.09148   0.22970   0.20730  -0.12093  -0.02868
  95        3PX        -0.04960  -0.02560   0.04919   0.04903   0.12860
  96        3PY         0.03584   0.01560   0.02452   0.05274  -0.03500
  97        3PZ        -0.00000  -0.00000   0.00000  -0.00000   0.00000
  98        4S         -0.02667   0.10879   0.11376  -0.06527  -0.01770
  99        4PX         0.05232  -0.00786   0.01411  -0.00166   0.03326
 100        4PY         0.00891   0.00607   0.01815   0.01032  -0.00880
 101        4PZ         0.00000   0.00000   0.00000   0.00000  -0.00000
 102        5S         -0.62927   0.31975   0.28616   0.49637   0.31456
 103        5PX        -0.08692  -0.02967   0.00424   0.02418   0.02363
 104        5PY        -0.30831   0.02319   0.05471   0.19407   0.10859
 105        5PZ         0.00000  -0.00000  -0.00000  -0.00000   0.00000
 106        6D 0        0.00546  -0.01061  -0.00758   0.00344  -0.00040
 107        6D+1       -0.00000   0.00000   0.00000  -0.00000   0.00000
 108        6D-1       -0.00000   0.00000  -0.00000   0.00000   0.00000
 109        6D+2       -0.01585   0.00108  -0.00342  -0.00639   0.00863
 110        6D-2        0.00318  -0.00006  -0.00009  -0.00788  -0.00547
 111 6   C  1S          0.00554  -0.04892   0.01334   0.07199   0.03477
 112        2S          0.00839  -0.07529   0.02068   0.11144   0.05433
 113        2PX        -0.00679   0.00302   0.03942   0.00524  -0.02168
 114        2PY        -0.00041   0.02888  -0.00773  -0.01676  -0.01260
 115        2PZ        -0.00000   0.00000  -0.00000  -0.00000   0.00000
 116        3S         -0.02187   0.19439  -0.05390  -0.29316  -0.14520
 117        3PX        -0.00818   0.00517   0.05715   0.00514  -0.03291
 118        3PY         0.00159   0.04196  -0.01082  -0.02527  -0.01724
 119        3PZ        -0.00000   0.00000   0.00000   0.00000  -0.00000
 120        4S          0.03201   0.08874  -0.02550  -0.17055  -0.09437
 121        4PX         0.00006   0.00324   0.02206   0.00064  -0.00888
 122        4PY         0.01731   0.00989  -0.00446  -0.01396  -0.01252
 123        4PZ         0.00000  -0.00000  -0.00000  -0.00000   0.00000
 124        5S         -0.03969  -0.10653  -0.02966  -0.03405  -0.05048
 125        5PX        -0.11359  -0.00568  -0.00790   0.05532   0.04266
 126        5PY         0.02575  -0.01471  -0.00683  -0.01402  -0.01001
 127        5PZ        -0.00000   0.00000   0.00000   0.00000  -0.00000
 128        6D 0        0.00038  -0.00867   0.00220   0.00929   0.00449
 129        6D+1       -0.00000   0.00000   0.00000  -0.00000  -0.00000
 130        6D-1       -0.00000  -0.00000   0.00000  -0.00000  -0.00000
 131        6D+2       -0.00354   0.00081   0.00056  -0.00381   0.00381
 132        6D-2        0.00065   0.00104   0.00951   0.00001  -0.00801
 133 7   N  1S         -0.08273   0.01511  -0.00242   0.01856  -0.02639
 134        2S         -0.13050   0.02404  -0.00374   0.02954  -0.04204
 135        2PX        -0.01545  -0.04143  -0.07643  -0.03165  -0.04988
 136        2PY         0.01353   0.00952   0.01441  -0.00350   0.07709
 137        2PZ        -0.00000   0.00000  -0.00000   0.00000  -0.00000
 138        3S          0.36531  -0.06985   0.00762  -0.08500   0.11987
 139        3PX        -0.02086  -0.06192  -0.11526  -0.04597  -0.07472
 140        3PY         0.01790   0.01615   0.02274  -0.00348   0.11393
 141        3PZ        -0.00000  -0.00000  -0.00000   0.00000  -0.00000
 142        4S          0.30001  -0.04214   0.02580  -0.08221   0.11043
 143        4PX        -0.01929  -0.02477  -0.05404  -0.02673  -0.04062
 144        4PY        -0.00619   0.00545  -0.00132   0.00567   0.05568
 145        4PZ        -0.00000   0.00000   0.00000   0.00000  -0.00000
 146        5S         -0.10933  -0.07442  -0.05925   0.05259   0.02545
 147        5PX         0.00641  -0.00162   0.00798   0.01648   0.02038
 148        5PY         0.05435  -0.03502   0.00226  -0.04939   0.01644
 149        5PZ        -0.00000  -0.00000  -0.00000  -0.00000   0.00000
 150        6D 0       -0.00790   0.00168  -0.00035   0.00159  -0.00042
 151        6D+1        0.00000  -0.00000   0.00000  -0.00000   0.00000
 152        6D-1       -0.00000  -0.00000  -0.00000   0.00000  -0.00000
 153        6D+2        0.00498   0.00375   0.00549   0.00204   0.00073
 154        6D-2        0.00287   0.00648   0.01236  -0.00056   0.01208
 155 8   N  1S          0.02212   0.03296   0.05093  -0.00349   0.04676
 156        2S          0.03479   0.05210   0.08074  -0.00549   0.07447
 157        2PX         0.01586   0.01263   0.00809  -0.00376   0.00087
 158        2PY         0.08359  -0.01364  -0.01279  -0.03998  -0.03239
 159        2PZ         0.00000   0.00000  -0.00000  -0.00000  -0.00000
 160        3S         -0.09978  -0.14981  -0.23535   0.01588  -0.22011
 161        3PX         0.02464   0.02098   0.01517  -0.00543   0.00536
 162        3PY         0.12499  -0.02149  -0.02064  -0.06001  -0.04899
 163        3PZ         0.00000  -0.00000  -0.00000  -0.00000  -0.00000
 164        4S         -0.06544  -0.11038  -0.19257   0.01612  -0.20117
 165        4PX         0.01072   0.01236   0.01270  -0.00487   0.00581
 166        4PY         0.02965  -0.00558  -0.00659  -0.01469  -0.01634
 167        4PZ        -0.00000   0.00000   0.00000   0.00000   0.00000
 168        5S          0.01996   0.07186   0.16781   0.00114   0.10484
 169        5PX        -0.01001  -0.02510  -0.04496   0.00213  -0.02917
 170        5PY         0.01069   0.00661  -0.00630  -0.02432  -0.01410
 171        5PZ         0.00000  -0.00000  -0.00000  -0.00000  -0.00000
 172        6D 0        0.00209   0.00299   0.00233  -0.00015   0.00042
 173        6D+1       -0.00000   0.00000   0.00000   0.00000   0.00000
 174        6D-1       -0.00000  -0.00000  -0.00000  -0.00000   0.00000
 175        6D+2       -0.00117   0.00425   0.00821   0.00107   0.00324
 176        6D-2       -0.02297   0.00379   0.00328   0.00773   0.00795
 177 9   N  1S          0.07292  -0.00779  -0.01564  -0.01203  -0.04154
 178        2S          0.11458  -0.01215  -0.02468  -0.01904  -0.06612
 179        2PX        -0.00094  -0.03469  -0.06264   0.02412  -0.05608
 180        2PY        -0.04374  -0.00942  -0.01278   0.01741  -0.01328
[...]
   X10       -1.30563   0.00001   0.00000   0.00023   0.00024  -1.30539
   Y10        1.68014  -0.00002   0.00000  -0.00006  -0.00007   1.68007
   Z10       -0.00000  -0.00000   0.00000  -0.00000  -0.00000  -0.00000
   X11       -5.24329   0.00000   0.00000  -0.00001   0.00000  -5.24329
   Y11       -0.87147  -0.00000   0.00000   0.00001   0.00000  -0.87146
   Z11        0.00000  -0.00000   0.00000  -0.00000  -0.00000  -0.00000
   X12       -5.12007   0.00000   0.00000   0.00001   0.00002  -5.12005
   Y12       -5.51999  -0.00000   0.00000   0.00002   0.00001  -5.51997
   Z12        0.00000  -0.00000   0.00000  -0.00000  -0.00000  -0.00000
   X13       -1.02513  -0.00000   0.00000  -0.00017  -0.00016  -1.02529
   Y13       -7.83917   0.00001   0.00000   0.00000  -0.00000  -7.83918
   Z13       -0.00000  -0.00000   0.00000   0.00000   0.00000   0.00000
   X14        4.30734  -0.00003   0.00000  -0.00029  -0.00028   4.30707
   Y14        0.72608  -0.00005   0.00000   0.00022   0.00021   0.72629
   Z14       -0.00000   0.00000   0.00000   0.00000   0.00000   0.00000
         Item               Value     Threshold  Converged?
 Maximum Force            0.000290     0.000450     YES
 RMS     Force            0.000072     0.000300     YES
 Maximum Displacement     0.000408     0.001800     YES
 RMS     Displacement     0.000117     0.001200     YES
 Predicted change in Energy=-1.359746D-07
 Optimization completed.
    -- Stationary point found.
 GradGradGradGradGradGradGradGradGradGradGradGradGradGradGradGradGradGrad

 Leave Link  103 at Fri Jun  2 11:42:07 2023, MaxMem=  7381975040 cpu:               1.5 elap:               2.3
 (Enter /software/commercial/gaussian/g16/AVX/g16/l9999.exe)

 ----------------------------------------------------------------------

 Electric dipole moment (input orientation):
 (Debye = 10**-18 statcoulomb cm , SI units = C m)
                  (au)            (Debye)         (10**-30 SI)
   Tot        0.224107D+01      0.569622D+01      0.190005D+02
   x         -0.140291D+01     -0.356584D+01     -0.118944D+02
   y          0.174763D+01      0.444204D+01      0.148171D+02
   z          0.000000D+00      0.000000D+00      0.000000D+00

 Dipole polarizability, Alpha (input orientation).
 (esu units = cm**3 , SI units = C**2 m**2 J**-1)
 Alpha(0;0):
               (au)            (10**-24 esu)      (10**-40 SI)
   iso        0.119640D+03      0.177288D+02      0.197259D+02
   aniso      0.883934D+02      0.130985D+02      0.145741D+02
   xx         0.164699D+03      0.244059D+02      0.271552D+02
   yx         0.521290D+00      0.772472D-01      0.859492D-01
   yy         0.129995D+03      0.192632D+02      0.214332D+02
   zx         0.000000D+00      0.000000D+00      0.000000D+00
   zy         0.000000D+00      0.000000D+00      0.000000D+00
   zz         0.642249D+02      0.951714D+01      0.105892D+02

 First dipole hyperpolarizability, Beta (input orientation).
 ||, _|_  parallel and perpendicular components, (z) with respect to z axis,
 vector components x,y,z.  Values do not include the 1/n! factor of 1/2.
 (esu units = statvolt**-1 cm**4 , SI units = C**3 m**3 J**-2)
 Beta(0;0,0):
               (au)            (10**-30 esu)      (10**-50 SI)
   || (z)     0.000000D+00      0.000000D+00      0.000000D+00
   _|_(z)     0.000000D+00      0.000000D+00      0.000000D+00
   x          0.293831D+02      0.253847D+00      0.942128D-01
   y         -0.514759D+03     -0.444712D+01     -0.165050D+01
   z          0.000000D+00      0.000000D+00      0.000000D+00
   ||         0.103119D+03      0.890872D+00      0.330638D+00
   xxx        0.152754D+03      0.131968D+01      0.489785D+00
   xxy       -0.908641D+02     -0.784995D+00     -0.291343D+00
   yxy       -0.185266D+02     -0.160055D+00     -0.594029D-01
   yyy       -0.545790D+02     -0.471520D+00     -0.175000D+00
   xxz        0.000000D+00      0.000000D+00      0.000000D+00
   yxz        0.000000D+00      0.000000D+00      0.000000D+00
   yyz        0.000000D+00      0.000000D+00      0.000000D+00
   zxz       -0.124433D+03     -0.107500D+01     -0.398977D+00
   zyz       -0.261433D+02     -0.225858D+00     -0.838249D-01
   zzz        0.000000D+00      0.000000D+00      0.000000D+00

 ----------------------------------------------------------------------

 Dipole orientation:
     6         -2.96579385         -2.38078402          0.73180360
     6         -4.22951079         -3.39522982         -1.39968531
     6         -0.93475576         -0.75037298          0.49574841
     6         -0.19539075         -0.15684947         -1.97579300
     6         -1.43512101         -1.15204001         -4.11052816
     6         -3.49235707         -2.80348141         -3.83528142
     7          1.64818345          1.32307538         -2.99750590
     7          1.56209202          1.25396569         -5.55058488
     7         -0.26830477         -0.21538102         -6.24456617
     1          0.02621090          0.02104074          2.12753500
     1         -3.61399131         -2.90112301          2.60271754
     1         -5.80832218         -4.66261694         -1.09944197
     1         -4.45024948         -3.57242728         -5.47143410
     1          2.97384714          2.38724879         -2.13018440

 Electric dipole moment (dipole orientation):
 (Debye = 10**-18 statcoulomb cm , SI units = C m)
                  (au)            (Debye)         (10**-30 SI)
   Tot        0.224107D+01      0.569622D+01      0.190005D+02
   x          0.000000D+00      0.000000D+00      0.000000D+00
   y          0.000000D+00      0.000000D+00      0.000000D+00
   z          0.224107D+01      0.569622D+01      0.190005D+02

 Dipole polarizability, Alpha (dipole orientation).
 (esu units = cm**3 , SI units = C**2 m**2 J**-1)
 Alpha(0;0):
               (au)            (10**-24 esu)      (10**-40 SI)
   iso        0.119640D+03      0.177288D+02      0.197259D+02
   aniso      0.883934D+02      0.130985D+02      0.145741D+02
   xx         0.117365D+03      0.173917D+02      0.193508D+02
   yx         0.426579D+02      0.632125D+01      0.703333D+01
   yy         0.984684D+02      0.145915D+02      0.162352D+02
   zx        -0.131235D+02     -0.194471D+01     -0.216378D+01
   zy        -0.105349D+02     -0.156111D+01     -0.173697D+01
   zz         0.143086D+03      0.212031D+02      0.235916D+02

 First dipole hyperpolarizability, Beta (dipole orientation).
 ||, _|_  parallel and perpendicular components, (z) with respect to z axis,
 vector components x,y,z.  Values do not include the 1/n! factor of 1/2.
 (esu units = statvolt**-1 cm**4 , SI units = C**3 m**3 J**-2)
 Beta(0;0,0):
               (au)            (10**-30 esu)      (10**-50 SI)
   || (z)    -0.839629D+02     -0.725374D+00     -0.269216D+00
   _|_(z)    -0.279876D+02     -0.241791D+00     -0.897385D-01
   x         -0.233421D+03     -0.201658D+01     -0.748433D+00
   y         -0.187378D+03     -0.161880D+01     -0.600803D+00
   z         -0.419815D+03     -0.362687D+01     -0.134608D+01
   ||         0.103119D+03      0.890872D+00      0.330638D+00
   xxx       -0.133227D+03     -0.115098D+01     -0.427174D+00
   xxy        0.350310D+02      0.302641D+00      0.112322D+00
   yxy       -0.332536D+01     -0.287285D-01     -0.106623D-01
   yyy       -0.144648D+03     -0.124965D+01     -0.463794D+00
   xxz       -0.212161D+02     -0.183290D+00     -0.680264D-01
   yxz       -0.631956D+02     -0.545961D+00     -0.202628D+00
   yyz        0.677792D+01      0.585559D-01      0.217324D-01
   zxz        0.587454D+02      0.507514D+00      0.188359D+00
   zyz        0.471577D+02      0.407406D+00      0.151205D+00
   zzz       -0.125500D+03     -0.108422D+01     -0.402399D+00

 ----------------------------------------------------------------------
 Unable to Open any file for archive entry.
 1\1\GINC-NODE1751\Freq\RB3LYP\6-311+G(d,p)\C6H5N3\SVICCHI\02-Jun-2023\
 0\\#p freq=raman scale=0.967 pop=(nbo,full,hirshfeld) guess=read geom=
 allcheck b3lyp/6-311+G(d,p) int=grid=ultrafine EmpiricalDispersion=GD3
 BJ SCRF=(Solvent=ethanol) scf=(xqc,intrep,maxconventionalcycle=350) no
 symm\\bentriz-H_dissociation-site_index-6.gjf\\0,1\C,-1.8118516542,-0.
 9578674266,0.\C,-1.774493556,-2.3742784038,0.\C,-0.6588756898,-0.19250
 26116,0.\C,0.5511153162,-0.8983403999,0.\C,0.6022419897,-2.3059015453,
 0.\C,-0.5775801439,-3.0662221964,0.\N,1.8651507954,-0.5368223378,0.\N,
 2.665339635,-1.6269581591,0.\N,1.9266272841,-2.6908842586,0.\H,-0.6909
 082982,0.8890920228,0.\H,-2.7746318352,-0.4611595702,0.\H,-2.709424763
 9,-2.9210510832,0.\H,-0.5424743783,-4.1483126298,0.\H,2.2793482991,0.3
 842265997,0.\\Version=ES64L-G16RevC.01\HF=-396.0088262\RMSD=3.174e-09\
 RMSF=7.199e-05\ZeroPoint=0.1023593\Thermal=0.1084541\ETot=-395.9003721
 \HTot=-395.8994279\GTot=-395.9366851\Dipole=-1.4029089,1.7476337,0.\Di
 poleDeriv=-0.0602266,0.0136249,0.,-0.1889498,0.2054814,0.,0.,0.,-0.167
 0323,-0.1528931,0.1408684,0.,0.2764208,-0.0802333,0.,0.,0.,-0.2008451,
 0.0353086,-0.1884239,0.,-0.0095593,0.0531561,0.,0.,0.,-0.1712823,0.464
 0843,0.2025398,0.,0.1528755,-0.0868166,0.,0.,0.,0.1372573,-0.0163042,0
 .1166592,0.,0.0072304,-0.077881,0.,0.,0.,0.0669773,0.2999634,-0.052492
 3,0.,0.0421292,0.1126853,0.,0.,0.,-0.1372729,-0.2186518,0.2502537,0.,-
 0.2640647,-0.8423564,0.,0.,0.,-0.1776763,-0.864648,-0.1280138,0.,-0.34
 01699,0.9902693,0.,0.,0.,-0.2169343,0.1793618,-0.4426129,0.,0.2101665,
 -0.6004841,0.,0.,0.,-0.2602822,0.0881658,-0.0043483,0.,0.0162185,-0.06
 31226,0.,0.,0.,0.1939601,-0.064425,0.0897554,0.,0.0844716,0.0556468,0.
 ,0.,0.,0.1733851,-0.0624934,-0.0938996,0.,-0.0925877,0.0415121,0.,0.,0
 .,0.1798715,0.1027669,0.0167364,0.,-0.0110243,-0.0673051,0.,0.,0.,0.18
 26407,0.2699914,0.0793531,0.,0.1168431,0.3594481,0.,0.,0.,0.3972334\Po
 lar=164.6990971,0.5212903,129.9947131,0.,0.,64.224854\PolarDeriv=-6.69
 77245,-1.484292,-11.9888421,0.,0.,-4.5242767,7.2237155,-2.6866003,-18.
 2558261,0.,0.,1.1195039,0.,0.,0.,-8.2081669,1.6096841,0.,-3.3271343,-0
 .49821,-12.1749638,0.,0.,-4.6878269,-10.3037234,0.5740125,18.7118159,0
 .,0.,-1.2886528,0.,0.,0.,-7.7626015,-1.9257275,0.,14.757249,3.8637209,
 11.2697504,0.,0.,1.3183276,1.2140191,-1.3166279,5.2171061,0.,0.,4.4446
 852,0.,0.,0.,0.4269271,7.4471703,0.,0.4139781,-1.2444373,-1.5761747,0.
 ,0.,2.3361747,39.6451476,-0.242717,1.2323264,0.,0.,0.507794,0.,0.,0.,0
 .4772351,2.6360144,0.,14.755476,-0.5987728,-2.9507645,0.,0.,1.297742,-
 37.8839697,2.2440995,-3.0396998,0.,0.,-0.5317156,0.,0.,0.,1.4958101,-2
 .2537055,0.,6.1392549,-1.201907,12.2838128,0.,0.,2.2288564,-1.6049175,
 -1.0071962,-4.8181572,0.,0.,-4.3022297,0.,0.,0.,0.2200388,-7.4871481,0
 .,-17.4828891,2.7941221,0.2436741,0.,0.,0.8615214,3.4585463,1.6643522,
 -2.013268,0.,0.,0.6712293,0.,0.,0.,3.403078,2.9442907,0.,42.2932052,-1
 .4561605,5.2262315,0.,0.,0.7195955,9.9029833,2.443416,-0.9005958,0.,0.
 ,0.2046035,0.,0.,0.,5.3005003,0.3757954,0.,-25.9944407,-3.8286062,2.82
 15264,0.,0.,1.3581387,-17.2250625,4.5779143,-7.4101922,0.,0.,-1.905226
 ,0.,0.,0.,3.3299493,-3.8289092,0.,-0.2271205,2.1417561,-0.5309269,0.,0
 .,-0.044415,1.6374258,-1.585035,17.2105203,0.,0.,0.9846941,0.,0.,0.,0.
 0237799,-0.427738,0.,-14.9618791,5.3713912,-3.4514092,0.,0.,-0.6970985
 ,5.6169601,-4.3228416,2.8016804,0.,0.,0.3668722,0.,0.,0.,0.526407,0.29
 49387,0.,-13.8610773,-5.5885967,-3.7787845,0.,0.,-0.6440246,-5.7367257
 ,-4.6325346,-3.5273742,0.,0.,-0.4091403,0.,0.,0.,0.6372616,-0.1906281,
 0.,0.3526117,-1.855274,0.7042171,0.,0.,0.0177669,-1.29096,-0.848315,-1
 7.1768552,0.,0.,-1.0086663,0.,0.,0.,-0.0039144,0.243812,0.,3.8404906,3
 .5852662,3.9026535,0.,0.,0.4595184,5.3465611,5.1380731,11.9685194,0.,0
 .,1.1462486,0.,0.,0.,0.1336955,0.5621506,0.\HyperPolar=152.7539936,-90
 .8641305,-18.5265776,-54.5789694,0.0000001,0.,0.,-124.4330581,-26.1433
 212,0.0000002\Quadrupole=-0.3508004,-0.8383159,1.1891163,11.9453504,0.
 ,0.\PG=CS [SG(C6H5N3)]\NImag=0\\0.73657718,-0.01641939,0.63665520,0.,0
 .,0.13595879,-0.12537722,-0.02719526,0.,0.73788779,0.03439279,-0.28226
 873,0.,0.02293313,0.63655383,0.,0.,-0.06331357,0.,0.,0.13214198,-0.285
 72310,-0.08045447,0.,0.03012827,-0.06748612,0.,0.64202674,-0.13634290,
 -0.19929627,0.,-0.02633206,-0.03005820,0.,0.01169212,0.75821751,0.,0.,
 -0.05827883,0.,0.,0.00586508,0.,0.,0.12308067,-0.06971881,-0.02983233,
 0.,-0.01725249,0.03568480,0.,-0.23929997,0.11732247,0.,0.78821610,0.00
 745558,0.05198021,0.,0.01989037,-0.03616380,0.,0.08182865,-0.19049907,
 0.,-0.09912453,0.65423540,0.,0.,0.00256565,0.,0.,-0.00281432,0.,0.,-0.
 05234813,0.,0.,0.13651361,-0.01627021,-0.03503272,0.,-0.06879338,0.025
 88233,0.,0.03291739,0.02597295,0.,-0.12473461,0.01635964,0.,0.72882459
 ,-0.01607282,-0.03571388,0.,-0.01084716,0.04805769,0.,0.05248608,-0.01
 624982,0.,-0.01067347,-0.26462222,0.,0.11713845,0.67374739,0.,0.,-0.00
 304889,0.,0.,0.00358744,0.,0.,0.00091035,0.,0.,-0.07339746,0.,0.,0.144
 61547,0.02536203,0.07193093,0.,-0.30216153,0.07361184,0.,-0.05580000,-
 0.00369888,0.,0.03806894,-0.05095986,0.,-0.22802195,-0.08763237,0.,0.6
 5339314,0.02955936,-0.02577432,0.,0.12938159,-0.18609362,0.,0.00095444
 ,0.00080978,0.,-0.02651392,-0.02396215,0.,-0.11319015,-0.19892917,0.,-
 0.01987786,0.75328524,0.,0.,0.00495069,0.,0.,-0.05925790,0.,0.,0.00079
 622,0.,0.,0.00056362,0.,0.,-0.05321663,0.,0.,0.12935532,0.01108545,0.0
 1496570,0.,0.00046798,-0.01330373,0.,-0.04743086,-0.00987774,0.,-0.271
 43067,-0.05538118,0.,-0.00562927,-0.07710694,0.,-0.00768344,0.00043125
 ,0.,0.65339125,0.00758455,0.00458585,0.,0.00503444,-0.00592905,0.,0.00
 672464,0.02160699,0.,-0.05168769,-0.15783028,0.,-0.01286148,-0.0427534
 2,0.,-0.00447457,-0.00655865,0.,0.20162997,0.87544178,0.,0.,0.00540030
 ,0.,0.,-0.00116777,0.,0.,-0.00304143,0.,0.,-0.04886497,0.,0.,0.0045278
 8,0.,0.,0.00253307,0.,0.,0.07626759,-0.00899591,-0.00896717,0.,-0.0083
 9282,0.01028740,0.,0.01006365,-0.00896320,0.,-0.09640523,0.01641991,0.
 ,-0.11430172,-0.02800246,0.,0.01028787,0.01004165,0.,-0.18161395,0.028
 41140,0.,0.57188657,-0.00017675,-0.01080188,0.,-0.01109230,0.00601255,
 0.,0.00146218,-0.00312008,0.,0.05355322,-0.00045373,0.,-0.07978741,-0.
 00958245,0.,0.01801859,0.00349821,0.,0.07507848,-0.15348764,0.,0.08489
 986,0.45083110,0.,0.,0.00071692,0.,0.,-0.00019126,0.,0.,0.00627854,0.,
 0.,0.01485391,0.,0.,0.02474079,0.,0.,0.00789611,0.,0.,-0.05698801,0.,0
 .,0.10674245,0.00659144,0.01928647,0.,0.01672898,-0.02312982,0.,-0.011
 71861,0.00543962,0.,-0.00609303,0.06500878,0.,-0.19636297,0.08527863,0
 .,-0.05665900,0.00006122,0.,-0.00839120,-0.02477405,0.,-0.20111316,-0.
 16090021,0.,0.45866330,-0.00175772,0.00078016,0.,-0.00231593,-0.002820
 00,0.,-0.00172566,-0.00573714,0.,0.01774212,-0.02776680,0.,0.04792995,
 -0.14191564,0.,-0.01947648,0.01821634,0.,0.01073568,-0.14931163,0.,-0.
 09070340,-0.26318630,0.,0.02721237,0.57098294,0.,0.,-0.00192305,0.,0.,
 0.00609583,0.,0.,0.00355721,0.,0.,0.01340041,0.,0.,-0.06858553,0.,0.,-
 0.00659139,0.,0.,0.02678616,0.,0.,-0.08869729,0.,0.,0.10928682,0.00592
 405,-0.02703616,0.,-0.00392361,-0.00203171,0.,-0.05810563,0.01040250,0
 .,0.00326478,0.02848505,0.,-0.00390263,0.00024927,0.,-0.00115847,-0.00
 010514,0.,0.00288278,-0.00141433,0.,0.00009690,0.00089908,0.,-0.001239
 33,0.00190456,0.,0.05546975,0.00280250,-0.01123568,0.,-0.00285922,0.00
 098478,0.,0.00958888,-0.34225224,0.,-0.00142954,-0.00995153,0.,0.00176
 119,0.00160201,0.,0.00017700,0.00032150,0.,-0.00081681,0.00106406,0.,0
 .00066540,-0.00062054,0.,0.00018652,-0.00066710,0.,-0.01072998,0.36109
 740,0.,0.,0.00349871,0.,0.,0.00815585,0.,0.,-0.03408609,0.,0.,0.003131
 41,0.,0.,0.00558977,0.,0.,-0.00107010,0.,0.,-0.00271732,0.,0.,-0.00000
 054,0.,0.,0.00022032,0.,0.,0.02355894,-0.27957819,0.11394041,0.,0.0030
 9909,-0.00227051,0.,-0.01873070,0.01328114,0.,-0.00248433,-0.00350450,
 0.,0.00004741,-0.00056555,0.,0.00146281,-0.00047477,0.,-0.00066016,0.0
 0123837,0.,-0.00070668,-0.00068068,0.,0.00036202,0.00036970,0.,0.00107
 605,0.00000205,0.,0.29539678,0.11462558,-0.11713001,0.,0.02844134,-0.0
 1002837,0.,-0.01697889,0.01087633,0.,-0.00369392,-0.00145879,0.,-0.001
 10484,-0.00070853,0.,-0.00088081,-0.00540221,0.,-0.00041312,0.00103625
 ,0.,-0.00031178,-0.00013923,0.,0.00030736,0.00017738,0.,0.00062007,0.0
 0085605,0.,-0.12158442,0.12129313,0.,0.,-0.03751586,0.,0.,0.00318266,0
 .,0.,0.00410957,0.,0.,0.00772238,0.,0.,-0.00068478,0.,0.,0.00547356,0.
 ,0.,0.00135705,0.,0.,-0.00131453,0.,0.,-0.00002199,0.,0.,-0.00498914,0
 .,0.,0.02581270,0.00443659,0.00324848,0.,-0.26698555,-0.12253726,0.,0.
 00130760,0.00081837,0.,0.00000249,0.00050785,0.,-0.00253338,0.00406684
 ,0.,-0.01923912,-0.01520233,0.,0.00031512,-0.00030853,0.,-0.00097179,0
 .00023440,0.,-0.00035590,-0.00125699,0.,0.00009409,0.00018682,0.,0.000
 68919,-0.00033338,0.,0.28208530,-0.02784729,-0.01191539,0.,-0.12288497
 ,-0.12952062,0.,0.00133071,-0.00521888,0.,0.00115704,-0.00054584,0.,0.
 00320038,-0.00132720,0.,0.01564225,0.01133063,0.,-0.00015334,0.0001045
 5,0.,0.00029888,0.00015525,0.,0.00030715,0.00073867,0.,-0.00127140,-0.
 00062155,0.,0.00032777,0.00117380,0.,0.13048098,0.13480154,0.,0.,0.002
 41075,0.,0.,-0.03596292,0.,0.,0.00519164,0.,0.,-0.00059970,0.,0.,0.008
 09311,0.,0.,0.00344869,0.,0.,-0.00002994,0.,0.,-0.00145953,0.,0.,0.001
 46645,0.,0.,0.00020715,0.,0.,-0.00322839,0.,0.,0.02549146,-0.00429719,
 0.00178796,0.,0.00450359,0.02779199,0.,-0.00097224,0.00005656,0.,-0.00
 397927,-0.00132966,0.,0.00625603,-0.02730704,0.,-0.05888782,0.00664561
 ,0.,-0.00023042,-0.00166599,0.,0.00018427,-0.00022656,0.,0.00189838,0.
 00157241,0.,0.00019001,-0.00000018,0.,0.00004253,0.00130595,0.,0.00115
 341,-0.00061350,0.,0.05457344,0.00248291,0.00118631,0.,-0.00198609,-0.
 00949705,0.,-0.00021197,0.00030521,0.,-0.00225483,0.00063849,0.,0.0025
 7938,-0.01201727,0.,0.00727265,-0.34084763,0.,0.00039036,-0.00084030,0
 .,-0.00060813,-0.00038850,0.,0.00068456,0.00113189,0.,0.00002334,-0.00
 010132,0.,-0.00015728,-0.00054420,0.,0.00004211,0.00082837,0.,-0.00810
 250,0.35993774,0.,0.,0.00850696,0.,0.,0.00408809,0.,0.,-0.00118702,0.,
 0.,0.00571848,0.,0.,0.00352593,0.,0.,-0.03578622,0.,0.,-0.00011322,0.,
 0.,-0.00006182,0.,0.,-0.00297495,0.,0.,-0.00127469,0.,0.,0.00001982,0.
 ,0.,-0.00506039,0.,0.,0.02429186,-0.00001612,-0.00022245,0.,0.00007091
 ,0.00017487,0.,0.00133747,0.00022906,0.,0.00184610,-0.02565609,0.,-0.0
 0749531,-0.00101146,0.,0.00103654,-0.00171095,0.,-0.14507259,-0.153436
 74,0.,0.01998198,0.01871812,0.,-0.00231093,0.00976939,0.,-0.00066875,0
 .00046536,0.,-0.00001582,0.00000086,0.,0.00000193,0.00002534,0.,-0.000
 43473,-0.00015450,0.,0.13173932,-0.00028641,-0.00105157,0.,-0.00016788
 ,0.00077058,0.,0.00078940,0.00061588,0.,-0.00024941,0.00640011,0.,0.00
 115234,0.00041253,0.,0.00034757,0.00010603,0.,-0.14617858,-0.38712850,
 0.,-0.01346837,-0.01871676,0.,0.00503142,-0.00062276,0.,0.00000486,-0.
 00047583,0.,0.00007827,-0.00000158,0.,0.00005266,0.00001667,0.,0.00008
 494,0.00020827,0.,0.15280921,0.39946693,0.,0.,0.00007141,0.,0.,-0.0004
 0919,0.,0.,-0.00084776,0.,0.,-0.00644489,0.,0.,0.00334256,0.,0.,0.0009
 0497,0.,0.,-0.00394940,0.,0.,-0.01251574,0.,0.,0.00798099,0.,0.,-0.000
 22428,0.,0.,0.00007693,0.,0.,0.00003162,0.,0.,0.00030716,0.,0.,0.01167
 562\\0.00000852,0.00000603,0.,-0.00000877,0.00001320,0.,0.00000036,-0.
 00000873,0.,0.00002396,-0.00001280,0.,0.00000087,0.00000354,0.,-0.0000
 0149,0.00002412,0.,0.00012729,-0.00026431,0.,-0.00029033,0.00001752,0.
 ,0.00012479,0.00016027,0.,-0.00000981,0.00001849,0.,-0.00000065,0.0000
 0337,0.,-0.00000480,0.00000039,0.,0.00000470,-0.00001303,0.,0.00002535
 ,0.00005194,0.\\\@
 The archive entry for this job was punched.


  ON THE CHOICE OF THE CORRECT LANGUAGE -
 I SPEAK SPANISH TO GOD, ITALIAN TO WOMEN,
 FRENCH TO MEN, AND GERMAN TO MY HORSE.
          -- CHARLES V
 Job cpu time:       0 days  0 hours 32 minutes 11.8 seconds.
 Elapsed time:       0 days  0 hours 16 minutes 57.8 seconds.
 File lengths (MBytes):  RWF=    140 Int=      0 D2E=      0 Chk=     18 Scr=      1
 Normal termination of Gaussian 16 at Fri Jun  2 11:42:11 2023.
