 Entering Gaussian System, Link 0=g16
 Input=2ethylimidazolide-CO2_binding-site_index-1-freq.gjf
 Output=2ethylimidazolide-CO2_binding-site_index-1-freq.log
 Initial command:
 /software/commercial/gaussian/g16/AVX/g16/l1.exe "/scratch1/svicchi/G09-659779.pbs02/Gau-2785097.inp" -scrdir="/scratch1/svicchi/G09-659779.pbs02/"
 Entering Link 1 = /software/commercial/gaussian/g16/AVX/g16/l1.exe PID=   2785098.
  
 Copyright (c) 1988-2019, Gaussian, Inc.  All Rights Reserved.
  
 This is part of the Gaussian(R) 16 program.  It is based on
 the Gaussian(R) 09 system (copyright 2009, Gaussian, Inc.),
 the Gaussian(R) 03 system (copyright 2003, Gaussian, Inc.),
 the Gaussian(R) 98 system (copyright 1998, Gaussian, Inc.),
 the Gaussian(R) 94 system (copyright 1995, Gaussian, Inc.),
 the Gaussian 92(TM) system (copyright 1992, Gaussian, Inc.),
 the Gaussian 90(TM) system (copyright 1990, Gaussian, Inc.),
 the Gaussian 88(TM) system (copyright 1988, Gaussian, Inc.),
 the Gaussian 86(TM) system (copyright 1986, Carnegie Mellon
 University), and the Gaussian 82(TM) system (copyright 1983,
 Carnegie Mellon University). Gaussian is a federally registered
 trademark of Gaussian, Inc.
  
 This software contains proprietary and confidential information,
 including trade secrets, belonging to Gaussian, Inc.
  
 This software is provided under written license and may be
 used, copied, transmitted, or stored only in accord with that
 written license.
  
 The following legend is applicable only to US Government
 contracts under FAR:
  
                    RESTRICTED RIGHTS LEGEND
  
 Use, reproduction and disclosure by the US Government is
 subject to restrictions as set forth in subparagraphs (a)
 and (c) of the Commercial Computer Software - Restricted
 Rights clause in FAR 52.227-19.
  
 Gaussian, Inc.
 340 Quinnipiac St., Bldg. 40, Wallingford CT 06492
  
  
 ---------------------------------------------------------------
 Warning -- This program may not be used in any manner that
 competes with the business of Gaussian, Inc. or will provide
 assistance to any competitor of Gaussian, Inc.  The licensee
 of this program is prohibited from giving any competitor of
 Gaussian, Inc. access to this program.  By using this program,
 the user acknowledges that Gaussian, Inc. is engaged in the
 business of creating and licensing software in the field of
 computational chemistry and represents and warrants to the
 licensee that it is not a competitor of Gaussian, Inc. and that
 it will not use this program in any manner prohibited above.
 ---------------------------------------------------------------
  

 Cite this work as:
 Gaussian 16, Revision C.01,
 M. J. Frisch, G. W. Trucks, H. B. Schlegel, G. E. Scuseria, 
 M. A. Robb, J. R. Cheeseman, G. Scalmani, V. Barone, 
 G. A. Petersson, H. Nakatsuji, X. Li, M. Caricato, A. V. Marenich, 
 J. Bloino, B. G. Janesko, R. Gomperts, B. Mennucci, H. P. Hratchian, 
 J. V. Ortiz, A. F. Izmaylov, J. L. Sonnenberg, D. Williams-Young, 
 F. Ding, F. Lipparini, F. Egidi, J. Goings, B. Peng, A. Petrone, 
 T. Henderson, D. Ranasinghe, V. G. Zakrzewski, J. Gao, N. Rega, 
 G. Zheng, W. Liang, M. Hada, M. Ehara, K. Toyota, R. Fukuda, 
 J. Hasegawa, M. Ishida, T. Nakajima, Y. Honda, O. Kitao, H. Nakai, 
 T. Vreven, K. Throssell, J. A. Montgomery, Jr., J. E. Peralta, 
 F. Ogliaro, M. J. Bearpark, J. J. Heyd, E. N. Brothers, K. N. Kudin, 
 V. N. Staroverov, T. A. Keith, R. Kobayashi, J. Normand, 
 K. Raghavachari, A. P. Rendell, J. C. Burant, S. S. Iyengar, 
 J. Tomasi, M. Cossi, J. M. Millam, M. Klene, C. Adamo, R. Cammi, 
 J. W. Ochterski, R. L. Martin, K. Morokuma, O. Farkas, 
 J. B. Foresman, and D. J. Fox, Gaussian, Inc., Wallingford CT, 2019.
 
 ******************************************
 Gaussian 16:  ES64L-G16RevC.01  3-Jul-2019
                 2-Jun-2023 
 ******************************************
 %NProcShared=2
 Will use up to    2 processors via shared memory.
 %mem=55gb
 %chk=/scratch1/svicchi/G09-659779.pbs02/02-freq/2ethylimidazolide-CO2_binding-si
 te_index-1-freq.chk
 ----------------------------------------------------------------------
 #p freq=raman scale=0.967 pop=(nbo,full,hirshfeld) guess=read geom=all
 check b3lyp/6-311+G(d,p) int=grid=ultrafine EmpiricalDispersion=GD3BJ 
 SCRF=(Solvent=ethanol) scf=(xqc,intrep,maxconventionalcycle=350) nosym
 m
 ----------------------------------------------------------------------
 1/10=4,29=7,30=1,38=1,114=967000/1,3;
 2/12=2,15=1,40=1/2;
 3/5=4,6=6,7=111,11=2,14=-4,25=1,30=1,70=2201,71=2,72=4,74=-5,75=-5,116=-2,124=41,140=1/1,2,3;
 4/5=1/1;
 5/5=2,8=3,13=1,17=20,38=6,53=4,85=350,98=1/2,8;
 8/6=4,10=90,11=11/1;
 10/13=10,15=4,31=1/2;
 11/6=3,8=1,9=11,15=111,16=1,31=1/1,2,10;
 10/6=1,31=1/2;
 6/7=3,28=1,40=1,79=1/1,7;
 7/8=1,10=1,25=1,30=1/1,2,3,16;
 1/10=4,30=1/3;
 99//99;
 Leave Link    1 at Fri Jun  2 12:26:23 2023, MaxMem=  7381975040 cpu:               0.9 elap:               0.9
 (Enter /software/commercial/gaussian/g16/AVX/g16/l101.exe)
 Structure from the checkpoint file:  "/scratch1/svicchi/G09-659779.pbs02/02-freq/2ethylimidazolide-CO2_binding-site_index-1-freq.chk"
 ----------------------------------------------
 2ethylimidazolide-CO2_binding-site_index-1.gjf
 ----------------------------------------------
 Charge = -1 Multiplicity = 1
 No Z-Matrix found in chk file; cartesian coordinates used.
  N                                                -1.620060637859     -0.349917432985     -0.068694899165
  N                                                 0.563430517017     -0.384326552397      0.359609639314
  C                                                -0.607935318642     -1.114005302884      0.313110385277
  C                                                -0.743122582890     -2.578186651477      0.584731065013
  C                                                -1.094719410591      0.914453815281     -0.274541073423
  C                                                 0.245168947810      0.911651698810     -0.016984262506
  H                                                -1.713877980205      1.740450450741     -0.590301922214
  H                                                 0.999519856542      1.676547325864     -0.050556652749
  C                                                -0.256701900673     -3.451004283720     -0.583354467501
  H                                                -1.804998073111     -2.762499284833      0.764415083617
  H                                                -0.189408084061     -2.840390647207      1.485762701794
  H                                                -0.809410401587     -3.219677440442     -1.498036500818
  H                                                -0.403660371240     -4.510409223887     -0.355798866253
  H                                                 0.806025356252     -3.285591343083     -0.765868289888
  C                                                 1.938907112046     -0.804431122624      0.766852344208
  O                                                 2.040800889075     -1.974250636551      1.164309113033
  O                                                 2.789491082117      0.093815631394      0.649308602261
 Recover connectivity data from disk.
 ITRead=  0  0  0  0  0  0  0  0  0  0  0  0  0  0  0  0  0
 MicOpt= -1 -1 -1 -1 -1 -1 -1 -1 -1 -1 -1 -1 -1 -1 -1 -1 -1
 NAtoms=     17 NQM=       17 NQMF=       0 NMMI=      0 NMMIF=      0
                NMic=       0 NMicF=      0.
                    Isotopes and Nuclear Properties:
 (Nuclear quadrupole moments (NQMom) in fm**2, nuclear magnetic moments (NMagM)
  in nuclear magnetons)

  Atom         1           2           3           4           5           6           7           8           9          10
 IAtWgt=          14          14          12          12          12          12           1           1          12           1
 AtmWgt=  14.0030740  14.0030740  12.0000000  12.0000000  12.0000000  12.0000000   1.0078250   1.0078250  12.0000000   1.0078250
 NucSpn=           2           2           0           0           0           0           1           1           0           1
 AtZEff=   4.5500000   4.5500000   3.6000000   3.6000000   3.6000000   3.6000000   1.0000000   1.0000000   3.6000000   1.0000000
 NQMom=    2.0440000   2.0440000   0.0000000   0.0000000   0.0000000   0.0000000   0.0000000   0.0000000   0.0000000   0.0000000
 NMagM=    0.4037610   0.4037610   0.0000000   0.0000000   0.0000000   0.0000000   2.7928460   2.7928460   0.0000000   2.7928460
 AtZNuc=   7.0000000   7.0000000   6.0000000   6.0000000   6.0000000   6.0000000   1.0000000   1.0000000   6.0000000   1.0000000

  Atom        11          12          13          14          15          16          17
 IAtWgt=           1           1           1           1          12          16          16
 AtmWgt=   1.0078250   1.0078250   1.0078250   1.0078250  12.0000000  15.9949146  15.9949146
 NucSpn=           1           1           1           1           0           0           0
 AtZEff=   1.0000000   1.0000000   1.0000000   1.0000000   3.6000000   5.6000000   5.6000000
 NQMom=    0.0000000   0.0000000   0.0000000   0.0000000   0.0000000   0.0000000   0.0000000
 NMagM=    2.7928460   2.7928460   2.7928460   2.7928460   0.0000000   0.0000000   0.0000000
 AtZNuc=   1.0000000   1.0000000   1.0000000   1.0000000   6.0000000   8.0000000   8.0000000
 Leave Link  101 at Fri Jun  2 12:26:24 2023, MaxMem=  7381975040 cpu:               0.2 elap:               0.4
 (Enter /software/commercial/gaussian/g16/AVX/g16/l103.exe)

 GradGradGradGradGradGradGradGradGradGradGradGradGradGradGradGradGradGrad
 Berny optimization.
 Initialization pass.
 Trust Radius=3.00D-01 FncErr=1.00D-07 GrdErr=1.00D-07 EigMax=2.50D+02 EigMin=1.00D-04
 Number of steps in this run=      2 maximum allowed number of steps=      2.
 GradGradGradGradGradGradGradGradGradGradGradGradGradGradGradGradGradGrad

 Leave Link  103 at Fri Jun  2 12:26:25 2023, MaxMem=  7381975040 cpu:               0.1 elap:               0.5
 (Enter /software/commercial/gaussian/g16/AVX/g16/l202.exe)
                          Input orientation:                          
 ---------------------------------------------------------------------
 Center     Atomic      Atomic             Coordinates (Angstroms)
 Number     Number       Type             X           Y           Z
 ---------------------------------------------------------------------
      1          7           0       -1.620061   -0.349917   -0.068695
      2          7           0        0.563431   -0.384327    0.359610
      3          6           0       -0.607935   -1.114005    0.313110
      4          6           0       -0.743123   -2.578187    0.584731
      5          6           0       -1.094719    0.914454   -0.274541
      6          6           0        0.245169    0.911652   -0.016984
      7          1           0       -1.713878    1.740450   -0.590302
      8          1           0        0.999520    1.676547   -0.050557
      9          6           0       -0.256702   -3.451004   -0.583354
     10          1           0       -1.804998   -2.762499    0.764415
     11          1           0       -0.189408   -2.840391    1.485763
     12          1           0       -0.809410   -3.219677   -1.498037
     13          1           0       -0.403660   -4.510409   -0.355799
     14          1           0        0.806025   -3.285591   -0.765868
     15          6           0        1.938907   -0.804431    0.766852
     16          8           0        2.040801   -1.974251    1.164309
     17          8           0        2.789491    0.093816    0.649309
 ---------------------------------------------------------------------
                    Distance matrix (angstroms):
                    1          2          3          4          5
     1  N    0.000000
     2  N    2.225368   0.000000
     3  C    1.324388   1.380830   0.000000
     4  C    2.482170   2.563354   1.495286   0.000000
     5  C    1.384554   2.199645   2.167242   3.613932   0.000000
     6  C    2.252401   1.386605   2.222619   3.676650   1.364421
     7  H    2.156505   3.256247   3.191736   4.579705   1.079506
     8  H    3.311962   2.146069   3.240887   4.641460   2.239820
     9  C    3.426421   3.311542   2.527564   1.537153   4.455880
    10  H    2.559067   3.380684   2.086664   1.092629   3.886375
    11  H    3.265817   2.804860   2.128541   1.089591   4.244657
    12  H    3.306916   3.657151   2.784726   2.180327   4.320808
    13  H    4.344163   4.297864   3.467669   2.175618   5.469306
    14  H    3.871708   3.121360   2.807003   2.173568   4.636228
    15  C    3.683880   1.494748   2.605403   3.220661   3.638950
    16  O    4.190545   2.314740   2.912107   2.907040   4.499599
    17  O    4.489607   2.295189   3.621376   4.429800   4.076032
                    6          7          8          9         10
     6  C    0.000000
     7  H    2.203058   0.000000
     8  H    1.074820   2.767298   0.000000
     9  C    4.427800   5.392088   5.306011   0.000000
    10  H    4.279387   4.703203   5.313627   2.165120   0.000000
    11  H    4.065086   5.255298   4.916966   2.158384   1.771028
    12  H    4.513705   5.122979   5.416682   1.093454   2.513741
    13  H    5.471245   6.391002   6.351419   1.093489   2.504759
    14  H    4.300260   5.625107   5.017164   1.090900   3.071292
    15  C    2.535368   4.654152   2.775943   3.694334   4.225028
    16  O    3.598358   5.565544   3.986037   3.242476   3.946064
    17  O    2.754338   4.952613   2.489749   4.833684   5.411203
                   11         12         13         14         15
    11  H    0.000000
    12  H    3.071045   0.000000
    13  H    2.495238   1.770686   0.000000
    14  H    2.501786   1.774837   1.769654   0.000000
    15  C    3.031780   4.303067   4.525731   3.128707   0.000000
    16  O    2.413993   4.094249   3.836433   2.640051   1.239690
    17  O    4.264160   5.342511   5.692569   4.166204   1.242641
                   16         17
    16  O    0.000000
    17  O    2.258907   0.000000
 Symmetry turned off by external request.
 Stoichiometry    C6H7N2O2(1-)
 Framework group  C1[X(C6H7N2O2)]
 Deg. of freedom    45
 Full point group                 C1      NOp   1
 Rotational constants (GHZ):           1.6945942           1.4991248           0.8552584
 Leave Link  202 at Fri Jun  2 12:26:26 2023, MaxMem=  7381975040 cpu:               0.0 elap:               0.3
 (Enter /software/commercial/gaussian/g16/AVX/g16/l301.exe)
 Standard basis: 6-311+G(d,p) (5D, 7F)
 Ernie: Thresh=  0.10000D-02 Tol=  0.10000D-05 Strict=F.
   262 basis functions,   416 primitive gaussians,   272 cartesian basis functions
    37 alpha electrons       37 beta electrons
       nuclear repulsion energy       519.2856893855 Hartrees.
 IExCor=  402 DFT=T Ex+Corr=B3LYP ExCW=0 ScaHFX=  0.200000
 ScaDFX=  0.800000  0.720000  1.000000  0.810000 ScalE2=  1.000000  1.000000
 IRadAn=      5 IRanWt=     -1 IRanGd=            0 ICorTp=0 IEmpDi=141
 NAtoms=   17 NActive=   17 NUniq=   17 SFac= 1.00D+00 NAtFMM=   60 NAOKFM=F Big=F
 Integral buffers will be    131072 words long.
 Raffenetti 2 integral format.
 Two-electron integral symmetry is turned off.
 R6Disp:  Grimme-D3(BJ) Dispersion energy=       -0.0287753047 Hartrees.
 Nuclear repulsion after empirical dispersion term =      519.2569140808 Hartrees.
 Force inversion solution in PCM.
 ------------------------------------------------------------------------------
 Polarizable Continuum Model (PCM)
 =================================
 Model                : PCM.
 Atomic radii         : UFF (Universal Force Field).
 Polarization charges : Total charges.
 Charge compensation  : None.
 Solution method      : Matrix inversion.
 Cavity type          : Scaled VdW (van der Waals Surface) (Alpha=1.100).
 Cavity algorithm     : GePol (No added spheres)
                        Default sphere list used, NSphG=   17.
                        Lebedev-Laikov grids with approx.  5.0 points / Ang**2.
                        Smoothing algorithm: York/Karplus (Gamma=1.0000).
                        Polarization charges: spherical gaussians, with
                                              point-specific exponents (IZeta= 3).
                        Self-potential: point-specific (ISelfS= 7).
                        Self-field    : sphere-specific E.n sum rule (ISelfD= 2).
 1st derivatives      : Analytical E(r).r(x)/FMM algorithm (CHGder, D1EAlg=3).
                        Cavity 1st derivative terms included.
 2nd derivatives      : Analytical E(r).r(xy)/FMM algorithm (CHGder, D2EAlg=3).
                        Cavity 2nd derivative terms included.
 Solvent              : Ethanol, Eps=  24.852000 Eps(inf)=   1.852593
 ------------------------------------------------------------------------------
 Spheres list:
 ISph  on   Nord     Re0    Alpha      Xe            Ye            Ze
    1   N      1    1.8300  1.100     -1.620061     -0.349917     -0.068695
    2   N      2    1.8300  1.100      0.563431     -0.384327      0.359610
    3   C      3    1.9255  1.100     -0.607935     -1.114005      0.313110
    4   C      4    1.9255  1.100     -0.743123     -2.578187      0.584731
    5   C      5    1.9255  1.100     -1.094719      0.914454     -0.274541
    6   C      6    1.9255  1.100      0.245169      0.911652     -0.016984
    7   H      7    1.4430  1.100     -1.713878      1.740450     -0.590302
    8   H      8    1.4430  1.100      0.999520      1.676547     -0.050557
    9   C      9    1.9255  1.100     -0.256702     -3.451004     -0.583354
   10   H     10    1.4430  1.100     -1.804998     -2.762499      0.764415
   11   H     11    1.4430  1.100     -0.189408     -2.840391      1.485763
   12   H     12    1.4430  1.100     -0.809410     -3.219677     -1.498037
   13   H     13    1.4430  1.100     -0.403660     -4.510409     -0.355799
   14   H     14    1.4430  1.100      0.806025     -3.285591     -0.765868
   15   C     15    1.9255  1.100      1.938907     -0.804431      0.766852
   16   O     16    1.7500  1.100      2.040801     -1.974251      1.164309
   17   O     17    1.7500  1.100      2.789491      0.093816      0.649309
 ------------------------------------------------------------------------------
 GePol: Number of generator spheres                  =      17
 GePol: Total number of spheres                      =      17
 GePol: Number of exposed spheres                    =      17 (100.00%)
 GePol: Number of points                             =    1485
 GePol: Average weight of points                     =       0.13
 GePol: Minimum weight of points                     =   0.35D-10
 GePol: Maximum weight of points                     =    0.20577
 GePol: Number of points with low weight             =     100
 GePol: Fraction of low-weight points (<1% of avg)   =       6.73%
 GePol: Cavity surface area                          =    193.542 Ang**2
 GePol: Cavity volume                                =    193.617 Ang**3
 Leave Link  301 at Fri Jun  2 12:26:28 2023, MaxMem=  7381975040 cpu:               1.1 elap:               1.4
 (Enter /software/commercial/gaussian/g16/AVX/g16/l302.exe)
 NPDir=0 NMtPBC=     1 NCelOv=     1 NCel=       1 NClECP=     1 NCelD=      1
         NCelK=      1 NCelE2=     1 NClLst=     1 CellRange=     0.0.
 One-electron integrals computed using PRISM.
 NBasis=   262 RedAO= T EigKep=  1.21D-05  NBF=   262
 NBsUse=   262 1.00D-06 EigRej= -1.00D+00 NBFU=   262
 Precomputing XC quadrature grid using
 IXCGrd= 4 IRadAn=           5 IRanWt=          -1 IRanGd=           0 AccXCQ= 0.00D+00.
 Generated NRdTot=       0 NPtTot=           0 NUsed=           0 NTot=          32
 NSgBfM=   272   272   272   272   272 MxSgAt=    17 MxSgA2=    17.
 Leave Link  302 at Fri Jun  2 12:26:31 2023, MaxMem=  7381975040 cpu:               1.3 elap:               1.3
 (Enter /software/commercial/gaussian/g16/AVX/g16/l303.exe)
 DipDrv:  MaxL=1.
 Leave Link  303 at Fri Jun  2 12:26:33 2023, MaxMem=  7381975040 cpu:               0.2 elap:               0.6
 (Enter /software/commercial/gaussian/g16/AVX/g16/l401.exe)
 Initial guess from the checkpoint file:  "/scratch1/svicchi/G09-659779.pbs02/02-freq/2ethylimidazolide-CO2_binding-site_index-1-freq.chk"
 B after Tr=     0.000000    0.000000    0.000000
         Rot=    1.000000    0.000000    0.000000    0.000000 Ang=   0.00 deg.
 Guess basis will be translated and rotated to current coordinates.
 JPrj=2 DoOrth=T DoCkMO=T.
 Leave Link  401 at Fri Jun  2 12:26:36 2023, MaxMem=  7381975040 cpu:               2.0 elap:               2.6
 (Enter /software/commercial/gaussian/g16/AVX/g16/l502.exe)
 Keep R1 ints in memory in canonical form, NReq=603696161.
 FoFCou: FMM=F IPFlag=           0 FMFlag=           0 FMFlg1=           0
         NFxFlg=           0 DoJE=F BraDBF=F KetDBF=F FulRan=T
         wScrn=  0.000000 ICntrl=       600 IOpCl=  0 I1Cent=           0 NGrid=           0
         NMat0=    1 NMatS0=  34453 NMatT0=    0 NMatD0=    1 NMtDS0=    0 NMtDT0=    0
 Symmetry not used in FoFCou.
 Two-electron integral symmetry not used.
 Closed shell SCF:
 Using DIIS extrapolation, IDIIS=  1040.
 NGot=  7381975040 LenX=  6788301165 LenY=  6788226740
 Requested convergence on RMS density matrix=1.00D-08 within 350 cycles.
 Requested convergence on MAX density matrix=1.00D-06.
 Requested convergence on             energy=1.00D-06.
 No special actions if energy rises.

 Cycle   1  Pass 1  IDiag  1:
 Inv3:  Mode=1 IEnd=     6615675.
 Iteration    1 A*A^-1 deviation from unit magnitude is 3.77D-15 for   1485.
 Iteration    1 A*A^-1 deviation from orthogonality  is 1.89D-15 for   1485    162.
 Iteration    1 A^-1*A deviation from unit magnitude is 3.77D-15 for   1485.
 Iteration    1 A^-1*A deviation from orthogonality  is 2.41D-15 for   1318   1248.
 E= -493.157734515941    
 DIIS: error= 1.01D-07 at cycle   1 NSaved=   1.
 NSaved= 1 IEnMin= 1 EnMin= -493.157734515941     IErMin= 1 ErrMin= 1.01D-07
 ErrMax= 1.01D-07  0.00D+00 EMaxC= 1.00D-01 BMatC= 1.36D-12 BMatP= 1.36D-12
 IDIUse=1 WtCom= 1.00D+00 WtEn= 0.00D+00
 Coeff-Com:  0.100D+01
 Coeff:      0.100D+01
 Gap=     0.222 Goal=   None    Shift=    0.000
 RMSDP=1.42D-08 MaxDP=7.39D-07              OVMax= 8.99D-07

 Cycle   2  Pass 1  IDiag  1:
 E= -493.157734515935     Delta-E=        0.000000000007 Rises=F Damp=F
 DIIS: error= 2.28D-07 at cycle   2 NSaved=   2.
 NSaved= 2 IEnMin= 1 EnMin= -493.157734515941     IErMin= 1 ErrMin= 1.01D-07
 ErrMax= 2.28D-07  0.00D+00 EMaxC= 1.00D-01 BMatC= 6.01D-12 BMatP= 1.36D-12
 IDIUse=1 WtCom= 1.00D+00 WtEn= 0.00D+00
 Coeff-Com:  0.678D+00 0.322D+00
 Coeff:      0.678D+00 0.322D+00
 Gap=     0.222 Goal=   None    Shift=    0.000
 RMSDP=9.54D-09 MaxDP=4.58D-07 DE= 6.59D-12 OVMax= 6.51D-07

 Error on total polarization charges =  0.01931
 SCF Done:  E(RB3LYP) =  -493.157734516     A.U. after    2 cycles
            NFock=  2  Conv=0.95D-08     -V/T= 2.0040
 KE= 4.911722605399D+02 PE=-2.204262100949D+03 EE= 7.006751918125D+02
 Leave Link  502 at Fri Jun  2 12:27:22 2023, MaxMem=  7381975040 cpu:              75.1 elap:              44.7
 (Enter /software/commercial/gaussian/g16/AVX/g16/l508.exe)
 QCSCF skips out because SCF is already converged.
 Leave Link  508 at Fri Jun  2 12:27:23 2023, MaxMem=  7381975040 cpu:               0.0 elap:               0.2
 (Enter /software/commercial/gaussian/g16/AVX/g16/l801.exe)
 DoSCS=F DFT=T ScalE2(SS,OS)=  1.000000  1.000000
 Range of M.O.s used for correlation:     1   262
 NBasis=   262 NAE=    37 NBE=    37 NFC=     0 NFV=     0
 NROrb=    262 NOA=    37 NOB=    37 NVA=   225 NVB=   225

 **** Warning!!: The largest alpha MO coefficient is  0.64573689D+02

 Leave Link  801 at Fri Jun  2 12:27:25 2023, MaxMem=  7381975040 cpu:               0.2 elap:               0.9
 (Enter /software/commercial/gaussian/g16/AVX/g16/l1002.exe)
 Minotr:  Closed shell wavefunction.
 NEqPCM:  Using equilibrium solvation (IEInf=0, Eps=  24.8520, EpsInf=   1.8526)
          Direct CPHF calculation.
          Differentiating once with respect to electric field.
                with respect to dipole field.
          Electric field/nuclear overlap derivatives assumed to be zero.
          Requested convergence is 1.0D-08 RMS, and 1.0D-07 maximum.
          Secondary convergence is 1.0D-12 RMS, and 1.0D-12 maximum.
          NewPWx=F KeepS1=T KeepF1=T KeepIn=T MapXYZ=F SortEE=F KeepMc=T.
         5235 words used for storage of precomputed grid.
 Keep R1 ints in memory in canonical form, NReq=603703423.
 FoFCou: FMM=F IPFlag=           0 FMFlag=           0 FMFlg1=           0
         NFxFlg=           0 DoJE=F BraDBF=F KetDBF=F FulRan=T
         wScrn=  0.000000 ICntrl=       600 IOpCl=  0 I1Cent=           0 NGrid=           0
         NMat0=    1 NMatS0=  34453 NMatT0=    0 NMatD0=    1 NMtDS0=    0 NMtDT0=    0
 Symmetry not used in FoFCou.
 Two-electron integral symmetry not used.
          MDV=    7381975040 using IRadAn=       1.
          Solving linear equations simultaneously, MaxMat=       0.
          There are     3 degrees of freedom in the 1st order CPHF.  IDoFFX=0 NUNeed=     3.
      3 vectors produced by pass  0 Test12= 2.77D-13 3.33D-08 XBig12= 9.82D+01 3.95D+00.
 AX will form     3 AO Fock derivatives at one time.
      3 vectors produced by pass  1 Test12= 2.77D-13 3.33D-08 XBig12= 4.38D+01 1.35D+00.
      3 vectors produced by pass  2 Test12= 2.77D-13 3.33D-08 XBig12= 9.28D+00 7.38D-01.
      3 vectors produced by pass  3 Test12= 2.77D-13 3.33D-08 XBig12= 4.60D+00 6.28D-01.
      3 vectors produced by pass  4 Test12= 2.77D-13 3.33D-08 XBig12= 6.84D-01 1.68D-01.
      3 vectors produced by pass  5 Test12= 2.77D-13 3.33D-08 XBig12= 1.45D-01 7.31D-02.
      3 vectors produced by pass  6 Test12= 2.77D-13 3.33D-08 XBig12= 2.66D-02 2.50D-02.
      3 vectors produced by pass  7 Test12= 2.77D-13 3.33D-08 XBig12= 6.93D-03 2.35D-02.
      3 vectors produced by pass  8 Test12= 2.77D-13 3.33D-08 XBig12= 9.02D-04 3.50D-03.
      3 vectors produced by pass  9 Test12= 2.77D-13 3.33D-08 XBig12= 3.96D-05 1.53D-03.
      3 vectors produced by pass 10 Test12= 2.77D-13 3.33D-08 XBig12= 1.38D-06 2.36D-04.
      3 vectors produced by pass 11 Test12= 2.77D-13 3.33D-08 XBig12= 4.23D-08 3.88D-05.
      3 vectors produced by pass 12 Test12= 2.77D-13 3.33D-08 XBig12= 1.12D-09 5.43D-06.
      2 vectors produced by pass 13 Test12= 2.77D-13 3.33D-08 XBig12= 2.78D-11 7.31D-07.
      2 vectors produced by pass 14 Test12= 2.77D-13 3.33D-08 XBig12= 1.02D-12 1.50D-07.
      1 vectors produced by pass 15 Test12= 2.77D-13 3.33D-08 XBig12= 2.71D-14 3.40D-08.
 InvSVY:  IOpt=1 It=  1 EMax= 5.33D-15
 Solved reduced A of dimension    44 with     3 vectors.
 End of Minotr F.D. properties file   721 does not exist.
 End of Minotr F.D. properties file   722 does not exist.
 End of Minotr F.D. properties file   788 does not exist.
 Leave Link 1002 at Fri Jun  2 12:30:16 2023, MaxMem=  7381975040 cpu:             313.1 elap:             170.3
 (Enter /software/commercial/gaussian/g16/AVX/g16/l1101.exe)
 Using compressed storage, NAtomX=    17.
 Will process     18 centers per pass.
 R6Disp: Adding Grimme-D3(BJ) dispersion energy 1st derivatives to the gradient.
 Leave Link 1101 at Fri Jun  2 12:30:19 2023, MaxMem=  7381975040 cpu:               1.3 elap:               1.6
 (Enter /software/commercial/gaussian/g16/AVX/g16/l1102.exe)
 Symmetrizing basis deriv contribution to polar:
 IMax=3 JMax=2 DiffMx= 0.00D+00
 Leave Link 1102 at Fri Jun  2 12:30:20 2023, MaxMem=  7381975040 cpu:               0.2 elap:               0.5
 (Enter /software/commercial/gaussian/g16/AVX/g16/l1110.exe)
 Forming Gx(P) for the SCF density, NAtomX=    17.
 Integral derivatives from FoFJK, PRISM(SPDF).
 Do as many integral derivatives as possible in FoFJK.
 G2DrvN: MDV=    7381973153.
 G2DrvN: will do    18 centers at a time, making    1 passes.
 PxScal for G2LodP:  IOpCl= 0 ISclPx=1 IMOff=     1 NMtTot=     4 NTT=   34453 ScalPx= 1.93D+01
 Calling FoFCou, ICntrl=  3107 FMM=F I1Cent=   0 AccDes= 0.00D+00.
 FoFJK:  IHMeth= 1 ICntrl=    3107 DoSepK=F KAlg= 0 I1Cent=           0 FoldK=F
 IRaf=         0 NMat=       1 IRICut=       1 DoRegI=T DoRafI=F ISym2E= 0 IDoP0=0 IntGTp=1.
 FoFCou: FMM=F IPFlag=           0 FMFlag=      100000 FMFlg1=           0
         NFxFlg=           0 DoJE=F BraDBF=F KetDBF=F FulRan=T
         wScrn=  0.000000 ICntrl=      3107 IOpCl=  0 I1Cent=           0 NGrid=           0
         NMat0=    1 NMatS0=      1 NMatT0=    0 NMatD0=    4 NMtDS0=    3 NMtDT0=    0
 Symmetry not used in FoFCou.
 PxScal for G2LodP:  IOpCl= 0 ISclPx=0 IMOff=     1 NMtTot=     4 NTT=   34453 ScalPx= 1.00D+00
 NEqPCM:  Using equilibrium solvation (IEInf=0, Eps=  24.8520, EpsInf=   1.8526)
 G2PCM: DoFxE=T DoFxN=T DoGrad=T DoDP/DQ/DG/TGxP=TFFF NFrqRd=   0 IEInf=0 SqF1=F DoCFld=F IF1Alg=4.
 GePol: Maximum number of non-zero 1st derivatives   =     214
 End of G2Drv F.D. properties file   721 does not exist.
 End of G2Drv F.D. properties file   722 does not exist.
 End of G2Drv F.D. properties file   788 does not exist.
 Leave Link 1110 at Fri Jun  2 12:36:36 2023, MaxMem=  7381975040 cpu:             741.3 elap:             375.1
 (Enter /software/commercial/gaussian/g16/AVX/g16/l1002.exe)
 Minotr:  Closed shell wavefunction.
          IDoAtm=11111111111111111
 NEqPCM:  Using equilibrium solvation (IEInf=0, Eps=  24.8520, EpsInf=   1.8526)
          Direct CPHF calculation.
          Differentiating once with respect to electric field.
                with respect to dipole field.
          Differentiating once with respect to nuclear coordinates.
          Requested convergence is 1.0D-08 RMS, and 1.0D-07 maximum.
          Secondary convergence is 1.0D-12 RMS, and 1.0D-12 maximum.
          NewPWx=T KeepS1=F KeepF1=F KeepIn=T MapXYZ=F SortEE=F KeepMc=T.
         5235 words used for storage of precomputed grid.
 Keep R1 ints in memory in canonical form, NReq=603703814.
 FoFCou: FMM=F IPFlag=           0 FMFlag=           0 FMFlg1=           0
         NFxFlg=           0 DoJE=F BraDBF=F KetDBF=F FulRan=T
         wScrn=  0.000000 ICntrl=       600 IOpCl=  0 I1Cent=           0 NGrid=           0
         NMat0=    1 NMatS0=  34453 NMatT0=    0 NMatD0=    1 NMtDS0=    0 NMtDT0=    0
 Symmetry not used in FoFCou.
 Two-electron integral symmetry not used.
          MDV=    7381975040 using IRadAn=       1.
          Solving linear equations simultaneously, MaxMat=       0.
          There are    54 degrees of freedom in the 1st order CPHF.  IDoFFX=5 NUNeed=    54.
 Will reuse    3 saved solutions.
     48 vectors produced by pass  0 Test12= 1.54D-14 1.85D-09 XBig12= 2.11D-01 1.24D-01.
 AX will form    48 AO Fock derivatives at one time.
     48 vectors produced by pass  1 Test12= 1.54D-14 1.85D-09 XBig12= 2.33D-02 4.36D-02.
     48 vectors produced by pass  2 Test12= 1.54D-14 1.85D-09 XBig12= 3.59D-04 2.69D-03.
     48 vectors produced by pass  3 Test12= 1.54D-14 1.85D-09 XBig12= 2.03D-06 1.86D-04.
     48 vectors produced by pass  4 Test12= 1.54D-14 1.85D-09 XBig12= 7.17D-09 8.76D-06.
     44 vectors produced by pass  5 Test12= 1.54D-14 1.85D-09 XBig12= 1.78D-11 4.11D-07.
     18 vectors produced by pass  6 Test12= 1.54D-14 1.85D-09 XBig12= 2.69D-14 1.78D-08.
 InvSVY:  IOpt=1 It=  1 EMax= 5.00D-16
 Solved reduced A of dimension   302 with    54 vectors.
 FullF1:  Do perturbations      1 to       3.
 Isotropic polarizability for W=    0.000000      125.00 Bohr**3.
 FullF1:  Do perturbations      1 to       6.
 End of Minotr F.D. properties file   721 does not exist.
 End of Minotr F.D. properties file   722 does not exist.
 End of Minotr F.D. properties file   788 does not exist.
 Leave Link 1002 at Fri Jun  2 12:43:17 2023, MaxMem=  7381975040 cpu:             770.4 elap:             400.5
 (Enter /software/commercial/gaussian/g16/AVX/g16/l601.exe)
 Copying SCF densities to generalized density rwf, IOpCl= 0 IROHF=0.

 **********************************************************************

            Population analysis using the SCF Density.

 **********************************************************************

 Alpha  occ. eigenvalues --  -19.06729 -19.06702 -14.35215 -14.28850 -10.28892
 Alpha  occ. eigenvalues --  -10.22104 -10.18397 -10.17581 -10.16557 -10.15290
 Alpha  occ. eigenvalues --   -1.05226  -0.99315  -0.95718  -0.85588  -0.78227
 Alpha  occ. eigenvalues --   -0.71593  -0.63260  -0.60854  -0.58419  -0.51874
 Alpha  occ. eigenvalues --   -0.47295  -0.45431  -0.44357  -0.42915  -0.42613
 Alpha  occ. eigenvalues --   -0.41700  -0.39903  -0.39117  -0.36471  -0.35005
 Alpha  occ. eigenvalues --   -0.34110  -0.29001  -0.27373  -0.26232  -0.26129
 Alpha  occ. eigenvalues --   -0.24183  -0.22176
 Alpha virt. eigenvalues --    0.00045   0.01211   0.02663   0.03257   0.03465
 Alpha virt. eigenvalues --    0.04832   0.05380   0.05462   0.06200   0.06355
 Alpha virt. eigenvalues --    0.07762   0.08567   0.08608   0.09123   0.10121
 Alpha virt. eigenvalues --    0.10404   0.10596   0.11603   0.12837   0.13856
 Alpha virt. eigenvalues --    0.14251   0.14621   0.15379   0.16330   0.17538
 Alpha virt. eigenvalues --    0.17954   0.19432   0.20205   0.20430   0.20604
 Alpha virt. eigenvalues --    0.21489   0.22546   0.22915   0.23502   0.24538
 Alpha virt. eigenvalues --    0.24872   0.25229   0.25685   0.26064   0.27021
 Alpha virt. eigenvalues --    0.27493   0.28330   0.28521   0.29292   0.30277
 Alpha virt. eigenvalues --    0.30833   0.31094   0.31335   0.32319   0.33704
 Alpha virt. eigenvalues --    0.34880   0.35132   0.37052   0.38039   0.40804
 Alpha virt. eigenvalues --    0.42607   0.42814   0.44040   0.46559   0.47489
 Alpha virt. eigenvalues --    0.48526   0.51856   0.51944   0.57940   0.58341
 Alpha virt. eigenvalues --    0.59548   0.59941   0.61072   0.63626   0.63879
 Alpha virt. eigenvalues --    0.66310   0.67380   0.68116   0.68321   0.69524
 Alpha virt. eigenvalues --    0.70742   0.71808   0.73365   0.74945   0.76153
 Alpha virt. eigenvalues --    0.77942   0.79565   0.80519   0.82473   0.85068
 Alpha virt. eigenvalues --    0.87745   0.88750   0.88977   0.92000   0.93875
 Alpha virt. eigenvalues --    0.95147   0.96247   0.99144   1.02936   1.05604
 Alpha virt. eigenvalues --    1.07903   1.08685   1.11944   1.14817   1.16180
 Alpha virt. eigenvalues --    1.18175   1.18932   1.20032   1.20638   1.21208
 Alpha virt. eigenvalues --    1.23847   1.24383   1.28920   1.29636   1.30879
 Alpha virt. eigenvalues --    1.34441   1.39023   1.40961   1.45279   1.47899
 Alpha virt. eigenvalues --    1.53336   1.54598   1.54878   1.56031   1.57411
 Alpha virt. eigenvalues --    1.60541   1.61393   1.64313   1.65203   1.67507
 Alpha virt. eigenvalues --    1.68852   1.71137   1.72009   1.72819   1.75924
 Alpha virt. eigenvalues --    1.76602   1.77826   1.78993   1.81481   1.84128
 Alpha virt. eigenvalues --    1.89397   1.91021   1.95917   1.99318   2.00548
 Alpha virt. eigenvalues --    2.01779   2.07908   2.07998   2.11982   2.14256
 Alpha virt. eigenvalues --    2.18162   2.20179   2.23738   2.26260   2.33659
 Alpha virt. eigenvalues --    2.36598   2.38535   2.40281   2.44995   2.48659
 Alpha virt. eigenvalues --    2.52401   2.53624   2.54444   2.56388   2.59109
 Alpha virt. eigenvalues --    2.63140   2.63763   2.66697   2.66936   2.68750
 Alpha virt. eigenvalues --    2.71743   2.73091   2.73313   2.78456   2.79640
 Alpha virt. eigenvalues --    2.81086   2.81654   2.83819   2.85340   2.86825
 Alpha virt. eigenvalues --    2.92994   2.94301   2.95851   2.97570   2.99273
 Alpha virt. eigenvalues --    2.99886   3.02622   3.15947   3.20808   3.30140
 Alpha virt. eigenvalues --    3.31098   3.34625   3.41228   3.43681   3.44132
 Alpha virt. eigenvalues --    3.54213   3.64452   3.65680   3.70269   3.74469
 Alpha virt. eigenvalues --    3.81448   3.82904   3.88451   3.90484   3.91464
 Alpha virt. eigenvalues --    3.96281   4.08393   4.09641   4.13160   4.25892
 Alpha virt. eigenvalues --    4.54676   4.79256   4.90217   5.06704   5.08716
 Alpha virt. eigenvalues --    5.18120   5.23629   5.27584   5.69805   5.91529
 Alpha virt. eigenvalues --   23.80592  23.87535  23.88096  23.91229  23.99514
 Alpha virt. eigenvalues --   24.19413  35.51221  35.68771  49.96523  50.07447
     Molecular Orbital Coefficients:
                           1         2         3         4         5
                           O         O         O         O         O
     Eigenvalues --   -19.06729 -19.06702 -14.35215 -14.28850 -10.28892
   1 1   N  1S         -0.00000   0.00000  -0.00011   0.55737   0.00000
   2        2S          0.00002   0.00000  -0.00001   0.46575   0.00001
   3        2PX         0.00001   0.00000   0.00006   0.00127   0.00001
   4        2PY        -0.00001  -0.00000  -0.00004   0.00047   0.00000
   5        2PZ         0.00001   0.00001   0.00003   0.00014   0.00001
   6        3S         -0.00016   0.00003  -0.00045   0.01646  -0.00010
   7        3PX        -0.00005  -0.00002  -0.00042   0.00108  -0.00007
   8        3PY         0.00003   0.00003   0.00025  -0.00027  -0.00001
   9        3PZ        -0.00003  -0.00003  -0.00018   0.00024  -0.00004
  10        4S          0.00146  -0.00063   0.00114  -0.02030   0.00095
  11        4PX         0.00065  -0.00032   0.00008  -0.00473   0.00066
  12        4PY        -0.00019  -0.00045  -0.00073   0.00022   0.00002
  13        4PZ         0.00023   0.00007   0.00031  -0.00084   0.00026
  14        5S          0.00126  -0.00121   0.00385   0.00857   0.00374
  15        5PX        -0.00042  -0.00077   0.00106   0.00162   0.00075
  16        5PY         0.00044  -0.00097  -0.00291  -0.00143  -0.00065
  17        5PZ        -0.00032   0.00009   0.00051   0.00024  -0.00005
  18        6D 0       -0.00000   0.00000   0.00003  -0.00025   0.00001
  19        6D+1        0.00000  -0.00000  -0.00006   0.00014  -0.00000
  20        6D-1       -0.00001  -0.00000   0.00001  -0.00021   0.00000
  21        6D+2       -0.00000  -0.00001  -0.00008  -0.00013   0.00000
  22        6D-2        0.00000  -0.00001   0.00012  -0.00025   0.00001
  23 2   N  1S         -0.00000  -0.00000   0.55736   0.00010  -0.00002
  24        2S          0.00002   0.00002   0.46570   0.00016  -0.00007
  25        2PX         0.00009   0.00012  -0.00006  -0.00008   0.00013
  26        2PY        -0.00004  -0.00002   0.00005  -0.00004  -0.00002
  27        2PZ         0.00004   0.00003   0.00001  -0.00000   0.00004
  28        3S          0.00004  -0.00004   0.01654  -0.00037   0.00038
  29        3PX        -0.00034  -0.00051  -0.00077   0.00045   0.00017
  30        3PY         0.00026  -0.00002   0.00022   0.00024  -0.00011
  31        3PZ        -0.00016  -0.00009  -0.00022   0.00003   0.00002
  32        4S         -0.00110  -0.00065  -0.01999   0.00007   0.00187
  33        4PX        -0.00129   0.00169   0.00245   0.00140  -0.00240
  34        4PY        -0.00326   0.00294  -0.00048  -0.00079   0.00023
  35        4PZ         0.00073  -0.00051   0.00064   0.00050  -0.00034
  36        5S         -0.00405  -0.00346   0.00222  -0.00230   0.00798
  37        5PX        -0.00539   0.00051   0.00014   0.00715   0.00235
  38        5PY        -0.00873   0.00646  -0.00455  -0.00617  -0.00764
  39        5PZ         0.00106  -0.00169   0.00048   0.00293   0.00213
  40        6D 0        0.00004   0.00002  -0.00030   0.00006   0.00011
  41        6D+1       -0.00007  -0.00008   0.00009   0.00002  -0.00014
  42        6D-1       -0.00001   0.00000  -0.00014  -0.00003   0.00004
  43        6D+2       -0.00013  -0.00015  -0.00001  -0.00006  -0.00021
  44        6D-2        0.00008   0.00012   0.00006  -0.00020   0.00014
  45 3   C  1S         -0.00000  -0.00000   0.00000  -0.00000  -0.00002
  46        2S          0.00002   0.00001   0.00005   0.00010  -0.00001
  47        2PX         0.00009   0.00000   0.00040  -0.00044   0.00006
  48        2PY         0.00000  -0.00003   0.00024   0.00029  -0.00001
  49        2PZ         0.00001   0.00001   0.00001  -0.00016   0.00001
  50        3S         -0.00002  -0.00003   0.00017   0.00011   0.00004
  51        3PX        -0.00045   0.00010  -0.00100   0.00135  -0.00033
  52        3PY        -0.00007   0.00011  -0.00062  -0.00088   0.00002
  53        3PZ        -0.00004  -0.00001   0.00001   0.00051  -0.00004
  54        4S         -0.00456   0.00326   0.00199   0.00679  -0.00383
  55        4PX         0.00016   0.00172   0.00553  -0.00527  -0.00055
  56        4PY        -0.00100   0.00161   0.00580   0.00779  -0.00286
  57        4PZ         0.00012   0.00001  -0.00041  -0.00303   0.00036
  58        5S         -0.01222   0.01830  -0.01449  -0.01677  -0.03512
  59        5PX        -0.00328   0.00581  -0.00085   0.00183  -0.00138
  60        5PY         0.00375  -0.00274   0.00240   0.00660   0.01617
  61        5PZ        -0.00144   0.00189   0.00051  -0.00048  -0.00291
  62        6D 0        0.00004  -0.00002   0.00017   0.00008   0.00003
  63        6D+1       -0.00004  -0.00000   0.00006  -0.00038  -0.00001
  64        6D-1       -0.00002   0.00001  -0.00017   0.00020   0.00000
  65        6D+2       -0.00012   0.00002  -0.00035  -0.00036  -0.00005
  66        6D-2       -0.00001   0.00002  -0.00079   0.00108  -0.00007
  67 4   C  1S         -0.00000  -0.00000  -0.00000  -0.00001  -0.00000
  68        2S          0.00000   0.00002   0.00003   0.00005  -0.00000
  69        2PX        -0.00001   0.00006   0.00009  -0.00004   0.00003
  70        2PY         0.00000   0.00002   0.00007   0.00009   0.00003
  71        2PZ        -0.00000   0.00001  -0.00002  -0.00005   0.00001
  72        3S         -0.00004  -0.00020  -0.00033  -0.00041  -0.00001
  73        3PX         0.00001  -0.00017  -0.00035   0.00013  -0.00009
  74        3PY        -0.00001  -0.00010  -0.00036  -0.00049  -0.00016
  75        3PZ         0.00003  -0.00000   0.00018   0.00028  -0.00002
  76        4S          0.00056   0.00168   0.00494   0.00521  -0.00041
  77        4PX        -0.00054   0.00050  -0.00165   0.00257  -0.00010
  78        4PY        -0.00027   0.00028   0.00167   0.00109  -0.00091
  79        4PZ        -0.00020  -0.00019  -0.00138  -0.00008   0.00021
  80        5S          0.00320  -0.00941  -0.00799   0.00295   0.02690
  81        5PX         0.00012  -0.00155  -0.00092  -0.00106   0.00145
  82        5PY         0.00134  -0.00212   0.00169   0.00430   0.00934
  83        5PZ         0.00115  -0.00016   0.00302   0.00213   0.00146
  84        6D 0        0.00001   0.00004   0.00004   0.00009   0.00006
  85        6D+1        0.00000   0.00003   0.00005   0.00007   0.00003
  86        6D-1        0.00000   0.00000  -0.00000   0.00010   0.00002
  87        6D+2        0.00005  -0.00006   0.00021   0.00031   0.00001
  88        6D-2       -0.00001  -0.00007  -0.00026   0.00017  -0.00005
  89 5   C  1S         -0.00000  -0.00000  -0.00001   0.00001  -0.00001
  90        2S          0.00001   0.00000   0.00002   0.00001   0.00002
  91        2PX         0.00002   0.00000   0.00010  -0.00020   0.00000
  92        2PY        -0.00001   0.00001   0.00006  -0.00033  -0.00001
  93        2PZ         0.00001  -0.00000   0.00001   0.00005   0.00001
  94        3S         -0.00005  -0.00002   0.00001   0.00025  -0.00024
  95        3PX        -0.00013  -0.00007  -0.00107   0.00060  -0.00003
  96        3PY         0.00008  -0.00003   0.00002   0.00067   0.00009
  97        3PZ        -0.00006  -0.00001  -0.00023  -0.00006  -0.00004
  98        4S         -0.00033   0.00174  -0.00355   0.00760   0.00263
  99        4PX        -0.00011   0.00000  -0.00317   0.00169   0.00160
 100        4PY         0.00063  -0.00026   0.00347  -0.00438  -0.00071
 101        4PZ        -0.00013   0.00004  -0.00143   0.00141   0.00048
 102        5S         -0.02102  -0.00120  -0.00262  -0.01473  -0.01051
 103        5PX        -0.00346  -0.00123  -0.00146  -0.00278  -0.00148
 104        5PY         0.00267  -0.00123  -0.00060   0.00046   0.00114
 105        5PZ        -0.00131   0.00003  -0.00020  -0.00055  -0.00061
 106        6D 0       -0.00000  -0.00000   0.00001   0.00002   0.00001
 107        6D+1        0.00000  -0.00001  -0.00002   0.00027   0.00000
 108        6D-1       -0.00001  -0.00002  -0.00017   0.00007   0.00000
 109        6D+2       -0.00003  -0.00007  -0.00048   0.00070  -0.00001
 110        6D-2       -0.00002  -0.00000  -0.00026  -0.00057  -0.00001
 111 6   C  1S         -0.00000  -0.00000   0.00001  -0.00001  -0.00002
 112        2S          0.00001   0.00001   0.00002   0.00005   0.00000
 113        2PX         0.00004   0.00007   0.00017  -0.00009  -0.00000
 114        2PY         0.00002  -0.00005  -0.00039   0.00004  -0.00002
 115        2PZ         0.00000   0.00003   0.00014  -0.00003   0.00001
 116        3S         -0.00011  -0.00003   0.00021  -0.00028  -0.00020
 117        3PX        -0.00008  -0.00035  -0.00065   0.00102  -0.00001
 118        3PY        -0.00013   0.00033   0.00095   0.00005   0.00024
 119        3PZ         0.00002  -0.00016  -0.00038   0.00019  -0.00009
 120        4S          0.00486  -0.00276   0.00902  -0.00091  -0.00085
 121        4PX         0.00112   0.00086  -0.00171   0.00297   0.00254
 122        4PY        -0.00171   0.00106  -0.00471   0.00228   0.00121
 123        4PZ         0.00055   0.00002   0.00092  -0.00000   0.00022
 124        5S          0.02792  -0.00360   0.00644   0.01849   0.01189
 125        5PX        -0.00361  -0.00161  -0.00200  -0.00363  -0.00015
 126        5PY        -0.00480   0.00279  -0.00057  -0.00160  -0.00148
 127        5PZ         0.00051  -0.00092  -0.00027  -0.00047   0.00028
 128        6D 0       -0.00007  -0.00001  -0.00005  -0.00007  -0.00009
 129        6D+1        0.00001  -0.00001   0.00009  -0.00011   0.00003
 130        6D-1       -0.00001   0.00003   0.00030  -0.00007   0.00001
 131        6D+2       -0.00000   0.00008   0.00095  -0.00040   0.00009
 132        6D-2        0.00003   0.00012   0.00041   0.00025   0.00008
 133 7   H  1S          0.00001   0.00003   0.00005  -0.00016  -0.00001
 134        2S         -0.00023  -0.00026  -0.00172   0.00007   0.00008
 135        3S          0.00015   0.00027  -0.00096   0.00169   0.00079
 136        4PX        -0.00002  -0.00003  -0.00022   0.00007  -0.00004
 137        4PY         0.00003   0.00003   0.00028   0.00036  -0.00002
 138        4PZ        -0.00001  -0.00001  -0.00010  -0.00007   0.00000
 139 8   H  1S          0.00007  -0.00000  -0.00011   0.00007   0.00005
 140        2S         -0.00063  -0.00017  -0.00038  -0.00162  -0.00092
 141        3S          0.00095  -0.00140   0.00237  -0.00075  -0.00119
 142        4PX        -0.00006   0.00001   0.00001   0.00028   0.00002
 143        4PY         0.00015   0.00006   0.00043   0.00024   0.00022
 144        4PZ        -0.00004  -0.00002  -0.00010   0.00001  -0.00005
 145 9   C  1S         -0.00000   0.00000  -0.00000  -0.00000   0.00000
 146        2S         -0.00000  -0.00000   0.00000   0.00000  -0.00001
 147        2PX        -0.00000  -0.00001  -0.00002   0.00002  -0.00001
 148        2PY         0.00001   0.00001   0.00001  -0.00001  -0.00000
 149        2PZ        -0.00000   0.00001   0.00001   0.00002  -0.00002
 150        3S          0.00009   0.00009   0.00012   0.00009   0.00018
 151        3PX         0.00001   0.00006   0.00015  -0.00016   0.00008
 152        3PY        -0.00001  -0.00000  -0.00003   0.00002   0.00007
 153        3PZ         0.00002  -0.00004   0.00004  -0.00006   0.00012
 154        4S         -0.00086  -0.00067  -0.00108  -0.00138  -0.00056
 155        4PX         0.00003  -0.00012   0.00077  -0.00052   0.00003
 156        4PY        -0.00030  -0.00013  -0.00080  -0.00056  -0.00053
 157        4PZ        -0.00003  -0.00041   0.00029  -0.00083  -0.00067
 158        5S          0.00317   0.00044   0.01295   0.01214   0.01251
 159        5PX        -0.00027   0.00027  -0.00083  -0.00073  -0.00050
 160        5PY         0.00071   0.00020   0.00275   0.00241   0.00243
 161        5PZ         0.00032   0.00011   0.00199   0.00204   0.00201
 162        6D 0        0.00001  -0.00001  -0.00004  -0.00004  -0.00002
 163        6D+1       -0.00000   0.00002  -0.00003  -0.00002   0.00001
 164        6D-1        0.00001  -0.00004  -0.00001  -0.00006  -0.00003
 165        6D+2       -0.00003   0.00002  -0.00003  -0.00007   0.00003
 166        6D-2       -0.00001   0.00000   0.00006  -0.00000   0.00000
 167 10  H  1S          0.00003  -0.00001   0.00001  -0.00005   0.00003
 168        2S         -0.00036   0.00006  -0.00100   0.00005  -0.00019
 169        3S          0.00019   0.00007   0.00044   0.00072  -0.00017
 170        4PX        -0.00004  -0.00000  -0.00016  -0.00008  -0.00003
 171        4PY         0.00002   0.00003   0.00005  -0.00007   0.00000
 172        4PZ         0.00002  -0.00001   0.00009  -0.00001   0.00001
 173 11  H  1S          0.00001   0.00006   0.00002   0.00003   0.00003
 174        2S         -0.00010  -0.00049  -0.00021  -0.00106  -0.00024
 175        3S         -0.00042   0.00026   0.00149   0.00023  -0.00190
 176        4PX         0.00000  -0.00005   0.00008   0.00000  -0.00007
 177        4PY        -0.00004  -0.00004  -0.00008   0.00006  -0.00012
 178        4PZ         0.00002   0.00004   0.00005   0.00022   0.00008
 179 12  H  1S         -0.00003  -0.00001  -0.00010  -0.00001  -0.00006
 180        2S          0.00027   0.00001   0.00086   0.00012   0.00034
 181        3S         -0.00001  -0.00029  -0.00017  -0.00097  -0.00114
 182        4PX         0.00002  -0.00001   0.00007   0.00002   0.00002
 183        4PY        -0.00000   0.00001   0.00002   0.00003   0.00004
 184        4PZ         0.00003   0.00001   0.00012  -0.00003   0.00005
 185 13  H  1S         -0.00001  -0.00003  -0.00001  -0.00004  -0.00003
 186        2S          0.00005   0.00017   0.00000   0.00017   0.00021
 187        3S          0.00004   0.00001  -0.00042  -0.00048  -0.00111
 188        4PX         0.00000   0.00002  -0.00008   0.00005   0.00001
 189        4PY         0.00001   0.00003   0.00000   0.00001   0.00003
 190        4PZ         0.00000   0.00003  -0.00000   0.00006   0.00002
 191 14  H  1S         -0.00001   0.00003   0.00001  -0.00009   0.00002
 192        2S          0.00013   0.00001   0.00003   0.00075   0.00005
 193        3S          0.00005  -0.00008  -0.00069  -0.00067  -0.00164
 194        4PX        -0.00005  -0.00001   0.00002  -0.00012  -0.00001
 195        4PY         0.00001  -0.00005   0.00002  -0.00001  -0.00010
 196        4PZ         0.00000  -0.00006  -0.00006   0.00003  -0.00008
 197 15  C  1S         -0.00002  -0.00002   0.00001  -0.00000   0.56309
 198        2S          0.00008   0.00010  -0.00003   0.00001   0.46332
 199        2PX         0.00028   0.00006  -0.00028  -0.00007  -0.00061
 200        2PY         0.00027  -0.00033   0.00010  -0.00000   0.00020
 201        2PZ        -0.00002   0.00012  -0.00008  -0.00002  -0.00019
 202        3S          0.00031   0.00029   0.00015  -0.00004   0.01828
 203        3PX        -0.00061  -0.00010   0.00048   0.00031   0.00145
 204        3PY        -0.00050   0.00071  -0.00017  -0.00002  -0.00052
 205        3PZ         0.00002  -0.00024   0.00012   0.00008   0.00046
 206        4S          0.00242   0.00229   0.00200  -0.00268  -0.01266
 207        4PX         0.00406  -0.00171  -0.00193  -0.00061   0.00146
 208        4PY         0.00871  -0.00820   0.00155  -0.00169   0.00183
 209        4PZ        -0.00187   0.00223  -0.00069   0.00040  -0.00029
 210        5S         -0.00287  -0.00457  -0.00021  -0.00645  -0.01288
 211        5PX         0.00022   0.00161   0.00002   0.00171   0.00404
 212        5PY        -0.00129   0.00152   0.00092  -0.00029  -0.00025
 213        5PZ         0.00046   0.00006   0.00004   0.00065   0.00118
 214        6D 0        0.00022   0.00012  -0.00006   0.00002  -0.00127
 215        6D+1        0.00021   0.00007  -0.00016  -0.00004  -0.00009
 216        6D-1       -0.00002   0.00036  -0.00009  -0.00002  -0.00098
 217        6D+2        0.00011   0.00079  -0.00035  -0.00012  -0.00121
 218        6D-2       -0.00080   0.00009   0.00033   0.00002   0.00110
 219 16  O  1S         -0.02495   0.55074   0.00000   0.00000  -0.00007
 220        2S         -0.02121   0.46923   0.00003  -0.00000  -0.00004
 221        2PX         0.00004  -0.00007  -0.00001  -0.00000  -0.00006
 222        2PY         0.00000   0.00105   0.00005   0.00001   0.00047
 223        2PZ         0.00001  -0.00034  -0.00002  -0.00000  -0.00016
 224        3S         -0.00107   0.01397  -0.00013   0.00003   0.00035
 225        3PX        -0.00008  -0.00014   0.00005  -0.00000   0.00019
 226        3PY        -0.00026   0.00055  -0.00025  -0.00005  -0.00145
 227        3PZ         0.00007  -0.00022   0.00010   0.00002   0.00051
 228        4S          0.00350  -0.01237  -0.00004  -0.00045  -0.00305
 229        4PX        -0.00078   0.00068   0.00037   0.00019   0.00032
 230        4PY         0.00092  -0.00202   0.00009  -0.00003  -0.00117
 231        4PZ        -0.00047   0.00084   0.00000   0.00002   0.00044
 232        5S          0.00316   0.00332   0.00049  -0.00211   0.00705
 233        5PX        -0.00051  -0.00098   0.00049   0.00064  -0.00116
 234        5PY         0.00083  -0.00057  -0.00010  -0.00050   0.00294
 235        5PZ        -0.00035  -0.00010   0.00008   0.00041  -0.00109
 236        6D 0        0.00004  -0.00009   0.00001  -0.00000   0.00037
 237        6D+1        0.00007   0.00001  -0.00002   0.00000  -0.00010
 238        6D-1        0.00001  -0.00013   0.00004   0.00000   0.00054
 239        6D+2        0.00009  -0.00019   0.00006   0.00001   0.00071
 240        6D-2       -0.00019  -0.00002   0.00009   0.00001   0.00023
 241 17  O  1S          0.55075   0.02496   0.00000   0.00000  -0.00007
 242        2S          0.46922   0.02131   0.00002   0.00001  -0.00005
 243        2PX        -0.00075  -0.00004  -0.00004  -0.00001  -0.00035
 244        2PY        -0.00078  -0.00009  -0.00003  -0.00002  -0.00034
 245        2PZ         0.00010   0.00002   0.00000   0.00001   0.00004
 246        3S          0.01401   0.00022  -0.00007  -0.00015   0.00046
 247        3PX        -0.00048   0.00006   0.00018   0.00004   0.00106
 248        3PY        -0.00043   0.00021   0.00018   0.00010   0.00101
 249        3PZ         0.00005  -0.00007  -0.00002  -0.00003  -0.00012
 250        4S         -0.01283   0.00219  -0.00070   0.00106  -0.00420
 251        4PX         0.00208  -0.00099   0.00047  -0.00031   0.00144
 252        4PY         0.00147  -0.00007  -0.00007  -0.00048   0.00120
 253        4PZ        -0.00008  -0.00014   0.00012   0.00013  -0.00005
 254        5S          0.00393   0.00367  -0.00003   0.00075   0.00445
 255        5PX        -0.00087  -0.00119   0.00012   0.00002  -0.00229
 256        5PY         0.00063  -0.00076  -0.00021   0.00011  -0.00100
 257        5PZ        -0.00039  -0.00008  -0.00001  -0.00011  -0.00026
 258        6D 0       -0.00012   0.00001   0.00003   0.00001   0.00051
 259        6D+1       -0.00003   0.00004   0.00001  -0.00001   0.00007
 260        6D-1       -0.00004   0.00007  -0.00002   0.00000   0.00010
 261        6D+2       -0.00004   0.00020  -0.00005  -0.00001  -0.00008
 262        6D-2        0.00020  -0.00002  -0.00010   0.00000  -0.00084
                           6         7         8         9        10
                           O         O         O         O         O
     Eigenvalues --   -10.22104 -10.18397 -10.17581 -10.16557 -10.15290
   1 1   N  1S         -0.00008  -0.00000  -0.00005   0.00000  -0.00000
   2        2S         -0.00002   0.00003  -0.00006   0.00005  -0.00000
   3        2PX         0.00044  -0.00002   0.00020   0.00003  -0.00001
   4        2PY        -0.00029   0.00010   0.00029  -0.00009   0.00002
   5        2PZ         0.00016  -0.00003  -0.00003   0.00003   0.00001
   6        3S          0.00074   0.00003   0.00075  -0.00029   0.00004
   7        3PX        -0.00141   0.00000  -0.00046  -0.00023   0.00003
   8        3PY         0.00095  -0.00052  -0.00034   0.00042  -0.00012
   9        3PZ        -0.00052   0.00012  -0.00001  -0.00017  -0.00001
  10        4S         -0.00671  -0.00300  -0.00188   0.00107   0.00015
  11        4PX        -0.00230  -0.00153  -0.00048   0.00094  -0.00017
  12        4PY         0.00046  -0.00055  -0.00184  -0.00006   0.00070
  13        4PZ        -0.00051  -0.00016   0.00036   0.00035  -0.00003
  14        5S          0.00917  -0.00604   0.00579   0.00409  -0.00298
  15        5PX         0.00423  -0.00172   0.00239   0.00111  -0.00081
  16        5PY        -0.00359   0.00168   0.00385  -0.00082   0.00200
  17        5PZ         0.00093  -0.00095  -0.00068  -0.00046   0.00006
  18        6D 0        0.00062   0.00010   0.00049   0.00002   0.00002
  19        6D+1       -0.00053   0.00006   0.00000  -0.00003  -0.00001
  20        6D-1        0.00038   0.00007   0.00018   0.00007   0.00001
  21        6D+2       -0.00037   0.00025   0.00025   0.00005   0.00001
  22        6D-2        0.00085  -0.00019  -0.00053   0.00016   0.00003
  23 2   N  1S         -0.00005  -0.00004   0.00000   0.00000  -0.00000
  24        2S         -0.00004  -0.00007   0.00001   0.00003  -0.00000
  25        2PX        -0.00034  -0.00015   0.00006  -0.00005  -0.00001
  26        2PY        -0.00021   0.00028   0.00006  -0.00008   0.00002
  27        2PZ        -0.00001  -0.00010  -0.00001   0.00002   0.00000
  28        3S          0.00069   0.00081   0.00017  -0.00020   0.00000
  29        3PX         0.00058   0.00041  -0.00014   0.00024   0.00004
  30        3PY         0.00052  -0.00023  -0.00039   0.00035  -0.00011
  31        3PZ        -0.00003   0.00013   0.00007  -0.00006  -0.00001
  32        4S         -0.00263  -0.00251  -0.00389   0.00110   0.00084
  33        4PX         0.00413   0.00014   0.00105  -0.00110  -0.00063
  34        4PY        -0.00136  -0.00207  -0.00033  -0.00078   0.00067
  35        4PZ         0.00113   0.00054   0.00025   0.00011  -0.00005
  36        5S          0.01302   0.01556   0.00075   0.00311  -0.00169
  37        5PX        -0.00631  -0.00861  -0.00541  -0.00154  -0.00104
  38        5PY        -0.01384   0.01183   0.00376  -0.00439  -0.00144
  39        5PZ         0.00189  -0.00496  -0.00230   0.00058   0.00001
  40        6D 0        0.00054   0.00041   0.00003   0.00002   0.00002
  41        6D+1       -0.00008  -0.00017   0.00005   0.00004  -0.00002
  42        6D-1        0.00003   0.00035   0.00009   0.00001  -0.00002
  43        6D+2       -0.00033   0.00034   0.00030   0.00008  -0.00000
  44        6D-2       -0.00064   0.00034  -0.00000  -0.00015  -0.00002
  45 3   C  1S          0.56294   0.00003  -0.00000  -0.00139   0.00004
  46        2S          0.46329   0.00002  -0.00003  -0.00114   0.00006
  47        2PX         0.00042   0.00000   0.00000  -0.00005  -0.00001
  48        2PY         0.00027  -0.00007  -0.00002  -0.00058  -0.00008
  49        2PZ         0.00002   0.00002   0.00001   0.00014  -0.00000
  50        3S          0.01896  -0.00008   0.00011   0.00028  -0.00013
  51        3PX        -0.00055  -0.00000  -0.00003   0.00010   0.00001
  52        3PY         0.00088   0.00011   0.00001   0.00157   0.00052
  53        3PZ        -0.00041  -0.00004  -0.00002  -0.00042   0.00002
  54        4S         -0.01334  -0.00074  -0.00162   0.00183   0.00033
  55        4PX        -0.00231  -0.00047   0.00204  -0.00089  -0.00097
  56        4PY         0.00505   0.00585   0.00615  -0.00799  -0.00260
  57        4PZ        -0.00156  -0.00137  -0.00096   0.00109   0.00000
  58        5S         -0.03510   0.02041   0.00626   0.00416  -0.00302
  59        5PX        -0.00681  -0.00357  -0.00763  -0.00298   0.00025
  60        5PY        -0.00797  -0.02148  -0.01328  -0.00981  -0.00040
  61        5PZ         0.00229   0.00529   0.00252   0.00321  -0.00001
  62        6D 0       -0.00122  -0.00015  -0.00009   0.00025   0.00005
  63        6D+1        0.00050  -0.00003  -0.00000   0.00014  -0.00005
  64        6D-1       -0.00064  -0.00012  -0.00010   0.00031   0.00007
  65        6D+2       -0.00020  -0.00027  -0.00019   0.00078   0.00003
  66        6D-2       -0.00029   0.00013  -0.00001  -0.00027  -0.00005
  67 4   C  1S          0.00135  -0.00006  -0.00006   0.56296  -0.00476
  68        2S          0.00114  -0.00002  -0.00003   0.46318  -0.00395
  69        2PX         0.00002  -0.00000   0.00002   0.00007   0.00016
  70        2PY         0.00053  -0.00000  -0.00002   0.00020  -0.00023
  71        2PZ        -0.00013  -0.00001  -0.00000  -0.00031  -0.00035
  72        3S          0.00021  -0.00046  -0.00037   0.01970   0.00022
  73        3PX        -0.00004  -0.00004  -0.00008  -0.00058  -0.00039
  74        3PY        -0.00148  -0.00002   0.00009  -0.00020   0.00034
  75        3PZ         0.00055   0.00010   0.00007   0.00153   0.00077
  76        4S          0.00456   0.00620   0.00628  -0.02106   0.00075
  77        4PX         0.00033   0.00054   0.00020  -0.00179   0.00086
  78        4PY         0.00176   0.00236   0.00231  -0.00297  -0.00207
  79        4PZ         0.00021  -0.00045  -0.00052   0.00253  -0.00085
  80        5S         -0.01312  -0.03781  -0.02204  -0.03025   0.03503
  81        5PX        -0.00019  -0.00030   0.00036  -0.00068   0.00395
  82        5PY        -0.00032  -0.00801  -0.00498  -0.00359  -0.00067
  83        5PZ         0.00316   0.00126   0.00067   0.00222  -0.00725
  84        6D 0        0.00063  -0.00002   0.00001  -0.00002  -0.00020
  85        6D+1        0.00009   0.00000   0.00003   0.00038   0.00031
  86        6D-1        0.00034  -0.00001  -0.00002  -0.00039  -0.00049
  87        6D+2        0.00096   0.00005  -0.00002   0.00074   0.00020
  88        6D-2       -0.00015   0.00004  -0.00005   0.00007   0.00019
  89 5   C  1S          0.00000   0.02335   0.56242   0.00006   0.00002
  90        2S         -0.00002   0.01948   0.46274   0.00007   0.00003
  91        2PX        -0.00003   0.00079  -0.00047  -0.00001  -0.00000
  92        2PY         0.00008   0.00002  -0.00026   0.00000   0.00001
  93        2PZ        -0.00002   0.00015  -0.00003   0.00001  -0.00000
  94        3S          0.00012   0.00052   0.01994  -0.00024  -0.00014
  95        3PX         0.00004  -0.00386   0.00198   0.00000   0.00001
  96        3PY        -0.00044  -0.00006   0.00052   0.00006  -0.00002
  97        3PZ         0.00010  -0.00073   0.00026  -0.00008   0.00002
  98        4S          0.00016   0.00212  -0.01197   0.00006   0.00034
  99        4PX         0.00002   0.00179  -0.00445   0.00001   0.00103
 100        4PY        -0.00058  -0.00029   0.00355  -0.00059  -0.00051
 101        4PZ         0.00020   0.00042  -0.00171   0.00034   0.00017
 102        5S         -0.01716   0.02718  -0.00856  -0.00839  -0.00172
 103        5PX        -0.00678   0.00538  -0.00033  -0.00245   0.00005
 104        5PY        -0.00251  -0.00321   0.00079  -0.00043   0.00021
 105        5PZ        -0.00057   0.00180  -0.00026  -0.00011  -0.00034
 106        6D 0       -0.00007   0.00074  -0.00164  -0.00003   0.00000
 107        6D+1        0.00002  -0.00072   0.00103   0.00004   0.00000
 108        6D-1       -0.00010  -0.00011  -0.00074  -0.00005   0.00001
 109        6D+2       -0.00019  -0.00205   0.00094  -0.00001  -0.00003
 110        6D-2       -0.00012   0.00023  -0.00101  -0.00007   0.00001
 111 6   C  1S         -0.00003   0.56241  -0.02352   0.00005   0.00002
 112        2S         -0.00004   0.46271  -0.01910   0.00008   0.00003
 113        2PX         0.00010   0.00048  -0.00085   0.00000   0.00000
 114        2PY         0.00009  -0.00059   0.00009   0.00000  -0.00001
 115        2PZ        -0.00000   0.00024  -0.00018   0.00001   0.00001
 116        3S         -0.00007   0.02047  -0.00093  -0.00038  -0.00016
 117        3PX        -0.00034  -0.00150   0.00401   0.00006   0.00000
 118        3PY        -0.00046   0.00056  -0.00030   0.00006   0.00011
 119        3PZ         0.00005  -0.00042   0.00084  -0.00004  -0.00007
 120        4S          0.00340  -0.01469   0.00132   0.00212  -0.00070
 121        4PX         0.00063   0.00452  -0.00241  -0.00039   0.00029
 122        4PY        -0.00086   0.00334  -0.00046  -0.00121  -0.00002
 123        4PZ         0.00033   0.00012  -0.00030   0.00025   0.00013
 124        5S          0.03720  -0.02802   0.00997   0.01853   0.00416
 125        5PX        -0.00749   0.00300  -0.00268  -0.00365  -0.00042
 126        5PY        -0.00314   0.00309  -0.00166  -0.00251  -0.00111
 127        5PZ        -0.00098  -0.00022  -0.00017  -0.00049   0.00045
 128        6D 0       -0.00016  -0.00174   0.00102  -0.00009  -0.00003
 129        6D+1       -0.00002   0.00051  -0.00069   0.00002  -0.00001
 130        6D-1       -0.00006  -0.00023  -0.00011  -0.00003   0.00001
 131        6D+2       -0.00014   0.00109  -0.00210   0.00002  -0.00001
 132        6D-2        0.00021   0.00135  -0.00027   0.00004   0.00003
 133 7   H  1S         -0.00007  -0.00011   0.00018  -0.00003  -0.00004
 134        2S          0.00025  -0.00068  -0.00488   0.00006   0.00040
 135        3S          0.00063   0.00022   0.00066   0.00035  -0.00000
 136        4PX         0.00003  -0.00049  -0.00125   0.00001   0.00001
 137        4PY        -0.00003   0.00021   0.00203   0.00004  -0.00004
 138        4PZ         0.00001  -0.00014  -0.00072  -0.00002   0.00002
 139 8   H  1S         -0.00002   0.00008  -0.00008  -0.00004  -0.00001
 140        2S         -0.00019  -0.00483   0.00010   0.00004  -0.00002
 141        3S          0.00075   0.00081   0.00026   0.00054   0.00011
 142        4PX         0.00002   0.00163   0.00032   0.00001   0.00001
 143        4PY         0.00002   0.00195  -0.00010   0.00006   0.00002
 144        4PZ         0.00001  -0.00014   0.00008  -0.00000  -0.00001
 145 9   C  1S         -0.00003  -0.00002  -0.00003   0.00474   0.56295
 146        2S          0.00001  -0.00000  -0.00001   0.00386   0.46316
 147        2PX        -0.00004   0.00000  -0.00001  -0.00016  -0.00014
 148        2PY         0.00004   0.00002   0.00002   0.00022   0.00011
 149        2PZ         0.00009   0.00001   0.00000   0.00035   0.00020
 150        3S         -0.00025  -0.00008  -0.00007   0.00029   0.01947
 151        3PX         0.00023  -0.00003   0.00003   0.00037   0.00067
 152        3PY        -0.00033  -0.00011  -0.00011  -0.00052  -0.00092
 153        3PZ        -0.00046  -0.00006  -0.00002  -0.00079  -0.00131
 154        4S          0.00098  -0.00062  -0.00052   0.00650  -0.01180
 155        4PX        -0.00014   0.00005   0.00004  -0.00064   0.00020
 156        4PY         0.00061   0.00011   0.00012   0.00147  -0.00167
 157        4PZ        -0.00013  -0.00016  -0.00028   0.00186  -0.00117
 158        5S          0.01158   0.00205   0.00112   0.00895  -0.02925
 159        5PX        -0.00056  -0.00012  -0.00009  -0.00047   0.00161
 160        5PY         0.00300   0.00111   0.00091   0.00165  -0.00429
 161        5PZ         0.00118   0.00012  -0.00015   0.00129  -0.00425
 162        6D 0       -0.00016   0.00000  -0.00002  -0.00035  -0.00034
 163        6D+1        0.00007  -0.00000  -0.00001   0.00037   0.00033
 164        6D-1       -0.00020  -0.00002  -0.00003  -0.00051  -0.00061
 165        6D+2       -0.00008  -0.00006  -0.00004   0.00008   0.00018
 166        6D-2        0.00011   0.00001   0.00000   0.00023   0.00027
 167 10  H  1S         -0.00007   0.00005   0.00002   0.00009  -0.00010
 168        2S         -0.00071  -0.00065  -0.00039  -0.00250  -0.00026
 169        3S          0.00019   0.00100   0.00027   0.00409  -0.00115
 170        4PX        -0.00029  -0.00010  -0.00006  -0.00203  -0.00021
 171        4PY         0.00008  -0.00001   0.00003  -0.00034  -0.00005
 172        4PZ        -0.00002  -0.00000  -0.00002   0.00018   0.00001
 173 11  H  1S         -0.00010   0.00003   0.00005   0.00002  -0.00009
 174        2S         -0.00113  -0.00053  -0.00065  -0.00211  -0.00040
 175        3S          0.00036   0.00054   0.00088   0.00436  -0.00251
 176        4PX         0.00026   0.00005   0.00005   0.00120   0.00012
 177        4PY         0.00003   0.00001  -0.00002  -0.00044  -0.00010
 178        4PZ         0.00033   0.00006   0.00006   0.00160   0.00020
 179 12  H  1S          0.00003  -0.00001  -0.00003  -0.00005   0.00018
 180        2S         -0.00042   0.00008   0.00018  -0.00092  -0.00291
 181        3S         -0.00067  -0.00019  -0.00057   0.00025   0.00387
 182        4PX        -0.00008   0.00001   0.00001  -0.00020  -0.00108
 183        4PY        -0.00005   0.00001  -0.00000   0.00011   0.00057
 184        4PZ        -0.00011  -0.00000   0.00001  -0.00021  -0.00163
 185 13  H  1S         -0.00004  -0.00003  -0.00002   0.00002   0.00023
 186        2S         -0.00017   0.00012   0.00009  -0.00125  -0.00335
 187        3S          0.00039   0.00044   0.00051  -0.00004   0.00377
 188        4PX        -0.00001  -0.00001  -0.00001  -0.00004  -0.00034
 189        4PY        -0.00011   0.00001   0.00002  -0.00041  -0.00200
 190        4PZ         0.00006   0.00003   0.00003   0.00005   0.00057
 191 14  H  1S          0.00004  -0.00005  -0.00001  -0.00006   0.00020
 192        2S         -0.00044   0.00031   0.00009  -0.00090  -0.00316
 193        3S         -0.00076  -0.00028   0.00008  -0.00004   0.00444
 194        4PX         0.00016  -0.00005  -0.00001   0.00030   0.00204
 195        4PY        -0.00013   0.00003   0.00002   0.00009   0.00044
 196        4PZ        -0.00002   0.00000  -0.00001   0.00001  -0.00026
 197 15  C  1S          0.00002   0.00002   0.00001   0.00000  -0.00000
 198        2S          0.00003   0.00003   0.00003   0.00001  -0.00001
 199        2PX        -0.00009  -0.00004  -0.00003  -0.00005   0.00001
 200        2PY         0.00000  -0.00001   0.00003  -0.00006  -0.00001
 201        2PZ        -0.00001  -0.00001  -0.00002   0.00000   0.00001
 202        3S          0.00002  -0.00027  -0.00035   0.00011   0.00010
 203        3PX         0.00046   0.00020   0.00015   0.00015  -0.00007
 204        3PY        -0.00005   0.00004  -0.00018   0.00029   0.00004
 205        3PZ         0.00007   0.00005   0.00010  -0.00004  -0.00007
 206        4S         -0.00484   0.00118   0.00099  -0.00164   0.00040
 207        4PX         0.00053   0.00013  -0.00096   0.00030  -0.00009
 208        4PY        -0.00250   0.00183   0.00085   0.00101  -0.00003
 209        4PZ         0.00112  -0.00063  -0.00050  -0.00026   0.00011
 210        5S          0.00380   0.00997   0.00832  -0.00132  -0.00240
 211        5PX        -0.00069  -0.00291  -0.00274   0.00076   0.00131
 212        5PY         0.00110   0.00099  -0.00018   0.00092   0.00061
 213        5PZ        -0.00008  -0.00088  -0.00045   0.00020  -0.00010
 214        6D 0        0.00005  -0.00007  -0.00006   0.00006   0.00001
 215        6D+1       -0.00007   0.00001   0.00001   0.00002  -0.00001
 216        6D-1        0.00001  -0.00005  -0.00005   0.00002  -0.00001
 217        6D+2       -0.00015  -0.00008  -0.00005   0.00002   0.00003
 218        6D-2        0.00005   0.00000  -0.00001  -0.00005   0.00002
 219 16  O  1S          0.00000   0.00000   0.00000   0.00000  -0.00000
 220        2S          0.00001   0.00001   0.00000   0.00002  -0.00000
 221        2PX        -0.00001  -0.00000   0.00001  -0.00006  -0.00000
 222        2PY         0.00001   0.00002   0.00002  -0.00002  -0.00000
 223        2PZ        -0.00001  -0.00001  -0.00000  -0.00001  -0.00000
 224        3S         -0.00001  -0.00006   0.00001  -0.00016   0.00004
 225        3PX         0.00005   0.00002  -0.00003   0.00024  -0.00000
 226        3PY        -0.00004  -0.00009  -0.00009   0.00009   0.00002
 227        3PZ         0.00002   0.00003   0.00002   0.00004   0.00001
 228        4S         -0.00027   0.00035  -0.00012   0.00070  -0.00005
 229        4PX         0.00012  -0.00012   0.00018  -0.00055   0.00012
 230        4PY        -0.00006   0.00029   0.00007   0.00031   0.00005
 231        4PZ         0.00004  -0.00011   0.00001  -0.00025   0.00003
 232        5S         -0.00460   0.00478   0.00272   0.00158  -0.00124
 233        5PX         0.00094  -0.00093  -0.00076   0.00023   0.00028
 234        5PY        -0.00159   0.00150   0.00115   0.00010  -0.00037
 235        5PZ         0.00061  -0.00069  -0.00050  -0.00021   0.00028
 236        6D 0        0.00001   0.00001   0.00001  -0.00002  -0.00000
 237        6D+1       -0.00001   0.00000  -0.00000   0.00003  -0.00001
 238        6D-1        0.00001   0.00001   0.00002  -0.00003  -0.00001
 239        6D+2       -0.00000   0.00001   0.00002  -0.00002  -0.00000
 240        6D-2        0.00000  -0.00001   0.00001  -0.00002  -0.00001
 241 17  O  1S          0.00000   0.00000   0.00000   0.00000  -0.00000
 242        2S          0.00001   0.00001   0.00001   0.00000  -0.00000
 243        2PX        -0.00002  -0.00002  -0.00002  -0.00001   0.00001
 244        2PY        -0.00002   0.00001   0.00000  -0.00001  -0.00000
 245        2PZ         0.00000  -0.00001  -0.00000   0.00001  -0.00000
 246        3S         -0.00013  -0.00001  -0.00005   0.00001   0.00004
 247        3PX         0.00009   0.00008   0.00009   0.00003  -0.00002
 248        3PY         0.00008  -0.00003  -0.00001   0.00004   0.00001
 249        3PZ        -0.00002   0.00002   0.00001  -0.00002   0.00002
 250        4S          0.00100  -0.00051  -0.00008  -0.00032  -0.00022
 251        4PX        -0.00063   0.00035  -0.00010   0.00002   0.00010
 252        4PY        -0.00041   0.00021  -0.00004  -0.00004   0.00002
 253        4PZ         0.00002   0.00002   0.00002   0.00005  -0.00004
 254        5S          0.00537  -0.00311   0.00033   0.00074   0.00118
 255        5PX        -0.00219   0.00116   0.00008  -0.00062  -0.00080
 256        5PY        -0.00053   0.00013   0.00012   0.00003  -0.00037
 257        5PZ        -0.00038   0.00017  -0.00005  -0.00019  -0.00001
 258        6D 0        0.00001   0.00002  -0.00001  -0.00000   0.00000
 259        6D+1       -0.00000  -0.00001   0.00000   0.00001   0.00000
 260        6D-1        0.00001   0.00000  -0.00001  -0.00000  -0.00000
 261        6D+2        0.00000  -0.00002  -0.00001   0.00000   0.00000
 262        6D-2       -0.00000  -0.00001  -0.00000  -0.00001  -0.00000
                          11        12        13        14        15
                           O         O         O         O         O
     Eigenvalues --    -1.05226  -0.99315  -0.95718  -0.85588  -0.78227
   1 1   N  1S         -0.01235  -0.05378   0.00200  -0.07864   0.00520
   2        2S         -0.01929  -0.08409   0.00309  -0.12359   0.00823
   3        2PX         0.01093   0.04294  -0.00147   0.04071  -0.00044
   4        2PY         0.00100   0.00526   0.00040   0.00943  -0.03886
   5        2PZ         0.00184   0.00695  -0.00038   0.00552   0.00864
   6        3S          0.05186   0.22656  -0.00768   0.33971  -0.02275
   7        3PX         0.01687   0.06444  -0.00218   0.06005  -0.00063
   8        3PY         0.00150   0.00883   0.00065   0.01660  -0.05872
   9        3PZ         0.00299   0.01031  -0.00059   0.00750   0.01295
  10        4S          0.02959   0.14748  -0.01558   0.24428  -0.01611
  11        4PX         0.00568   0.02556  -0.00567   0.02500  -0.00202
  12        4PY         0.00299   0.00270  -0.00103   0.00344  -0.02140
  13        4PZ        -0.00013   0.00368  -0.00090   0.00377   0.00421
  14        5S         -0.02161  -0.06058  -0.00832  -0.06084  -0.00469
  15        5PX        -0.00408  -0.02079  -0.00051  -0.01486  -0.00189
  16        5PY         0.00811   0.00663  -0.00151  -0.00137   0.01189
  17        5PZ        -0.00043  -0.00196   0.00054  -0.00231  -0.00262
  18        6D 0       -0.00178  -0.00677   0.00024  -0.00605   0.00133
  19        6D+1        0.00090   0.00312  -0.00017   0.00199   0.00157
  20        6D-1       -0.00054  -0.00248   0.00012  -0.00361  -0.00072
  21        6D+2        0.00121   0.00294  -0.00015  -0.00245   0.00105
  22        6D-2       -0.00010  -0.00040   0.00017  -0.00088  -0.00826
  23 2   N  1S         -0.04239  -0.06303  -0.00067   0.07578  -0.00254
  24        2S         -0.06656  -0.09894  -0.00105   0.11967  -0.00403
  25        2PX         0.00459  -0.03903   0.00548  -0.01006  -0.00489
  26        2PY        -0.00108   0.01008   0.01134  -0.00980  -0.04410
  27        2PZ         0.00175  -0.00987  -0.00228  -0.00028   0.00889
  28        3S          0.18130   0.27049   0.00274  -0.33542   0.01219
  29        3PX         0.01242  -0.05877   0.00744  -0.01620  -0.00791
  30        3PY        -0.00335   0.01527   0.01555  -0.01490  -0.06672
  31        3PZ         0.00438  -0.01478  -0.00318  -0.00073   0.01336
  32        4S          0.12943   0.19128   0.00299  -0.25813   0.00263
  33        4PX        -0.00222  -0.02444   0.01442  -0.02070   0.00257
  34        4PY         0.00015   0.00745   0.02786   0.00016  -0.03224
  35        4PZ        -0.00050  -0.00680  -0.00521  -0.00463   0.00719
  36        5S         -0.03691  -0.09705   0.00063   0.05994   0.00619
  37        5PX         0.01608   0.02745   0.02068  -0.01221  -0.00182
  38        5PY         0.01867   0.02111   0.04275   0.00391   0.04463
  39        5PZ         0.00093   0.00285  -0.00727  -0.00441  -0.00927
  40        6D 0       -0.00536  -0.00729  -0.00048   0.00495  -0.00014
  41        6D+1        0.00350   0.00278  -0.00030  -0.00170  -0.00108
  42        6D-1       -0.00205  -0.00279   0.00088   0.00299   0.00203
  43        6D+2        0.00374   0.00150   0.00159   0.00240   0.00222
  44        6D-2       -0.00183   0.00085   0.00212   0.00027   0.00659
  45 3   C  1S         -0.01886  -0.05500   0.00405  -0.01753  -0.04802
  46        2S         -0.02890  -0.08433   0.00621  -0.02690  -0.07449
  47        2PX         0.00908   0.00369  -0.00198  -0.07527   0.00238
  48        2PY         0.01294   0.04244  -0.00024   0.01370  -0.04346
  49        2PZ        -0.00144  -0.00995  -0.00033  -0.01812   0.00692
  50        3S          0.07374   0.21792  -0.01614   0.07158   0.20198
  51        3PX         0.01541   0.00814  -0.00160  -0.10761   0.00457
  52        3PY         0.01948   0.06286   0.00020   0.01786  -0.06698
  53        3PZ        -0.00204  -0.01464  -0.00049  -0.02556   0.01062
  54        4S          0.03166   0.09016   0.02370   0.02039   0.12517
  55        4PX        -0.00800   0.00303   0.00491  -0.00723   0.00657
  56        4PY        -0.01029  -0.01188   0.01159  -0.00253  -0.01584
  57        4PZ         0.00126   0.00359  -0.00138  -0.00035   0.00405
  58        5S          0.03434   0.13025   0.11239   0.00054  -0.00662
  59        5PX         0.00326   0.03497   0.02217  -0.01404  -0.00452
  60        5PY         0.02083   0.06621  -0.03011   0.01054   0.02263
  61        5PZ        -0.00991  -0.01834   0.01220  -0.00422  -0.01141
  62        6D 0       -0.00489  -0.01265   0.00072  -0.00066  -0.00593
  63        6D+1        0.00128   0.00338  -0.00034   0.00511   0.00120
  64        6D-1       -0.00129  -0.00577   0.00031  -0.00663  -0.00083
  65        6D+2        0.00116  -0.00267  -0.00018  -0.00606  -0.00117
  66        6D-2        0.00301   0.00279  -0.00003  -0.02226   0.00186
  67 4   C  1S         -0.00335  -0.00896   0.00234  -0.00650  -0.07716
  68        2S         -0.00515  -0.01366   0.00361  -0.00996  -0.11928
  69        2PX         0.00109   0.00053  -0.00106  -0.00522   0.00561
  70        2PY         0.00287   0.00872  -0.00106   0.00413   0.01091
  71        2PZ        -0.00035  -0.00187   0.00001  -0.00221  -0.01409
  72        3S          0.01403   0.03576  -0.00933   0.02565   0.31341
[...]
 8186721,9.7771083,0.3118086,-2.0361112,0.6496978,1.1039376,1.0637215,-
 2.8695876,2.5413489,0.0637226,0.21138,-9.3595244,6.4542785,6.0270202,-
 2.6129051,1.608795,0.3200133,-8.6767135,-3.1904162,-31.496053,-1.32483
 68,1.9635088,-2.3284461,2.2525728,2.6776979,8.7320999,-1.7312218,-5.17
 80395,3.4936091,10.2585769,3.7046274,-4.0549475,-4.3566185,-1.1329155,
 -5.0357369,2.4159548,-0.7854589,13.1071155,-0.0531304,2.4373477,4.2497
 869,-2.7546701,-0.9363985,3.8630727,-2.8995942,7.7968383,-5.2843763,-3
 .7697527,-6.4147787,-19.7710898,3.5746323,-0.4904637,-7.3476219,7.7641
 794,-8.1469544,-11.3066711,0.7107558,2.1948499,1.1993513,-0.1617473,-1
 .8970339,0.7922815,-6.2102116,3.8101503,-6.7342857,4.0868383,2.5417308
 ,14.1430227,-2.348044,-1.2886541,8.8685027,4.3504421,1.1404482,-3.2591
 033,2.2327584,2.4880417,0.2190738,-2.6064912,0.2440478,6.7840299,5.271
 2912,6.0079312,1.4248461,-5.4757266,4.0766961,-4.6467347,-2.1516737,1.
 9333445,-1.0699133,3.3278223,-4.9775491,9.4080743,1.9004208,-3.0763023
 ,1.7401203,-2.0904469,2.3387236,-3.3897544,0.1027952,0.5484875,0.03406
 49,5.6480951,3.607164,5.2103995,0.4125559,-0.0974691,0.5379808,3.57359
 14,4.8003385,8.1054264,-0.7557161,-0.9637018,0.9536365,0.528102,-0.372
 4984,-1.644305,-0.5913714,-1.051541,0.0168458,-7.5813411,-2.1124171,6.
 4324115,4.1845638,0.9873156,5.2620278,-1.9888103,2.2084541,8.0650453,0
 .0469678,-4.6794721,-3.909338,2.2598092,0.4678303,-12.0487194,4.325828
 1,-4.9644627,4.0780791,-12.3974023,-3.7533727,-3.893772,3.223557,0.740
 9521,-1.8765006,-1.4928533,-2.5213023,-0.7167844,0.6198874,0.2926794,-
 0.6728325,1.1396858,0.407856,-1.0975811,-1.8166731,-1.2584313,1.549814
 ,2.4978601,-0.5308185,4.7246385,2.7046734,-0.7338718,4.3320524,0.12391
 43,1.48575,-3.593051,-0.3051527,2.5297599,-2.3543496,2.0786775,-0.5103
 442,3.5256373,2.4542532,-4.0809219,9.3391318,-2.4599203,0.1015861,-1.9
 956468,-3.1043941,-0.5373787,-4.3401031,0.8457244,-1.1441217,0.2075459
 ,0.382169,-0.871383,2.056474,-2.4295511,-0.2577974,-0.5275507,-3.43204
 54,-0.0326028,-9.2784253,-0.0366637,-2.1180717,-2.2416615,-0.2353734,-
 0.1226635,-0.9286464,-1.0520988,-1.2755695,-18.9558613,0.0603578,0.877
 5441,-1.1857416,0.4487999,0.123379,3.8649778,-0.7215267,-1.6317921,0.7
 713436,10.9238062,0.1303241,1.9615701,-2.3880982,0.6314719,2.1366983,1
 .2823451,1.6427962,-0.2903722,-0.0419032,0.3900943,1.06476,-1.2886051,
 0.434535,1.0290823,1.4878924,0.6863079,-1.1326684,-6.2667067,-2.519894
 ,-1.802344,-1.0290162,0.3513302,1.8014982,-0.5062751,-5.2021346,4.3536
 402,1.4699015,-2.3594552,1.0676643,-0.5702591,0.6247339,-1.2113185,-1.
 8266015,1.2076218,-0.3759157,1.6245375,-3.8599504,0.3267171,1.5430377,
 -0.512641,-0.7424403,-9.9280784,3.9784213,-14.630158,-2.8020597,3.2034
 783,-3.7387521,2.9349049,-0.9301068,1.8341707,2.0898364,-5.0912343,4.3
 017239,14.6058065,4.8362165,3.9551564,0.4512483,-0.5551418,0.8909615,9
 .0510136,4.8883128,8.1475553,1.3146416,0.1624465,2.1248324,-1.6586638,
 0.0822626,0.1887443,4.2071546,3.0159095,-0.8115718\HyperPolar=7.150047
 8,-41.3978149,-85.9795116,-114.6747693,33.025472,-22.6756084,52.868646
 4,-20.319421,108.1178355,-123.1898552\Quadrupole=-15.6413739,7.5787164
 ,8.0626575,4.98918,-7.5043668,2.6991825\PG=C01 [X(C6H7N2O2)]\NImag=0\\
 0.51637222,-0.03069410,0.47922003,0.08843259,-0.09614142,0.14114988,-0
 .10619105,0.04757982,-0.03595950,0.62085596,-0.01429255,-0.00215768,0.
 00305706,0.00707675,0.59854819,-0.02178292,0.01479839,0.01409950,0.100
 59789,-0.12248218,0.16088302,-0.25894384,0.12258069,-0.06466338,-0.181
 16122,-0.07348641,-0.00502091,0.56415842,0.10773931,-0.18999301,0.0478
 6693,-0.05858334,-0.16845756,0.01263911,-0.02234298,0.76458095,-0.0605
 9492,0.04722485,-0.10254906,-0.00893096,0.00719597,-0.07183317,0.07845
 145,-0.13173686,0.23295974,0.00439367,0.02637737,-0.00494489,0.0033673
 2,-0.03159647,0.00752788,-0.08804837,-0.01913958,-0.00171766,0.5916662
 2,0.00489732,-0.02478717,0.00626496,-0.00483893,-0.00961699,0.00233822
 ,-0.01356664,-0.20960422,0.03022825,0.00525700,0.47260797,0.00082497,0
 .01294012,-0.00443640,0.00128609,-0.00057556,-0.00086366,-0.00266355,0
 .03080415,-0.07191732,0.04107723,-0.04682280,0.50535623,-0.12811746,-0
 .06849957,0.00454295,-0.06048536,0.06758212,-0.03045572,0.01107747,0.0
 0931842,-0.00015472,-0.00153543,0.00207677,-0.00379062,0.72125678,-0.0
 5179079,-0.22151629,0.02682612,0.01329465,-0.02661190,0.01250569,0.049
 62280,-0.09115053,0.03551765,0.00412450,0.00254538,0.00162043,-0.13650
 454,0.65094767,0.00037209,0.02394594,-0.07354895,-0.01736853,0.0234736
 4,0.00392786,-0.01202873,0.02625391,0.00231222,-0.00123284,0.00130088,
 0.00674684,0.14631122,-0.15228294,0.19284224,-0.04289784,-0.07857839,0
 .00747491,-0.11395141,0.02293040,-0.01635661,-0.01230461,-0.01692073,-
 0.00234422,-0.00691043,-0.00091162,-0.00008532,-0.38981550,0.01205484,
 -0.06502048,0.78879739,-0.02112616,-0.02525001,0.00669645,0.01690282,-
 0.24485573,0.04815617,-0.05751278,-0.07080172,0.01154444,0.00185854,0.
 00135872,-0.00160384,-0.00111753,-0.09436621,0.00603311,0.18009981,0.6
 4437143,-0.00695934,-0.00424040,0.01831420,-0.01429555,0.04789569,-0.0
 7496176,0.00921056,0.01741765,0.01074500,-0.00250656,-0.00015764,0.002
 61143,-0.06252339,0.00879987,-0.07939678,0.08779023,-0.09195469,0.1564
 4082,0.01267216,-0.01079546,0.00592200,-0.00583926,-0.00035953,-0.0023
 0818,-0.00087678,-0.00386214,-0.00016283,0.00077017,-0.00022465,0.0000
 2604,-0.16039780,0.12945693,-0.05614710,-0.00380469,0.02176640,-0.0059
 3530,0.15653824,0.01618266,-0.01895610,0.00649442,-0.00164756,0.001054
 10,0.00099388,-0.00360954,-0.00434333,0.00132677,0.00109857,0.00002312
 ,0.00057565,0.12716506,-0.21675342,0.06959823,-0.00320574,0.00590201,-
 0.00200946,-0.13651184,0.23346005,-0.00045624,0.00127229,-0.00532149,-
 0.00202421,0.00129025,0.00580215,-0.00024660,0.00161818,0.00412186,-0.
 00036119,0.00004076,0.00110955,-0.05560200,0.06996329,-0.05503333,0.00
 001359,0.00284008,-0.00057901,0.05824692,-0.07674227,0.05139960,-0.003
 99738,-0.00162562,-0.00181651,0.01081496,0.00887651,0.00046177,-0.0024
 0311,0.00273784,-0.00157732,0.00077089,-0.00004946,-0.00004327,-0.0021
 8028,-0.01773904,0.00376190,-0.20866384,-0.16073985,0.00206557,-0.0000
 1920,0.00062674,0.00035864,0.20806766,0.00178174,0.00185425,0.00166881
 ,-0.02092691,-0.01662165,-0.00071150,0.00333882,-0.00376223,0.00189334
 ,-0.00145360,0.00019053,0.00017018,0.00340007,0.00767567,-0.00121746,-
 0.15028931,-0.20651508,0.01391674,-0.00044092,-0.00047619,-0.00060134,
 0.16701168,0.21616979,-0.00252652,0.00084071,0.00689489,0.00746500,0.0
 0522651,-0.00193390,-0.00172685,0.00210253,0.00114112,-0.00011852,0.00
 013572,0.00126154,-0.00087472,-0.00513927,0.00091944,-0.00070890,0.011
 75027,-0.02758896,0.00060092,-0.00039843,-0.00244010,-0.00294526,-0.01
 405575,0.02301060,0.00065951,0.00074451,0.00015556,-0.00113757,-0.0000
 4383,-0.00004455,0.00141270,0.00305352,-0.00488505,-0.08622301,0.01479
 766,0.02604212,-0.00053656,-0.00079425,-0.00031141,0.00046959,-0.00094
 470,0.00057923,-0.00002689,-0.00005203,0.00004946,0.00001255,0.0000063
 2,0.00021781,0.55636297,-0.00128257,0.00127231,-0.00185779,0.00054656,
 0.00200683,-0.00097859,0.01128575,-0.02978124,-0.02397898,0.01826744,-
 0.10170452,-0.04517005,-0.00148809,-0.00135036,0.00152895,0.00098255,-
 0.00156940,0.00126945,-0.00009159,-0.00006160,0.00030007,-0.00004633,0
 .00009551,0.00029328,0.02248315,0.52610551,-0.00129201,0.00298074,-0.0
 0117970,0.00133807,0.00005332,0.00069121,-0.00355853,-0.00689439,0.008
 03289,0.02644704,-0.04003145,-0.13583578,0.00057963,0.00035244,-0.0006
 5811,-0.00003485,0.00164771,-0.00060099,0.00006184,0.00018747,-0.00012
 392,-0.00004633,0.00007389,-0.00007739,0.02735224,-0.04961034,0.495393
 82,0.00079457,0.00245588,-0.00035895,0.00077142,-0.00020871,0.00046129
 ,-0.00583738,-0.00103577,-0.00038711,-0.29227318,-0.04581011,0.0383201
 1,0.00039352,-0.00066611,-0.00024687,-0.00009091,0.00034003,-0.0001291
 4,-0.00000828,-0.00002232,0.00005060,0.00013506,-0.00000338,0.00011684
 ,-0.00902460,-0.00060280,0.00209738,0.31807406,0.00018147,0.00236384,-
 0.00154605,0.00090438,-0.00532283,0.00233717,-0.03547696,-0.00909208,0
 .00417152,-0.04033511,-0.05480522,0.00917785,-0.00017889,-0.00010410,0
 .00016653,-0.00145749,-0.00051874,-0.00033585,0.00008925,0.00005559,-0
 .00002014,0.00027155,-0.00054554,-0.00011290,0.01942540,0.00263406,-0.
 00361506,0.04714633,0.06461846,-0.00028421,-0.00092489,0.00053043,0.00
 003940,0.00056991,0.00054296,0.00686803,0.00115730,-0.00196150,0.03640
 658,0.00985403,-0.05439729,0.00025096,0.00013604,-0.00025472,-0.000094
 28,0.00036193,0.00014991,-0.00000920,-0.00004184,-0.00001121,-0.000044
 00,0.00008416,0.00006075,0.02657706,0.00281880,-0.00618481,-0.04404165
 ,-0.00569769,0.05638772,0.00074915,0.00038395,-0.00083020,-0.00130211,
 0.00111005,0.00007916,0.00185361,0.00099593,0.00444925,-0.11649007,0.0
 3222190,-0.11551291,-0.00014086,-0.00015052,-0.00004243,0.00037992,-0.
 00060776,0.00011097,-0.00002232,-0.00000899,-0.00005388,0.00006709,0.0
 0002521,-0.00003299,0.00577276,-0.00215352,0.01027884,-0.01350785,0.00
 774742,-0.02388388,0.12399138,-0.00155532,-0.00393950,0.00196248,-0.00
 106213,0.00265914,-0.00144098,0.02019952,-0.00862087,0.02749321,0.0305
 4676,-0.06279308,0.05490639,-0.00012164,-0.00184559,-0.00099172,0.0010
 6306,-0.00182222,0.00047759,-0.00014076,-0.00044688,-0.00021963,-0.000
 05293,0.00007420,-0.00008678,-0.00958248,0.00394171,-0.01760759,-0.002
 80373,0.00089099,-0.00599729,-0.03865972,0.07354175,0.00071217,0.00000
 212,-0.00022462,0.00001466,-0.00041633,0.00093976,-0.00302519,0.002342
 97,-0.00398690,-0.11114546,0.05591072,-0.22525678,0.00029494,0.0001931
 4,-0.00005615,-0.00029229,0.00076715,-0.00034670,0.00003743,0.00007962
 ,0.00005659,-0.00000364,0.00000644,0.00006164,-0.01207917,0.00387624,-
 0.02379817,0.00272435,-0.00269749,0.00659057,0.12393489,-0.05666050,0.
 24625489,0.00013564,-0.00039571,0.00007203,0.00014469,-0.00003123,-0.0
 0005228,0.00013078,-0.00040563,-0.00011677,0.00542495,-0.00219762,0.01
 079255,-0.00006270,-0.00002599,0.00002526,0.00001285,-0.00008810,0.000
 02609,0.00000367,-0.00000854,0.00001500,-0.00000509,0.00000637,0.00000
 159,-0.11642275,0.02882174,-0.11110582,0.00077111,-0.00066871,-0.00035
 653,0.00003235,0.00162174,0.00199818,0.12189695,0.00010681,0.00025106,
 0.00023225,-0.00007604,-0.00022670,0.00026452,-0.00105430,0.00162688,-
 0.00074394,-0.00989281,0.00250814,-0.01670714,0.00007709,-0.00003262,0
 .00002840,-0.00001189,0.00020964,-0.00013477,0.00000752,0.00002116,-0.
 00000279,0.00000601,-0.00000829,-0.00000500,0.02938006,-0.05967204,0.0
 4929121,-0.00012274,0.00057308,0.00096516,0.00123005,-0.00161230,-0.00
 330650,-0.03359733,0.06171892,0.00042503,-0.00034105,0.00067080,-0.000
 28024,-0.00023154,0.00010243,-0.00040702,0.00251441,0.00056002,-0.0123
 5875,0.00411235,-0.02220046,-0.00004628,-0.00032535,-0.00005335,0.0000
 5264,-0.00012824,-0.00005447,-0.00000574,-0.00003399,0.00000041,0.0000
 1153,-0.00002746,-0.00000215,-0.11003841,0.04766643,-0.22309181,0.0002
 8093,0.00054119,0.00094607,0.00241665,-0.00345716,-0.00287912,0.120436
 22,-0.04991342,0.24582005,0.00000233,0.00002620,0.00001550,0.00003748,
 0.00005231,0.00005504,-0.00011221,0.00087757,0.00207256,0.00059568,0.0
 1119505,-0.00211514,0.00022871,0.00004351,-0.00007178,-0.00002309,0.00
 047794,-0.00020774,0.00000363,0.00002958,-0.00000579,-0.00000440,0.000
 00362,-0.00006661,-0.05217985,-0.03595696,0.00751354,0.00033517,-0.000
 09138,-0.00079943,0.00025596,-0.00054460,-0.00026249,0.00222499,0.0167
 1798,-0.00281995,0.05120101,-0.00006862,0.00014425,-0.00056470,-0.0001
 0434,0.00074009,-0.00041200,0.00175525,-0.00023871,-0.00367855,-0.0027
 0618,-0.01665193,0.00429980,-0.00074157,-0.00066301,0.00036285,0.00038
 211,-0.00108029,0.00047798,-0.00001966,-0.00008342,0.00008477,0.000015
 43,-0.00002585,0.00004742,-0.03513800,-0.28777581,0.05518314,0.0004084
 7,0.00058899,0.00037563,-0.00045627,0.00069206,0.00005135,-0.00067783,
 -0.00576737,0.00156117,0.03777164,0.31415339,0.00030334,-0.00066796,0.
 00011589,-0.00043532,0.00001878,-0.00007249,0.00193679,-0.00110875,-0.
 00392181,-0.00377632,-0.02651348,0.00451543,-0.00031442,-0.00042778,0.
 00035847,0.00015821,-0.00062811,0.00027475,-0.00003457,-0.00007172,0.0
 0008185,0.00001057,-0.00002520,0.00005520,0.00755333,0.05691902,-0.058
 93489,-0.00019626,0.00081272,0.00108488,-0.00061233,0.00066814,0.00129
 424,0.00510168,0.02539202,-0.00533992,-0.01014928,-0.05871797,0.062470
 41,0.00000739,0.00036924,-0.00010359,0.00008589,0.00030800,-0.00022618
 ,-0.00004309,-0.00103129,0.00009071,-0.01003295,-0.00060473,0.00266245
 ,0.00007660,-0.00004720,0.00002379,0.00007081,0.00035367,-0.00007106,0
 .00000651,0.00002818,0.00000289,-0.00001740,0.00002239,0.00001004,-0.2
 9913421,-0.04077089,0.04177229,0.00085021,0.00134208,0.00151876,0.0004
 7856,-0.00003527,-0.00002882,-0.01391328,-0.00253941,0.00237993,-0.002
 34923,-0.00075435,0.00015512,0.32458504,-0.00012433,-0.00040285,0.0002
 4751,-0.00029922,-0.00011114,0.00000019,0.00120503,0.00140251,0.000441
 64,0.01950942,0.00188845,-0.00393902,0.00003368,0.00021459,-0.00009048
 ,-0.00005632,-0.00011857,0.00004081,-0.00001115,-0.00000138,-0.0000205
 7,-0.00000984,0.00001824,-0.00001414,-0.04254600,-0.05383112,0.0091058
 0,0.00125974,-0.00160431,-0.00337017,-0.00059448,0.00055523,0.00069269
 ,0.00811926,0.00049992,-0.00191541,-0.03065719,-0.00386839,0.00438842,
 0.04444065,0.05618983,-0.00012381,-0.00032468,0.00023701,-0.00036195,-
 0.00007382,0.00010440,0.00017225,0.00146793,0.00050305,0.02594730,0.00
 353466,-0.00568484,-0.00011690,0.00012897,-0.00004037,-0.00011691,-0.0
 0035711,0.00003978,-0.00001473,-0.00002368,-0.00001733,0.00000577,-0.0
 0002645,-0.00001450,0.03868602,0.00791087,-0.05208187,0.00142437,-0.00
 346495,-0.00356928,-0.00013852,0.00084151,0.00089127,-0.02603851,-0.00
 523618,0.00535972,0.00722000,0.00098577,-0.00206235,-0.04701107,-0.005
 40585,0.05539662,0.01958420,-0.01646995,0.00615188,-0.05797931,-0.0038
 0710,0.00085238,-0.04784498,-0.01615029,-0.00322818,-0.00112706,-0.001
 11731,0.00186023,0.01815690,-0.00097633,0.00342726,-0.00888057,0.03580
 492,-0.00953985,0.00251084,-0.00050120,0.00018933,-0.00077832,-0.00361
 934,0.00106165,0.00091027,0.00071195,-0.00222076,0.00065050,0.00190853
 ,-0.00055545,0.00018679,0.00056596,-0.00035660,0.00003874,-0.00002261,
 0.00046635,-0.00003991,0.00127569,0.00079516,0.00004747,-0.00063522,-0
 .00008918,0.44851523,-0.01406794,0.00123883,-0.00093338,-0.01571294,-0
 .09697417,0.00685100,0.00090276,0.02364535,-0.00856125,0.00024763,0.00
 040321,-0.00177441,-0.00271108,-0.00718632,0.00154095,0.02627855,-0.00
 774096,0.00633590,0.00031313,0.00055176,0.00033128,-0.00025433,-0.0017
 7515,0.00016842,-0.00089578,-0.00097068,0.00138856,0.00151778,-0.00056
 973,0.00146673,-0.00286345,-0.00292806,0.00232899,0.00107199,0.0004456
 7,0.00043784,0.00067355,0.00008625,-0.00028972,0.00044584,-0.00162156,
 -0.00256477,0.17292635,0.86606327,0.00657981,-0.00171369,0.00863905,0.
 00221890,0.00923197,-0.05807750,-0.00724401,-0.01240339,-0.00854176,-0
 .00001298,-0.00066805,0.00009954,0.00397258,0.00180607,0.00236702,-0.0
 0635163,0.00789068,-0.00936047,0.00017343,0.00020133,0.00175752,0.0001
 4419,-0.00039862,-0.00098436,0.00011090,0.00005785,-0.00112538,-0.0003
 5475,0.00063811,-0.00064621,0.00087589,0.00135723,-0.00085812,-0.00044
 105,-0.00014975,-0.00001104,-0.00008916,0.00021199,0.00015664,-0.00045
 338,-0.00009142,0.00069072,-0.01025287,-0.16728912,0.28186550,-0.00294
 224,0.00303676,-0.00115786,-0.01994310,0.05201473,-0.02367650,0.008255
 59,0.00085435,0.00120439,-0.00432223,-0.00157235,0.00173220,-0.0036009
 7,0.00264112,-0.00113883,-0.00414143,-0.00704452,-0.00015112,-0.000949
 02,0.00009675,-0.00000066,0.00023731,0.00066936,-0.00015408,-0.0006202
 8,-0.00051902,0.00035953,-0.00150189,-0.00021287,-0.00155672,-0.002706
 16,0.00059397,-0.00226879,-0.00016611,-0.00012905,-0.00027202,-0.00010
 735,-0.00040086,-0.00021943,-0.00051590,-0.00000780,0.00008020,-0.0926
 6568,0.03370435,-0.01277492,0.11011371,0.00560418,-0.00308304,0.001628
 95,0.03997516,-0.03968325,0.02600157,-0.00966178,-0.00865732,0.0001805
 7,-0.00200408,-0.00108296,0.00158901,0.00520343,-0.00059531,0.00103342
 ,0.00323307,0.00957385,-0.00065735,0.00098185,-0.00000476,-0.00004917,
 -0.00040725,0.00080028,-0.00024422,0.00020139,0.00042445,-0.00233240,-
 0.00113337,0.00085176,-0.00122666,0.00092571,0.00082904,-0.00207789,-0
 .00115659,-0.00036128,-0.00018907,-0.00042960,0.00002097,0.00030590,-0
 .00126433,0.00027840,0.00171131,0.03278197,-0.46713452,0.13097932,-0.0
 3157850,0.60393348,-0.00223020,0.00123077,-0.00106878,-0.01929503,0.02
 914475,0.00444619,0.00443319,0.00284593,0.00060357,0.00074962,0.000494
 27,-0.00116127,-0.00207700,0.00079769,-0.00099320,-0.00296462,-0.00352
 038,0.00358618,-0.00040756,-0.00014896,-0.00068085,0.00018512,-0.00011
 503,0.00014822,0.00012434,-0.00103007,-0.00065862,0.00012129,-0.000249
 54,0.00064603,-0.00068679,-0.00102061,0.00118461,-0.00054972,-0.000025
 30,0.00013892,-0.00039979,-0.00028454,-0.00004644,-0.00092735,0.000056
 89,0.00062531,-0.01290298,0.13023998,-0.12709037,0.02615468,-0.1892433
 6,0.09783199,-0.01228104,0.00350439,-0.00293254,-0.08808734,-0.0361250
 4,-0.01011155,0.01068699,0.01389480,-0.00216862,-0.00002617,0.00044771
 ,-0.00041319,-0.00431706,-0.00254357,-0.00031253,0.00175375,-0.0084227
 3,0.00253639,-0.00056098,0.00034022,-0.00017586,-0.00203649,0.00046788
 ,-0.00031940,-0.00029463,-0.00018736,0.00045789,-0.00053154,-0.0005950
 0,-0.00003547,0.00040180,-0.00003243,-0.00025418,-0.00024681,-0.000079
 35,-0.00024086,-0.00006892,-0.00054091,-0.00027626,-0.00020242,0.00037
 375,0.00047566,-0.28128512,-0.20157644,0.02389904,0.01557576,-0.041271
 29,0.01067280,0.36152021,-0.00149112,0.00374109,-0.00190260,-0.0230287
 5,0.00563127,-0.00086066,0.00582076,0.00324714,0.00148137,-0.00015940,
 -0.00047944,0.00050924,-0.00349373,0.00079234,-0.00068421,0.00440707,-
 0.00677672,0.00285848,-0.00015736,0.00005931,-0.00008505,0.00137888,0.
 00285151,-0.00050837,-0.00009493,0.00023638,-0.00017306,-0.00071919,-0
 .00001421,-0.00053115,0.00085447,0.00082439,-0.00109272,-0.00038782,-0
 .00017387,-0.00027070,-0.00018924,-0.00027122,-0.00005431,-0.00026258,
 0.00051216,0.00089645,-0.20267600,-0.30553318,0.03033951,-0.05214642,-
 0.09610979,0.03082751,0.27234536,0.39146284,-0.00139984,-0.00088183,-0
 .00232265,-0.01400872,-0.00337843,0.01620299,-0.00048750,0.00311239,0.
 00373207,0.00001952,-0.00002140,0.00005324,0.00000349,-0.00047205,0.00
 056088,-0.00111946,0.00050436,0.00072706,-0.00004337,0.00001298,-0.000
 12229,-0.00052875,-0.00063474,-0.00051206,-0.00008948,-0.00001513,0.00
 023351,0.00011757,-0.00010542,0.00008570,-0.00035172,-0.00022429,0.000
 13296,0.00019206,0.00005123,0.00003392,0.00011050,0.00001589,-0.000029
 87,0.00020547,-0.00012690,-0.00037731,0.02434163,0.03032299,-0.0888807
 6,0.01383991,0.03259009,0.02248850,-0.02080132,-0.06074973,0.04799411\
 \0.00000337,-0.00000103,-0.00002218,-0.00000390,0.00000146,-0.00000100
 ,-0.00000129,0.00000214,-0.00000584,-0.00000393,0.00000216,0.00000127,
 0.00000532,-0.00000315,-0.00002493,0.00000071,-0.00000195,-0.00001281,
 0.00000328,-0.00000269,-0.00001524,0.00000100,-0.00000132,-0.00000434,
 0.00000537,-0.00000315,0.00001122,-0.00000201,0.00000136,-0.00000307,-
 0.00000553,0.00000304,0.00000284,0.00000743,-0.00000246,0.00000360,0.0
 0000111,-0.00000147,0.00000516,0.00000398,-0.00000248,0.00000912,-0.00
 000090,-0.00000677,0.00001687,-0.00001052,0.00001033,0.00002098,-0.000
 00352,0.00000597,0.00001835\\\@
 The archive entry for this job was punched.


 DEMOCRATS BUY MOST OF THE BOOKS THAT HAVE BEEN
 BANNED; REPUBLICANS FORM CENSORSHIP COMMITTEES AND
 READ THEM AS A GROUP.
 Job cpu time:       0 days  0 hours 46 minutes 10.5 seconds.
 Elapsed time:       0 days  0 hours 24 minutes  2.4 seconds.
 File lengths (MBytes):  RWF=    189 Int=      0 D2E=      0 Chk=     21 Scr=      1
 Normal termination of Gaussian 16 at Fri Jun  2 12:50:47 2023.
