 Entering Gaussian System, Link 0=g16
 Input=PyrCOOCH3-CO2_binding-site_index-5-freq.gjf
 Output=PyrCOOCH3-CO2_binding-site_index-5-freq.log
 Initial command:
 /software/commercial/gaussian/g16/AVX2/g16/l1.exe "/scratch1/svicchi/G09-1736893.pbs02/Gau-1462435.inp" -scrdir="/scratch1/svicchi/G09-1736893.pbs02/"
 Entering Link 1 = /software/commercial/gaussian/g16/AVX2/g16/l1.exe PID=   1462436.
  
 Copyright (c) 1988-2021, Gaussian, Inc.  All Rights Reserved.
  
 This is part of the Gaussian(R) 16 program.  It is based on
 the Gaussian(R) 09 system (copyright 2009, Gaussian, Inc.),
 the Gaussian(R) 03 system (copyright 2003, Gaussian, Inc.),
 the Gaussian(R) 98 system (copyright 1998, Gaussian, Inc.),
 the Gaussian(R) 94 system (copyright 1995, Gaussian, Inc.),
 the Gaussian 92(TM) system (copyright 1992, Gaussian, Inc.),
 the Gaussian 90(TM) system (copyright 1990, Gaussian, Inc.),
 the Gaussian 88(TM) system (copyright 1988, Gaussian, Inc.),
 the Gaussian 86(TM) system (copyright 1986, Carnegie Mellon
 University), and the Gaussian 82(TM) system (copyright 1983,
 Carnegie Mellon University). Gaussian is a federally registered
 trademark of Gaussian, Inc.
  
 This software contains proprietary and confidential information,
 including trade secrets, belonging to Gaussian, Inc.
  
 This software is provided under written license and may be
 used, copied, transmitted, or stored only in accord with that
 written license.
  
 The following legend is applicable only to US Government
 contracts under FAR:
  
                    RESTRICTED RIGHTS LEGEND
  
 Use, reproduction and disclosure by the US Government is
 subject to restrictions as set forth in subparagraphs (a)
 and (c) of the Commercial Computer Software - Restricted
 Rights clause in FAR 52.227-19.
  
 Gaussian, Inc.
 340 Quinnipiac St., Bldg. 40, Wallingford CT 06492
  
  
 ---------------------------------------------------------------
 Warning -- This program may not be used in any manner that
 competes with the business of Gaussian, Inc. or will provide
 assistance to any competitor of Gaussian, Inc.  The licensee
 of this program is prohibited from giving any competitor of
 Gaussian, Inc. access to this program.  By using this program,
 the user acknowledges that Gaussian, Inc. is engaged in the
 business of creating and licensing software in the field of
 computational chemistry and represents and warrants to the
 licensee that it is not a competitor of Gaussian, Inc. and that
 it will not use this program in any manner prohibited above.
 ---------------------------------------------------------------
  

 Cite this work as:
 Gaussian 16, Revision C.02,
 M. J. Frisch, G. W. Trucks, H. B. Schlegel, G. E. Scuseria, 
 M. A. Robb, J. R. Cheeseman, G. Scalmani, V. Barone, 
 G. A. Petersson, H. Nakatsuji, X. Li, M. Caricato, A. V. Marenich, 
 J. Bloino, B. G. Janesko, R. Gomperts, B. Mennucci, H. P. Hratchian, 
 J. V. Ortiz, A. F. Izmaylov, J. L. Sonnenberg, D. Williams-Young, 
 F. Ding, F. Lipparini, F. Egidi, J. Goings, B. Peng, A. Petrone, 
 T. Henderson, D. Ranasinghe, V. G. Zakrzewski, J. Gao, N. Rega, 
 G. Zheng, W. Liang, M. Hada, M. Ehara, K. Toyota, R. Fukuda, 
 J. Hasegawa, M. Ishida, T. Nakajima, Y. Honda, O. Kitao, H. Nakai, 
 T. Vreven, K. Throssell, J. A. Montgomery, Jr., J. E. Peralta, 
 F. Ogliaro, M. J. Bearpark, J. J. Heyd, E. N. Brothers, K. N. Kudin, 
 V. N. Staroverov, T. A. Keith, R. Kobayashi, J. Normand, 
 K. Raghavachari, A. P. Rendell, J. C. Burant, S. S. Iyengar, 
 J. Tomasi, M. Cossi, J. M. Millam, M. Klene, C. Adamo, R. Cammi, 
 J. W. Ochterski, R. L. Martin, K. Morokuma, O. Farkas, 
 J. B. Foresman, and D. J. Fox, Gaussian, Inc., Wallingford CT, 2019.
 
 ******************************************
 Gaussian 16:  ES64L-G16RevC.02  7-Dec-2021
                14-Dec-2023 
 ******************************************
 %NProcShared=12
 Will use up to   12 processors via shared memory.
 %mem=110gb
 %chk=/scratch1/svicchi/G09-1736893.pbs02/02-freq/PyrCOOCH3-CO2_binding-site_inde
 x-5-freq.chk
 ----------------------------------------------------------------------
 #p freq=raman scale=0.967 guess=read geom=allcheck b3lyp/6-311+G(d,p) 
 int=grid=ultrafine EmpiricalDispersion=GD3BJ SCRF=(Solvent=ethanol) sc
 f=(xqc,intrep,maxconventionalcycle=350) nosymm
 ----------------------------------------------------------------------
 1/10=4,29=7,30=1,38=1,114=967000/1,3;
 2/12=2,15=1,40=1/2;
 3/5=4,6=6,7=111,11=2,14=-4,25=1,30=1,70=2201,71=2,72=4,74=-5,75=-5,116=-2,124=41,140=1/1,2,3;
 4/5=1/1;
 5/5=2,8=3,13=1,17=20,38=6,53=4,85=350,98=1/2,8;
 8/6=4,10=90,11=11/1;
 10/13=10,15=4,31=1/2;
 11/6=3,8=1,9=11,15=111,16=1,31=1/1,2,10;
 10/6=1,31=1/2;
 6/7=2,8=2,9=2,10=2,28=1/1;
 7/8=1,10=1,25=1,30=1/1,2,3,16;
 1/10=4,30=1/3;
 99//99;
 Leave Link    1 at Thu Dec 14 16:16:03 2023, MaxMem= 14763950080 cpu:               0.1 elap:               0.1
 (Enter /software/commercial/gaussian/g16/AVX2/g16/l101.exe)
 Structure from the checkpoint file:  "/scratch1/svicchi/G09-1736893.pbs02/02-freq/PyrCOOCH3-CO2_binding-site_index-5-freq.chk"
 ----------------------------------
 PyrCOOCH3-CO2_binding-site_index-5
 ----------------------------------
 Charge = -1 Multiplicity = 1
 No Z-Matrix found in chk file; cartesian coordinates used.
  C                                                -0.547727433883      0.443199439993     -0.437864836700
  C                                                -1.450549206283     -0.358150243519      0.223919338927
  C                                                -0.701266228042     -1.358610936475      0.909271825489
  H                                                -2.523064855650     -0.238499247873      0.227899503060
  C                                                 0.632137306337     -1.137447177763      0.626993391056
  N                                                 0.721849353153     -0.034597428261     -0.203861926757
  H                                                -0.681336332559      1.332546832889     -1.028633087640
  C                                                 1.764165583519     -1.992403148932      1.061140069001
  H                                                -1.085980013967     -2.167473962659      1.511407282557
  O                                                 2.046096366765     -2.154624213619      2.232147456257
  O                                                 2.416627866563     -2.732776074194      0.143963268434
  C                                                 2.074019230719     -2.651024946504     -1.254084290527
  H                                                 2.494121741928     -3.545744158320     -1.707828610660
  H                                                 2.523843778659     -1.761538286991     -1.691538926151
  H                                                 0.992365659919     -2.637522654220     -1.388672581486
  C                                                 1.973898075892      0.657900707038     -0.602629338405
  O                                                 1.812880225495      1.613426568595     -1.376497796570
  O                                                 2.999663231736      0.170748081316     -0.097069041883
 Recover connectivity data from disk.
 ITRead=  0  0  0  0  0  0  0  0  0  0  0  0  0  0  0  0  0  0
 MicOpt= -1 -1 -1 -1 -1 -1 -1 -1 -1 -1 -1 -1 -1 -1 -1 -1 -1 -1
 NAtoms=     18 NQM=       18 NQMF=       0 NMMI=      0 NMMIF=      0
                NMic=       0 NMicF=      0.
                    Isotopes and Nuclear Properties:
 (Nuclear quadrupole moments (NQMom) in fm**2, nuclear magnetic moments (NMagM)
  in nuclear magnetons)

  Atom         1           2           3           4           5           6           7           8           9          10
 IAtWgt=          12          12          12           1          12          14           1          12           1          16
 AtmWgt=  12.0000000  12.0000000  12.0000000   1.0078250  12.0000000  14.0030740   1.0078250  12.0000000   1.0078250  15.9949146
 NucSpn=           0           0           0           1           0           2           1           0           1           0
 AtZEff=   3.6000000   3.6000000   3.6000000   1.0000000   3.6000000   4.5500000   1.0000000   3.6000000   1.0000000   5.6000000
 NQMom=    0.0000000   0.0000000   0.0000000   0.0000000   0.0000000   2.0440000   0.0000000   0.0000000   0.0000000   0.0000000
 NMagM=    0.0000000   0.0000000   0.0000000   2.7928460   0.0000000   0.4037610   2.7928460   0.0000000   2.7928460   0.0000000
 AtZNuc=   6.0000000   6.0000000   6.0000000   1.0000000   6.0000000   7.0000000   1.0000000   6.0000000   1.0000000   8.0000000

  Atom        11          12          13          14          15          16          17          18
 IAtWgt=          16          12           1           1           1          12          16          16
 AtmWgt=  15.9949146  12.0000000   1.0078250   1.0078250   1.0078250  12.0000000  15.9949146  15.9949146
 NucSpn=           0           0           1           1           1           0           0           0
 AtZEff=   5.6000000   3.6000000   1.0000000   1.0000000   1.0000000   3.6000000   5.6000000   5.6000000
 NQMom=    0.0000000   0.0000000   0.0000000   0.0000000   0.0000000   0.0000000   0.0000000   0.0000000
 NMagM=    0.0000000   0.0000000   2.7928460   2.7928460   2.7928460   0.0000000   0.0000000   0.0000000
 AtZNuc=   8.0000000   6.0000000   1.0000000   1.0000000   1.0000000   6.0000000   8.0000000   8.0000000
 Leave Link  101 at Thu Dec 14 16:16:04 2023, MaxMem= 14763950080 cpu:               0.2 elap:               0.2
 (Enter /software/commercial/gaussian/g16/AVX2/g16/l103.exe)

 GradGradGradGradGradGradGradGradGradGradGradGradGradGradGradGradGradGrad
 Berny optimization.
 Initialization pass.
 Trust Radius=3.00D-01 FncErr=1.00D-07 GrdErr=1.00D-07 EigMax=2.50D+02 EigMin=1.00D-04
 Number of steps in this run=      2 maximum allowed number of steps=      2.
 GradGradGradGradGradGradGradGradGradGradGradGradGradGradGradGradGradGrad

 Leave Link  103 at Thu Dec 14 16:16:04 2023, MaxMem= 14763950080 cpu:               0.1 elap:               0.1
 (Enter /software/commercial/gaussian/g16/AVX2/g16/l202.exe)
                          Input orientation:                          
 ---------------------------------------------------------------------
 Center     Atomic      Atomic             Coordinates (Angstroms)
 Number     Number       Type             X           Y           Z
 ---------------------------------------------------------------------
      1          6           0       -0.547727    0.443199   -0.437865
      2          6           0       -1.450549   -0.358150    0.223919
      3          6           0       -0.701266   -1.358611    0.909272
      4          1           0       -2.523065   -0.238499    0.227900
      5          6           0        0.632137   -1.137447    0.626993
      6          7           0        0.721849   -0.034597   -0.203862
      7          1           0       -0.681336    1.332547   -1.028633
      8          6           0        1.764166   -1.992403    1.061140
      9          1           0       -1.085980   -2.167474    1.511407
     10          8           0        2.046096   -2.154624    2.232147
     11          8           0        2.416628   -2.732776    0.143963
     12          6           0        2.074019   -2.651025   -1.254084
     13          1           0        2.494122   -3.545744   -1.707829
     14          1           0        2.523844   -1.761538   -1.691539
     15          1           0        0.992366   -2.637523   -1.388673
     16          6           0        1.973898    0.657901   -0.602629
     17          8           0        1.812880    1.613427   -1.376498
     18          8           0        2.999663    0.170748   -0.097069
 ---------------------------------------------------------------------
                    Distance matrix (angstroms):
                    1          2          3          4          5
     1  C    0.000000
     2  C    1.376665   0.000000
     3  C    2.254966   1.425502   0.000000
     4  H    2.193151   1.079177   2.244520   0.000000
     5  C    2.241528   2.259946   1.380782   3.304948   0.000000
     6  N    1.376544   2.237632   2.239941   3.279857   1.383707
     7  H    1.076010   2.240320   3.316354   2.727457   3.250720
     8  C    3.677503   3.702177   2.550120   4.706465   1.483550
     9  H    3.302271   2.250375   1.079273   2.726453   2.189765
    10  O    4.539336   4.414389   3.151450   5.344696   2.368639
    11  O    4.383235   4.538755   3.492176   5.534350   2.441884
    12  C    4.136906   4.456944   3.748687   5.399050   2.812187
    13  H    5.174681   5.427047   4.673678   6.313246   3.836440
    14  H    3.983355   4.629717   4.162680   5.610274   3.056736
    15  H    3.573062   3.709963   3.128027   4.552677   2.538287
    16  C    2.536107   3.666385   3.675414   4.660041   2.556476
    17  O    2.796950   4.135024   4.514275   4.980375   3.602143
    18  O    3.574123   4.493012   4.128988   5.547397   2.800146
                    6          7          8          9         10
     6  N    0.000000
     7  H    2.125620   0.000000
     8  C    2.553362   4.626329   0.000000
     9  H    3.280176   4.343465   2.890799   0.000000
    10  O    3.490313   5.498358   1.215343   3.213959   0.000000
    11  O    3.205218   5.243969   1.347246   3.802332   2.198196
    12  C    3.126823   4.848882   2.426944   4.226980   3.521506
    13  H    4.210821   5.860253   3.257743   5.008017   4.202303
    14  H    2.905631   4.503997   2.864900   4.842982   3.972162
    15  H    2.872660   4.323466   2.648289   3.598740   3.801825
    16  C    1.485327   2.772525   3.136276   4.670626   3.993929
    17  O    2.298131   2.533973   4.352753   5.571229   5.222539
    18  O    2.289543   3.970812   2.747203   4.974632   3.426645
                   11         12         13         14         15
    11  O    0.000000
    12  C    1.441735   0.000000
    13  H    2.023871   1.087609   0.000000
    14  H    2.079391   1.088529   1.784528   0.000000
    15  H    2.094414   1.090078   1.783816   1.790112   0.000000
    16  C    3.500014   3.373930   4.377525   2.709585   3.527192
    17  O    4.643898   4.274193   5.214491   3.463395   4.329430
    18  O    2.971276   3.187147   4.081964   2.549994   3.685630
                   16         17         18
    16  C    0.000000
    17  O    1.240092   0.000000
    18  O    1.243022   2.264225   0.000000
 Symmetry turned off by external request.
 Stoichiometry    C7H6NO4(1-)
 Framework group  C1[X(C7H6NO4)]
 Deg. of freedom    48
 Full point group                 C1      NOp   1
 Rotational constants (GHZ):           1.2370483           0.9823839           0.7046681
 Leave Link  202 at Thu Dec 14 16:16:04 2023, MaxMem= 14763950080 cpu:               0.1 elap:               0.1
 (Enter /software/commercial/gaussian/g16/AVX2/g16/l301.exe)
 Standard basis: 6-311+G(d,p) (5D, 7F)
 Ernie: Thresh=  0.10000D-02 Tol=  0.10000D-05 Strict=F.
   300 basis functions,   480 primitive gaussians,   312 cartesian basis functions
    44 alpha electrons       44 beta electrons
       nuclear repulsion energy       706.8647272011 Hartrees.
 IExCor=  402 DFT=T Ex+Corr=B3LYP ExCW=0 ScaHFX=  0.200000
 ScaDFX=  0.800000  0.720000  1.000000  0.810000 ScalE2=  1.000000  1.000000
 IRadAn=      5 IRanWt=     -1 IRanGd=            0 ICorTp=0 IEmpDi=141
 NAtoms=   18 NActive=   18 NUniq=   18 SFac= 1.00D+00 NAtFMM=   60 NAOKFM=F Big=F
 Integral buffers will be    131072 words long.
 Raffenetti 2 integral format.
 Two-electron integral symmetry is turned off.
 R6Disp:  Grimme-D3(BJ) Dispersion energy=       -0.0343949362 Hartrees.
 Nuclear repulsion after empirical dispersion term =      706.8303322649 Hartrees.
 Force inversion solution in PCM.
 ------------------------------------------------------------------------------
 Polarizable Continuum Model (PCM)
 =================================
 Model                : PCM.
 Atomic radii         : UFF (Universal Force Field).
 Polarization charges : Total charges.
 Charge compensation  : None.
 Solution method      : Matrix inversion.
 Cavity type          : Scaled VdW (van der Waals Surface) (Alpha=1.100).
 Cavity algorithm     : GePol (No added spheres)
                        Default sphere list used, NSphG=   18.
                        Lebedev-Laikov grids with approx.  5.0 points / Ang**2.
                        Smoothing algorithm: York/Karplus (Gamma=1.0000).
                        Polarization charges: spherical gaussians, with
                                              point-specific exponents (IZeta= 3).
                        Self-potential: point-specific (ISelfS= 7).
                        Self-field    : sphere-specific E.n sum rule (ISelfD= 2).
 1st derivatives      : Analytical E(r).r(x)/FMM algorithm (CHGder, D1EAlg=3).
                        Cavity 1st derivative terms included.
 2nd derivatives      : Analytical E(r).r(xy)/FMM algorithm (CHGder, D2EAlg=3).
                        Cavity 2nd derivative terms included.
 Solvent              : Ethanol, Eps=  24.852000 Eps(inf)=   1.852593
 ------------------------------------------------------------------------------
 Spheres list:
 ISph  on   Nord     Re0    Alpha      Xe            Ye            Ze
    1   C      1    1.9255  1.100     -0.547727      0.443199     -0.437865
    2   C      2    1.9255  1.100     -1.450549     -0.358150      0.223919
    3   C      3    1.9255  1.100     -0.701266     -1.358611      0.909272
    4   H      4    1.4430  1.100     -2.523065     -0.238499      0.227900
    5   C      5    1.9255  1.100      0.632137     -1.137447      0.626993
    6   N      6    1.8300  1.100      0.721849     -0.034597     -0.203862
    7   H      7    1.4430  1.100     -0.681336      1.332547     -1.028633
    8   C      8    1.9255  1.100      1.764166     -1.992403      1.061140
    9   H      9    1.4430  1.100     -1.085980     -2.167474      1.511407
   10   O     10    1.7500  1.100      2.046096     -2.154624      2.232147
   11   O     11    1.7500  1.100      2.416628     -2.732776      0.143963
   12   C     12    1.9255  1.100      2.074019     -2.651025     -1.254084
   13   H     13    1.4430  1.100      2.494122     -3.545744     -1.707829
   14   H     14    1.4430  1.100      2.523844     -1.761538     -1.691539
   15   H     15    1.4430  1.100      0.992366     -2.637523     -1.388673
   16   C     16    1.9255  1.100      1.973898      0.657901     -0.602629
   17   O     17    1.7500  1.100      1.812880      1.613427     -1.376498
   18   O     18    1.7500  1.100      2.999663      0.170748     -0.097069
 ------------------------------------------------------------------------------
 GePol: Number of generator spheres                  =      18
 GePol: Total number of spheres                      =      18
 GePol: Number of exposed spheres                    =      18 (100.00%)
 GePol: Number of points                             =    1593
 GePol: Average weight of points                     =       0.13
 GePol: Minimum weight of points                     =   0.48D-10
 GePol: Maximum weight of points                     =    0.20577
 GePol: Number of points with low weight             =      91
 GePol: Fraction of low-weight points (<1% of avg)   =       5.71%
 GePol: Cavity surface area                          =    210.963 Ang**2
 GePol: Cavity volume                                =    215.413 Ang**3
 Leave Link  301 at Thu Dec 14 16:16:05 2023, MaxMem= 14763950080 cpu:               0.1 elap:               0.1
 (Enter /software/commercial/gaussian/g16/AVX2/g16/l302.exe)
 NPDir=0 NMtPBC=     1 NCelOv=     1 NCel=       1 NClECP=     1 NCelD=      1
         NCelK=      1 NCelE2=     1 NClLst=     1 CellRange=     0.0.
 One-electron integrals computed using PRISM.
 NBasis=   300 RedAO= T EigKep=  3.64D-06  NBF=   300
 NBsUse=   300 1.00D-06 EigRej= -1.00D+00 NBFU=   300
 Precomputing XC quadrature grid using
 IXCGrd= 4 IRadAn=           5 IRanWt=          -1 IRanGd=           0 AccXCQ= 0.00D+00.
 Generated NRdTot=       0 NPtTot=           0 NUsed=           0 NTot=          32
 NSgBfM=   312   312   312   312   312 MxSgAt=    18 MxSgA2=    18.
 Leave Link  302 at Thu Dec 14 16:16:05 2023, MaxMem= 14763950080 cpu:               1.7 elap:               0.3
 (Enter /software/commercial/gaussian/g16/AVX2/g16/l303.exe)
 DipDrv:  MaxL=1.
 Leave Link  303 at Thu Dec 14 16:16:05 2023, MaxMem= 14763950080 cpu:               0.1 elap:               0.1
 (Enter /software/commercial/gaussian/g16/AVX2/g16/l401.exe)
 Initial guess from the checkpoint file:  "/scratch1/svicchi/G09-1736893.pbs02/02-freq/PyrCOOCH3-CO2_binding-site_index-5-freq.chk"
 B after Tr=     0.000000    0.000000    0.000000
         Rot=    1.000000    0.000000    0.000000    0.000000 Ang=   0.00 deg.
 Guess basis will be translated and rotated to current coordinates.
 JPrj=2 DoOrth=T DoCkMO=T.
 Leave Link  401 at Thu Dec 14 16:16:06 2023, MaxMem= 14763950080 cpu:               0.8 elap:               0.2
 (Enter /software/commercial/gaussian/g16/AVX2/g16/l502.exe)
 Two-electron integral symmetry not used.
 Closed shell SCF:
 Using DIIS extrapolation, IDIIS=  1040.
 NGot= 14763950080 LenX= 14763748950 LenY= 14763651165
 Requested convergence on RMS density matrix=1.00D-08 within 350 cycles.
 Requested convergence on MAX density matrix=1.00D-06.
 Requested convergence on             energy=1.00D-06.
 No special actions if energy rises.
 Fock matrices will be formed incrementally for  20 cycles.

 Cycle   1  Pass 1  IDiag  1:
 FoFJK:  IHMeth= 1 ICntrl=       0 DoSepK=F KAlg= 0 I1Cent=           0 FoldK=F
 IRaf= 930000000 NMat=       1 IRICut=       1 DoRegI=T DoRafI=F ISym2E= 0 IDoP0=0 IntGTp=1.
 FoFCou: FMM=F IPFlag=           0 FMFlag=      100000 FMFlg1=           0
         NFxFlg=           0 DoJE=F BraDBF=F KetDBF=F FulRan=T
         wScrn=  0.000000 ICntrl=         0 IOpCl=  0 I1Cent=           0 NGrid=           0
         NMat0=    1 NMatS0=      1 NMatT0=    0 NMatD0=    1 NMtDS0=    0 NMtDT0=    0
 Symmetry not used in FoFCou.
 Inv3:  Mode=1 IEnd=     7612947.
 Iteration    1 A*A^-1 deviation from unit magnitude is 2.78D-15 for     50.
 Iteration    1 A*A^-1 deviation from orthogonality  is 1.78D-15 for   1075    313.
 Iteration    1 A^-1*A deviation from unit magnitude is 2.78D-15 for    615.
 Iteration    1 A^-1*A deviation from orthogonality  is 1.78D-15 for   1393    985.
 E= -626.391485902078    
 DIIS: error= 2.07D-08 at cycle   1 NSaved=   1.
 NSaved= 1 IEnMin= 1 EnMin= -626.391485902078     IErMin= 1 ErrMin= 2.07D-08
 ErrMax= 2.07D-08  0.00D+00 EMaxC= 1.00D-01 BMatC= 2.37D-13 BMatP= 2.37D-13
 IDIUse=1 WtCom= 1.00D+00 WtEn= 0.00D+00
 Coeff-Com:  0.100D+01
 Coeff:      0.100D+01
 Gap=     0.200 Goal=   None    Shift=    0.000
 RMSDP=1.18D-08 MaxDP=7.87D-07              OVMax= 2.93D-07

 Cycle   2  Pass 1  IDiag  1:
 RMSU=  8.84D-09    CP:  1.00D+00
 E= -626.391485902068     Delta-E=        0.000000000010 Rises=F Damp=F
 DIIS: error= 4.15D-08 at cycle   2 NSaved=   2.
 NSaved= 2 IEnMin= 1 EnMin= -626.391485902078     IErMin= 1 ErrMin= 2.07D-08
 ErrMax= 4.15D-08  0.00D+00 EMaxC= 1.00D-01 BMatC= 1.01D-12 BMatP= 2.37D-13
 IDIUse=1 WtCom= 1.00D+00 WtEn= 0.00D+00
 Coeff-Com:  0.675D+00 0.325D+00
 Coeff:      0.675D+00 0.325D+00
 Gap=     0.200 Goal=   None    Shift=    0.000
 RMSDP=7.86D-09 MaxDP=5.61D-07 DE= 9.55D-12 OVMax= 2.03D-07

 Error on total polarization charges =  0.01779
 SCF Done:  E(RB3LYP) =  -626.391485902     A.U. after    2 cycles
            NFock=  2  Conv=0.79D-08     -V/T= 2.0038
 KE= 6.240383972394D+02 PE=-2.895886323585D+03 EE= 9.386261081791D+02
 Leave Link  502 at Thu Dec 14 16:16:12 2023, MaxMem= 14763950080 cpu:              57.7 elap:               5.7
 (Enter /software/commercial/gaussian/g16/AVX2/g16/l508.exe)
 QCSCF skips out because SCF is already converged.
 Leave Link  508 at Thu Dec 14 16:16:12 2023, MaxMem= 14763950080 cpu:               0.0 elap:               0.0
 (Enter /software/commercial/gaussian/g16/AVX2/g16/l801.exe)
 DoSCS=F DFT=T ScalE2(SS,OS)=  1.000000  1.000000
 Range of M.O.s used for correlation:     1   300
 NBasis=   300 NAE=    44 NBE=    44 NFC=     0 NFV=     0
 NROrb=    300 NOA=    44 NOB=    44 NVA=   256 NVB=   256

 **** Warning!!: The largest alpha MO coefficient is  0.10162631D+03

 Leave Link  801 at Thu Dec 14 16:16:12 2023, MaxMem= 14763950080 cpu:               0.1 elap:               0.1
 (Enter /software/commercial/gaussian/g16/AVX2/g16/l1002.exe)
 Minotr:  Closed shell wavefunction.
 NEqPCM:  Using equilibrium solvation (IEInf=0, Eps=  24.8520, EpsInf=   1.8526)
          Direct CPHF calculation.
          Differentiating once with respect to electric field.
                with respect to dipole field.
          Electric field/nuclear overlap derivatives assumed to be zero.
          Requested convergence is 1.0D-08 RMS, and 1.0D-07 maximum.
          Secondary convergence is 1.0D-12 RMS, and 1.0D-12 maximum.
          NewPWx=F KeepS1=T KeepF1=T KeepIn=T MapXYZ=F SortEE=F KeepMc=T.
         5554 words used for storage of precomputed grid.
 Two-electron integral symmetry not used.
          MDV=   14763950080 using IRadAn=       1.
          Solving linear equations simultaneously, MaxMat=     384.
          There are     3 degrees of freedom in the 1st order CPHF.  IDoFFX=0 NUNeed=     3.
      3 vectors produced by pass  0 Test12= 3.75D-13 3.33D-08 XBig12= 1.18D+02 4.29D+00.
 AX will form     3 AO Fock derivatives at one time.
 FoFJK:  IHMeth= 1 ICntrl=       0 DoSepK=F KAlg= 0 I1Cent=           0 FoldK=F
 IRaf= 930000000 NMat=       3 IRICut=       1 DoRegI=T DoRafI=F ISym2E= 0 IDoP0=0 IntGTp=1.
 FoFCou: FMM=F IPFlag=           0 FMFlag=      100000 FMFlg1=           0
         NFxFlg=           0 DoJE=F BraDBF=F KetDBF=F FulRan=T
         wScrn=  0.000000 ICntrl=         0 IOpCl=  0 I1Cent=           0 NGrid=           0
         NMat0=    3 NMatS0=      3 NMatT0=    0 NMatD0=    3 NMtDS0=    0 NMtDT0=    0
 Symmetry not used in FoFCou.
      3 vectors produced by pass  1 Test12= 3.75D-13 3.33D-08 XBig12= 4.49D+01 1.43D+00.
      3 vectors produced by pass  2 Test12= 3.75D-13 3.33D-08 XBig12= 1.18D+01 7.20D-01.
      3 vectors produced by pass  3 Test12= 3.75D-13 3.33D-08 XBig12= 4.48D+00 6.40D-01.
      3 vectors produced by pass  4 Test12= 3.75D-13 3.33D-08 XBig12= 6.05D-01 1.62D-01.
      3 vectors produced by pass  5 Test12= 3.75D-13 3.33D-08 XBig12= 2.02D-01 1.11D-01.
      3 vectors produced by pass  6 Test12= 3.75D-13 3.33D-08 XBig12= 3.79D-02 3.06D-02.
      3 vectors produced by pass  7 Test12= 3.75D-13 3.33D-08 XBig12= 9.96D-03 1.80D-02.
      3 vectors produced by pass  8 Test12= 3.75D-13 3.33D-08 XBig12= 1.46D-03 6.26D-03.
      3 vectors produced by pass  9 Test12= 3.75D-13 3.33D-08 XBig12= 3.84D-04 3.74D-03.
      3 vectors produced by pass 10 Test12= 3.75D-13 3.33D-08 XBig12= 2.50D-05 1.22D-03.
      3 vectors produced by pass 11 Test12= 3.75D-13 3.33D-08 XBig12= 8.78D-07 3.09D-04.
      3 vectors produced by pass 12 Test12= 3.75D-13 3.33D-08 XBig12= 2.40D-08 3.84D-05.
      3 vectors produced by pass 13 Test12= 3.75D-13 3.33D-08 XBig12= 8.70D-10 6.08D-06.
      2 vectors produced by pass 14 Test12= 3.75D-13 3.33D-08 XBig12= 2.34D-11 7.50D-07.
      1 vectors produced by pass 15 Test12= 3.75D-13 3.33D-08 XBig12= 8.51D-13 1.27D-07.
 InvSVY:  IOpt=1 It=  1 EMax= 3.55D-15
 Solved reduced A of dimension    45 with     3 vectors.
 End of Minotr F.D. properties file   721 does not exist.
 End of Minotr F.D. properties file   722 does not exist.
 End of Minotr F.D. properties file   788 does not exist.
 Leave Link 1002 at Thu Dec 14 16:17:12 2023, MaxMem= 14763950080 cpu:             692.4 elap:              59.7
 (Enter /software/commercial/gaussian/g16/AVX2/g16/l1101.exe)
 Using compressed storage, NAtomX=    18.
 Will process     19 centers per pass.
 R6Disp: Adding Grimme-D3(BJ) dispersion energy 1st derivatives to the gradient.
 Leave Link 1101 at Thu Dec 14 16:17:13 2023, MaxMem= 14763950080 cpu:               1.9 elap:               0.3
 (Enter /software/commercial/gaussian/g16/AVX2/g16/l1102.exe)
 Symmetrizing basis deriv contribution to polar:
 IMax=3 JMax=2 DiffMx= 0.00D+00
 Leave Link 1102 at Thu Dec 14 16:17:13 2023, MaxMem= 14763950080 cpu:               0.1 elap:               0.1
 (Enter /software/commercial/gaussian/g16/AVX2/g16/l1110.exe)
 Forming Gx(P) for the SCF density, NAtomX=    18.
 Integral derivatives from FoFJK, PRISM(SPDF).
 Do as many integral derivatives as possible in FoFJK.
 G2DrvN: MDV=   14763948090.
 G2DrvN: will do    19 centers at a time, making    1 passes.
 PxScal for G2LodP:  IOpCl= 0 ISclPx=1 IMOff=     1 NMtTot=     4 NTT=   45150 ScalPx= 8.64D+01
 Calling FoFCou, ICntrl=  3107 FMM=F I1Cent=   0 AccDes= 0.00D+00.
 FoFJK:  IHMeth= 1 ICntrl=    3107 DoSepK=F KAlg= 0 I1Cent=           0 FoldK=F
 IRaf=         0 NMat=       1 IRICut=       1 DoRegI=T DoRafI=F ISym2E= 0 IDoP0=0 IntGTp=1.
 FoFCou: FMM=F IPFlag=           0 FMFlag=      100000 FMFlg1=           0
         NFxFlg=           0 DoJE=F BraDBF=F KetDBF=F FulRan=T
         wScrn=  0.000000 ICntrl=      3107 IOpCl=  0 I1Cent=           0 NGrid=           0
         NMat0=    1 NMatS0=      1 NMatT0=    0 NMatD0=    4 NMtDS0=    3 NMtDT0=    0
 Symmetry not used in FoFCou.
 PxScal for G2LodP:  IOpCl= 0 ISclPx=0 IMOff=     1 NMtTot=     4 NTT=   45150 ScalPx= 1.00D+00
 NEqPCM:  Using equilibrium solvation (IEInf=0, Eps=  24.8520, EpsInf=   1.8526)
 G2PCM: DoFxE=T DoFxN=T DoGrad=T DoDP/DQ/DG/TGxP=TFFF NFrqRd=   0 IEInf=0 SqF1=F DoCFld=F IF1Alg=4.
 GePol: Maximum number of non-zero 1st derivatives   =     224
 End of G2Drv F.D. properties file   721 does not exist.
 End of G2Drv F.D. properties file   722 does not exist.
 End of G2Drv F.D. properties file   788 does not exist.
 Leave Link 1110 at Thu Dec 14 16:18:11 2023, MaxMem= 14763950080 cpu:             678.9 elap:              57.3
 (Enter /software/commercial/gaussian/g16/AVX2/g16/l1002.exe)
 Minotr:  Closed shell wavefunction.
          IDoAtm=111111111111111111
 NEqPCM:  Using equilibrium solvation (IEInf=0, Eps=  24.8520, EpsInf=   1.8526)
          Direct CPHF calculation.
          Differentiating once with respect to electric field.
                with respect to dipole field.
          Differentiating once with respect to nuclear coordinates.
          Requested convergence is 1.0D-08 RMS, and 1.0D-07 maximum.
          Secondary convergence is 1.0D-12 RMS, and 1.0D-12 maximum.
          NewPWx=T KeepS1=F KeepF1=F KeepIn=T MapXYZ=F SortEE=F KeepMc=T.
         5554 words used for storage of precomputed grid.
 Keep R1 ints in memory in canonical form, NReq=1034625347.
 FoFCou: FMM=F IPFlag=           0 FMFlag=           0 FMFlg1=           0
         NFxFlg=           0 DoJE=F BraDBF=F KetDBF=F FulRan=T
         wScrn=  0.000000 ICntrl=       600 IOpCl=  0 I1Cent=           0 NGrid=           0
         NMat0=    1 NMatS0=  45150 NMatT0=    0 NMatD0=    1 NMtDS0=    0 NMtDT0=    0
 Symmetry not used in FoFCou.
 Two-electron integral symmetry not used.
          MDV=   14763950080 using IRadAn=       1.
          Solving linear equations simultaneously, MaxMat=       0.
          There are    57 degrees of freedom in the 1st order CPHF.  IDoFFX=5 NUNeed=    57.
 Will reuse    3 saved solutions.
     51 vectors produced by pass  0 Test12= 1.98D-14 1.75D-09 XBig12= 2.05D-01 1.00D-01.
 AX will form    51 AO Fock derivatives at one time.
     51 vectors produced by pass  1 Test12= 1.98D-14 1.75D-09 XBig12= 3.85D-02 4.33D-02.
     51 vectors produced by pass  2 Test12= 1.98D-14 1.75D-09 XBig12= 3.45D-04 2.82D-03.
     51 vectors produced by pass  3 Test12= 1.98D-14 1.75D-09 XBig12= 4.38D-06 2.66D-04.
     51 vectors produced by pass  4 Test12= 1.98D-14 1.75D-09 XBig12= 2.22D-08 1.78D-05.
     49 vectors produced by pass  5 Test12= 1.98D-14 1.75D-09 XBig12= 5.71D-11 7.92D-07.
     22 vectors produced by pass  6 Test12= 1.98D-14 1.75D-09 XBig12= 9.62D-14 3.62D-08.
 InvSVY:  IOpt=1 It=  1 EMax= 5.00D-16
 Solved reduced A of dimension   326 with    57 vectors.
 FullF1:  Do perturbations      1 to       3.
 Isotropic polarizability for W=    0.000000      141.38 Bohr**3.
 FullF1:  Do perturbations      1 to       6.
 End of Minotr F.D. properties file   721 does not exist.
 End of Minotr F.D. properties file   722 does not exist.
 End of Minotr F.D. properties file   788 does not exist.
 Leave Link 1002 at Thu Dec 14 16:19:15 2023, MaxMem= 14763950080 cpu:             737.4 elap:              64.2
 (Enter /software/commercial/gaussian/g16/AVX2/g16/l601.exe)
 Copying SCF densities to generalized density rwf, IOpCl= 0 IROHF=0.

 **********************************************************************

            Population analysis using the SCF Density.

 **********************************************************************

 Alpha  occ. eigenvalues --  -19.16741 -19.11192 -19.07246 -19.07193 -14.35921
 Alpha  occ. eigenvalues --  -10.31307 -10.29243 -10.21988 -10.20530 -10.19304
 Alpha  occ. eigenvalues --  -10.16889 -10.16259  -1.10608  -1.05640  -1.02310
 Alpha  occ. eigenvalues --   -0.96985  -0.96258  -0.78198  -0.74834  -0.72399
 Alpha  occ. eigenvalues --   -0.62269  -0.60691  -0.57792  -0.55061  -0.48871
 Alpha  occ. eigenvalues --   -0.48224  -0.47314  -0.46874  -0.44497  -0.43859
 Alpha  occ. eigenvalues --   -0.42794  -0.41442  -0.41112  -0.39441  -0.38330
 Alpha  occ. eigenvalues --   -0.37993  -0.35405  -0.30330  -0.29197  -0.27723
 Alpha  occ. eigenvalues --   -0.26647  -0.25544  -0.24941  -0.22411
 Alpha virt. eigenvalues --   -0.02441   0.00903   0.01148   0.02602   0.02644
 Alpha virt. eigenvalues --    0.03249   0.04693   0.04925   0.05513   0.05557
 Alpha virt. eigenvalues --    0.06454   0.06474   0.08005   0.08577   0.08761
 Alpha virt. eigenvalues --    0.09156   0.10227   0.10524   0.10932   0.12006
 Alpha virt. eigenvalues --    0.13323   0.13687   0.14135   0.14513   0.15636
 Alpha virt. eigenvalues --    0.16302   0.16864   0.17883   0.17972   0.18260
 Alpha virt. eigenvalues --    0.19466   0.20152   0.20950   0.21705   0.21798
 Alpha virt. eigenvalues --    0.22410   0.22932   0.24253   0.24728   0.24946
 Alpha virt. eigenvalues --    0.25513   0.25742   0.26274   0.26581   0.27522
 Alpha virt. eigenvalues --    0.28098   0.28954   0.29174   0.30077   0.30363
 Alpha virt. eigenvalues --    0.31036   0.31243   0.31838   0.32995   0.33539
 Alpha virt. eigenvalues --    0.34388   0.34712   0.35091   0.36315   0.37121
 Alpha virt. eigenvalues --    0.38041   0.39238   0.41745   0.41985   0.42970
 Alpha virt. eigenvalues --    0.44837   0.45605   0.45917   0.48269   0.48658
 Alpha virt. eigenvalues --    0.51348   0.52999   0.53512   0.56512   0.58893
 Alpha virt. eigenvalues --    0.59524   0.60291   0.63175   0.63941   0.65199
 Alpha virt. eigenvalues --    0.66298   0.67450   0.69201   0.69392   0.70310
 Alpha virt. eigenvalues --    0.71403   0.72623   0.73635   0.74792   0.76149
 Alpha virt. eigenvalues --    0.76233   0.78579   0.81577   0.82041   0.83690
 Alpha virt. eigenvalues --    0.85221   0.87356   0.87958   0.89297   0.92168
 Alpha virt. eigenvalues --    0.95082   0.96967   0.97734   1.02345   1.03601
 Alpha virt. eigenvalues --    1.04930   1.07199   1.09548   1.10098   1.12067
 Alpha virt. eigenvalues --    1.13394   1.13699   1.15781   1.18267   1.19345
 Alpha virt. eigenvalues --    1.19566   1.21224   1.23492   1.24082   1.25200
 Alpha virt. eigenvalues --    1.25645   1.27590   1.30925   1.31891   1.33402
 Alpha virt. eigenvalues --    1.35053   1.39640   1.40592   1.41930   1.44272
 Alpha virt. eigenvalues --    1.49155   1.51741   1.52686   1.54533   1.55139
 Alpha virt. eigenvalues --    1.57218   1.59485   1.59895   1.63421   1.65178
 Alpha virt. eigenvalues --    1.66539   1.69095   1.70752   1.71700   1.73894
 Alpha virt. eigenvalues --    1.76721   1.77092   1.77667   1.77887   1.81295
 Alpha virt. eigenvalues --    1.83662   1.85656   1.87203   1.90507   1.91729
 Alpha virt. eigenvalues --    1.93229   1.95784   1.98011   2.00458   2.02464
 Alpha virt. eigenvalues --    2.02673   2.07517   2.10763   2.13205   2.17913
 Alpha virt. eigenvalues --    2.20890   2.26232   2.31379   2.39497   2.41210
 Alpha virt. eigenvalues --    2.43764   2.44907   2.47415   2.48826   2.51845
 Alpha virt. eigenvalues --    2.53866   2.55999   2.58252   2.62841   2.67165
 Alpha virt. eigenvalues --    2.67308   2.70112   2.71579   2.74885   2.77305
 Alpha virt. eigenvalues --    2.77798   2.79662   2.81140   2.81784   2.85205
 Alpha virt. eigenvalues --    2.86951   2.88923   2.89976   2.92641   2.95863
 Alpha virt. eigenvalues --    2.96725   2.98266   3.01162   3.02818   3.04188
 Alpha virt. eigenvalues --    3.06090   3.08262   3.20320   3.23437   3.25452
 Alpha virt. eigenvalues --    3.27326   3.29883   3.31948   3.35771   3.37102
 Alpha virt. eigenvalues --    3.41571   3.44025   3.49501   3.52561   3.54037
 Alpha virt. eigenvalues --    3.57988   3.64563   3.72066   3.75302   3.80061
 Alpha virt. eigenvalues --    3.82498   3.88507   3.92811   3.95827   4.02275
 Alpha virt. eigenvalues --    4.08145   4.09084   4.16961   4.19309   4.32899
 Alpha virt. eigenvalues --    4.90102   5.00538   5.07899   5.08717   5.10318
 Alpha virt. eigenvalues --    5.12488   5.16871   5.20716   5.25584   5.31311
 Alpha virt. eigenvalues --    5.58964   5.70786   5.87751   5.92565  23.73024
 Alpha virt. eigenvalues --   23.85071  23.88747  23.91428  23.92798  24.11910
 Alpha virt. eigenvalues --   24.18661  35.56671  49.89229  49.96429  50.01571
 Alpha virt. eigenvalues --   50.07644
          Condensed to atoms (all electrons):
               1          2          3          4          5          6
     1  C    6.619667  -0.922221   1.743520  -0.016914  -2.019638   0.347960
     2  C   -0.922221   6.715457  -1.594099   0.375839   1.964007  -0.239541
     3  C    1.743520  -1.594099  10.580076   0.019057  -4.326300  -0.117261
     4  H   -0.016914   0.375839   0.019057   0.511660  -0.038834   0.018960
     5  C   -2.019638   1.964007  -4.326300  -0.038834  11.467693  -0.100586
     6  N    0.347960  -0.239541  -0.117261   0.018960  -0.100586   7.397732
     7  H    0.416005  -0.007750  -0.040439  -0.003272   0.048408  -0.053485
     8  C   -0.002407  -0.068980  -0.115940  -0.000779  -0.673036  -0.101420
     9  H   -0.006343  -0.014014   0.375687  -0.004227  -0.031854   0.017908
    10  O    0.004589  -0.000313  -0.175067   0.000002  -0.057525   0.022192
    11  O   -0.002566   0.008764  -0.038859   0.000039  -0.198578   0.023176
    12  C   -0.009689  -0.000433  -0.059343   0.000224  -0.071437   0.026156
    13  H    0.000870  -0.001207  -0.005056   0.000000  -0.022092   0.003009
    14  H   -0.001095   0.002641   0.006903  -0.000004   0.049969  -0.015109
    15  H   -0.009023   0.005667  -0.031676  -0.000011  -0.005199  -0.001831
    16  C   -0.144298   0.086008  -0.254857   0.000367   0.169516   0.060350
    17  O   -0.073027   0.058177  -0.010522   0.000194   0.061308  -0.171655
    18  O    0.023863  -0.007128   0.045272   0.000119  -0.176953  -0.183204
               7          8          9         10         11         12
     1  C    0.416005  -0.002407  -0.006343   0.004589  -0.002566  -0.009689
     2  C   -0.007750  -0.068980  -0.014014  -0.000313   0.008764  -0.000433
     3  C   -0.040439  -0.115940   0.375687  -0.175067  -0.038859  -0.059343
     4  H   -0.003272  -0.000779  -0.004227   0.000002   0.000039   0.000224
     5  C    0.048408  -0.673036  -0.031854  -0.057525  -0.198578  -0.071437
     6  N   -0.053485  -0.101420   0.017908   0.022192   0.023176   0.026156
     7  H    0.489288  -0.000612  -0.000119   0.000058   0.000054  -0.000376
     8  C   -0.000612   6.422066   0.012073   0.519154   0.212883  -0.051750
     9  H   -0.000119   0.012073   0.510768   0.000022  -0.000410   0.001235
    10  O    0.000058   0.519154   0.000022   8.146369  -0.115796   0.023699
    11  O    0.000054   0.212883  -0.000410  -0.115796   8.166446   0.180887
    12  C   -0.000376  -0.051750   0.001235   0.023699   0.180887   5.036758
    13  H    0.000001   0.030611  -0.000003   0.000115  -0.055120   0.416572
    14  H   -0.000007  -0.036110  -0.000001  -0.000775  -0.039091   0.402475
    15  H   -0.000037   0.004533  -0.000043   0.002388  -0.027980   0.412602
    16  C   -0.001799  -0.076443   0.001061   0.005819   0.015001   0.002700
    17  O    0.000722   0.007126   0.000101   0.000118  -0.000226  -0.002999
    18  O    0.000179   0.133139   0.000219  -0.009497   0.013475  -0.001616
              13         14         15         16         17         18
     1  C    0.000870  -0.001095  -0.009023  -0.144298  -0.073027   0.023863
     2  C   -0.001207   0.002641   0.005667   0.086008   0.058177  -0.007128
     3  C   -0.005056   0.006903  -0.031676  -0.254857  -0.010522   0.045272
     4  H    0.000000  -0.000004  -0.000011   0.000367   0.000194   0.000119
     5  C   -0.022092   0.049969  -0.005199   0.169516   0.061308  -0.176953
     6  N    0.003009  -0.015109  -0.001831   0.060350  -0.171655  -0.183204
     7  H    0.000001  -0.000007  -0.000037  -0.001799   0.000722   0.000179
     8  C    0.030611  -0.036110   0.004533  -0.076443   0.007126   0.133139
     9  H   -0.000003  -0.000001  -0.000043   0.001061   0.000101   0.000219
    10  O    0.000115  -0.000775   0.002388   0.005819   0.000118  -0.009497
    11  O   -0.055120  -0.039091  -0.027980   0.015001  -0.000226   0.013475
    12  C    0.416572   0.402475   0.412602   0.002700  -0.002999  -0.001616
    13  H    0.513306  -0.026818  -0.023962   0.000779  -0.000120   0.000904
    14  H   -0.026818   0.513325  -0.034145   0.004696  -0.001506  -0.001562
    15  H   -0.023962  -0.034145   0.520170   0.004601  -0.000329   0.003110
    16  C    0.000779   0.004696   0.004601   4.892844   0.422496   0.426459
    17  O   -0.000120  -0.001506  -0.000329   0.422496   8.358089  -0.130187
    18  O    0.000904  -0.001562   0.003110   0.426459  -0.130187   8.373778
 Mulliken charges:
               1
     1  C    0.050747
     2  C   -0.360875
     3  C   -0.001093
     4  H    0.137581
     5  C   -0.038868
     6  N    0.066651
     7  H    0.153182
     8  C   -0.214110
     9  H    0.137939
    10  O   -0.365550
    11  O   -0.142100
    12  C   -0.305663
    13  H    0.168211
    14  H    0.176213
    15  H    0.181165
    16  C    0.384699
    17  O   -0.517761
    18  O   -0.510368
 Sum of Mulliken charges =  -1.00000
 Mulliken charges with hydrogens summed into heavy atoms:
               1
     1  C    0.203928
     2  C   -0.223293
     3  C    0.136846
     5  C   -0.038868
     6  N    0.066651
     8  C   -0.214110
    10  O   -0.365550
    11  O   -0.142100
    12  C    0.219926
    16  C    0.384699
    17  O   -0.517761
    18  O   -0.510368
 APT charges:
               1
     1  C    0.075233
     2  C   -0.234325
     3  C   -0.090472
     4  H    0.072039
     5  C   -0.110569
     6  N   -0.801392
     7  H    0.131112
     8  C    1.960520
     9  H    0.079588
    10  O   -1.181507
    11  O   -1.117948
    12  C    0.506189
    13  H   -0.004172
    14  H    0.012343
    15  H    0.004792
    16  C    2.227027
    17  O   -1.265350
    18  O   -1.263108
 Sum of APT charges =  -1.00000
 APT charges with hydrogens summed into heavy atoms:
               1
     1  C    0.206346
     2  C   -0.162285
     3  C   -0.010884
     5  C   -0.110569
     6  N   -0.801392
     8  C    1.960520
    10  O   -1.181507
    11  O   -1.117948
    12  C    0.519151
    16  C    2.227027
    17  O   -1.265350
    18  O   -1.263108
 Electronic spatial extent (au):  <R**2>=           2424.5017
 Charge=             -1.0000 electrons
 Dipole moment (field-independent basis, Debye):
    X=            -12.8766    Y=             -1.4230    Z=             -2.6871  Tot=             13.2307
 Quadrupole moment (field-independent basis, Debye-Ang):
   XX=           -106.4471   YY=            -83.2381   ZZ=            -85.5435
   XY=             -0.4474   XZ=             -6.9161   YZ=             17.8498
 Traceless Quadrupole moment (field-independent basis, Debye-Ang):
   XX=            -14.7042   YY=              8.5048   ZZ=              6.1994
   XY=             -0.4474   XZ=             -6.9161   YZ=             17.8498
 Octapole moment (field-independent basis, Debye-Ang**2):
  XXX=           -354.5358  YYY=            170.7723  ZZZ=            -36.1778  XYY=           -116.1942
  XXY=             61.1621  XXZ=            -19.2956  XZZ=           -106.3174  YZZ=             63.4234
  YYZ=            -24.1220  XYZ=             46.8149
 Hexadecapole moment (field-independent basis, Debye-Ang**3):
 XXXX=          -1770.4084 YYYY=          -1231.6471 ZZZZ=           -603.1943 XXXY=            284.9334
 XXXZ=            -14.6605 YYYX=            292.4908 YYYZ=            242.8301 ZZZX=            -24.5513
 ZZZY=            223.0798 XXYY=           -527.3792 XXZZ=           -383.7461 YYZZ=           -326.9933
 XXYZ=            139.2861 YYXZ=            -53.0007 ZZXY=            107.7529
 N-N= 7.068303322649D+02 E-N=-2.895886318487D+03  KE= 6.240383972394D+02
  Exact polarizability:     157.112      -8.384     134.523      -1.220     -25.870     132.498
 Approx polarizability:     175.347     -10.257     149.196       2.682     -32.933     152.882
 No NMR shielding tensors so no spin-rotation constants.
 Leave Link  601 at Thu Dec 14 16:19:16 2023, MaxMem= 14763950080 cpu:               1.1 elap:               0.2
 (Enter /software/commercial/gaussian/g16/AVX2/g16/l701.exe)
 ... and contract with generalized density number  0.
 Compute integral second derivatives.
 R6Disp: Adding Grimme-D3(BJ) dispersion energy 2nd derivatives to the Hessian.
 D2PCM: PCM CHGder 2nd derivatives, FixD1E=F FixD2E=F DoIter=F DoCFld=F I1PDM=0
 GePol: Maximum number of non-zero 2nd derivatives   =     224
 Leave Link  701 at Thu Dec 14 16:19:21 2023, MaxMem= 14763950080 cpu:              52.8 elap:               4.9
 (Enter /software/commercial/gaussian/g16/AVX2/g16/l702.exe)
 L702 exits ... SP integral derivatives will be done elsewhere.
 Leave Link  702 at Thu Dec 14 16:19:21 2023, MaxMem= 14763950080 cpu:               0.1 elap:               0.1
 (Enter /software/commercial/gaussian/g16/AVX2/g16/l703.exe)
 Integral derivatives from FoFJK, PRISM(SPDF).
 Compute integral second derivatives, UseDBF=F ICtDFT=           0.
 Calling FoFJK, ICntrl=    100127 FMM=F ISym2X=0 I1Cent= 0 IOpClX= 0 NMat=1 NMatS=1 NMatT=0.
 FoFJK:  IHMeth= 1 ICntrl=  100127 DoSepK=F KAlg= 0 I1Cent=           0 FoldK=F
 IRaf=         0 NMat=       1 IRICut=       1 DoRegI=T DoRafI=F ISym2E= 0 IDoP0=0 IntGTp=1.
 FoFCou: FMM=F IPFlag=           0 FMFlag=      100000 FMFlg1=         800
         NFxFlg=           0 DoJE=F BraDBF=F KetDBF=F FulRan=T
         wScrn=  0.000000 ICntrl=    100127 IOpCl=  0 I1Cent=           0 NGrid=           0
         NMat0=    1 NMatS0=      1 NMatT0=    0 NMatD0=    1 NMtDS0=    0 NMtDT0=    0
 Symmetry not used in FoFCou.
 Leave Link  703 at Thu Dec 14 16:20:45 2023, MaxMem= 14763950080 cpu:            1006.4 elap:              84.2
 (Enter /software/commercial/gaussian/g16/AVX2/g16/l716.exe)
 Dipole        =-5.06604369D+00-5.59848123D-01-1.05719023D+00
 Polarizability= 1.57112174D+02-8.38446842D+00 1.34523132D+02
                -1.22038235D+00-2.58701720D+01 1.32498459D+02
 HyperPolar    = 1.34470614D+02-5.45338070D+01 3.67645678D+01
                -1.83977887D+02-2.82688725D+01-1.27177319D+02
                 1.09567028D+02-1.44574753D+02-8.50545089D-01
                -3.41481349D+01
 Full mass-weighted force constant matrix:
 Low frequencies ---  -14.7440   -0.0009   -0.0005    0.0005   11.6714   22.2166
 Low frequencies ---   49.4674   84.4791  119.6821
 Diagonal vibrational polarizability:
       66.8197973     112.3374717      38.9684914
 Diagonal vibrational hyperpolarizability:
      -63.0722269    -795.1757799      21.3081903
 Harmonic frequencies (cm**-1), IR intensities (KM/Mole), Raman scattering
 activities (A**4/AMU), depolarization ratios for plane and unpolarized
 incident light, reduced masses (AMU), force constants (mDyne/A),
 and normal coordinates:
                      1                      2                      3
                      A                      A                      A
 Frequencies --     49.2626                84.4114               119.6549
 Red. masses --      8.4211                 6.8773                 5.7676
 Frc consts  --      0.0120                 0.0289                 0.0487
 IR Inten    --      6.4350                 5.9948                 3.0424
 Raman Activ --      6.7064                 7.2113                 4.2068
 Depolar (P) --      0.6663                 0.7224                 0.6990
 Depolar (U) --      0.7998                 0.8388                 0.8229
  Atom  AN      X      Y      Z        X      Y      Z        X      Y      Z
     1   6    -0.01   0.01  -0.03     0.00  -0.07  -0.07    -0.06   0.16   0.20
     2   6    -0.01  -0.09  -0.14    -0.01  -0.10  -0.12    -0.07   0.08   0.10
     3   6    -0.00  -0.10  -0.16    -0.00  -0.04  -0.03    -0.08  -0.08  -0.11
     4   1    -0.02  -0.14  -0.20    -0.01  -0.16  -0.21    -0.06   0.13   0.18
     5   6    -0.00  -0.01  -0.06     0.00   0.04   0.08    -0.09  -0.08  -0.12
     6   7    -0.00   0.04   0.02     0.01   0.01   0.06    -0.08   0.06   0.08
     7   1    -0.01   0.03   0.01    -0.00  -0.09  -0.11    -0.06   0.25   0.33
     8   6     0.06   0.07  -0.01     0.05   0.06  -0.01     0.01   0.05  -0.08
     9   1    -0.00  -0.15  -0.23    -0.01  -0.06  -0.06    -0.09  -0.15  -0.22
    10   8     0.20   0.31  -0.02     0.23   0.08  -0.05     0.07   0.23  -0.07
    11   8    -0.09  -0.13   0.05    -0.08   0.05  -0.11     0.03  -0.03  -0.01
    12   6    -0.17  -0.23   0.06    -0.31   0.05  -0.05     0.22   0.01  -0.05
    13   1    -0.17  -0.24   0.09    -0.33   0.09  -0.13     0.16  -0.05   0.00
    14   1    -0.22  -0.24  -0.01    -0.43   0.08  -0.12     0.40  -0.05   0.02
    15   1    -0.18  -0.27   0.12    -0.33  -0.01   0.12     0.24   0.16  -0.20
    16   6     0.01   0.04   0.07     0.03  -0.02   0.10    -0.03  -0.09   0.03
    17   8     0.01   0.24   0.31     0.12  -0.18  -0.12     0.09  -0.16  -0.08
    18   8     0.02  -0.16  -0.14    -0.03   0.11   0.34    -0.08  -0.14   0.11
                      4                      5                      6
                      A                      A                      A
 Frequencies --    142.6281               152.5396               166.7862
 Red. masses --      2.1903                 6.4185                 3.1689
 Frc consts  --      0.0263                 0.0880                 0.0519
 IR Inten    --      7.5476                 5.8746                 5.6649
 Raman Activ --      1.0730                 3.3406                 0.9202
 Depolar (P) --      0.6847                 0.5919                 0.6499
 Depolar (U) --      0.8129                 0.7436                 0.7878
  Atom  AN      X      Y      Z        X      Y      Z        X      Y      Z
     1   6    -0.00  -0.04  -0.03     0.05   0.14   0.20    -0.01   0.02   0.03
     2   6    -0.01  -0.07  -0.07     0.03  -0.07  -0.09    -0.02  -0.03  -0.05
     3   6    -0.01  -0.02   0.00     0.02  -0.17  -0.22    -0.04  -0.04  -0.04
     4   1    -0.02  -0.12  -0.15     0.02  -0.14  -0.18    -0.03  -0.06  -0.10
     5   6     0.00   0.04   0.08     0.04   0.00   0.00    -0.03   0.01   0.04
     6   7     0.00   0.03   0.07     0.06   0.19   0.24    -0.01   0.04   0.08
     7   1    -0.01  -0.06  -0.06     0.06   0.23   0.34     0.00   0.03   0.05
     8   6    -0.00   0.02   0.04    -0.01  -0.06   0.04     0.00   0.05   0.03
     9   1    -0.01  -0.03  -0.02     0.02  -0.33  -0.44    -0.05  -0.07  -0.09
    10   8     0.04  -0.01   0.03    -0.07  -0.09   0.05    -0.04  -0.03   0.03
    11   8    -0.09  -0.01   0.01    -0.04  -0.10   0.06     0.12   0.21  -0.02
    12   6     0.03   0.19  -0.01    -0.07  -0.08   0.06    -0.07   0.09   0.02
    13   1    -0.37   0.01  -0.02    -0.06  -0.07   0.04     0.31   0.30  -0.04
    14   1     0.47   0.00   0.06    -0.10  -0.06   0.07    -0.55   0.30  -0.03
    15   1     0.04   0.70  -0.08    -0.07  -0.10   0.09    -0.10  -0.44   0.16
    16   6     0.01  -0.03  -0.01     0.02   0.11  -0.03     0.02  -0.07  -0.01
    17   8     0.00  -0.02   0.00    -0.10  -0.04  -0.19     0.05  -0.05   0.01
    18   8     0.02  -0.09  -0.09     0.10   0.20  -0.10     0.02  -0.18  -0.11
                      7                      8                      9
                      A                      A                      A
 Frequencies --    206.0804               263.4428               307.8037
 Red. masses --      1.7071                 6.2031                 4.3411
 Frc consts  --      0.0427                 0.2536                 0.2423
 IR Inten    --      4.3640                 2.7860                 1.3734
 Raman Activ --      1.2379                 3.3131                 2.3012
 Depolar (P) --      0.4888                 0.7149                 0.5180
 Depolar (U) --      0.6567                 0.8338                 0.6825
  Atom  AN      X      Y      Z        X      Y      Z        X      Y      Z
     1   6     0.00  -0.01  -0.02    -0.19  -0.03   0.02     0.02  -0.03   0.07
     2   6     0.01  -0.00  -0.00    -0.01  -0.21   0.08     0.05  -0.03   0.13
     3   6     0.01   0.01   0.02     0.21  -0.04   0.06     0.08  -0.13  -0.07
     4   1     0.01  -0.01  -0.01    -0.03  -0.42   0.13     0.06   0.04   0.29
     5   6     0.01   0.01   0.01     0.14   0.19  -0.02     0.04  -0.13  -0.18
     6   7     0.01  -0.00  -0.00    -0.08   0.20  -0.03     0.03  -0.12  -0.15
     7   1     0.00  -0.03  -0.03    -0.42  -0.06   0.01    -0.02   0.04   0.17
     8   6    -0.01  -0.02   0.01     0.05   0.08  -0.04    -0.00  -0.02  -0.00
     9   1     0.01   0.02   0.03     0.42  -0.11   0.10     0.14  -0.15  -0.05
    10   8     0.04   0.03   0.01    -0.15  -0.06  -0.01    -0.14   0.13   0.05
    11   8    -0.12  -0.13   0.02    -0.04  -0.06   0.01     0.02  -0.03   0.04
    12   6     0.05   0.11  -0.01     0.01  -0.07   0.00    -0.18   0.22   0.08
    13   1     0.52   0.41  -0.18     0.05  -0.05   0.02    -0.37   0.24  -0.13
    14   1    -0.27   0.41   0.28    -0.01  -0.05   0.01    -0.14   0.23   0.16
    15   1     0.06  -0.34  -0.16     0.01  -0.10  -0.02    -0.20   0.37   0.26
    16   6    -0.00   0.00  -0.01    -0.01   0.09  -0.04     0.05  -0.01  -0.04
    17   8    -0.01  -0.00  -0.01     0.25   0.09  -0.08     0.05   0.02   0.00
    18   8     0.00   0.00  -0.01    -0.14  -0.11   0.05     0.04   0.03   0.00
                     10                     11                     12
                      A                      A                      A
 Frequencies --    382.3425               424.1962               509.8611
 Red. masses --      7.5852                10.4856                 5.4642
 Frc consts  --      0.6533                 1.1117                 0.8369
 IR Inten    --      9.2123                 3.0244                 1.4026
 Raman Activ --      2.3392                 6.5130                 3.4755
 Depolar (P) --      0.7382                 0.1545                 0.4439
 Depolar (U) --      0.8494                 0.2676                 0.6149
  Atom  AN      X      Y      Z        X      Y      Z        X      Y      Z
     1   6    -0.03  -0.15   0.06    -0.17  -0.06   0.05    -0.08  -0.04  -0.08
     2   6    -0.04  -0.17   0.08    -0.24   0.00   0.08    -0.10  -0.01  -0.06
     3   6    -0.04  -0.08   0.17    -0.27  -0.08  -0.02    -0.08   0.14   0.16
     4   1    -0.04  -0.20   0.01    -0.23   0.09   0.13    -0.11  -0.10  -0.20
     5   6    -0.08  -0.01   0.06    -0.20  -0.14   0.02    -0.05  -0.04  -0.02
     6   7     0.03  -0.05   0.10    -0.12  -0.06  -0.09    -0.05   0.11   0.17
     7   1    -0.11  -0.19   0.02    -0.22  -0.04   0.08    -0.09  -0.14  -0.23
     8   6    -0.16   0.08  -0.07    -0.08  -0.13   0.12     0.05  -0.12  -0.15
     9   1     0.04  -0.09   0.21    -0.33  -0.05  -0.01    -0.13   0.20   0.21
    10   8    -0.20   0.21  -0.05     0.29  -0.17   0.04    -0.08   0.09  -0.11
    11   8    -0.15   0.12  -0.09     0.01   0.04   0.07     0.27  -0.22   0.00
    12   6     0.06  -0.10  -0.18     0.02   0.01   0.10    -0.03   0.05   0.09
    13   1     0.23  -0.14   0.05     0.02   0.01   0.11    -0.25   0.14  -0.27
    14   1     0.08  -0.13  -0.24     0.03   0.00   0.08    -0.11   0.14   0.18
    15   1     0.08  -0.20  -0.38     0.03   0.02   0.08    -0.07   0.17   0.41
    16   6     0.20  -0.00   0.04     0.14   0.16  -0.14     0.03   0.03   0.06
    17   8     0.07  -0.05   0.04     0.38   0.21  -0.11     0.03  -0.03  -0.00
    18   8     0.30   0.13  -0.07     0.07   0.14  -0.10     0.08   0.03  -0.03
                     13                     14                     15
                      A                      A                      A
 Frequencies --    576.2755               615.9572               675.0713
 Red. masses --      8.1060                 3.1806                 8.0328
 Frc consts  --      1.5860                 0.7110                 2.1568
 IR Inten    --      9.5333                13.5942                 7.7535
 Raman Activ --      1.9554                 6.8211                19.2530
 Depolar (P) --      0.7238                 0.5507                 0.0518
 Depolar (U) --      0.8398                 0.7103                 0.0985
  Atom  AN      X      Y      Z        X      Y      Z        X      Y      Z
     1   6    -0.26   0.08  -0.09    -0.00  -0.15  -0.20    -0.17   0.09  -0.01
     2   6    -0.12   0.04   0.09     0.03   0.16   0.21    -0.13   0.06  -0.02
     3   6     0.05   0.01  -0.14    -0.00  -0.10  -0.12    -0.01   0.05  -0.10
     4   1    -0.13  -0.06   0.29     0.04   0.22   0.28    -0.14  -0.00   0.09
     5   6     0.01   0.17  -0.13     0.00  -0.02  -0.00     0.07   0.06   0.11
     6   7    -0.11   0.08  -0.15     0.02   0.08   0.14    -0.09  -0.02  -0.10
     7   1    -0.44   0.04  -0.11    -0.02  -0.42  -0.60    -0.17   0.15   0.08
     8   6     0.07   0.16  -0.04     0.01  -0.01   0.02     0.22  -0.07   0.21
     9   1     0.20  -0.06  -0.14    -0.03  -0.23  -0.31    -0.07   0.03  -0.16
    10   8     0.09  -0.17  -0.10    -0.01   0.01   0.03    -0.06   0.07   0.36
    11   8    -0.05   0.00   0.08    -0.01   0.01  -0.01     0.13  -0.13  -0.11
    12   6     0.01   0.01   0.17    -0.00  -0.01  -0.03    -0.04  -0.03  -0.38
    13   1     0.01   0.02   0.15     0.01  -0.02  -0.00    -0.06  -0.02  -0.40
    14   1     0.01   0.01   0.16     0.00  -0.01  -0.03    -0.05   0.01  -0.30
    15   1     0.01   0.01   0.14    -0.00  -0.01  -0.04    -0.05  -0.01  -0.23
    16   6     0.11  -0.14   0.11    -0.02   0.04   0.03    -0.03  -0.07   0.03
    17   8    -0.13  -0.20   0.14     0.01   0.01  -0.02     0.04  -0.05   0.05
    18   8     0.30   0.05  -0.00    -0.02  -0.01  -0.01     0.08   0.06  -0.04
                     16                     17                     18
                      A                      A                      A
 Frequencies --    693.4993               739.5197               749.1584
 Red. masses --      4.4754                 1.2843                 5.1372
 Frc consts  --      1.2681                 0.4138                 1.6987
 IR Inten    --      9.7357               116.5085                37.0976
 Raman Activ --      1.9924                11.2508                 8.8143
 Depolar (P) --      0.7388                 0.7500                 0.6948
 Depolar (U) --      0.8498                 0.8571                 0.8199
  Atom  AN      X      Y      Z        X      Y      Z        X      Y      Z
     1   6     0.05  -0.05   0.01    -0.01  -0.06  -0.09     0.06  -0.02   0.01
     2   6    -0.02   0.04   0.04    -0.00  -0.04  -0.05    -0.00  -0.00  -0.06
     3   6    -0.09  -0.10  -0.06     0.01  -0.01  -0.03    -0.09  -0.06   0.01
     4   1     0.01   0.24   0.13     0.05   0.43   0.60     0.03   0.31   0.15
     5   6    -0.00   0.21   0.35     0.00   0.02   0.01    -0.04  -0.14  -0.10
     6   7    -0.00  -0.14  -0.08     0.01   0.04   0.03    -0.03  -0.04   0.11
     7   1     0.15   0.16   0.31     0.01   0.33   0.49     0.19  -0.02  -0.01
     8   6     0.06   0.12  -0.11    -0.03  -0.04   0.01     0.32   0.36  -0.02
     9   1    -0.18  -0.39  -0.50     0.05   0.17   0.24    -0.16   0.38   0.56
    10   8    -0.08   0.01  -0.12     0.01   0.01   0.00    -0.07  -0.10   0.01
    11   8     0.06  -0.09  -0.00     0.01   0.01  -0.00    -0.07  -0.05   0.01
    12   6     0.02  -0.00   0.06     0.00  -0.00  -0.00    -0.01  -0.00   0.00
    13   1    -0.05   0.04  -0.08    -0.00  -0.00  -0.00     0.02  -0.01   0.03
    14   1    -0.03   0.04   0.09     0.00  -0.00  -0.00     0.01  -0.01   0.00
    15   1     0.00   0.02   0.16     0.00  -0.00  -0.00    -0.01  -0.02  -0.06
    16   6    -0.00  -0.03  -0.06     0.01   0.02   0.02    -0.10  -0.04   0.00
    17   8     0.03   0.03   0.01    -0.01  -0.00  -0.01     0.10  -0.01   0.02
    18   8    -0.02   0.02  -0.00     0.00  -0.02   0.00    -0.03   0.09  -0.06
                     19                     20                     21
                      A                      A                      A
 Frequencies --    772.6681               795.9985               831.2308
 Red. masses --     10.3276                 6.3688                 1.7493
 Frc consts  --      3.6328                 2.3776                 0.7121
 IR Inten    --    349.2220                34.5208                24.3469
 Raman Activ --     17.1528                 8.2284                10.0497
 Depolar (P) --      0.0706                 0.4332                 0.5005
 Depolar (U) --      0.1319                 0.6045                 0.6671
  Atom  AN      X      Y      Z        X      Y      Z        X      Y      Z
     1   6     0.02  -0.06   0.09     0.02  -0.06  -0.03     0.01   0.05   0.09
     2   6    -0.13  -0.02   0.02    -0.01   0.02   0.02     0.00  -0.01  -0.01
     3   6    -0.15  -0.04  -0.02    -0.02   0.05   0.09    -0.00  -0.09  -0.12
     4   1    -0.13   0.11  -0.04    -0.03  -0.10  -0.22     0.01   0.09   0.10
     5   6    -0.05   0.01  -0.05    -0.01  -0.05  -0.04     0.00   0.06   0.08
     6   7     0.06   0.04  -0.00     0.00  -0.09  -0.12     0.00  -0.03  -0.05
     7   1    -0.08  -0.22  -0.14     0.07   0.23   0.38    -0.03  -0.31  -0.44
     8   6     0.14   0.17   0.04     0.07   0.08   0.00    -0.04  -0.04  -0.01
     9   1    -0.12   0.18   0.30    -0.10  -0.29  -0.42     0.08   0.45   0.64
    10   8    -0.02  -0.04   0.07    -0.01  -0.03   0.02    -0.00   0.02  -0.02
    11   8     0.03  -0.08  -0.01    -0.02  -0.01   0.00     0.02  -0.01  -0.00
    12   6    -0.01  -0.00  -0.07    -0.00  -0.01  -0.01     0.00  -0.00   0.00
    13   1    -0.02   0.02  -0.14    -0.01  -0.02   0.01    -0.02   0.00  -0.03
    14   1    -0.04   0.01  -0.06     0.01  -0.00  -0.00    -0.01   0.01   0.01
    15   1    -0.02   0.01  -0.02    -0.00   0.01  -0.03     0.00   0.01   0.04
    16   6     0.47   0.17  -0.25     0.00   0.40   0.44    -0.02   0.07   0.10
    17   8    -0.31   0.18  -0.13    -0.02  -0.08  -0.15     0.00  -0.02  -0.02
    18   8     0.06  -0.27   0.26     0.02  -0.13  -0.10     0.00  -0.02  -0.03
                     22                     23                     24
                      A                      A                      A
 Frequencies --    888.4562               910.8678               998.0362
 Red. masses --      1.3444                 5.2567                 2.6663
 Frc consts  --      0.6253                 2.5697                 1.5648
 IR Inten    --      3.5667                 5.5889                83.8127
 Raman Activ --      3.4014                15.4299                 4.3757
 Depolar (P) --      0.6780                 0.3212                 0.6354
 Depolar (U) --      0.8081                 0.4862                 0.7770
  Atom  AN      X      Y      Z        X      Y      Z        X      Y      Z
     1   6     0.00   0.04   0.08    -0.02   0.24  -0.16     0.08  -0.10   0.06
     2   6    -0.02  -0.07  -0.10     0.36  -0.05  -0.01    -0.03   0.01   0.00
     3   6     0.01   0.05   0.06    -0.09  -0.24   0.19    -0.03  -0.05   0.05
     4   1     0.04   0.42   0.54     0.37   0.01   0.08     0.02   0.52  -0.40
     5   6     0.00  -0.01  -0.01    -0.16  -0.02   0.04    -0.08   0.10  -0.10
     6   7     0.00  -0.01  -0.01    -0.10   0.10  -0.08     0.07   0.07  -0.05
     7   1    -0.03  -0.30  -0.44    -0.43   0.18  -0.16    -0.13  -0.11   0.10
     8   6     0.01   0.00  -0.00    -0.03   0.03   0.03    -0.13   0.10   0.06
     9   1    -0.01  -0.27  -0.38    -0.43  -0.17   0.08     0.48  -0.26   0.09
    10   8    -0.00  -0.00   0.00     0.01  -0.02   0.02     0.04  -0.03  -0.00
    11   8    -0.01   0.00   0.00     0.04  -0.04   0.02     0.08  -0.05   0.10
    12   6    -0.00   0.00   0.00    -0.00  -0.01  -0.05    -0.01  -0.01  -0.13
    13   1     0.01  -0.00   0.01    -0.04   0.01  -0.12    -0.10   0.02  -0.26
    14   1     0.00  -0.00   0.00    -0.03   0.02  -0.02    -0.06   0.05  -0.06
    15   1     0.00  -0.00  -0.01    -0.01   0.02   0.02    -0.03   0.04   0.04
    16   6    -0.00   0.01   0.01     0.03   0.01   0.00    -0.04  -0.03   0.01
    17   8     0.00  -0.00  -0.00    -0.02   0.00  -0.01     0.01  -0.04   0.03
    18   8     0.00  -0.00  -0.00     0.03  -0.01   0.01    -0.03   0.02  -0.02
                     25                     26                     27
                      A                      A                      A
 Frequencies --   1040.1665              1062.3706              1109.2594
 Red. masses --      1.9206                 1.6038                 4.3665
 Frc consts  --      1.2243                 1.0664                 3.1656
 IR Inten    --     47.8390               144.3099               220.5858
 Raman Activ --      4.5488                12.7433                 5.1089
 Depolar (P) --      0.7417                 0.3210                 0.6809
 Depolar (U) --      0.8517                 0.4860                 0.8101
  Atom  AN      X      Y      Z        X      Y      Z        X      Y      Z
     1   6    -0.03  -0.01   0.01    -0.00   0.10  -0.07    -0.09   0.02  -0.00
     2   6    -0.03   0.07  -0.04    -0.08   0.04  -0.03     0.01   0.07  -0.05
     3   6     0.00  -0.08   0.06     0.06  -0.09   0.06     0.07  -0.01  -0.00
     4   1     0.03   0.61  -0.48    -0.09   0.00   0.00     0.03   0.30  -0.25
     5   6     0.02  -0.02   0.03    -0.02  -0.00   0.01     0.08  -0.09   0.09
     6   7     0.02   0.04  -0.03    -0.09  -0.05   0.04    -0.02  -0.06   0.04
     7   1    -0.41  -0.03   0.06     0.68   0.16  -0.15    -0.44  -0.00   0.05
     8   6     0.10  -0.09  -0.03    -0.00  -0.01  -0.00     0.09  -0.08  -0.12
     9   1     0.26  -0.17   0.12     0.58  -0.28   0.15    -0.04   0.05   0.01
    10   8    -0.02   0.02   0.04     0.00  -0.00  -0.00    -0.02  -0.00  -0.11
    11   8    -0.05   0.03  -0.12     0.00   0.00   0.01     0.01   0.06   0.32
    12   6     0.02   0.00   0.12    -0.00   0.00  -0.01    -0.14   0.04  -0.21
    13   1     0.07  -0.01   0.19     0.00  -0.00   0.00     0.21  -0.04   0.31
    14   1     0.05  -0.04   0.05     0.00   0.00  -0.00     0.19  -0.01   0.09
    15   1     0.03  -0.04  -0.01    -0.00  -0.00  -0.01    -0.09  -0.01  -0.44
    16   6    -0.01  -0.01   0.00     0.03   0.01  -0.01    -0.00   0.00  -0.01
    17   8    -0.01   0.01  -0.00    -0.00   0.02  -0.01    -0.01   0.04  -0.03
    18   8     0.01  -0.01   0.01     0.01  -0.01   0.01     0.03  -0.02   0.02
                     28                     29                     30
                      A                      A                      A
 Frequencies --   1164.7807              1177.0032              1204.8184
 Red. masses --      1.3205                 2.0596                 2.2420
 Frc consts  --      1.0555                 1.6811                 1.9175
 IR Inten    --      1.1740                69.5768               353.1588
 Raman Activ --      2.0856                 6.8973                41.0307
 Depolar (P) --      0.5902                 0.1496                 0.2696
 Depolar (U) --      0.7423                 0.2603                 0.4247
  Atom  AN      X      Y      Z        X      Y      Z        X      Y      Z
     1   6     0.02  -0.00  -0.00     0.07  -0.01   0.00    -0.00   0.08  -0.05
     2   6    -0.01  -0.02   0.01    -0.05  -0.06   0.04    -0.08   0.04  -0.02
     3   6    -0.03  -0.01   0.01    -0.10  -0.05   0.05    -0.05  -0.01   0.01
     4   1    -0.02  -0.05   0.04    -0.06  -0.09   0.08    -0.15  -0.52   0.40
     5   6    -0.01   0.02  -0.01     0.00   0.09  -0.05    -0.09  -0.06   0.06
     6   7     0.02   0.03  -0.02     0.04   0.11  -0.08     0.24   0.01  -0.02
     7   1     0.11   0.00  -0.01     0.43   0.01  -0.06    -0.41   0.06  -0.01
     8   6     0.02  -0.01  -0.00     0.08  -0.09  -0.04     0.03   0.02  -0.00
     9   1    -0.03  -0.01   0.01    -0.25  -0.01   0.03     0.46  -0.19   0.10
    10   8    -0.00  -0.00   0.01    -0.00   0.01   0.01    -0.01  -0.00  -0.01
    11   8     0.04   0.04  -0.03     0.01  -0.02   0.03     0.00  -0.01   0.00
    12   6    -0.09  -0.10   0.03    -0.06   0.10  -0.00    -0.00   0.01  -0.00
    13   1     0.20   0.17  -0.23     0.17  -0.10   0.61     0.00  -0.02   0.06
    14   1     0.27   0.04   0.69     0.12  -0.14  -0.30     0.01  -0.01  -0.04
    15   1    -0.02   0.23  -0.47    -0.03  -0.20  -0.26    -0.00  -0.03  -0.01
    16   6    -0.00  -0.00  -0.00    -0.00  -0.01   0.00    -0.07  -0.04   0.02
    17   8    -0.00  -0.01   0.01    -0.00  -0.04   0.03    -0.00   0.03  -0.03
    18   8    -0.00   0.00  -0.00    -0.02   0.01  -0.01     0.01  -0.01   0.01
                     31                     32                     33
                      A                      A                      A
 Frequencies --   1228.4658              1278.3185              1306.1184
 Red. masses --      2.0411                 3.7942                 5.6446
 Frc consts  --      1.8149                 3.6530                 5.6734
 IR Inten    --    137.6907               937.8958               159.6471
 Raman Activ --     31.1253                75.6876                 8.0136
 Depolar (P) --      0.2820                 0.2737                 0.5793
 Depolar (U) --      0.4400                 0.4297                 0.7336
  Atom  AN      X      Y      Z        X      Y      Z        X      Y      Z
     1   6    -0.01   0.01  -0.01     0.12   0.01  -0.01     0.11  -0.10   0.07
     2   6    -0.08  -0.00   0.01     0.06  -0.02   0.01     0.15  -0.10   0.06
     3   6    -0.02  -0.08   0.06    -0.11   0.08  -0.05    -0.12   0.16  -0.11
     4   1    -0.09   0.03  -0.02     0.04  -0.24   0.17     0.18  -0.08   0.04
     5   6     0.06  -0.00  -0.00    -0.05   0.05  -0.01    -0.16   0.05   0.00
     6   7     0.08   0.07  -0.06    -0.08  -0.03   0.02    -0.17   0.06  -0.04
     7   1     0.28   0.04  -0.05    -0.42  -0.04   0.04     0.22  -0.12   0.05
     8   6     0.07  -0.07  -0.05     0.14  -0.11  -0.09     0.13  -0.10  -0.07
     9   1    -0.37   0.04   0.01     0.57  -0.16   0.07     0.66  -0.10   0.01
    10   8    -0.01   0.01   0.00    -0.01   0.01   0.03    -0.00   0.00   0.04
    11   8    -0.09   0.08   0.07    -0.07   0.06   0.05    -0.04   0.04   0.03
    12   6     0.08  -0.07  -0.06     0.03  -0.03  -0.05     0.02  -0.01  -0.04
    13   1    -0.20  -0.00  -0.46    -0.02  -0.03  -0.08    -0.01  -0.05   0.03
    14   1    -0.21   0.18   0.16    -0.08   0.10   0.13    -0.01   0.07   0.11
    15   1     0.02   0.16   0.56    -0.00   0.09   0.32    -0.01   0.02   0.24
    16   6    -0.04  -0.02   0.01     0.19   0.11  -0.06    -0.22  -0.11   0.06
    17   8    -0.00   0.00  -0.00     0.01  -0.14   0.11    -0.01   0.16  -0.13
    18   8     0.01  -0.01   0.01    -0.15   0.06  -0.07     0.21  -0.07   0.08
                     34                     35                     36
                      A                      A                      A
 Frequencies --   1377.4310              1432.8557              1461.4394
 Red. masses --      8.9288                 3.4653                 1.7009
 Frc consts  --      9.9812                 4.1918                 2.1404
 IR Inten    --     19.2259                12.0982                 3.6785
 Raman Activ --     13.5478                40.4575               100.4327
 Depolar (P) --      0.4664                 0.7164                 0.2820
 Depolar (U) --      0.6361                 0.8348                 0.4399
  Atom  AN      X      Y      Z        X      Y      Z        X      Y      Z
     1   6     0.25  -0.16   0.08     0.12  -0.09   0.06    -0.11  -0.05   0.05
     2   6    -0.11   0.16  -0.10    -0.03   0.22  -0.16     0.06   0.04  -0.04
     3   6     0.21  -0.02  -0.00     0.05  -0.14   0.10     0.08   0.00  -0.01
     4   1    -0.17  -0.36   0.29    -0.12  -0.51   0.38     0.06  -0.01  -0.00
     5   6    -0.06  -0.37   0.28     0.01   0.19  -0.14    -0.13   0.00   0.01
     6   7    -0.22   0.37  -0.24    -0.10  -0.08   0.06     0.05   0.01  -0.01
     7   1    -0.05  -0.18   0.14    -0.43  -0.15   0.15     0.26  -0.03   0.01
     8   6    -0.04   0.08   0.03    -0.00  -0.04  -0.02     0.00   0.02  -0.01
     9   1     0.03   0.03  -0.04    -0.31  -0.03   0.05    -0.03   0.05  -0.03
    10   8    -0.02   0.00  -0.05     0.01  -0.00   0.03     0.00  -0.01   0.02
    11   8     0.01  -0.02   0.00     0.00   0.01  -0.01     0.01  -0.01  -0.04
    12   6    -0.00   0.00   0.01    -0.00   0.00  -0.01    -0.01   0.02  -0.08
    13   1     0.00   0.03  -0.05    -0.00  -0.03   0.06     0.07  -0.21   0.44
    14   1    -0.05  -0.03  -0.10     0.07   0.01   0.09     0.26   0.15   0.50
    15   1     0.01   0.03  -0.12    -0.01  -0.06   0.09    -0.08  -0.17   0.49
    16   6     0.04   0.03  -0.03    -0.04  -0.02   0.01     0.03   0.02  -0.01
    17   8    -0.01  -0.07   0.06     0.00   0.04  -0.03     0.00  -0.02   0.01
    18   8     0.01   0.01  -0.00     0.04  -0.01   0.02    -0.02   0.01  -0.01
                     37                     38                     39
                      A                      A                      A
 Frequencies --   1478.2418              1481.1074              1503.8860
 Red. masses --      1.8639                 1.1763                 1.0500
 Frc consts  --      2.3998                 1.5204                 1.3991
 IR Inten    --     32.3975                42.1938                42.0715
 Raman Activ --    153.3242                62.9439                16.4278
 Depolar (P) --      0.2420                 0.3720                 0.7490
 Depolar (U) --      0.3897                 0.5422                 0.8565
  Atom  AN      X      Y      Z        X      Y      Z        X      Y      Z
     1   6    -0.13  -0.08   0.07     0.04   0.03  -0.02    -0.01  -0.00   0.00
     2   6     0.08   0.07  -0.06    -0.03  -0.02   0.02     0.00   0.00  -0.00
     3   6     0.05  -0.00  -0.00    -0.01  -0.00   0.00     0.00   0.00  -0.00
     4   1     0.08  -0.08   0.05    -0.03   0.03  -0.02     0.01   0.00  -0.00
     5   6    -0.13   0.03  -0.00     0.05  -0.01  -0.00    -0.01  -0.00   0.00
     6   7     0.05   0.01  -0.01    -0.02  -0.01   0.00     0.00   0.00  -0.00
     7   1     0.28  -0.06   0.03    -0.10   0.02  -0.01     0.02  -0.00  -0.00
     8   6     0.06  -0.04  -0.02    -0.03   0.02   0.01     0.01  -0.01  -0.01
     9   1     0.01   0.02  -0.01    -0.01  -0.01   0.00     0.00   0.00  -0.00
    10   8    -0.00  -0.00   0.01     0.00  -0.00  -0.00    -0.00   0.00   0.00
    11   8    -0.01   0.00   0.03     0.00  -0.02  -0.02    -0.01   0.01   0.01
    12   6    -0.00  -0.04   0.06    -0.04  -0.04  -0.04    -0.04   0.02   0.02
    13   1     0.28   0.23  -0.20     0.63   0.13   0.28     0.18   0.32  -0.40
    14   1    -0.31  -0.13  -0.49    -0.01  -0.05  -0.08     0.57  -0.39  -0.19
    15   1     0.04   0.50  -0.23    -0.07   0.53   0.43    -0.06  -0.33   0.28
    16   6     0.03   0.01  -0.00    -0.01  -0.01   0.01     0.01  -0.00   0.00
    17   8    -0.00  -0.01   0.01     0.00   0.01  -0.01    -0.00   0.00  -0.00
    18   8    -0.02   0.01  -0.01     0.01  -0.00   0.00    -0.00   0.00  -0.00
                     40                     41                     42
                      A                      A                      A
 Frequencies --   1559.2817              1710.5001              1723.9686
 Red. masses --      5.1075                12.4592                12.6703
 Frc consts  --      7.3166                21.4777                22.1869
 IR Inten    --     66.3407              1653.9553               301.3825
 Raman Activ --     16.2788                37.1271               158.6884
 Depolar (P) --      0.4308                 0.1831                 0.2034
 Depolar (U) --      0.6022                 0.3096                 0.3380
  Atom  AN      X      Y      Z        X      Y      Z        X      Y      Z
     1   6    -0.19  -0.10   0.09    -0.01   0.03  -0.02     0.03   0.00  -0.00
     2   6     0.17   0.14  -0.12    -0.01  -0.01   0.01     0.00  -0.02   0.01
     3   6    -0.33  -0.01   0.03     0.02  -0.00  -0.00     0.02  -0.00   0.00
     4   1     0.16  -0.30   0.21    -0.00   0.04  -0.03    -0.00  -0.00   0.00
     5   6     0.34  -0.08   0.01    -0.00  -0.02   0.02    -0.10   0.08  -0.06
     6   7    -0.01   0.06  -0.04     0.05  -0.05   0.03     0.00  -0.03   0.01
     7   1     0.32  -0.09   0.04     0.00   0.04  -0.03    -0.00   0.01   0.01
     8   6    -0.07   0.04   0.06    -0.11   0.06  -0.30     0.24  -0.16   0.69
     9   1     0.45  -0.31   0.19    -0.02   0.02  -0.00    -0.04   0.01  -0.02
    10   8    -0.00   0.01  -0.04     0.06  -0.03   0.20    -0.12   0.07  -0.45
    11   8     0.00  -0.00  -0.01     0.01  -0.01   0.01    -0.03   0.03  -0.01
    12   6    -0.01   0.00  -0.02    -0.01   0.01   0.02     0.00  -0.02  -0.04
    13   1     0.02  -0.03   0.06     0.03   0.06  -0.04     0.05  -0.02  -0.02
    14   1     0.06   0.02   0.08    -0.02  -0.07  -0.14     0.07   0.01   0.06
    15   1    -0.02  -0.03   0.08     0.01   0.03  -0.06    -0.02  -0.01   0.14
    16   6    -0.01   0.02  -0.02    -0.41   0.51  -0.44    -0.18   0.23  -0.20
    17   8     0.00  -0.02   0.02     0.05  -0.23   0.19     0.02  -0.10   0.08
    18   8     0.01  -0.00   0.01     0.24  -0.12   0.12     0.10  -0.06   0.05
                     43                     44                     45
                      A                      A                      A
 Frequencies --   3057.3073              3141.2656              3155.3753
 Red. masses --      1.0294                 1.1063                 1.1071
 Frc consts  --      5.6690                 6.4316                 6.4945
 IR Inten    --     42.3571                19.8820                21.2780
 Raman Activ --    304.3807                82.0890               139.1621
 Depolar (P) --      0.0124                 0.6127                 0.6729
 Depolar (U) --      0.0245                 0.7598                 0.8045
  Atom  AN      X      Y      Z        X      Y      Z        X      Y      Z
     1   6     0.00  -0.00  -0.00    -0.00  -0.00  -0.00    -0.00  -0.00   0.00
     2   6     0.00  -0.00  -0.00    -0.00   0.00  -0.00     0.00  -0.00   0.00
     3   6    -0.00   0.00   0.00     0.00   0.00   0.00     0.00   0.00  -0.00
     4   1    -0.00  -0.00   0.00     0.00   0.00  -0.00    -0.00   0.00   0.00
[...]
 41,-0.6253185,-0.9078762,0.1202589,-2.4348877,0.2372544,-1.0059137,-9.
 0692952,-5.938558,-2.4806316,2.2380379,2.7869367,-0.4980094,1.8046289,
 -2.2017892,-3.9261092,1.2818777,3.8918714,-1.1460485,-1.8983305,1.1602
 545,1.7501063,-2.1173624,-3.2859866,1.8954384,-0.8176677,3.0702218,-0.
 7812755,-2.1892965,-0.3967547,-0.7065166,5.2088373,2.8144738,13.712437
 2,-1.7936897,-6.7252008,3.6199814,-4.0719024,-1.8977351,-4.3275243,1.9
 044383,6.7646072,-9.8749997,18.516898,2.5596963,4.2561798,0.1497772,-1
 .7251736,3.0156353,-5.6939444,1.0635027,-5.6743843,1.9902019,2.0467381
 ,-1.9804023,5.6508228,2.7928541,2.8279964,3.1715055,-1.4283795,3.85059
 77\HyperPolar=134.4706141,-54.533807,36.7645678,-183.9778871,-28.26887
 25,-127.1773188,109.5670282,-144.5747526,-0.8505451,-34.1481349\Quadru
 pole=-10.9321994,6.3231004,4.6090989,-0.3326451,-5.1419757,13.2708941\
 PG=C01 [X(C7H6N1O4)]\NImag=0\\0.57213254,-0.00485911,0.63462039,-0.033
 45133,-0.35663129,0.37395263,-0.21999573,-0.11120912,0.09390953,0.8434
 2052,-0.09265433,-0.18464383,0.09305126,-0.01051297,0.40191457,0.08338
 895,0.09573976,-0.13888631,-0.05202627,-0.20968406,0.27397680,0.032062
 65,0.01335193,-0.01242318,-0.15513117,0.05114520,-0.03284289,0.6214985
 0,-0.02579524,-0.04300579,0.04297396,0.07589984,-0.17232803,0.07819658
 ,0.07827897,0.54020260,0.01533536,0.03913432,-0.01839953,-0.04877435,0
 .08174402,-0.11464607,-0.09695756,-0.31321404,0.35258101,-0.00897167,0
 .00607414,-0.00366975,-0.34703543,0.03220444,0.00371121,-0.00537701,-0
 .00267834,0.00235191,0.36356351,-0.01655222,0.00666065,-0.00387262,0.0
 3400546,-0.05009279,0.01469852,0.01893005,0.00290444,-0.00427733,-0.03
 553422,0.04243901,0.01333612,-0.00545745,0.00204487,0.00257156,0.01395
 304,-0.03708272,-0.01407257,-0.00225534,0.00217946,-0.00310809,-0.0126
 1797,0.03119804,-0.03508009,0.02458828,-0.01390226,-0.05680114,0.05559
 666,-0.03067666,-0.33605701,-0.05411933,0.05607606,-0.00071091,0.00294
 614,-0.00108791,0.71517927,0.04236958,-0.04162240,0.03987411,0.0131205
 9,0.00608052,0.00380604,-0.03887973,-0.08858327,0.02503368,0.00165080,
 -0.00254682,0.00384415,-0.09578878,0.45624398,-0.02731328,0.03855468,-
 0.01470153,-0.00416228,-0.00060773,0.01287702,0.05628430,0.02557507,-0
 .08668905,-0.00078309,0.00421502,0.00055547,-0.01344919,-0.21283844,0.
 31943942,-0.23987401,0.06010115,-0.02341249,-0.08474418,-0.03892370,0.
 03494123,-0.05027511,-0.01505610,0.01961668,-0.00200916,-0.00355318,0.
 00267926,-0.09939404,0.00994994,-0.00267859,0.65875186,0.06858205,-0.1
 2635502,0.03558154,-0.00149805,0.00235185,0.00911789,-0.05011274,-0.02
 492173,0.03237337,-0.00206262,-0.00038020,0.00513055,-0.00815301,-0.19
 206542,0.10155093,-0.00862174,0.46600092,-0.03508028,0.03829705,-0.081
 46802,0.00754685,0.01082648,0.00170579,0.04213539,0.03013942,-0.012113
 72,0.00196396,0.00471162,0.00207216,0.01342388,0.09408439,-0.12547589,
 -0.01639668,-0.25184810,0.28977994,-0.05994557,0.02488878,-0.01472801,
 0.01088379,-0.01360660,0.00852306,-0.00258899,-0.00239505,0.00252551,0
 .00013380,0.00068572,-0.00079529,-0.00603446,0.00063002,0.00068685,-0.
 00070198,0.02675144,-0.01810511,0.05488321,0.03325032,-0.25450564,0.15
 245282,0.00536679,-0.00237258,0.00277861,-0.00082127,0.00034310,0.0027
 4470,-0.00036159,-0.00103227,-0.00155340,0.00040739,0.00117915,-0.0001
 6018,0.00098861,-0.00652383,0.00360217,-0.03638819,0.26365086,-0.02153
 793,0.15166126,-0.12686071,-0.00405775,0.00662356,-0.00152128,0.002822
 72,0.00257639,0.00244436,-0.00003562,-0.00177447,-0.00219633,-0.001111
 88,0.00040740,0.00126847,-0.00044192,0.00083315,-0.00192283,0.02205591
 ,-0.16167208,0.12834510,0.00858602,-0.00772105,0.00606362,-0.00332892,
 -0.00790099,0.00447907,-0.02713118,0.02084979,-0.00664914,0.00054949,-
 0.00019722,-0.00031483,-0.16276083,0.05414764,-0.01775129,0.00351734,-
 0.00009163,-0.01135182,0.00161257,0.00035124,0.00081342,0.43089555,-0.
 01165812,0.00074062,0.00082998,-0.00440963,0.00757166,-0.00066911,0.00
 671512,0.00465967,-0.00692539,-0.00065606,0.00196060,0.00013975,0.0507
 6844,-0.12687649,0.03449446,0.02473035,-0.01489096,0.00705989,0.000432
 74,0.00086172,0.00119551,-0.17400250,0.34875771,0.00562641,0.00250187,
 0.00036374,0.00385325,-0.00182447,0.00402934,-0.00513761,-0.00411622,0
 .00659992,0.00056862,-0.00026313,0.00123884,-0.00849514,0.02534044,-0.
 07361571,-0.01780872,0.00878682,-0.01390684,-0.00034965,0.00146180,0.0
 0189772,0.12739277,-0.06581456,0.84265116,-0.00260947,0.00324496,-0.00
 193307,0.01205933,0.01132275,-0.00903567,-0.09500702,-0.07590107,0.059
 61174,0.00013023,-0.00107692,0.00060074,-0.00149568,-0.02056291,0.0144
 3291,-0.00624286,-0.00109000,0.00139606,0.00094358,0.00035931,-0.00025
 579,0.00086308,-0.00072275,0.00083123,0.09000485,0.00185474,-0.0013128
 9,0.00338169,-0.01016311,-0.00653444,0.00501240,-0.07878411,-0.2118700
 6,0.13709691,0.00012985,-0.00031879,-0.00133501,0.00224670,0.00039227,
 -0.00055625,0.00046621,0.00152068,0.00273317,-0.00057255,0.00029505,0.
 00068552,0.00012649,-0.00140736,-0.00095202,0.08472316,0.21782380,-0.0
 0204071,0.00342851,0.00134926,0.00661591,0.00476032,-0.00383230,0.0609
 2283,0.13614320,-0.12891146,-0.00032637,-0.00131020,-0.00126612,-0.001
 08921,0.00063500,-0.00034405,0.00118333,0.00209841,0.00394727,0.000515
 02,0.00053842,0.00054959,-0.00038478,-0.00106046,-0.00259304,-0.065569
 16,-0.14573961,0.13018460,-0.00172526,0.00362125,-0.00203654,0.0001237
 3,0.00114886,-0.00070978,0.00225846,-0.00070028,0.00029097,-0.00025453
 ,0.00018964,-0.00004348,0.00245126,0.01752891,-0.03611009,-0.00398261,
 -0.00065441,-0.00038871,-0.00063793,0.00040387,0.00038159,-0.12858605,
 0.03742500,-0.14302650,0.00014387,-0.00024797,-0.00018960,0.10672323,0
 .00529629,-0.00212214,0.00069670,0.00063982,-0.00360268,0.00119295,-0.
 00345534,0.00012818,0.00208316,0.00023641,-0.00055884,-0.00013791,0.02
 104188,0.00715903,0.02666149,-0.00209090,0.00286234,-0.00038591,0.0001
 5793,-0.00035513,-0.00052835,0.03182587,-0.09483462,0.08492597,0.00022
 418,0.00056130,0.00025936,-0.05449710,0.07455186,-0.00382842,0.0022826
 6,-0.00149630,-0.00117481,0.00385410,-0.00096326,0.00665161,-0.0013945
 1,-0.00221199,-0.00032344,0.00058577,0.00008388,-0.02462639,0.01689229
 ,-0.02831688,-0.00114073,-0.00158389,0.00381885,-0.00052988,0.00002037
 ,-0.00002070,-0.14885051,0.09296327,-0.59497754,-0.00069147,-0.0008223
 9,-0.00006924,0.15312354,-0.07434579,0.73551252,-0.00523977,0.00234435
 ,-0.00147535,-0.00031562,0.00341843,-0.00300869,0.00449015,-0.00013739
 ,-0.00095556,-0.00031516,0.00013685,-0.00038139,-0.01637077,0.02743621
 ,0.01547604,0.00119489,-0.00016084,0.00409204,-0.00038011,-0.00047914,
 -0.00064724,-0.13212310,0.07715229,0.02385507,0.00000282,0.00017601,0.
 00065068,0.02246128,-0.00416672,0.01748842,0.20297402,0.00341018,-0.00
 096898,0.00070267,0.00203701,-0.00120694,0.00112821,-0.00154072,-0.003
 91673,0.00206221,0.00029151,-0.00036865,0.00055703,0.02477532,-0.00254
 141,-0.02031750,-0.00282140,0.00128402,-0.00067829,0.00010179,0.000021
 36,0.00009937,0.08886345,-0.12539715,-0.02610056,-0.00000118,0.0000278
 7,-0.00038367,-0.00701953,0.01379238,-0.03596048,-0.12389388,0.1844920
 1,0.00267036,-0.00137057,0.00099511,-0.00014178,-0.00168929,0.00086152
 ,-0.00326608,0.00081966,0.00069198,0.00011820,-0.00021915,-0.00002645,
 0.00513496,-0.00535155,0.00411632,-0.00081399,-0.00042756,-0.00211409,
 0.00015596,0.00011023,0.00013572,0.05501494,-0.05687565,-0.13115630,-0
 .00004469,-0.00003519,-0.00008712,0.02463492,-0.03908478,-0.11386821,-
 0.01781140,0.07764885,0.49955090,-0.00008210,-0.00000632,-0.00025117,-
 0.00022500,-0.00011384,0.00000267,0.00034446,0.00023083,-0.00011124,-0
 .00001549,0.00003449,-0.00000140,-0.00225453,0.00224544,0.00306702,0.0
 0008928,0.00068635,0.00057743,0.00002793,-0.00002085,-0.00002591,0.006
 10187,-0.01165593,0.01072658,-0.00001072,-0.00003394,0.00002977,0.0020
 1845,0.00490387,0.00683531,-0.08412918,0.01710891,-0.04146835,0.588706
 33,0.00027852,0.00010762,0.00036114,-0.00011140,-0.00013642,0.00043036
 ,-0.00101551,0.00027357,-0.00028523,-0.00000884,-0.00002722,-0.0000521
 9,0.00172830,-0.00298680,-0.00244964,0.00025935,-0.00137409,-0.0019038
 4,0.00001520,0.00000225,-0.00000889,-0.01134010,-0.00377263,-0.0204944
 2,-0.00000433,-0.00000896,0.00001797,0.00481167,0.00280020,-0.00291282
 ,0.01844923,-0.06999637,0.02104616,-0.01024793,0.60451678,-0.00244260,
 0.00112718,-0.00045152,-0.00021384,0.00140098,-0.00081395,0.00099117,-
 0.00015402,-0.00114476,-0.00012239,0.00014615,-0.00013908,-0.00191914,
 -0.00006195,0.00081610,0.00117914,-0.00144557,0.00017357,-0.00011595,-
 0.00012888,-0.00016872,0.00768269,-0.01505565,-0.04783646,0.00003086,0
 .00005912,0.00021138,0.00132984,-0.00017600,0.01213558,-0.02834771,0.0
 0669784,-0.17146778,-0.04536140,0.01219678,0.42499407,-0.00021325,-0.0
 0003251,-0.00016561,-0.00002221,0.00013311,-0.00021418,0.00060487,-0.0
 0001381,0.00021092,-0.00001587,0.00001629,0.00000300,-0.00030310,0.000
 81442,0.00042167,0.00026965,-0.00022839,0.00062278,-0.00001739,0.00002
 795,0.00003626,-0.00108554,-0.00012166,-0.00026897,-0.00000650,-0.0000
 1541,-0.00000498,0.00034102,0.00015139,-0.00101934,0.00456605,-0.00854
 752,-0.00768120,-0.09444247,0.09180344,0.04632483,0.09281170,-0.000163
 47,0.00000741,-0.00003061,0.00014984,0.00001306,0.00002323,-0.00002042
 ,0.00003728,-0.00004562,0.00002078,0.00000627,0.00000464,-0.00021945,-
 0.00037732,0.00023981,0.00004112,-0.00000827,-0.00032167,0.00001152,-0
 .00001093,-0.00001289,-0.00096045,0.00115547,0.00276493,0.00001272,0.0
 0000861,-0.00001052,-0.00007944,0.00000528,-0.00032774,-0.00161792,0.0
 0565000,0.00064664,0.09019400,-0.24188904,-0.09234607,-0.09791371,0.25
 214922,0.00037042,-0.00017869,0.00010406,-0.00000075,-0.00016348,0.000
 05242,-0.00010368,-0.00004226,0.00021822,0.00001264,-0.00003621,0.0000
 0885,0.00030903,0.00034174,-0.00014319,-0.00009980,0.00016517,0.000163
 07,0.00001722,0.00000762,0.00001635,-0.00552607,0.00226530,0.00034300,
 -0.00001275,-0.00000092,-0.00000835,0.00080434,-0.00045556,-0.00386469
 ,0.01463186,-0.03048759,-0.03262484,0.03951414,-0.08157032,-0.08345695
 ,-0.04421115,0.09823341,0.10843694,-0.00030016,0.00004436,-0.00008072,
 0.00020271,-0.00001900,0.00003329,-0.00003205,0.00010774,0.00008483,0.
 00002099,0.00000262,0.00000767,0.00008742,-0.00051900,0.00032712,-0.00
 027564,-0.00014226,-0.00034982,0.00001916,-0.00000780,-0.00000169,-0.0
 0030642,0.00081419,0.00136453,0.00002130,0.00000779,-0.00003181,-0.000
 23953,-0.00031357,-0.00068680,0.00646684,0.00807503,-0.00659447,-0.102
 03706,-0.09558203,0.04583168,0.00686560,0.01153731,-0.00577954,0.10029
 828,0.00012116,-0.00000299,0.00001346,-0.00009177,-0.00008423,0.000051
 50,-0.00006731,0.00004813,-0.00001254,-0.00002003,0.00000808,0.0000002
 0,-0.00016292,0.00004543,-0.00004500,-0.00026312,-0.00064313,-0.000232
 92,0.00000375,0.00000012,-0.00000051,0.00129336,-0.00024396,-0.0017385
 4,-0.00000686,-0.00000799,0.00000564,-0.00021755,-0.00010546,0.0004590
 6,0.00208674,0.00485920,0.00407411,-0.09519983,-0.23539581,0.08524549,
 -0.01165449,-0.01854744,0.00881518,0.10161230,0.24948620,0.00073665,-0
 .00023114,0.00018520,-0.00012211,-0.00036336,0.00021861,-0.00040882,0.
 00001258,0.00026693,-0.00000393,-0.00005047,0.00000703,0.00069656,0.00
 010505,-0.00069021,-0.00049182,-0.00003928,-0.00010013,0.00002448,0.00
 001479,0.00001535,-0.00264421,0.00780921,0.00491624,-0.00004008,-0.000
 00416,-0.00000461,-0.00055580,-0.00207882,-0.00355664,0.01195302,0.024
 11548,-0.03402598,0.04171107,0.07627617,-0.08034496,-0.00613752,-0.009
 84145,0.00739716,-0.04557243,-0.09305122,0.10164419,0.00025686,-0.0002
 2338,-0.00001701,-0.00011826,-0.00006452,-0.00021962,-0.00005612,0.000
 07535,0.00046470,0.00001151,-0.00001433,-0.00000116,0.00058298,0.00067
 287,0.00074991,-0.00006381,0.00018514,0.00093398,-0.00002361,0.0000348
 3,0.00005064,-0.00123093,0.00276080,0.00298236,0.00001197,-0.00002550,
 -0.00006654,0.00026516,-0.00035780,-0.00080095,-0.00260376,-0.00009234
 ,-0.01032144,-0.31447175,0.00055186,-0.02498039,-0.00893075,-0.0008803
 3,0.00005779,-0.01070169,0.00167071,-0.00010109,0.33735507,-0.00014219
 ,-0.00007884,-0.00009249,-0.00002745,0.00015214,-0.00013023,0.00036327
 ,-0.00027715,0.00004793,-0.00003499,0.00002189,0.00000297,-0.00015147,
 0.00018717,-0.00092821,0.00055055,-0.00074346,0.00006969,-0.00001323,0
 .00003407,0.00003319,-0.00093755,0.00062980,-0.00065117,-0.00002322,0.
 00001816,0.00007394,0.00000207,-0.00014714,-0.00044782,0.00328952,0.00
 017497,0.00151669,0.00151988,-0.05062646,0.00124625,0.02603310,0.00192
 570,0.00321730,-0.02615334,0.00275763,-0.00269660,-0.00382812,0.046542
 55,-0.00014365,0.00004301,-0.00019826,0.00017276,-0.00002460,-0.000005
 68,0.00063835,-0.00004080,0.00008744,-0.00002268,0.00001260,0.00000983
 ,-0.00009362,-0.00050154,-0.00078044,0.00038165,-0.00036117,-0.0001056
 0,0.00001732,0.00000718,0.00001698,-0.00530270,0.00319462,0.00561204,-
 0.00002398,-0.00000626,0.,0.00100108,-0.00007349,-0.00255415,-0.036403
 34,-0.00087248,-0.02180298,-0.01526400,0.00013498,-0.05028505,0.012324
 73,0.00152614,0.00303901,0.01141544,-0.00187831,0.00346499,0.03140864,
 -0.00103827,0.06316806,-0.04722390,-0.00191144,0.00182542,0.00728452,0
 .01430709,-0.01060681,0.01925883,0.00408211,-0.00616861,0.00153145,0.0
 0054628,-0.00033431,-0.00072520,-0.02448843,0.01926633,-0.07557354,0.0
 1184209,-0.00550738,0.00041128,-0.00077840,0.00041468,0.01827506,0.000
 56094,-0.00300234,0.00206580,0.00079247,-0.00081733,-0.00537022,0.0018
 3220,-0.00200740,-0.00681826,-0.00094071,0.00148195,0.00100934,0.00055
 105,-0.00038980,-0.00089213,-0.00042781,0.00016006,0.00068575,0.002063
 14,0.00272252,-0.00067483,-0.00119982,-0.00032218,0.56010857,-0.011680
 56,0.01468477,-0.01290166,0.01135148,0.00448258,-0.00316420,0.00895189
 ,-0.00192222,0.00162412,0.00151793,0.00172125,-0.00002864,-0.01878572,
 -0.01973372,0.00951781,0.01170214,-0.07891368,0.01824742,0.00195993,-0
 .00265111,0.00060745,0.00253459,-0.00771435,0.00618401,0.00050740,0.00
 135720,0.00083287,-0.00232517,0.00238822,-0.00412085,-0.00024829,0.001
 35738,0.00002188,-0.00090256,-0.00140237,0.00011808,-0.00008057,0.0011
 4258,-0.00028259,0.00109261,-0.00229086,-0.00247439,-0.00013920,-0.000
 36140,-0.00016432,-0.17856039,0.57578461,0.01070517,-0.01173334,0.0003
 3579,-0.00639672,-0.00328998,0.00526987,-0.00718877,0.00353361,-0.0006
 4837,-0.00063217,0.00065220,0.00201456,0.01541396,0.00945684,-0.015277
 37,-0.01249245,0.01325800,-0.06339025,-0.00177256,0.00073909,-0.002321
 84,-0.00060753,0.00522473,-0.00541491,0.00016656,0.00096490,0.00173695
 ,0.00099247,-0.00109169,0.00201521,0.00009824,-0.00229838,-0.00127048,
 0.00035191,-0.00073444,0.00108203,-0.00006364,-0.00051437,0.00002976,0
 .00018549,-0.00072267,0.00096921,-0.00019145,0.00007121,0.00009244,0.1
 7727070,-0.28790035,0.47599785,-0.00008849,-0.00123308,0.00085249,0.00
 082526,-0.00202477,0.00105084,-0.00228192,-0.00288802,0.00257244,-0.00
 024557,-0.00001313,0.00001464,-0.00316116,0.00162977,-0.00139199,-0.00
 428132,-0.03794484,0.02734496,0.00090719,-0.00258184,0.00170069,-0.004
 72269,-0.00041289,0.00059101,-0.00045786,-0.00030617,0.00029016,0.0013
 4179,-0.00026401,0.00047496,0.00164513,0.00042189,-0.00025850,-0.00026
 667,-0.00014546,-0.00007375,0.00014955,0.00007942,-0.00002887,-0.00011
 115,-0.00030094,-0.00044457,0.00008726,0.00018739,0.00010488,-0.098959
 54,0.04231674,-0.03655100,0.11782911,0.01046532,-0.00230872,0.00178774
 ,-0.00310925,-0.00322728,0.00273518,-0.00498243,-0.00224018,0.00181510
 ,-0.00055057,-0.00024633,0.00002767,-0.00485998,0.00823309,-0.00388979
 ,-0.02905462,-0.04452862,0.04455283,-0.00193633,0.00060017,-0.00054592
 ,-0.00126479,0.00469995,-0.00307274,-0.00101383,-0.00046150,-0.0001457
 6,0.00099166,-0.00152394,0.00218367,0.00016212,-0.00187766,-0.00059038
 ,0.00024860,0.00033400,0.00062002,0.00005742,-0.00036392,0.00000209,-0
 .00011283,0.00059496,0.00063792,-0.00001532,0.00013739,0.00007164,0.04
 171832,-0.33801383,0.20502564,-0.05198348,0.41076334,-0.00782271,0.002
 15888,-0.00032991,0.00213535,0.00265885,-0.00169647,0.00361573,0.00140
 324,-0.00149606,0.00037723,-0.00001559,-0.00021969,0.00320296,-0.00319
 872,0.00693400,0.02105018,0.04387706,-0.01486438,0.00121239,-0.0007243
 6,0.00004787,0.00050340,-0.00370381,0.00327528,0.00061240,-0.00028296,
 -0.00073540,-0.00076817,0.00099196,-0.00184976,0.00031593,0.00195242,0
 .00073305,-0.00029854,0.00011174,-0.00074263,-0.00000249,0.00036697,-0
 .00002791,0.00001165,-0.00029727,-0.00076328,0.00006958,-0.00007883,-0
 .00005306,-0.03601947,0.20530406,-0.24853271,0.05189985,-0.30416049,0.
 27842248,0.00831138,-0.01106318,0.00489542,-0.00708220,-0.00345581,0.0
 0321026,-0.00658036,0.00016000,0.00047534,-0.00099017,-0.00055232,0.00
 092743,0.00284798,0.00804266,-0.00707237,-0.09640477,0.00271344,-0.012
 85753,0.00050753,0.00024876,-0.00016016,-0.00912533,0.00227968,0.00029
 712,-0.00041674,-0.00037465,0.00031277,0.00266786,-0.00116440,0.001106
 30,0.00449455,-0.00022782,-0.00080941,-0.00036270,0.00000699,0.0005967
 8,0.00032077,0.00023627,-0.00011489,-0.00066435,-0.00086633,-0.0013219
 3,0.00030470,0.00056559,0.00011128,-0.37439299,0.13078776,-0.13928822,
 -0.00820892,0.04523999,-0.04009530,0.48477377,-0.00212292,0.00010578,0
 .00182160,-0.00143806,0.00166285,-0.00126363,0.00194315,0.00046820,-0.
 00099938,-0.00021862,-0.00015028,-0.00022211,-0.00185844,-0.00218699,0
 .00098347,-0.00840465,0.01732862,0.00104660,-0.00072687,0.00046364,-0.
 00017969,0.00442385,0.00410031,-0.00693801,0.00000859,-0.00008294,-0.0
 0014342,-0.00038148,-0.00099883,0.00267509,-0.00394757,-0.00538532,-0.
 00024010,0.00100883,-0.00041823,0.00051025,-0.00042905,-0.00090393,0.0
 0016980,-0.00044410,-0.00047788,0.00185970,-0.00031072,-0.00034700,-0.
 00002890,0.13001131,-0.14991504,0.06935899,0.05546340,-0.03057092,0.05
 363684,-0.17257664,0.16730796,0.00149149,0.00067331,0.00346142,0.00026
 544,-0.00122564,0.00045667,-0.00166094,-0.00015651,0.00119170,-0.00007
 624,-0.00058476,-0.00048259,0.00219397,0.00213107,0.00002754,-0.005254
 26,0.00293269,0.01380113,0.00066273,-0.00023889,0.00027492,-0.00256703
 ,-0.00507209,-0.00142648,-0.00007584,-0.00019894,-0.00012739,0.0012699
 1,0.00154671,0.00018332,0.00046937,0.00213485,0.00135964,-0.00003388,-
 0.00016350,-0.00256087,-0.00017511,-0.00035482,0.00031710,-0.00016443,
 -0.00068568,0.00040090,-0.00001797,-0.00021556,0.00029444,-0.13796606,
 0.06857929,-0.15268773,-0.04814824,0.05294558,-0.01810140,0.18978710,-
 0.12204710,0.15361769\\-0.00001598,0.00000111,0.00000523,0.00000410,0.
 00000603,-0.00000875,-0.00000035,-0.00001080,0.00000209,0.00000424,-0.
 00000238,-0.00000789,-0.00000836,0.00000100,0.00001196,0.00000490,-0.0
 0000947,-0.00000018,0.00000474,-0.00001257,0.00002284,-0.00000427,0.00
 000469,0.00001058,0.00000831,0.00001433,-0.00003011,-0.00000539,-0.000
 00321,0.00001759,0.00000900,0.00000562,0.00000224,0.00000200,0.0000025
 9,-0.00002453,-0.00001053,0.00002638,0.00000625,-0.00001448,-0.0000206
 4,0.00001667,0.00002807,-0.00000055,-0.00000886,-0.00009370,0.00005836
 ,-0.00020251,0.00002132,-0.00004975,0.00010512,0.00006638,-0.00001073,
 0.00008226\\\@
 The archive entry for this job was punched.


 TERENCE, THIS IS STUPID STUFF:
 YOU EAT YOUR VICTUALS FAST ENOUGH;
 THERE CAN'T BE MUCH AMISS, 'TIS CLEAR
 TO SEE THE RATE YOU DRINK YOUR BEER.
 BUT OH, GOOD LORD, THE VERSE YOU MAKE,
 IT GIVES A CHAP THE BELLY-ACHE.
 THE COW, THE OLD COW, SHE IS DEAD;
 IT SLEEPS WELL, THE HORNED HEAD:
 WE POOR LADS, 'TIS OUR TURN NOW
 TO HEAR SUCH TUNES AS KILLED THE COW.
 PRETTY FRIENDSHIP 'TIS TO RHYME
 YOUR FRIENDS TO DEATH BEFORE THEIR TIME.
 MOPING, MELANCHOLY MAD:
 COME PIPE A TUNE TO DANCE TO, LAD.

     -- A. E. HOUSMAN
 Job cpu time:       0 days  0 hours 53 minutes 52.8 seconds.
 Elapsed time:       0 days  0 hours  4 minutes 38.2 seconds.
 File lengths (MBytes):  RWF=    242 Int=      0 D2E=      0 Chk=     25 Scr=      1
 Normal termination of Gaussian 16 at Thu Dec 14 16:20:47 2023.
