 Entering Gaussian System, Link 0=g16
 Input=IMIDMeOH-isolated-freq.gjf
 Output=IMIDMeOH-isolated-freq.log
 Initial command:
 /software/commercial/gaussian/g16/AVX2/g16/l1.exe "/scratch1/svicchi/G09-1868857.pbs02/Gau-401516.inp" -scrdir="/scratch1/svicchi/G09-1868857.pbs02/"
 Entering Link 1 = /software/commercial/gaussian/g16/AVX2/g16/l1.exe PID=    401517.
  
 Copyright (c) 1988-2021, Gaussian, Inc.  All Rights Reserved.
  
 This is part of the Gaussian(R) 16 program.  It is based on
 the Gaussian(R) 09 system (copyright 2009, Gaussian, Inc.),
 the Gaussian(R) 03 system (copyright 2003, Gaussian, Inc.),
 the Gaussian(R) 98 system (copyright 1998, Gaussian, Inc.),
 the Gaussian(R) 94 system (copyright 1995, Gaussian, Inc.),
 the Gaussian 92(TM) system (copyright 1992, Gaussian, Inc.),
 the Gaussian 90(TM) system (copyright 1990, Gaussian, Inc.),
 the Gaussian 88(TM) system (copyright 1988, Gaussian, Inc.),
 the Gaussian 86(TM) system (copyright 1986, Carnegie Mellon
 University), and the Gaussian 82(TM) system (copyright 1983,
 Carnegie Mellon University). Gaussian is a federally registered
 trademark of Gaussian, Inc.
  
 This software contains proprietary and confidential information,
 including trade secrets, belonging to Gaussian, Inc.
  
 This software is provided under written license and may be
 used, copied, transmitted, or stored only in accord with that
 written license.
  
 The following legend is applicable only to US Government
 contracts under FAR:
  
                    RESTRICTED RIGHTS LEGEND
  
 Use, reproduction and disclosure by the US Government is
 subject to restrictions as set forth in subparagraphs (a)
 and (c) of the Commercial Computer Software - Restricted
 Rights clause in FAR 52.227-19.
  
 Gaussian, Inc.
 340 Quinnipiac St., Bldg. 40, Wallingford CT 06492
  
  
 ---------------------------------------------------------------
 Warning -- This program may not be used in any manner that
 competes with the business of Gaussian, Inc. or will provide
 assistance to any competitor of Gaussian, Inc.  The licensee
 of this program is prohibited from giving any competitor of
 Gaussian, Inc. access to this program.  By using this program,
 the user acknowledges that Gaussian, Inc. is engaged in the
 business of creating and licensing software in the field of
 computational chemistry and represents and warrants to the
 licensee that it is not a competitor of Gaussian, Inc. and that
 it will not use this program in any manner prohibited above.
 ---------------------------------------------------------------
  

 Cite this work as:
 Gaussian 16, Revision C.02,
 M. J. Frisch, G. W. Trucks, H. B. Schlegel, G. E. Scuseria, 
 M. A. Robb, J. R. Cheeseman, G. Scalmani, V. Barone, 
 G. A. Petersson, H. Nakatsuji, X. Li, M. Caricato, A. V. Marenich, 
 J. Bloino, B. G. Janesko, R. Gomperts, B. Mennucci, H. P. Hratchian, 
 J. V. Ortiz, A. F. Izmaylov, J. L. Sonnenberg, D. Williams-Young, 
 F. Ding, F. Lipparini, F. Egidi, J. Goings, B. Peng, A. Petrone, 
 T. Henderson, D. Ranasinghe, V. G. Zakrzewski, J. Gao, N. Rega, 
 G. Zheng, W. Liang, M. Hada, M. Ehara, K. Toyota, R. Fukuda, 
 J. Hasegawa, M. Ishida, T. Nakajima, Y. Honda, O. Kitao, H. Nakai, 
 T. Vreven, K. Throssell, J. A. Montgomery, Jr., J. E. Peralta, 
 F. Ogliaro, M. J. Bearpark, J. J. Heyd, E. N. Brothers, K. N. Kudin, 
 V. N. Staroverov, T. A. Keith, R. Kobayashi, J. Normand, 
 K. Raghavachari, A. P. Rendell, J. C. Burant, S. S. Iyengar, 
 J. Tomasi, M. Cossi, J. M. Millam, M. Klene, C. Adamo, R. Cammi, 
 J. W. Ochterski, R. L. Martin, K. Morokuma, O. Farkas, 
 J. B. Foresman, and D. J. Fox, Gaussian, Inc., Wallingford CT, 2019.
 
 ******************************************
 Gaussian 16:  ES64L-G16RevC.02  7-Dec-2021
                11-Jan-2024 
 ******************************************
 %NProcShared=12
 Will use up to   12 processors via shared memory.
 %mem=110gb
 %chk=/scratch1/svicchi/G09-1868857.pbs02/02-freq/IMIDMeOH-isolated-freq.chk
 ----------------------------------------------------------------------
 #p freq=raman scale=0.967 guess=read geom=allcheck b3lyp/6-311+G(d,p) 
 int=grid=ultrafine EmpiricalDispersion=GD3BJ SCRF=(Solvent=ethanol) sc
 f=(xqc,intrep,maxconventionalcycle=350) nosymm
 ----------------------------------------------------------------------
 1/10=4,29=7,30=1,38=1,114=967000/1,3;
 2/12=2,15=1,40=1/2;
 3/5=4,6=6,7=111,11=2,14=-4,25=1,30=1,70=2201,71=2,72=4,74=-5,75=-5,116=-2,124=41,140=1/1,2,3;
 4/5=1/1;
 5/5=2,8=3,13=1,17=20,38=6,53=4,85=350,98=1/2,8;
 8/6=4,10=90,11=11/1;
 10/13=10,15=4,31=1/2;
 11/6=3,8=1,9=11,15=111,16=1,31=1/1,2,10;
 10/6=1,31=1/2;
 6/7=2,8=2,9=2,10=2,28=1/1;
 7/8=1,10=1,25=1,30=1/1,2,3,16;
 1/10=4,30=1/3;
 99//99;
 Leave Link    1 at Thu Jan 11 14:11:00 2024, MaxMem= 14763950080 cpu:               0.1 elap:               0.1
 (Enter /software/commercial/gaussian/g16/AVX2/g16/l101.exe)
 Structure from the checkpoint file:  "/scratch1/svicchi/G09-1868857.pbs02/02-freq/IMIDMeOH-isolated-freq.chk"
 -----------------
 IMIDMeOH-isolated
 -----------------
 Charge = -1 Multiplicity = 1
 No Z-Matrix found in chk file; cartesian coordinates used.
  C                                                -2.326801292071      3.417919666041      0.398841798087
  N                                                -1.337312506842      2.866074218883     -0.341361297046
  C                                                -1.873176320461      1.678212372511     -0.766063079833
  C                                                -3.163628948315      1.559813609362     -0.262059838901
  H                                                -1.314978631607      0.987196662033     -1.384932106901
  N                                                -3.452456817216      2.671767959394      0.485336532775
  H                                                -3.874090169838      0.752187021981     -0.384807494060
  C                                                -2.196996681565      4.753274158316      1.041453268256
  H                                                -2.808082676187      4.790303394303      1.949085282714
  H                                                -1.151245977752      4.935896851011      1.309398219673
  O                                                -2.640993762308      5.796120100238      0.128348013954
  H                                                -2.538216215838      6.642123985925      0.579400701281
 Recover connectivity data from disk.
 ITRead=  0  0  0  0  0  0  0  0  0  0  0  0
 MicOpt= -1 -1 -1 -1 -1 -1 -1 -1 -1 -1 -1 -1
 NAtoms=     12 NQM=       12 NQMF=       0 NMMI=      0 NMMIF=      0
                NMic=       0 NMicF=      0.
                    Isotopes and Nuclear Properties:
 (Nuclear quadrupole moments (NQMom) in fm**2, nuclear magnetic moments (NMagM)
  in nuclear magnetons)

  Atom         1           2           3           4           5           6           7           8           9          10
 IAtWgt=          12          14          12          12           1          14           1          12           1           1
 AtmWgt=  12.0000000  14.0030740  12.0000000  12.0000000   1.0078250  14.0030740   1.0078250  12.0000000   1.0078250   1.0078250
 NucSpn=           0           2           0           0           1           2           1           0           1           1
 AtZEff=   3.6000000   4.5500000   3.6000000   3.6000000   1.0000000   4.5500000   1.0000000   3.6000000   1.0000000   1.0000000
 NQMom=    0.0000000   2.0440000   0.0000000   0.0000000   0.0000000   2.0440000   0.0000000   0.0000000   0.0000000   0.0000000
 NMagM=    0.0000000   0.4037610   0.0000000   0.0000000   2.7928460   0.4037610   2.7928460   0.0000000   2.7928460   2.7928460
 AtZNuc=   6.0000000   7.0000000   6.0000000   6.0000000   1.0000000   7.0000000   1.0000000   6.0000000   1.0000000   1.0000000

  Atom        11          12
 IAtWgt=          16           1
 AtmWgt=  15.9949146   1.0078250
 NucSpn=           0           1
 AtZEff=   5.6000000   1.0000000
 NQMom=    0.0000000   0.0000000
 NMagM=    0.0000000   2.7928460
 AtZNuc=   8.0000000   1.0000000
 Leave Link  101 at Thu Jan 11 14:11:01 2024, MaxMem= 14763950080 cpu:               0.1 elap:               0.1
 (Enter /software/commercial/gaussian/g16/AVX2/g16/l103.exe)

 GradGradGradGradGradGradGradGradGradGradGradGradGradGradGradGradGradGrad
 Berny optimization.
 Initialization pass.
 Trust Radius=3.00D-01 FncErr=1.00D-07 GrdErr=1.00D-07 EigMax=2.50D+02 EigMin=1.00D-04
 Number of steps in this run=      2 maximum allowed number of steps=      2.
 GradGradGradGradGradGradGradGradGradGradGradGradGradGradGradGradGradGrad

 Leave Link  103 at Thu Jan 11 14:11:01 2024, MaxMem= 14763950080 cpu:               0.1 elap:               0.1
 (Enter /software/commercial/gaussian/g16/AVX2/g16/l202.exe)
                          Input orientation:                          
 ---------------------------------------------------------------------
 Center     Atomic      Atomic             Coordinates (Angstroms)
 Number     Number       Type             X           Y           Z
 ---------------------------------------------------------------------
      1          6           0       -2.326801    3.417920    0.398842
      2          7           0       -1.337313    2.866074   -0.341361
      3          6           0       -1.873176    1.678212   -0.766063
      4          6           0       -3.163629    1.559814   -0.262060
      5          1           0       -1.314979    0.987197   -1.384932
      6          7           0       -3.452457    2.671768    0.485337
      7          1           0       -3.874090    0.752187   -0.384807
      8          6           0       -2.196997    4.753274    1.041453
      9          1           0       -2.808083    4.790303    1.949085
     10          1           0       -1.151246    4.935897    1.309398
     11          8           0       -2.640994    5.796120    0.128348
     12          1           0       -2.538216    6.642124    0.579401
 ---------------------------------------------------------------------
                    Distance matrix (angstroms):
                    1          2          3          4          5
     1  C    0.000000
     2  N    1.353337   0.000000
     3  C    2.142279   1.370597   0.000000
     4  C    2.142342   2.246784   1.390434   0.000000
     5  H    3.180259   2.149353   1.082629   2.237463   0.000000
     6  N    1.353264   2.279259   2.246615   1.370571   3.302196
     7  H    3.180305   3.302370   2.237529   1.082628   2.757631
     8  C    1.487606   2.492540   3.581617   3.582138   4.566031
     9  H    2.125635   3.333462   4.234524   3.930857   5.273391
    10  H    2.124923   2.654015   3.929533   4.232860   4.783143
    11  O    2.414067   3.241200   4.283302   4.286241   5.212876
    12  H    3.236169   4.067988   5.185843   5.189323   6.110083
                    6          7          8          9         10
     6  N    0.000000
     7  H    2.149353   0.000000
     8  C    2.493615   4.566789   0.000000
     9  H    2.654425   4.784330   1.094803   0.000000
    10  H    3.331806   5.271398   1.094870   1.781995   0.000000
    11  O    3.247690   5.217769   1.455480   2.086785   2.086675
    12  H    4.075342   6.116013   1.974254   2.319074   2.316850
                   11         12
    11  O    0.000000
    12  H    0.964227   0.000000
 Symmetry turned off by external request.
 Stoichiometry    C4H5N2O(1-)
 Framework group  C1[X(C4H5N2O)]
 Deg. of freedom    30
 Full point group                 C1      NOp   1
 Rotational constants (GHZ):           7.2720338           1.9546172           1.7081028
 Leave Link  202 at Thu Jan 11 14:11:01 2024, MaxMem= 14763950080 cpu:               0.1 elap:               0.0
 (Enter /software/commercial/gaussian/g16/AVX2/g16/l301.exe)
 Standard basis: 6-311+G(d,p) (5D, 7F)
 Ernie: Thresh=  0.10000D-02 Tol=  0.10000D-05 Strict=F.
   184 basis functions,   292 primitive gaussians,   191 cartesian basis functions
    26 alpha electrons       26 beta electrons
       nuclear repulsion energy       279.2395626487 Hartrees.
 IExCor=  402 DFT=T Ex+Corr=B3LYP ExCW=0 ScaHFX=  0.200000
 ScaDFX=  0.800000  0.720000  1.000000  0.810000 ScalE2=  1.000000  1.000000
 IRadAn=      5 IRanWt=     -1 IRanGd=            0 ICorTp=0 IEmpDi=141
 NAtoms=   12 NActive=   12 NUniq=   12 SFac= 1.00D+00 NAtFMM=   60 NAOKFM=F Big=F
 Integral buffers will be    131072 words long.
 Raffenetti 2 integral format.
 Two-electron integral symmetry is turned off.
 R6Disp:  Grimme-D3(BJ) Dispersion energy=       -0.0163294555 Hartrees.
 Nuclear repulsion after empirical dispersion term =      279.2232331932 Hartrees.
 Force inversion solution in PCM.
 ------------------------------------------------------------------------------
 Polarizable Continuum Model (PCM)
 =================================
 Model                : PCM.
 Atomic radii         : UFF (Universal Force Field).
 Polarization charges : Total charges.
 Charge compensation  : None.
 Solution method      : Matrix inversion.
 Cavity type          : Scaled VdW (van der Waals Surface) (Alpha=1.100).
 Cavity algorithm     : GePol (No added spheres)
                        Default sphere list used, NSphG=   12.
                        Lebedev-Laikov grids with approx.  5.0 points / Ang**2.
                        Smoothing algorithm: York/Karplus (Gamma=1.0000).
                        Polarization charges: spherical gaussians, with
                                              point-specific exponents (IZeta= 3).
                        Self-potential: point-specific (ISelfS= 7).
                        Self-field    : sphere-specific E.n sum rule (ISelfD= 2).
 1st derivatives      : Analytical E(r).r(x)/FMM algorithm (CHGder, D1EAlg=3).
                        Cavity 1st derivative terms included.
 2nd derivatives      : Analytical E(r).r(xy)/FMM algorithm (CHGder, D2EAlg=3).
                        Cavity 2nd derivative terms included.
 Solvent              : Ethanol, Eps=  24.852000 Eps(inf)=   1.852593
 ------------------------------------------------------------------------------
 Spheres list:
 ISph  on   Nord     Re0    Alpha      Xe            Ye            Ze
    1   C      1    1.9255  1.100     -2.326801      3.417920      0.398842
    2   N      2    1.8300  1.100     -1.337313      2.866074     -0.341361
    3   C      3    1.9255  1.100     -1.873176      1.678212     -0.766063
    4   C      4    1.9255  1.100     -3.163629      1.559814     -0.262060
    5   H      5    1.4430  1.100     -1.314979      0.987197     -1.384932
    6   N      6    1.8300  1.100     -3.452457      2.671768      0.485337
    7   H      7    1.4430  1.100     -3.874090      0.752187     -0.384807
    8   C      8    1.9255  1.100     -2.196997      4.753274      1.041453
    9   H      9    1.4430  1.100     -2.808083      4.790303      1.949085
   10   H     10    1.4430  1.100     -1.151246      4.935897      1.309398
   11   O     11    1.7500  1.100     -2.640994      5.796120      0.128348
   12   H     12    1.4430  1.100     -2.538216      6.642124      0.579401
 ------------------------------------------------------------------------------
 GePol: Number of generator spheres                  =      12
 GePol: Total number of spheres                      =      12
 GePol: Number of exposed spheres                    =      12 (100.00%)
 GePol: Number of points                             =    1131
 GePol: Average weight of points                     =       0.14
 GePol: Minimum weight of points                     =   0.28D-08
 GePol: Maximum weight of points                     =    0.20577
 GePol: Number of points with low weight             =      57
 GePol: Fraction of low-weight points (<1% of avg)   =       5.04%
 GePol: Cavity surface area                          =    154.037 Ang**2
 GePol: Cavity volume                                =    142.854 Ang**3
 Leave Link  301 at Thu Jan 11 14:11:02 2024, MaxMem= 14763950080 cpu:               0.1 elap:               0.1
 (Enter /software/commercial/gaussian/g16/AVX2/g16/l302.exe)
 NPDir=0 NMtPBC=     1 NCelOv=     1 NCel=       1 NClECP=     1 NCelD=      1
         NCelK=      1 NCelE2=     1 NClLst=     1 CellRange=     0.0.
 One-electron integrals computed using PRISM.
 NBasis=   184 RedAO= T EigKep=  1.33D-05  NBF=   184
 NBsUse=   184 1.00D-06 EigRej= -1.00D+00 NBFU=   184
 Precomputing XC quadrature grid using
 IXCGrd= 4 IRadAn=           5 IRanWt=          -1 IRanGd=           0 AccXCQ= 0.00D+00.
 Generated NRdTot=       0 NPtTot=           0 NUsed=           0 NTot=          32
 NSgBfM=   191   191   191   191   191 MxSgAt=    12 MxSgA2=    12.
 Leave Link  302 at Thu Jan 11 14:11:02 2024, MaxMem= 14763950080 cpu:               1.1 elap:               0.2
 (Enter /software/commercial/gaussian/g16/AVX2/g16/l303.exe)
 DipDrv:  MaxL=1.
 Leave Link  303 at Thu Jan 11 14:11:02 2024, MaxMem= 14763950080 cpu:               0.1 elap:               0.1
 (Enter /software/commercial/gaussian/g16/AVX2/g16/l401.exe)
 Initial guess from the checkpoint file:  "/scratch1/svicchi/G09-1868857.pbs02/02-freq/IMIDMeOH-isolated-freq.chk"
 B after Tr=     0.000000    0.000000    0.000000
         Rot=    1.000000    0.000000    0.000000    0.000000 Ang=   0.00 deg.
 Guess basis will be translated and rotated to current coordinates.
 JPrj=2 DoOrth=T DoCkMO=T.
 Leave Link  401 at Thu Jan 11 14:11:03 2024, MaxMem= 14763950080 cpu:               0.4 elap:               0.2
 (Enter /software/commercial/gaussian/g16/AVX2/g16/l502.exe)
 Keep R1 ints in memory in canonical form, NReq=157065185.
 FoFCou: FMM=F IPFlag=           0 FMFlag=           0 FMFlg1=           0
         NFxFlg=           0 DoJE=F BraDBF=F KetDBF=F FulRan=T
         wScrn=  0.000000 ICntrl=       600 IOpCl=  0 I1Cent=           0 NGrid=           0
         NMat0=    1 NMatS0=  17020 NMatT0=    0 NMatD0=    1 NMtDS0=    0 NMtDT0=    0
 Symmetry not used in FoFCou.
 Two-electron integral symmetry not used.
 Closed shell SCF:
 Using DIIS extrapolation, IDIIS=  1040.
 NGot= 14763950080 LenX= 14619024347 LenY= 14618987425
 Requested convergence on RMS density matrix=1.00D-08 within 350 cycles.
 Requested convergence on MAX density matrix=1.00D-06.
 Requested convergence on             energy=1.00D-06.
 No special actions if energy rises.

 Cycle   1  Pass 1  IDiag  1:
 Inv3:  Mode=1 IEnd=     3837483.
 Iteration    1 A*A^-1 deviation from unit magnitude is 3.00D-15 for     15.
 Iteration    1 A*A^-1 deviation from orthogonality  is 1.38D-15 for    845    175.
 Iteration    1 A^-1*A deviation from unit magnitude is 3.55D-15 for    760.
 Iteration    1 A^-1*A deviation from orthogonality  is 1.67D-15 for    922    304.
 E= -340.394264628252    
 DIIS: error= 2.37D-08 at cycle   1 NSaved=   1.
 NSaved= 1 IEnMin= 1 EnMin= -340.394264628252     IErMin= 1 ErrMin= 2.37D-08
 ErrMax= 2.37D-08  0.00D+00 EMaxC= 1.00D-01 BMatC= 1.14D-13 BMatP= 1.14D-13
 IDIUse=1 WtCom= 1.00D+00 WtEn= 0.00D+00
 Coeff-Com:  0.100D+01
 Coeff:      0.100D+01
 Gap=     0.198 Goal=   None    Shift=    0.000
 RMSDP=4.07D-09 MaxDP=1.58D-07              OVMax= 2.91D-07

 Error on total polarization charges =  0.02240
 SCF Done:  E(RB3LYP) =  -340.394264628     A.U. after    1 cycles
            NFock=  1  Conv=0.41D-08     -V/T= 2.0041
 KE= 3.389919825373D+02 PE=-1.364726376775D+03 EE= 4.061168964166D+02
 Leave Link  502 at Thu Jan 11 14:11:05 2024, MaxMem= 14763950080 cpu:              20.9 elap:               2.3
 (Enter /software/commercial/gaussian/g16/AVX2/g16/l508.exe)
 QCSCF skips out because SCF is already converged.
 Leave Link  508 at Thu Jan 11 14:11:05 2024, MaxMem= 14763950080 cpu:               0.0 elap:               0.0
 (Enter /software/commercial/gaussian/g16/AVX2/g16/l801.exe)
 DoSCS=F DFT=T ScalE2(SS,OS)=  1.000000  1.000000
 Range of M.O.s used for correlation:     1   184
 NBasis=   184 NAE=    26 NBE=    26 NFC=     0 NFV=     0
 NROrb=    184 NOA=    26 NOB=    26 NVA=   158 NVB=   158

 **** Warning!!: The largest alpha MO coefficient is  0.81442518D+02

 Leave Link  801 at Thu Jan 11 14:11:06 2024, MaxMem= 14763950080 cpu:               0.1 elap:               0.1
 (Enter /software/commercial/gaussian/g16/AVX2/g16/l1002.exe)
 Minotr:  Closed shell wavefunction.
 NEqPCM:  Using equilibrium solvation (IEInf=0, Eps=  24.8520, EpsInf=   1.8526)
          Direct CPHF calculation.
          Differentiating once with respect to electric field.
                with respect to dipole field.
          Electric field/nuclear overlap derivatives assumed to be zero.
          Requested convergence is 1.0D-08 RMS, and 1.0D-07 maximum.
          Secondary convergence is 1.0D-12 RMS, and 1.0D-12 maximum.
          NewPWx=F KeepS1=T KeepF1=T KeepIn=T MapXYZ=F SortEE=F KeepMc=T.
         3682 words used for storage of precomputed grid.
 Keep R1 ints in memory in canonical form, NReq=157033125.
 FoFCou: FMM=F IPFlag=           0 FMFlag=           0 FMFlg1=           0
         NFxFlg=           0 DoJE=F BraDBF=F KetDBF=F FulRan=T
         wScrn=  0.000000 ICntrl=       600 IOpCl=  0 I1Cent=           0 NGrid=           0
         NMat0=    1 NMatS0=  17020 NMatT0=    0 NMatD0=    1 NMtDS0=    0 NMtDT0=    0
 Symmetry not used in FoFCou.
 Two-electron integral symmetry not used.
          MDV=   14763950080 using IRadAn=       1.
          Solving linear equations simultaneously, MaxMat=       0.
          There are     3 degrees of freedom in the 1st order CPHF.  IDoFFX=0 NUNeed=     3.
      3 vectors produced by pass  0 Test12= 1.37D-13 3.33D-08 XBig12= 8.44D+01 4.47D+00.
 AX will form     3 AO Fock derivatives at one time.
      3 vectors produced by pass  1 Test12= 1.37D-13 3.33D-08 XBig12= 4.20D+01 1.94D+00.
      3 vectors produced by pass  2 Test12= 1.37D-13 3.33D-08 XBig12= 5.16D+00 5.25D-01.
      3 vectors produced by pass  3 Test12= 1.37D-13 3.33D-08 XBig12= 1.74D+00 4.18D-01.
      3 vectors produced by pass  4 Test12= 1.37D-13 3.33D-08 XBig12= 2.03D-01 9.96D-02.
      3 vectors produced by pass  5 Test12= 1.37D-13 3.33D-08 XBig12= 1.20D-02 4.47D-02.
      3 vectors produced by pass  6 Test12= 1.37D-13 3.33D-08 XBig12= 2.10D-03 8.36D-03.
      3 vectors produced by pass  7 Test12= 1.37D-13 3.33D-08 XBig12= 9.79D-05 1.81D-03.
      3 vectors produced by pass  8 Test12= 1.37D-13 3.33D-08 XBig12= 2.49D-06 2.91D-04.
      3 vectors produced by pass  9 Test12= 1.37D-13 3.33D-08 XBig12= 6.68D-08 5.65D-05.
      3 vectors produced by pass 10 Test12= 1.37D-13 3.33D-08 XBig12= 2.10D-09 8.07D-06.
      3 vectors produced by pass 11 Test12= 1.37D-13 3.33D-08 XBig12= 4.42D-11 1.04D-06.
      3 vectors produced by pass 12 Test12= 1.37D-13 3.33D-08 XBig12= 7.63D-13 1.27D-07.
 InvSVY:  IOpt=1 It=  1 EMax= 5.33D-15
 Solved reduced A of dimension    39 with     3 vectors.
 End of Minotr F.D. properties file   721 does not exist.
 End of Minotr F.D. properties file   722 does not exist.
 End of Minotr F.D. properties file   788 does not exist.
 Leave Link 1002 at Thu Jan 11 14:11:17 2024, MaxMem= 14763950080 cpu:             130.2 elap:              11.4
 (Enter /software/commercial/gaussian/g16/AVX2/g16/l1101.exe)
 Using compressed storage, NAtomX=    12.
 Will process     13 centers per pass.
 R6Disp: Adding Grimme-D3(BJ) dispersion energy 1st derivatives to the gradient.
 Leave Link 1101 at Thu Jan 11 14:11:18 2024, MaxMem= 14763950080 cpu:               1.2 elap:               0.2
 (Enter /software/commercial/gaussian/g16/AVX2/g16/l1102.exe)
 Symmetrizing basis deriv contribution to polar:
 IMax=3 JMax=2 DiffMx= 0.00D+00
 Leave Link 1102 at Thu Jan 11 14:11:18 2024, MaxMem= 14763950080 cpu:               0.1 elap:               0.1
 (Enter /software/commercial/gaussian/g16/AVX2/g16/l1110.exe)
 Forming Gx(P) for the SCF density, NAtomX=    12.
 Integral derivatives from FoFJK, PRISM(SPDF).
 Do as many integral derivatives as possible in FoFJK.
 G2DrvN: MDV=   14763948708.
 G2DrvN: will do    13 centers at a time, making    1 passes.
 PxScal for G2LodP:  IOpCl= 0 ISclPx=1 IMOff=     1 NMtTot=     4 NTT=   17020 ScalPx= 3.89D+01
 Calling FoFCou, ICntrl=  3107 FMM=F I1Cent=   0 AccDes= 0.00D+00.
 FoFJK:  IHMeth= 1 ICntrl=    3107 DoSepK=F KAlg= 0 I1Cent=           0 FoldK=F
 IRaf=         0 NMat=       1 IRICut=       1 DoRegI=T DoRafI=F ISym2E= 0 IDoP0=0 IntGTp=1.
 FoFCou: FMM=F IPFlag=           0 FMFlag=      100000 FMFlg1=           0
         NFxFlg=           0 DoJE=F BraDBF=F KetDBF=F FulRan=T
         wScrn=  0.000000 ICntrl=      3107 IOpCl=  0 I1Cent=           0 NGrid=           0
         NMat0=    1 NMatS0=      1 NMatT0=    0 NMatD0=    4 NMtDS0=    3 NMtDT0=    0
 Symmetry not used in FoFCou.
 PxScal for G2LodP:  IOpCl= 0 ISclPx=0 IMOff=     1 NMtTot=     4 NTT=   17020 ScalPx= 1.00D+00
 NEqPCM:  Using equilibrium solvation (IEInf=0, Eps=  24.8520, EpsInf=   1.8526)
 G2PCM: DoFxE=T DoFxN=T DoGrad=T DoDP/DQ/DG/TGxP=TFFF NFrqRd=   0 IEInf=0 SqF1=F DoCFld=F IF1Alg=4.
 GePol: Maximum number of non-zero 1st derivatives   =     204
 End of G2Drv F.D. properties file   721 does not exist.
 End of G2Drv F.D. properties file   722 does not exist.
 End of G2Drv F.D. properties file   788 does not exist.
 Leave Link 1110 at Thu Jan 11 14:11:34 2024, MaxMem= 14763950080 cpu:             191.6 elap:              16.3
 (Enter /software/commercial/gaussian/g16/AVX2/g16/l1002.exe)
 Minotr:  Closed shell wavefunction.
          IDoAtm=111111111111
 NEqPCM:  Using equilibrium solvation (IEInf=0, Eps=  24.8520, EpsInf=   1.8526)
          Direct CPHF calculation.
          Differentiating once with respect to electric field.
                with respect to dipole field.
          Differentiating once with respect to nuclear coordinates.
          Requested convergence is 1.0D-08 RMS, and 1.0D-07 maximum.
          Secondary convergence is 1.0D-12 RMS, and 1.0D-12 maximum.
          NewPWx=T KeepS1=F KeepF1=F KeepIn=T MapXYZ=F SortEE=F KeepMc=T.
         3682 words used for storage of precomputed grid.
 Keep R1 ints in memory in canonical form, NReq=157035429.
 FoFCou: FMM=F IPFlag=           0 FMFlag=           0 FMFlg1=           0
         NFxFlg=           0 DoJE=F BraDBF=F KetDBF=F FulRan=T
         wScrn=  0.000000 ICntrl=       600 IOpCl=  0 I1Cent=           0 NGrid=           0
         NMat0=    1 NMatS0=  17020 NMatT0=    0 NMatD0=    1 NMtDS0=    0 NMtDT0=    0
 Symmetry not used in FoFCou.
 Two-electron integral symmetry not used.
          MDV=   14763950080 using IRadAn=       1.
          Solving linear equations simultaneously, MaxMat=       0.
          There are    39 degrees of freedom in the 1st order CPHF.  IDoFFX=5 NUNeed=    39.
 Will reuse    3 saved solutions.
     33 vectors produced by pass  0 Test12= 1.05D-14 2.56D-09 XBig12= 1.78D-01 1.44D-01.
 AX will form    33 AO Fock derivatives at one time.
     33 vectors produced by pass  1 Test12= 1.05D-14 2.56D-09 XBig12= 5.39D-02 8.02D-02.
     33 vectors produced by pass  2 Test12= 1.05D-14 2.56D-09 XBig12= 5.14D-04 5.54D-03.
     33 vectors produced by pass  3 Test12= 1.05D-14 2.56D-09 XBig12= 3.69D-06 5.05D-04.
     33 vectors produced by pass  4 Test12= 1.05D-14 2.56D-09 XBig12= 1.16D-08 1.90D-05.
     33 vectors produced by pass  5 Test12= 1.05D-14 2.56D-09 XBig12= 2.92D-11 7.73D-07.
     13 vectors produced by pass  6 Test12= 1.05D-14 2.56D-09 XBig12= 4.51D-14 3.27D-08.
 InvSVY:  IOpt=1 It=  1 EMax= 1.11D-15
 Solved reduced A of dimension   211 with    33 vectors.
 FullF1:  Do perturbations      1 to       3.
 Isotropic polarizability for W=    0.000000      100.37 Bohr**3.
 FullF1:  Do perturbations      1 to       6.
 End of Minotr F.D. properties file   721 does not exist.
 End of Minotr F.D. properties file   722 does not exist.
 End of Minotr F.D. properties file   788 does not exist.
 Leave Link 1002 at Thu Jan 11 14:11:50 2024, MaxMem= 14763950080 cpu:             168.3 elap:              14.9
 (Enter /software/commercial/gaussian/g16/AVX2/g16/l601.exe)
 Copying SCF densities to generalized density rwf, IOpCl= 0 IROHF=0.

 **********************************************************************

            Population analysis using the SCF Density.

 **********************************************************************

 Alpha  occ. eigenvalues --  -19.11579 -14.26019 -14.26015 -10.20363 -10.17038
 Alpha  occ. eigenvalues --  -10.14692 -10.14636  -1.00900  -0.94640  -0.79658
 Alpha  occ. eigenvalues --   -0.72675  -0.64275  -0.54366  -0.50625  -0.49855
 Alpha  occ. eigenvalues --   -0.45908  -0.43533  -0.38251  -0.37251  -0.37049
 Alpha  occ. eigenvalues --   -0.33091  -0.27481  -0.27030  -0.23374  -0.23029
 Alpha  occ. eigenvalues --   -0.19001
 Alpha virt. eigenvalues --    0.00780   0.02169   0.03711   0.04187   0.05698
 Alpha virt. eigenvalues --    0.05859   0.06553   0.06969   0.07674   0.08649
 Alpha virt. eigenvalues --    0.09548   0.09736   0.11583   0.12664   0.14346
 Alpha virt. eigenvalues --    0.14405   0.16323   0.17762   0.17951   0.18397
 Alpha virt. eigenvalues --    0.19779   0.20788   0.21565   0.21793   0.22446
 Alpha virt. eigenvalues --    0.23576   0.24212   0.24567   0.25355   0.25692
 Alpha virt. eigenvalues --    0.28272   0.29006   0.29777   0.31054   0.31071
 Alpha virt. eigenvalues --    0.31709   0.34846   0.34872   0.36288   0.44537
 Alpha virt. eigenvalues --    0.46479   0.49384   0.50446   0.54136   0.54555
 Alpha virt. eigenvalues --    0.56878   0.58457   0.61336   0.61634   0.62753
 Alpha virt. eigenvalues --    0.64902   0.65988   0.70002   0.70699   0.75939
 Alpha virt. eigenvalues --    0.76857   0.77617   0.81699   0.81811   0.83603
 Alpha virt. eigenvalues --    0.89165   0.90366   0.90456   0.92882   0.93595
 Alpha virt. eigenvalues --    0.98278   1.01261   1.02590   1.05403   1.07542
 Alpha virt. eigenvalues --    1.11024   1.11630   1.13078   1.22126   1.23698
 Alpha virt. eigenvalues --    1.26736   1.27144   1.33881   1.36676   1.41118
 Alpha virt. eigenvalues --    1.41698   1.44693   1.53881   1.57700   1.59480
 Alpha virt. eigenvalues --    1.60409   1.64504   1.65082   1.69092   1.70897
 Alpha virt. eigenvalues --    1.71238   1.75318   1.79028   1.82182   1.82477
 Alpha virt. eigenvalues --    1.84744   1.86993   1.94902   2.05444   2.06743
 Alpha virt. eigenvalues --    2.07474   2.09492   2.15496   2.19980   2.24294
 Alpha virt. eigenvalues --    2.31294   2.35579   2.45520   2.46774   2.49240
 Alpha virt. eigenvalues --    2.49428   2.54609   2.56123   2.59041   2.63207
 Alpha virt. eigenvalues --    2.67597   2.69258   2.73497   2.78041   2.78243
 Alpha virt. eigenvalues --    2.82432   2.84289   2.86259   2.89267   2.95871
 Alpha virt. eigenvalues --    2.97257   2.98041   3.05630   3.13512   3.19080
 Alpha virt. eigenvalues --    3.24125   3.27669   3.32158   3.34411   3.62095
 Alpha virt. eigenvalues --    3.65342   3.68888   3.86735   3.87042   3.96576
 Alpha virt. eigenvalues --    3.96905   3.97701   4.09438   4.13607   4.54010
 Alpha virt. eigenvalues --    4.59196   4.83770   5.01689   5.27412   5.36070
 Alpha virt. eigenvalues --    5.63346  23.83294  23.86922  23.90331  24.13842
 Alpha virt. eigenvalues --   35.54780  35.72757  49.90580
          Condensed to atoms (all electrons):
               1          2          3          4          5          6
     1  C    6.331915   0.218890  -0.185359  -0.186378   0.026421   0.221234
     2  N    0.218890   7.117086   0.385468  -0.104437  -0.073902  -0.013745
     3  C   -0.185359   0.385468   5.397245   0.357632   0.440092  -0.104535
     4  C   -0.186378  -0.104437   0.357632   5.397826  -0.065359   0.386235
     5  H    0.026421  -0.073902   0.440092  -0.065359   0.563428   0.006158
     6  N    0.221234  -0.013745  -0.104535   0.386235   0.006158   7.114931
     7  H    0.026403   0.006127  -0.065171   0.439890   0.001005  -0.073833
     8  C   -0.392073  -0.168145  -0.072611  -0.073115   0.003464  -0.169854
     9  H   -0.067796   0.016488  -0.000247  -0.000644   0.000017  -0.018461
    10  H   -0.064417  -0.018564  -0.000384  -0.000130  -0.000032   0.016462
    11  O   -0.243082   0.002743  -0.005972  -0.006348   0.000063   0.002775
    12  H    0.024195  -0.000502   0.000846   0.000915   0.000001  -0.000510
               7          8          9         10         11         12
     1  C    0.026403  -0.392073  -0.067796  -0.064417  -0.243082   0.024195
     2  N    0.006127  -0.168145   0.016488  -0.018564   0.002743  -0.000502
     3  C   -0.065171  -0.072611  -0.000247  -0.000384  -0.005972   0.000846
     4  C    0.439890  -0.073115  -0.000644  -0.000130  -0.006348   0.000915
     5  H    0.001005   0.003464   0.000017  -0.000032   0.000063   0.000001
     6  N   -0.073833  -0.169854  -0.018461   0.016462   0.002775  -0.000510
     7  H    0.563427   0.003475  -0.000032   0.000018   0.000062   0.000001
     8  C    0.003475   6.306756   0.449793   0.446174   0.298493  -0.014910
     9  H   -0.000032   0.449793   0.595457  -0.052128  -0.058866  -0.005870
    10  H    0.000018   0.446174  -0.052128   0.595863  -0.058967  -0.006006
    11  O    0.000062   0.298493  -0.058866  -0.058967   8.214753   0.248609
    12  H    0.000001  -0.014910  -0.005870  -0.006006   0.248609   0.485784
 Mulliken charges:
               1
     1  C    0.290047
     2  N   -0.367508
     3  C   -0.147003
     4  C   -0.146086
     5  H    0.098645
     6  N   -0.366858
     7  H    0.098627
     8  C   -0.617447
     9  H    0.142289
    10  H    0.142110
    11  O   -0.394263
    12  H    0.267448
 Sum of Mulliken charges =  -1.00000
 Mulliken charges with hydrogens summed into heavy atoms:
               1
     1  C    0.290047
     2  N   -0.367508
     3  C   -0.048358
     4  C   -0.047459
     6  N   -0.366858
     8  C   -0.333047
    11  O   -0.126816
 APT charges:
               1
     1  C    0.088659
     2  N   -0.583692
     3  C   -0.041326
     4  C   -0.042441
     5  H    0.030111
     6  N   -0.581231
     7  H    0.029690
     8  C    0.864514
     9  H   -0.087971
    10  H   -0.088332
    11  O   -0.839170
    12  H    0.251190
 Sum of APT charges =  -1.00000
 APT charges with hydrogens summed into heavy atoms:
               1
     1  C    0.088659
     2  N   -0.583692
     3  C   -0.011216
     4  C   -0.012751
     6  N   -0.581231
     8  C    0.688211
    11  O   -0.587981
 Electronic spatial extent (au):  <R**2>=           3925.1519
 Charge=             -1.0000 electrons
 Dipole moment (field-independent basis, Debye):
    X=             12.2869    Y=            -13.5473    Z=              1.6190  Tot=             18.3608
 Quadrupole moment (field-independent basis, Debye-Ang):
   XX=            -86.5243   YY=            -79.6877   ZZ=            -46.1149
   XY=             36.3081   XZ=             -0.6322   YZ=             12.2657
 Traceless Quadrupole moment (field-independent basis, Debye-Ang):
   XX=            -15.7487   YY=             -8.9121   ZZ=             24.6608
   XY=             36.3081   XZ=             -0.6322   YZ=             12.2657
 Octapole moment (field-independent basis, Debye-Ang**2):
  XXX=            479.8976  YYY=           -487.8640  ZZZ=            -11.6948  XYY=            211.1111
  XXY=           -275.5654  XXZ=            -12.6755  XZZ=            114.2868  YZZ=           -144.4286
  YYZ=             69.1644  XYZ=            -18.5366
 Hexadecapole moment (field-independent basis, Debye-Ang**3):
 XXXX=          -2372.9552 YYYY=          -3164.4617 ZZZZ=           -173.0259 XXXY=           1546.0285
 XXXZ=            107.8973 YYYX=           1270.3953 YYYZ=            318.4982 ZZZX=             46.7825
 ZZZY=           -113.8971 XXYY=          -1280.1451 XXZZ=           -349.6596 YYZZ=           -582.2514
 XXYZ=            -23.4450 YYXZ=           -125.7516 ZZXY=            348.5271
 N-N= 2.792232331932D+02 E-N=-1.364726377954D+03  KE= 3.389919825373D+02
  Exact polarizability:     100.224       5.257     116.297      -9.170      16.098      84.589
 Approx polarizability:     112.037       6.393     121.683     -11.469      17.266      91.781
 No NMR shielding tensors so no spin-rotation constants.
 Leave Link  601 at Thu Jan 11 14:11:50 2024, MaxMem= 14763950080 cpu:               1.0 elap:               0.2
 (Enter /software/commercial/gaussian/g16/AVX2/g16/l701.exe)
 ... and contract with generalized density number  0.
 Compute integral second derivatives.
 R6Disp: Adding Grimme-D3(BJ) dispersion energy 2nd derivatives to the Hessian.
 D2PCM: PCM CHGder 2nd derivatives, FixD1E=F FixD2E=F DoIter=F DoCFld=F I1PDM=0
 GePol: Maximum number of non-zero 2nd derivatives   =     204
 Leave Link  701 at Thu Jan 11 14:11:53 2024, MaxMem= 14763950080 cpu:              27.2 elap:               2.6
 (Enter /software/commercial/gaussian/g16/AVX2/g16/l702.exe)
 L702 exits ... SP integral derivatives will be done elsewhere.
 Leave Link  702 at Thu Jan 11 14:11:53 2024, MaxMem= 14763950080 cpu:               0.1 elap:               0.1
 (Enter /software/commercial/gaussian/g16/AVX2/g16/l703.exe)
 Integral derivatives from FoFJK, PRISM(SPDF).
 Compute integral second derivatives, UseDBF=F ICtDFT=           0.
 Calling FoFJK, ICntrl=    100127 FMM=F ISym2X=0 I1Cent= 0 IOpClX= 0 NMat=1 NMatS=1 NMatT=0.
 FoFJK:  IHMeth= 1 ICntrl=  100127 DoSepK=F KAlg= 0 I1Cent=           0 FoldK=F
 IRaf=         0 NMat=       1 IRICut=       1 DoRegI=T DoRafI=F ISym2E= 0 IDoP0=0 IntGTp=1.
 FoFCou: FMM=F IPFlag=           0 FMFlag=      100000 FMFlg1=         800
         NFxFlg=           0 DoJE=F BraDBF=F KetDBF=F FulRan=T
         wScrn=  0.000000 ICntrl=    100127 IOpCl=  0 I1Cent=           0 NGrid=           0
         NMat0=    1 NMatS0=      1 NMatT0=    0 NMatD0=    1 NMtDS0=    0 NMtDT0=    0
 Symmetry not used in FoFCou.
 Leave Link  703 at Thu Jan 11 14:12:13 2024, MaxMem= 14763950080 cpu:             233.2 elap:              19.6
 (Enter /software/commercial/gaussian/g16/AVX2/g16/l716.exe)
 Dipole        = 4.83405033D+00-5.32992203D+00 6.36946390D-01
 Polarizability= 1.00224169D+02 5.25696171D+00 1.16296906D+02
                -9.16959982D+00 1.60978328D+01 8.45893729D+01
 HyperPolar    =-7.32971770D+00-1.20436597D+02 8.40161966D+01
                 9.94073174D+02-4.53852073D+01-3.13264255D+00
                 4.94502435D+02-5.17933760D+01 4.55574323D-01
                -1.84133007D+02
 Full mass-weighted force constant matrix:
 Low frequencies ---  -40.6006  -22.3857  -14.5756   -0.0013   -0.0010   -0.0008
 Low frequencies ---   70.2626  155.1060  239.1865
 Diagonal vibrational polarizability:
       94.0612270      17.8349862      28.4369288
 Diagonal vibrational hyperpolarizability:
       75.3594120    -235.3063294     -85.4545154
 Harmonic frequencies (cm**-1), IR intensities (KM/Mole), Raman scattering
 activities (A**4/AMU), depolarization ratios for plane and unpolarized
 incident light, reduced masses (AMU), force constants (mDyne/A),
 and normal coordinates:
                      1                      2                      3
                      A                      A                      A
 Frequencies --     66.8002               154.8859               239.1709
 Red. masses --      3.8500                 5.3496                 1.0871
 Frc consts  --      0.0101                 0.0756                 0.0366
 IR Inten    --      0.9073                14.4075               201.9774
 Raman Activ --      4.5082                 7.5790                 2.9185
 Depolar (P) --      0.7500                 0.7404                 0.7491
 Depolar (U) --      0.8571                 0.8508                 0.8566
  Atom  AN      X      Y      Z        X      Y      Z        X      Y      Z
     1   6    -0.09  -0.01   0.03    -0.11   0.07  -0.26    -0.02  -0.00   0.01
     2   7    -0.10   0.13  -0.08    -0.05  -0.02  -0.12    -0.01   0.01   0.01
     3   6    -0.00   0.09  -0.08     0.07  -0.16   0.14     0.01   0.01   0.00
     4   6     0.06  -0.09   0.05     0.07  -0.16   0.14     0.01  -0.01  -0.01
     5   1     0.02   0.18  -0.16     0.14  -0.25   0.31     0.03   0.02   0.01
     6   7     0.01  -0.14   0.12    -0.05  -0.01  -0.13    -0.01  -0.01  -0.01
     7   1     0.15  -0.17   0.10     0.14  -0.25   0.31     0.02  -0.01  -0.03
     8   6    -0.18  -0.02   0.07    -0.03  -0.01  -0.08     0.00   0.00  -0.00
     9   1    -0.51   0.02  -0.15     0.01  -0.16  -0.05     0.08   0.02   0.05
    10   1    -0.26  -0.10   0.45    -0.00  -0.17  -0.06     0.02  -0.01  -0.09
    11   8     0.26   0.02  -0.10     0.05   0.27   0.21    -0.06  -0.01   0.02
    12   1     0.30   0.03  -0.11     0.17   0.13   0.43     0.92   0.08  -0.36
                      4                      5                      6
                      A                      A                      A
 Frequencies --    346.7433               422.9809               666.1142
 Red. masses --      2.5160                 7.2196                 3.5893
 Frc consts  --      0.1782                 0.7610                 0.9383
 IR Inten    --      3.2293                 7.0479                 0.0229
 Raman Activ --      0.0973                 6.5503                 0.2183
 Depolar (P) --      0.7473                 0.3133                 0.7347
 Depolar (U) --      0.8554                 0.4771                 0.8471
  Atom  AN      X      Y      Z        X      Y      Z        X      Y      Z
     1   6    -0.16  -0.01   0.06     0.07  -0.14   0.16     0.01  -0.00   0.00
     2   7    -0.09   0.09   0.09     0.07  -0.21   0.16     0.07  -0.09   0.15
     3   6     0.05   0.08   0.01    -0.05  -0.05  -0.15    -0.10   0.11  -0.22
     4   6     0.04  -0.07  -0.05    -0.05  -0.05  -0.15     0.10  -0.12   0.22
     5   1     0.15   0.16   0.01    -0.12   0.06  -0.33    -0.23   0.28  -0.52
     6   7    -0.11  -0.11  -0.01     0.09  -0.22   0.15    -0.07   0.09  -0.16
     7   1     0.13  -0.13  -0.11    -0.14   0.05  -0.33     0.22  -0.27   0.50
     8   6     0.16   0.01  -0.06    -0.07   0.14  -0.15    -0.00   0.00   0.01
     9   1     0.52   0.26   0.18    -0.06   0.20  -0.15     0.00   0.04   0.01
    10   1     0.30  -0.19  -0.49    -0.08   0.19  -0.16     0.00  -0.02  -0.00
    11   8     0.05  -0.00  -0.02    -0.04   0.41  -0.02    -0.01   0.00   0.00
    12   1    -0.21  -0.02   0.07     0.07   0.25   0.27     0.01   0.01  -0.01
                      7                      8                      9
                      A                      A                      A
 Frequencies --    687.7141               757.3495               783.9620
 Red. masses --      4.4269                 1.2084                 7.6280
 Frc consts  --      1.2336                 0.4084                 2.7622
 IR Inten    --     26.3744               107.5457                66.3434
 Raman Activ --      5.5786                29.2969                 4.4163
 Depolar (P) --      0.1646                 0.7322                 0.7105
 Depolar (U) --      0.2827                 0.8454                 0.8308
  Atom  AN      X      Y      Z        X      Y      Z        X      Y      Z
     1   6     0.07  -0.00   0.18     0.01  -0.01   0.02     0.19  -0.32   0.42
     2   7    -0.12  -0.02  -0.15     0.01  -0.01   0.02    -0.03   0.15  -0.21
     3   6    -0.00  -0.15  -0.01    -0.03   0.04  -0.08     0.05   0.05   0.09
     4   6     0.01  -0.15  -0.03    -0.03   0.04  -0.07     0.02   0.05   0.11
     5   1     0.06  -0.12   0.00     0.24  -0.32   0.57     0.02  -0.04   0.18
     6   7    -0.01  -0.02  -0.18     0.01  -0.01   0.01    -0.14   0.14  -0.16
     7   1    -0.03  -0.11   0.01     0.26  -0.32   0.57     0.09  -0.01   0.11
     8   6     0.08   0.26   0.26     0.00   0.01   0.01    -0.04  -0.23  -0.17
     9   1     0.07   0.40   0.25     0.00   0.01   0.01    -0.05  -0.11  -0.19
    10   1     0.06   0.41   0.26     0.00   0.01   0.00    -0.07  -0.11  -0.18
    11   8    -0.01   0.02  -0.02    -0.00   0.00  -0.00    -0.03   0.12  -0.04
    12   1    -0.16   0.22  -0.36    -0.00   0.01  -0.01     0.19  -0.17   0.46
                     10                     11                     12
                      A                      A                      A
 Frequencies --    821.6366               948.2044               949.3337
 Red. masses --      1.3805                 7.2593                 7.9213
 Frc consts  --      0.5491                 3.8455                 4.2061
 IR Inten    --      0.1331               151.0839                16.7595
 Raman Activ --     16.1389                79.3123                 2.3578
 Depolar (P) --      0.7498                 0.4002                 0.6786
 Depolar (U) --      0.8570                 0.5717                 0.8085
  Atom  AN      X      Y      Z        X      Y      Z        X      Y      Z
     1   6     0.00  -0.00   0.00    -0.06  -0.02  -0.13    -0.12  -0.01   0.06
     2   7    -0.00   0.00  -0.01     0.12  -0.02  -0.04    -0.24  -0.21  -0.02
     3   6     0.05  -0.06   0.11     0.03   0.03   0.01     0.26  -0.24  -0.25
     4   6    -0.05   0.06  -0.11     0.02   0.07   0.03     0.32   0.29   0.02
     5   1    -0.24   0.31  -0.57    -0.16  -0.12   0.00     0.27  -0.24  -0.25
     6   7     0.00  -0.00   0.00    -0.13  -0.02   0.07    -0.18   0.18   0.18
     7   1     0.26  -0.31   0.57     0.18  -0.05  -0.11     0.32   0.29   0.03
     8   6    -0.00  -0.00  -0.00     0.18  -0.34   0.39    -0.01   0.03  -0.03
     9   1     0.00   0.01   0.00     0.06  -0.18   0.26    -0.08   0.00  -0.07
    10   1     0.00  -0.01  -0.00     0.16  -0.18   0.23    -0.03   0.02   0.08
    11   8    -0.00   0.00   0.00    -0.12   0.25  -0.26     0.00  -0.02   0.02
    12   1     0.00  -0.00   0.00    -0.14   0.29  -0.29     0.01  -0.02   0.02
                     13                     14                     15
                      A                      A                      A
 Frequencies --    972.2877               991.1880              1108.9549
 Red. masses --      1.6988                 3.0426                 1.8363
 Frc consts  --      0.9462                 1.7612                 1.3305
 IR Inten    --     43.8309                23.8848                11.2044
 Raman Activ --      0.6227                 2.9454                55.1402
 Depolar (P) --      0.7496                 0.7445                 0.0208
 Depolar (U) --      0.8569                 0.8536                 0.0407
  Atom  AN      X      Y      Z        X      Y      Z        X      Y      Z
     1   6     0.05   0.00  -0.02     0.00   0.06   0.02    -0.00  -0.04  -0.02
     2   7    -0.07   0.01   0.04    -0.23  -0.01   0.10     0.11   0.01  -0.04
     3   6    -0.00   0.04   0.02     0.03  -0.02  -0.02     0.12  -0.01  -0.06
     4   6    -0.01  -0.04  -0.01    -0.03  -0.02  -0.00    -0.13  -0.04   0.03
     5   1     0.12   0.14   0.01     0.51   0.37  -0.02     0.58   0.34  -0.06
     6   7    -0.07  -0.02   0.01     0.23   0.04  -0.08    -0.11  -0.00   0.05
     7   1     0.09  -0.12  -0.09    -0.43   0.28   0.35    -0.51   0.23   0.36
     8   6     0.19   0.01  -0.07     0.02  -0.14   0.03    -0.00   0.03   0.00
     9   1    -0.36  -0.37  -0.42    -0.00  -0.14   0.00     0.01   0.06   0.01
    10   1    -0.04   0.33   0.57     0.03  -0.15  -0.03    -0.01   0.05   0.02
    11   8    -0.04  -0.00   0.01    -0.03   0.05  -0.06     0.01  -0.01   0.02
    12   1     0.02   0.00  -0.01     0.04  -0.04   0.09    -0.04   0.05  -0.08
                     16                     17                     18
                      A                      A                      A
 Frequencies --   1155.5454              1202.9320              1217.1167
 Red. masses --      1.8136                 2.6399                 1.5437
 Frc consts  --      1.4268                 2.2507                 1.3473
 IR Inten    --     37.2725                44.9531                54.3407
 Raman Activ --      7.4094                52.6122                45.0166
 Depolar (P) --      0.7489                 0.7476                 0.6951
 Depolar (U) --      0.8564                 0.8556                 0.8201
  Atom  AN      X      Y      Z        X      Y      Z        X      Y      Z
     1   6     0.05   0.01  -0.02    -0.01   0.04  -0.00    -0.01   0.04  -0.03
     2   7    -0.03  -0.12  -0.05     0.05   0.15   0.07    -0.01  -0.09  -0.04
     3   6    -0.01   0.08   0.05    -0.03  -0.17  -0.08     0.02   0.08   0.04
     4   6    -0.03  -0.09  -0.04    -0.01  -0.16  -0.09    -0.00   0.08   0.04
     5   1     0.46   0.46   0.06    -0.02  -0.18  -0.08     0.03   0.09   0.04
     6   7    -0.01   0.12   0.07    -0.01   0.14   0.09    -0.01  -0.09  -0.04
     7   1     0.37  -0.39  -0.39    -0.02  -0.17  -0.08    -0.01   0.09   0.05
     8   6    -0.06  -0.01   0.02     0.02  -0.02   0.04     0.01   0.01   0.04
     9   1     0.11  -0.03   0.14    -0.03   0.19  -0.01    -0.01   0.37   0.02
    10   1    -0.02   0.04  -0.18    -0.01   0.20  -0.01    -0.04   0.39   0.01
    11   8     0.01   0.00  -0.01    -0.02  -0.00  -0.06    -0.01  -0.02  -0.04
    12   1    -0.00  -0.00   0.01     0.29  -0.42   0.67     0.28  -0.41   0.63
                     19                     20                     21
                      A                      A                      A
 Frequencies --   1242.1549              1326.1833              1383.0942
 Red. masses --      1.3484                 2.4636                 1.8406
 Frc consts  --      1.2258                 2.5529                 2.0745
 IR Inten    --      2.8984                 5.5729                 7.0846
 Raman Activ --      4.0860                43.2469               147.1343
 Depolar (P) --      0.7500                 0.7499                 0.0896
 Depolar (U) --      0.8571                 0.8571                 0.1645
  Atom  AN      X      Y      Z        X      Y      Z        X      Y      Z
     1   6    -0.09  -0.01   0.03     0.20   0.02  -0.08     0.03   0.19   0.11
     2   7     0.03  -0.05  -0.05    -0.03   0.09   0.06     0.03  -0.04  -0.04
     3   6     0.01   0.04   0.02    -0.07  -0.14  -0.04     0.04  -0.01  -0.02
     4   6    -0.00  -0.03  -0.02    -0.05   0.13   0.09    -0.04  -0.01   0.01
     5   1    -0.00   0.02   0.03     0.39   0.24  -0.03    -0.02  -0.06  -0.03
     6   7     0.05   0.05   0.01    -0.05  -0.10  -0.03    -0.04  -0.05  -0.01
     7   1    -0.02  -0.02  -0.01     0.34  -0.17  -0.25     0.00  -0.06  -0.04
     8   6     0.06   0.01  -0.02    -0.02  -0.00   0.01    -0.00   0.07   0.00
     9   1    -0.25   0.60  -0.26    -0.05   0.47  -0.05    -0.01  -0.64   0.03
    10   1     0.09  -0.60   0.32     0.07  -0.47   0.05     0.13  -0.63  -0.02
    11   8    -0.04  -0.00   0.02    -0.02  -0.00   0.01    -0.02  -0.01  -0.05
    12   1     0.00  -0.01   0.01    -0.00  -0.00   0.00     0.11  -0.17   0.24
                     22                     23                     24
                      A                      A                      A
 Frequencies --   1445.6910              1446.2749              1473.6292
 Red. masses --      3.1181                 2.6672                 1.9255
 Frc consts  --      3.8397                 3.2871                 2.4636
 IR Inten    --     88.6688                14.1071                29.0309
 Raman Activ --      9.1170               323.0756                43.4309
 Depolar (P) --      0.2910                 0.2565                 0.5958
 Depolar (U) --      0.4508                 0.4082                 0.7467
  Atom  AN      X      Y      Z        X      Y      Z        X      Y      Z
     1   6     0.27   0.04  -0.10     0.03  -0.11  -0.06     0.02   0.17   0.08
     2   7    -0.14  -0.03   0.04     0.02   0.00  -0.01     0.05  -0.02  -0.03
     3   6     0.13   0.14   0.02    -0.21  -0.00   0.09    -0.10  -0.04   0.02
     4   6     0.03  -0.12  -0.08     0.23  -0.00  -0.10     0.10  -0.02  -0.05
     5   1    -0.50  -0.37   0.02     0.20   0.36   0.12     0.12   0.15   0.03
     6   7    -0.12   0.01   0.06    -0.06  -0.00   0.03    -0.05  -0.03   0.01
     7   1    -0.37   0.16   0.25    -0.24   0.40   0.33    -0.10   0.14   0.12
     8   6    -0.05  -0.02   0.01    -0.01   0.10   0.02     0.01  -0.11   0.01
     9   1    -0.01   0.36   0.01     0.17  -0.25   0.17    -0.47   0.20  -0.36
    10   1     0.03  -0.26  -0.08     0.04  -0.34   0.21     0.07   0.24  -0.57
    11   8    -0.00  -0.00   0.01    -0.02   0.00  -0.04     0.02  -0.00   0.04
    12   1    -0.02   0.02  -0.03     0.08  -0.13   0.19    -0.08   0.13  -0.19
                     25                     26                     27
                      A                      A                      A
 Frequencies --   1496.3253              3012.4951              3053.2980
 Red. masses --      1.5712                 1.0555                 1.1080
 Frc consts  --      2.0726                 5.6436                 6.0859
 IR Inten    --      1.7241               102.6212                66.6336
 Raman Activ --     26.0980               320.6705               177.3247
 Depolar (P) --      0.3153                 0.0453                 0.7497
 Depolar (U) --      0.4794                 0.0867                 0.8570
  Atom  AN      X      Y      Z        X      Y      Z        X      Y      Z
     1   6     0.01   0.14   0.06     0.00   0.00   0.00    -0.00  -0.00   0.00
     2   7     0.02  -0.01  -0.02    -0.00   0.00   0.00     0.00   0.00   0.00
     3   6    -0.03  -0.02  -0.00    -0.00  -0.00  -0.00    -0.00  -0.00  -0.00
     4   6     0.03  -0.02  -0.02     0.00  -0.00  -0.00     0.00   0.00   0.00
     5   1     0.04   0.03   0.00    -0.00  -0.00  -0.00     0.00  -0.00  -0.00
     6   7    -0.03  -0.02   0.00     0.00   0.00   0.00     0.00  -0.00  -0.00
     7   1    -0.03   0.03   0.03     0.00  -0.00  -0.00     0.00   0.00   0.00
     8   6    -0.03  -0.11  -0.10    -0.02  -0.02  -0.06    -0.09  -0.01   0.03
     9   1     0.57   0.22   0.30    -0.41   0.03   0.58     0.39  -0.04  -0.58
    10   1    -0.24   0.15   0.62     0.68   0.12   0.15     0.67   0.13   0.17
    11   8     0.00   0.01   0.01    -0.00   0.00  -0.00     0.00   0.00  -0.00
    12   1    -0.05   0.08  -0.12    -0.00   0.00  -0.01     0.00   0.00  -0.00
                     28                     29                     30
                      A                      A                      A
 Frequencies --   3176.1875              3198.3911              3805.5444
 Red. masses --      1.0871                 1.1026                 1.0665
 Frc consts  --      6.4617                 6.6458                 9.0998
 IR Inten    --     18.9379                69.5591                12.8910
 Raman Activ --    205.0680               280.1827               743.6359
 Depolar (P) --      0.7500                 0.1963                 0.2940
 Depolar (U) --      0.8571                 0.3282                 0.4544
  Atom  AN      X      Y      Z        X      Y      Z        X      Y      Z
     1   6     0.00   0.00  -0.00     0.00   0.00   0.00     0.00  -0.00   0.00
     2   7    -0.00   0.00   0.00     0.00   0.00   0.00    -0.00   0.00   0.00
     3   6    -0.03   0.04   0.03     0.04  -0.04  -0.04    -0.00  -0.00  -0.00
     4   6    -0.04  -0.04  -0.01    -0.05  -0.05  -0.00     0.00  -0.00  -0.00
     5   1     0.37  -0.45  -0.41    -0.37   0.44   0.40     0.00   0.00  -0.00
     6   7    -0.00  -0.00   0.00    -0.00   0.00   0.00     0.00   0.00   0.00
     7   1     0.46   0.52   0.08     0.47   0.52   0.08    -0.00   0.00  -0.00
     8   6     0.00   0.00  -0.00    -0.00   0.00  -0.00    -0.00   0.00  -0.00
     9   1    -0.00   0.00   0.00     0.00  -0.00  -0.00    -0.00   0.00  -0.00
    10   1    -0.00  -0.00  -0.00    -0.00  -0.00  -0.00    -0.00   0.00  -0.00
    11   8    -0.00  -0.00   0.00     0.00  -0.00   0.00    -0.01  -0.06  -0.03
    12   1    -0.00  -0.00   0.00     0.00  -0.00   0.00     0.10   0.88   0.46

 -------------------
 - Thermochemistry -
 -------------------
 Temperature   298.150 Kelvin.  Pressure   1.00000 Atm.
 Thermochemistry will use frequencies scaled by 0.9670.
 Atom     1 has atomic number  6 and mass  12.00000
 Atom     2 has atomic number  7 and mass  14.00307
 Atom     3 has atomic number  6 and mass  12.00000
 Atom     4 has atomic number  6 and mass  12.00000
 Atom     5 has atomic number  1 and mass   1.00783
 Atom     6 has atomic number  7 and mass  14.00307
 Atom     7 has atomic number  1 and mass   1.00783
 Atom     8 has atomic number  6 and mass  12.00000
 Atom     9 has atomic number  1 and mass   1.00783
 Atom    10 has atomic number  1 and mass   1.00783
 Atom    11 has atomic number  8 and mass  15.99491
 Atom    12 has atomic number  1 and mass   1.00783
 Molecular mass:    97.04019 amu.
 Principal axes and moments of inertia in atomic units:
                           1         2         3
     Eigenvalues --   248.17558 923.322061056.57646
           X            0.00919   0.92717   0.37453
           Y            0.96940   0.08363  -0.23082
           Z            0.24533  -0.36519   0.89803
 This molecule is an asymmetric top.
 Rotational symmetry number  1.
 Rotational temperatures (Kelvin)      0.34900     0.09381     0.08198
 Rotational constants (GHZ):           7.27203     1.95462     1.70810
 Zero-point vibrational energy     228767.7 (Joules/Mol)
                                   54.67678 (Kcal/Mol)
 Warning -- explicit consideration of   5 degrees of freedom as
           vibrations may cause significant error
 Vibrational temperatures:     92.94   215.49   332.76   482.42   588.49
          (Kelvin)            926.76   956.81  1053.70  1090.72  1143.14
                             1319.23  1320.81  1352.74  1379.04  1542.89
                             1607.71  1673.64  1693.37  1728.21  1845.12
                             1924.30  2011.39  2012.20  2050.26  2081.83
                             4191.28  4248.05  4419.02  4449.91  5294.64
 
 Zero-point correction=                           0.087133 (Hartree/Particle)
 Thermal correction to Energy=                    0.093488
 Thermal correction to Enthalpy=                  0.094432
 Thermal correction to Gibbs Free Energy=         0.056440
 Sum of electronic and zero-point Energies=           -340.307132
 Sum of electronic and thermal Energies=              -340.300777
 Sum of electronic and thermal Enthalpies=            -340.299833
 Sum of electronic and thermal Free Energies=         -340.337825
 
                     E (Thermal)             CV                S
                      KCal/Mol        Cal/Mol-Kelvin    Cal/Mol-Kelvin
 Total                   58.665             22.411             79.961
 Electronic               0.000              0.000              0.000
 Translational            0.889              2.981             39.628
 Rotational               0.889              2.981             26.984
 Vibrational             56.887             16.450             13.349
 Vibration     1          0.597              1.971              4.312
 Vibration     2          0.618              1.903              2.675
 Vibration     3          0.653              1.793              1.869
 Vibration     4          0.716              1.605              1.234
 Vibration     5          0.773              1.451              0.930
                       Q            Log10(Q)             Ln(Q)
 Total Bot       0.109520D-25        -25.960507        -59.776276
 Total V=0       0.131177D+15         14.117856         32.507566
 Vib (Bot)       0.165485D-38        -38.781240        -89.297106
 Vib (Bot)    1  0.319507D+01          0.504480          1.161609
 Vib (Bot)    2  0.135391D+01          0.131591          0.302999
 Vib (Bot)    3  0.851130D+00         -0.070004         -0.161191
 Vib (Bot)    4  0.555422D+00         -0.255377         -0.588026
 Vib (Bot)    5  0.432864D+00         -0.363648         -0.837331
 Vib (V=0)       0.198209D+02          1.297123          2.986736
 Vib (V=0)    1  0.373396D+01          0.572169          1.317468
 Vib (V=0)    2  0.194329D+01          0.288537          0.664382
 Vib (V=0)    3  0.148713D+01          0.172348          0.396847
 Vib (V=0)    4  0.124732D+01          0.095979          0.221001
 Vib (V=0)    5  0.116134D+01          0.064960          0.149575
 Electronic      0.100000D+01          0.000000          0.000000
 Translational   0.375735D+08          7.574881         17.441809
 Rotational      0.176138D+06          5.245852         12.079021
 
                                                          IMIDMeOH-isolated
                                                             IR Spectrum
 
     3                    33   33                                                1111 1 1 111 11                                     
     8                    11   00                                                4444 3 3 222 11  9999   877 66       4  3   2 1     
     0                    97   51                                                9744 8 2 410 50  9744   285 86       2  4   3 5  6  
     6                    86   32                                                6466 3 6 273 69  1298   247 86       3  7   9 5  7  
 
     X                    XX   XX                                                XXXX X X XXX XX  XXXX   XXX X        X  X   X X  X  
                          XX   XX                                                 X X      XX X   XXXX    XX X               X       
                          X    XX                                                 X X      XX X    X X    XX X               X       
                          X    XX                                                   X      XX X    X X    XX                 X       
                          X    XX                                                   X      X         X    XX                 X       
                          X    XX                                                   X                X    XX                 X       
                          X    XX                                                   X                X    XX                 X       
                                X                                                   X                X     X                 X       
                                X                                                   X                X     X                 X       
                                X                                                                    X     X                 X       
                                                                                                     X     X                 X       
                                                                                                     X                       X       
                                                                                                     X                       X       
                                                                                                     X                       X       
                                                                                                     X                       X       
                                                                                                                             X       
                                                                                                                             X       
                                                                                                                             X       
                                                                                                                             X       
                                                                                                                             X       
 
 
                                                          IMIDMeOH-isolated
                                                            Raman Spectrum
 
     3                    33   33                                                1111 1 1 111 11                                     
     8                    11   00                                                4444 3 3 222 11  9999   877 66       4  3   2 1     
     0                    97   51                                                9744 8 2 410 50  9744   285 86       2  4   3 5  6  
     6                    86   32                                                6466 3 6 273 69  1298   247 86       3  7   9 5  7  
 
     X                    XX   XX                                                XXXX X X XXX XX  XXXX   XXX XX       X  X   X X  X  
     X                    XX   XX                                                  X  X              X                               
     X                    XX   XX                                                  X  X                                              
     X                    XX   XX                                                  X  X                                              
     X                    XX   XX                                                  X                                                 
     X                    XX    X                                                  X                                                 
     X                    X     X                                                  X                                                 
     X                    X     X                                                  X                                                 
     X                          X                                                  X                                                 
     X                                                                                                                               
     X                                                                                                                               
     X                                                                                                                               
     X                                                                                                                               
     X                                                                                                                               
     X                                                                                                                               
     X                                                                                                                               
     X                                                                                                                               
     X                                                                                                                               
     X                                                                                                                               
     X                                                                                                                               
 
 -------------------------------------------------------------------
 Center     Atomic                   Forces (Hartrees/Bohr)
 Number     Number              X              Y              Z
 -------------------------------------------------------------------
      1        6           0.000000353   -0.000000649    0.000007453
      2        7          -0.000006027   -0.000002004   -0.000022534
      3        6          -0.000011552    0.000005322   -0.000028422
      4        6          -0.000008855    0.000007547   -0.000011216
      5        1          -0.000004217    0.000000249   -0.000014724
      6        7          -0.000004419    0.000005444    0.000013008
      7        1          -0.000010273    0.000005366   -0.000009499
      8        6           0.000029111   -0.000020280    0.000005515
      9        1          -0.000015473   -0.000006685    0.000032663
     10        1           0.000026054   -0.000008067    0.000014575
     11        8          -0.000003600   -0.000007314   -0.000020283
     12        1           0.000008898    0.000021070    0.000033462
 -------------------------------------------------------------------
 Cartesian Forces:  Max     0.000033462 RMS     0.000015120
 Force constants in Cartesian coordinates: 
                1             2             3             4             5 
      1  0.531314D+00
      2  0.762854D-01  0.658282D+00
      3 -0.112056D+00  0.213144D+00  0.344848D+00
      4 -0.203811D+00  0.473592D-01  0.799929D-01  0.448587D+00
      5  0.644553D-01 -0.116906D+00 -0.441140D-01  0.621591D-01  0.400894D+00
      6  0.906829D-01 -0.422502D-01 -0.138329D+00 -0.117660D+00  0.135864D+00
      7  0.253267D-02 -0.254487D-02 -0.273549D-03 -0.125607D+00 -0.784861D-01
      8  0.390536D-01 -0.727392D-01 -0.686752D-01 -0.637914D-01 -0.224378D+00
      9  0.267996D-01 -0.453683D-01 -0.247108D-01 -0.106414D-01 -0.508240D-01
     10 -0.837865D-02 -0.187438D-01  0.161143D-02 -0.472167D-01 -0.762521D-01
     11 -0.634464D-01 -0.835460D-01 -0.287944D-01 -0.206260D-01 -0.279760D-01
     12 -0.262061D-01 -0.441888D-01 -0.296251D-02  0.179924D-01  0.674966D-02
     13 -0.153878D-02 -0.433067D-02  0.634075D-03  0.104557D-01 -0.800405D-02
     14 -0.375375D-02 -0.371989D-02 -0.322368D-02  0.163755D-01 -0.159782D-01
     15  0.925430D-03 -0.351433D-02  0.301110D-02  0.161055D-02 -0.170965D-02
     16 -0.234031D+00 -0.833178D-01  0.241811D-01 -0.837761D-01  0.142045D-01
     17 -0.966748D-01 -0.143980D+00  0.130318D-01 -0.410771D-01  0.191549D-02
     18  0.145132D-01  0.125831D-02 -0.824906D-01  0.277252D-01 -0.221170D-01
     19 -0.491357D-03  0.108509D-02  0.316922D-02 -0.427008D-02 -0.365743D-02
     20  0.863529D-03 -0.281297D-02 -0.475143D-02 -0.455386D-03  0.176700D-02
     21  0.299972D-02 -0.540445D-02  0.103446D-02  0.463229D-02 -0.106938D-02
     22 -0.875849D-01 -0.183038D-01  0.852479D-03  0.383849D-02  0.242111D-01
     23 -0.178497D-01 -0.183748D+00 -0.677984D-01  0.284614D-02 -0.227492D-01
     24  0.102363D-02 -0.684719D-01 -0.103294D+00 -0.363007D-02 -0.201869D-01
     25  0.153598D-02 -0.335171D-03 -0.260691D-02  0.754481D-03 -0.148750D-03
     26  0.186031D-01 -0.121526D-02 -0.238181D-01 -0.224710D-02 -0.305793D-02
     27  0.116957D-01 -0.120958D-02 -0.102818D-01 -0.123328D-02 -0.231395D-02
     28 -0.360127D-02 -0.106509D-02  0.155011D-02  0.445002D-03  0.164199D-02
     29 -0.294951D-01 -0.562516D-02 -0.516209D-02  0.705371D-03  0.223228D-02
     30 -0.149081D-01 -0.349902D-02 -0.812839D-03  0.269331D-03  0.136220D-02
     31  0.437139D-02  0.299027D-02  0.433956D-02  0.575060D-03 -0.248308D-03
     32  0.101001D-01 -0.379594D-01  0.168018D-01 -0.999390D-03  0.281023D-02
     33  0.569035D-02 -0.142163D-02  0.165256D-01  0.126079D-02 -0.224517D-02
     34 -0.316484D-03  0.921164D-03 -0.139482D-02  0.252958D-04  0.124843D-03
     35  0.185880D-02 -0.603040D-02  0.335939D-02 -0.248983D-03  0.142692D-02
     36 -0.116079D-02  0.925669D-03 -0.253824D-02 -0.319200D-03  0.604131D-03
                6             7             8             9            10 
      6  0.230552D+00
      7 -0.193931D-01  0.587912D+00
      8 -0.572128D-01 -0.366377D-01  0.547525D+00
      9 -0.932931D-01 -0.222992D+00  0.250398D+00  0.358441D+00
     10 -0.134116D-01 -0.293811D+00 -0.132885D-01  0.927954D-01  0.637592D+00
     11 -0.176392D-01 -0.318474D-01 -0.866304D-01  0.295295D-02  0.219018D+00
     12  0.145439D-01  0.841193D-01 -0.513641D-02 -0.103883D+00 -0.109642D+00
     13 -0.117313D-01 -0.135100D+00  0.891218D-01  0.968916D-01 -0.165878D-03
     14 -0.122624D-01  0.861537D-01 -0.156082D+00 -0.109856D+00 -0.234298D-02
     15 -0.824967D-02  0.949299D-01 -0.110950D+00 -0.125214D+00 -0.187500D-02
     16  0.586108D-01 -0.308395D-01  0.132012D-02  0.222912D-01 -0.102515D+00
     17  0.243716D-02  0.566881D-01 -0.139360D-01 -0.442552D-01  0.394844D-01
     18  0.622099D-02  0.537162D-01 -0.193974D-01 -0.158647D-01  0.380693D-01
     19  0.290796D-02 -0.336555D-02 -0.176612D-01 -0.890268D-02 -0.181078D+00
     20 -0.263646D-02  0.370701D-02  0.278591D-02  0.103616D-02 -0.141746D+00
     21  0.446321D-02  0.230273D-02  0.102517D-01  0.248317D-02 -0.646624D-02
     22  0.884220D-02 -0.348260D-02  0.251125D-02  0.434861D-02 -0.429209D-02
     23 -0.119209D-01  0.893979D-02  0.117816D-01 -0.805928D-03 -0.969678D-02
     24 -0.157938D-01  0.632626D-02 -0.900192D-03  0.200656D-02  0.620763D-03
     25  0.938648D-03  0.485378D-03  0.258211D-03 -0.432697D-03 -0.107936D-03
     26 -0.371280D-02  0.589674D-03 -0.175087D-02 -0.164621D-03  0.424293D-03
     27 -0.953016D-03  0.320668D-03 -0.233299D-03 -0.114837D-03  0.114852D-03
     28  0.727433D-03  0.213930D-04 -0.117395D-02 -0.880474D-04  0.353481D-03
     29  0.286050D-02 -0.892034D-03 -0.831794D-03 -0.491172D-03 -0.106428D-03
     30  0.851764D-03 -0.556378D-04 -0.345627D-05 -0.243641D-04 -0.669909D-03
     31 -0.853469D-03  0.116455D-02  0.328990D-03 -0.737843D-05 -0.455145D-03
     32  0.461893D-02 -0.424615D-02 -0.447743D-02 -0.216728D-02  0.231840D-02
     33 -0.270560D-03  0.106712D-02  0.175371D-02 -0.736156D-04 -0.127997D-02
     34  0.338992D-03  0.896943D-04 -0.411989D-04 -0.618254D-04  0.749600D-04
     35  0.185418D-02 -0.142402D-02 -0.126696D-02 -0.454379D-03  0.931554D-03
     36  0.257417D-03 -0.675161D-04  0.105722D-03  0.248202D-03  0.133153D-03
               11            12            13            14            15 
     11  0.593447D+00
     12  0.162995D+00  0.260123D+00
     13  0.188993D-01  0.936304D-02  0.129744D+00
     14  0.554052D-02  0.517751D-02 -0.956825D-01  0.169249D+00
     15 -0.428068D-02 -0.348387D-02 -0.996235D-01  0.122997D+00  0.130396D+00
     16  0.249414D-01  0.294235D-01 -0.390695D-02 -0.260514D-02  0.353577D-02
     17 -0.205061D+00 -0.927822D-01  0.678932D-03  0.199423D-02 -0.287824D-02
     18 -0.861818D-01 -0.132915D+00  0.528343D-02 -0.155648D-02  0.389082D-02
     19 -0.144554D+00 -0.842161D-02 -0.489896D-03  0.844757D-03 -0.114544D-03
     20 -0.198018D+00 -0.321317D-01 -0.387906D-03 -0.633021D-03  0.776372D-03
     21 -0.305723D-01 -0.375175D-01 -0.755263D-03  0.234974D-03 -0.129437D-02
     22 -0.514002D-02  0.216762D-02  0.982064D-03  0.904591D-03  0.732792D-03
     23  0.935113D-02  0.631578D-02 -0.206711D-03  0.433673D-03  0.183300D-03
     24  0.152190D-02  0.528556D-02  0.163327D-03 -0.149737D-02  0.102045D-02
     25  0.959632D-03  0.200265D-03  0.546358D-04 -0.299818D-04  0.500920D-05
     26 -0.460666D-03 -0.966287D-03 -0.106578D-04 -0.700456D-03  0.212482D-03
     27 -0.814698D-03 -0.182834D-03 -0.175516D-03 -0.249182D-03 -0.532259D-04
     28 -0.404729D-04  0.374684D-04 -0.297477D-05  0.201155D-04 -0.133589D-03
     29 -0.184916D-02  0.142191D-03  0.676373D-04  0.564576D-04 -0.103593D-03
     30 -0.202325D-03  0.111389D-03  0.461067D-04  0.239572D-04  0.974019D-04
     31  0.155314D-02  0.680183D-03 -0.212479D-04  0.900707D-04  0.132841D-04
     32 -0.377458D-02 -0.481647D-02 -0.107728D-03 -0.190939D-03 -0.597082D-03
     33  0.102096D-02  0.841819D-03 -0.138268D-03  0.219730D-03 -0.192974D-03
     34  0.283804D-03  0.286239D-03 -0.113672D-04  0.255352D-04 -0.609044D-05
     35 -0.102303D-02 -0.135803D-02 -0.373809D-04  0.300848D-04 -0.135449D-03
     36 -0.524082D-05  0.395724D-04  0.423862D-04 -0.800052D-05  0.722884D-04
               16            17            18            19            20 
     16  0.447359D+00
     17  0.623040D-01  0.400420D+00
     18 -0.118528D+00  0.135541D+00  0.229302D+00
     19  0.868835D-02  0.879684D-02 -0.208640D-02  0.180050D+00
     20 -0.154846D-01 -0.173690D-01  0.100766D-02  0.155038D+00  0.214844D+00
     21 -0.153954D-01 -0.992992D-02 -0.510440D-02  0.130768D-01  0.371826D-01
     22 -0.186198D-02 -0.270566D-01 -0.165698D-01  0.772720D-03 -0.160032D-02
     23 -0.680151D-02 -0.278265D-01 -0.106918D-01  0.314680D-03  0.261014D-03
     24 -0.445870D-02 -0.366229D-03 -0.466485D-02  0.369546D-03 -0.511938D-03
     25  0.382166D-03 -0.586384D-03 -0.636582D-03  0.101455D-03  0.000000D+00
     26  0.120968D-02  0.203621D-02  0.239331D-02 -0.114936D-03  0.305102D-04
     27  0.700677D-04  0.210867D-02  0.156449D-02 -0.474039D-04  0.265330D-04
     28  0.372358D-03 -0.871908D-03 -0.131157D-02  0.658502D-04 -0.203489D-04
     29 -0.323507D-03 -0.283997D-02 -0.463864D-02  0.277878D-03 -0.670044D-03
     30  0.522968D-03 -0.187279D-02 -0.733018D-03  0.948190D-04 -0.229123D-03
     31  0.228345D-03 -0.181035D-02  0.200651D-03 -0.679676D-05  0.114450D-03
     32  0.337260D-02  0.309769D-02  0.314627D-02 -0.301818D-03 -0.207331D-03
     33 -0.678595D-03 -0.171494D-02  0.526026D-03 -0.558776D-04  0.218907D-03
     34 -0.998040D-04  0.124975D-03 -0.375429D-03  0.235736D-04 -0.296823D-04
     35  0.118028D-02  0.154851D-02  0.123627D-02 -0.677325D-04  0.217604D-04
     36  0.425513D-03  0.680563D-03  0.268614D-03  0.101291D-04  0.124839D-04
               21            22            23            24            25 
     21  0.347490D-01
     22 -0.387862D-03  0.579687D+00
     23 -0.121760D-03  0.439376D-01  0.444967D+00
     24  0.141920D-02 -0.432200D-01  0.777667D-01  0.506487D+00
     25  0.140615D-03 -0.139077D+00  0.661476D-02  0.120276D+00  0.140646D+00
     26 -0.878910D-05  0.558244D-02 -0.477460D-01 -0.166361D-01 -0.109772D-01
     27  0.101341D-04  0.114970D+00 -0.170260D-01 -0.210604D+00 -0.127570D+00
     28 -0.157622D-03 -0.278306D+00 -0.489116D-01 -0.496805D-01 -0.157225D-01
     29  0.922766D-04 -0.484015D-01 -0.561166D-01 -0.154886D-01  0.279777D-02
     30 -0.932589D-04 -0.445493D-01 -0.142774D-01 -0.624608D-01  0.239770D-01
     31 -0.712817D-04 -0.707284D-01  0.766186D-02 -0.328373D-01  0.104968D-01
     32 -0.538519D-03  0.277810D-01 -0.106690D+00  0.608687D-01  0.249707D-02
     33 -0.196354D-03 -0.283758D-01  0.933935D-02 -0.127993D+00 -0.146426D-01
     34  0.814678D-04  0.525852D-04  0.131515D-01  0.504708D-02  0.450818D-03
     35 -0.116425D-03 -0.442576D-02 -0.219188D-01 -0.160981D-01 -0.105043D-02
     36  0.467619D-04  0.118941D-02  0.290370D-01  0.859167D-02  0.350941D-03
               26            27            28            29            30 
     26  0.585226D-01
     27  0.637244D-02  0.237549D+00
     28 -0.485307D-02 -0.290397D-02  0.302567D+00
     29  0.213989D-02 -0.337440D-03  0.462036D-01  0.672071D-01
     30  0.496981D-02  0.795488D-02  0.619681D-01  0.635201D-02  0.670074D-01
     31 -0.783204D-02  0.533857D-02 -0.658148D-02  0.287538D-01 -0.273304D-01
     32 -0.898548D-02  0.145365D-01  0.896409D-02 -0.511919D-02  0.860075D-02
     33  0.308846D-01 -0.251840D-01 -0.946101D-02  0.166958D-01 -0.120934D-01
     34 -0.374220D-03 -0.579755D-03  0.389127D-03  0.412630D-03  0.634970D-03
     35  0.118750D-02 -0.860019D-03  0.106673D-03  0.141621D-02 -0.122466D-02
     36  0.474110D-03  0.295216D-03 -0.546829D-03  0.786865D-04  0.194807D-03
               31            32            33            34            35 
     31  0.752593D-01
     32  0.383928D-02  0.553914D+00
     33  0.888515D-01  0.122376D+00  0.298422D+00
     34 -0.143024D-01 -0.532175D-01 -0.422376D-01  0.136240D-01
     35 -0.354411D-01 -0.392418D+00 -0.177128D+00  0.386181D-01  0.417027D+00
     36 -0.383240D-01 -0.222830D+00 -0.150311D+00  0.382668D-01  0.190925D+00
               36 
     36  0.142835D+00
 Leave Link  716 at Thu Jan 11 14:12:13 2024, MaxMem= 14763950080 cpu:               0.1 elap:               0.1
 (Enter /software/commercial/gaussian/g16/AVX2/g16/l103.exe)

 GradGradGradGradGradGradGradGradGradGradGradGradGradGradGradGradGradGrad
 Berny optimization.
 Search for a local minimum.
 Step number   1 out of a maximum of    2
[...]
 Maximum Displacement     0.002881     0.001800     NO 
 RMS     Displacement     0.001126     0.001200     YES
 Predicted change in Energy=-5.004627D-08
 GradGradGradGradGradGradGradGradGradGradGradGradGradGradGradGradGradGrad

 Leave Link  103 at Thu Jan 11 14:12:13 2024, MaxMem= 14763950080 cpu:               0.1 elap:               0.1
 (Enter /software/commercial/gaussian/g16/AVX2/g16/l9999.exe)

 ----------------------------------------------------------------------

 Electric dipole moment (input orientation):
 (Debye = 10**-18 statcoulomb cm , SI units = C m)
                  (au)            (Debye)         (10**-30 SI)
   Tot        0.722370D+01      0.183608D+02      0.612451D+02
   x          0.483405D+01      0.122869D+02      0.409848D+02
   y         -0.532992D+01     -0.135473D+02     -0.451890D+02
   z          0.636946D+00      0.161896D+01      0.540026D+01

 Dipole polarizability, Alpha (input orientation).
 (esu units = cm**3 , SI units = C**2 m**2 J**-1)
 Alpha(0;0):
               (au)            (10**-24 esu)      (10**-40 SI)
   iso        0.100370D+03      0.148733D+02      0.165488D+02
   aniso      0.432047D+02      0.640228D+01      0.712349D+01
   xx         0.100224D+03      0.148517D+02      0.165247D+02
   yx         0.525696D+01      0.779001D+00      0.866756D+00
   yy         0.116297D+03      0.172334D+02      0.191748D+02
   zx        -0.916960D+01     -0.135879D+01     -0.151186D+01
   zy         0.160978D+02      0.238545D+01      0.265417D+01
   zz         0.845894D+02      0.125349D+02      0.139469D+02

 First dipole hyperpolarizability, Beta (input orientation).
 ||, _|_  parallel and perpendicular components, (z) with respect to z axis,
 vector components x,y,z.  Values do not include the 1/n! factor of 1/2.
 (esu units = statvolt**-1 cm**4 , SI units = C**3 m**3 J**-2)
 Beta(0;0,0):
               (au)            (10**-30 esu)      (10**-50 SI)
   || (z)     0.158991D+03      0.137355D+01      0.509781D+00
   _|_(z)     0.529968D+02      0.457851D+00      0.169927D+00
   x          0.746793D+02      0.645171D+00      0.239449D+00
   y          0.262228D+04      0.226544D+02      0.840797D+01
   z          0.794953D+03      0.686777D+01      0.254891D+01
   ||         0.548228D+03      0.473627D+01      0.175782D+01
   xxx       -0.732972D+01     -0.633231D-01     -0.235017D-01
   xxy       -0.120437D+03     -0.104048D+01     -0.386163D+00
   yxy        0.840162D+02      0.725834D+00      0.269386D+00
   yyy        0.994073D+03      0.858802D+01      0.318736D+01
   xxz       -0.453852D+02     -0.392093D+00     -0.145521D+00
   yxz       -0.313264D+01     -0.270636D-01     -0.100444D-01
   yyz        0.494502D+03      0.427212D+01      0.158555D+01
   zxz       -0.517934D+02     -0.447454D+00     -0.166068D+00
   zyz        0.455574D+00      0.393581D-02      0.146074D-02
   zzz       -0.184133D+03     -0.159077D+01     -0.590397D+00

 ----------------------------------------------------------------------

 Dipole orientation:
     6         -0.16114728          1.78855118         -7.64164553
     7          1.40207571          1.08380902         -5.74423772
     6          0.32470502         -1.08954927         -4.83640240
     6         -1.84921248         -1.60512610         -6.21923375
     1          1.13554355         -2.12634800         -3.27013766
     7         -2.16209778          0.23935009         -8.01035963
     1         -3.17655555         -3.14811592         -6.01204640
     6          0.31557067          4.05684356         -9.23232158
     1         -1.48001557          4.83335243         -9.90549153
     1          1.29623926          5.49958301         -8.11986011
     8          1.87073036          3.38775050        -11.39999685
     1          2.14003893          4.90367663        -12.37446203

 Electric dipole moment (dipole orientation):
 (Debye = 10**-18 statcoulomb cm , SI units = C m)
                  (au)            (Debye)         (10**-30 SI)
   Tot        0.722370D+01      0.183608D+02      0.612451D+02
   x          0.000000D+00      0.000000D+00      0.000000D+00
   y          0.000000D+00      0.000000D+00      0.000000D+00
   z          0.722370D+01      0.183608D+02      0.612451D+02

 Dipole polarizability, Alpha (dipole orientation).
 (esu units = cm**3 , SI units = C**2 m**2 J**-1)
 Alpha(0;0):
               (au)            (10**-24 esu)      (10**-40 SI)
   iso        0.100370D+03      0.148733D+02      0.165488D+02
   aniso      0.432047D+02      0.640228D+01      0.712349D+01
   xx         0.967850D+02      0.143421D+02      0.159577D+02
   yx         0.128016D+02      0.189700D+01      0.211069D+01
   yy         0.103841D+03      0.153876D+02      0.171210D+02
   zx         0.707823D+01      0.104889D+01      0.116704D+01
   zy        -0.198942D+02     -0.294801D+01     -0.328011D+01
   zz         0.100485D+03      0.148903D+02      0.165677D+02

 First dipole hyperpolarizability, Beta (dipole orientation).
 ||, _|_  parallel and perpendicular components, (z) with respect to z axis,
 vector components x,y,z.  Values do not include the 1/n! factor of 1/2.
 (esu units = statvolt**-1 cm**4 , SI units = C**3 m**3 J**-2)
 Beta(0;0,0):
               (au)            (10**-30 esu)      (10**-50 SI)
   || (z)    -0.362949D+03     -0.313560D+01     -0.116375D+01
   _|_(z)    -0.120983D+03     -0.104520D+01     -0.387916D+00
   x          0.701821D+03      0.606319D+01      0.225029D+01
   y          0.193080D+04      0.166806D+02      0.619085D+01
   z         -0.181475D+04     -0.156780D+02     -0.581873D+01
   ||         0.548228D+03      0.473627D+01      0.175782D+01
   xxx       -0.898341D+02     -0.776097D+00     -0.288041D+00
   xxy       -0.294629D+02     -0.254536D+00     -0.944687D-01
   yxy        0.241407D+03      0.208557D+01      0.774039D+00
   yyy        0.252267D+03      0.217939D+01      0.808860D+00
   xxz        0.465178D+02      0.401878D+00      0.149153D+00
   yxz       -0.172853D+03     -0.149332D+01     -0.554230D+00
   yyz       -0.526854D+03     -0.455161D+01     -0.168928D+01
   zxz        0.823670D+02      0.711587D+00      0.264098D+00
   zyz        0.420797D+03      0.363536D+01      0.134923D+01
   zzz       -0.124579D+03     -0.107627D+01     -0.399446D+00

 ----------------------------------------------------------------------
 Unable to Open any file for archive entry.
 1\1\GINC-NODE2014\Freq\RB3LYP\6-311+G(d,p)\C4H5N2O1(1-)\SVICCHI\11-Jan
 -2024\0\\#p freq=raman scale=0.967 guess=read geom=allcheck b3lyp/6-31
 1+G(d,p) int=grid=ultrafine EmpiricalDispersion=GD3BJ SCRF=(Solvent=et
 hanol) scf=(xqc,intrep,maxconventionalcycle=350) nosymm\\IMIDMeOH-isol
 ated\\-1,1\C,-2.3268012921,3.417919666,0.3988417981\N,-1.3373125068,2.
 8660742189,-0.341361297\C,-1.8731763205,1.6782123725,-0.7660630798\C,-
 3.1636289483,1.5598136094,-0.2620598389\H,-1.3149786316,0.987196662,-1
 .3849321069\N,-3.4524568172,2.6717679594,0.4853365328\H,-3.8740901698,
 0.752187022,-0.3848074941\C,-2.1969966816,4.7532741583,1.0414532683\H,
 -2.8080826762,4.7903033943,1.9490852827\H,-1.1512459778,4.935896851,1.
 3093982197\O,-2.6409937623,5.7961201002,0.128348014\H,-2.5382162158,6.
 6421239859,0.5794007013\\Version=ES64L-G16RevC.02\HF=-340.3942646\RMSD
 =4.067e-09\RMSF=1.512e-05\ZeroPoint=0.087133\Thermal=0.0934879\ETot=-3
 40.3007767\HTot=-340.2998325\GTot=-340.3378248\Dipole=0.2502948,1.0320
 404,0.8806021\DipoleDeriv=0.527761,0.0033784,-0.2884352,0.0781671,-0.1
 710451,0.005612,-0.2722361,-0.1878961,-0.090738,-0.9551785,-0.1541344,
 0.1659827,-0.2451149,-0.3636984,0.099944,0.1093113,0.0609117,-0.432199
 8,0.1800329,0.0151133,-0.1640855,0.2902864,-0.0916422,0.0275238,-0.043
 509,0.1314097,-0.2123689,0.1122731,0.1210913,-0.1530421,-0.1389753,-0.
 1218658,0.1959213,-0.2731576,0.0616007,-0.1177294,0.0288118,0.0887565,
 0.1371283,0.0558077,-0.0247936,-0.1648097,0.1128191,-0.1823593,0.08631
 34,-0.8955099,0.0531593,0.2421746,0.1360633,-0.3075394,-0.0403083,0.29
 65399,0.0005132,-0.5406444,-0.0150527,-0.1892504,0.0088294,-0.1551878,
 -0.0702051,-0.0961707,0.0346065,-0.0817987,0.1743281,0.5471115,-0.1673
 27,0.0827176,-0.1386567,1.3671508,-0.1554852,0.0906827,-0.2362028,0.67
 92801,-0.0194618,0.0746454,0.1645537,0.0169971,-0.0610143,-0.0041,0.08
 31313,0.0195658,-0.1834381,-0.2079083,-0.0573104,-0.1375336,-0.0293947
 ,-0.0747526,-0.0179081,-0.061592,0.0515662,0.017666,-0.6974072,0.22671
 98,0.005909,0.1357023,-1.204963,0.230414,-0.014164,0.4644537,-0.615141
 3,0.3945281,-0.0148418,-0.0641989,-0.0056945,0.1243688,-0.0806331,-0.0
 62432,-0.1017641,0.2346723\Polar=100.2241694,5.2569617,116.2969057,-9.
 1695998,16.0978328,84.5893729\PolarDeriv=0.5901186,-6.7100373,0.760740
 7,-1.9467369,5.8597238,5.4259027,8.824805,0.2316917,38.5577319,-3.1336
 934,9.2738389,4.9117308,5.4929153,6.1228358,15.2028942,1.7848258,8.791
 6756,8.8467828,8.8430137,1.3950649,7.6604805,-0.2103468,1.7030664,2.33
 57666,3.6323852,-4.4298374,-21.1337106,-5.970527,-7.4949341,1.730203,2
 .1050465,-6.0550658,-14.5478717,0.0815067,-2.4433498,-2.9928248,3.8465
 685,2.0888745,29.6239052,6.7067317,3.5458825,6.0885177,-8.531436,5.649
 8717,14.1417701,2.4599932,7.7553467,4.0120685,-1.5173786,-3.9880323,0.
 8930698,1.9464936,-1.66813,-13.3925524,-4.5343876,3.6248406,-21.367990
 1,-4.1312824,-8.3390931,-13.5694159,-5.1501795,-1.4039002,8.1377223,4.
 0258453,9.8766843,-0.4847503,-8.0120338,-2.4887754,21.2341381,-3.87104
 08,0.9328752,3.443195,3.3707679,-2.4821097,1.9182312,-3.3857035,3.0729
 704,3.4098455,-1.4500406,2.7885428,-5.7732166,2.6705438,-5.2542547,-4.
 8129972,-3.0600967,4.0267118,-5.7116309,2.4278188,-3.1326433,-1.349698
 1,-6.7005348,2.7215194,-10.6841205,1.6044759,-4.5592946,-4.2100821,7.1
 856532,3.0273763,-21.4988139,1.4987232,-10.1448672,-5.3458641,3.449008
 6,3.8325563,-5.4598683,-3.2964703,-4.5849584,2.3391689,-5.4355563,-5.5
 962259,-6.1254738,0.167032,-0.1223688,0.2607402,-4.9655344,-6.1847189,
 -8.1254619,-1.8923406,-2.7048663,-0.8834539,1.1207626,-0.7522776,-3.65
 23341,0.4331229,0.4351489,0.268222,-8.288511,-3.2639547,2.9672466,-6.6
 280879,-1.0443641,3.6543648,2.6831109,0.5607157,-27.6808414,-0.6483887
 ,-5.1368443,2.4575684,-3.4091322,-1.4607551,2.929806,2.9993192,-3.9167
 794,-8.1421784,-2.3719964,0.8800385,-4.3212736,3.7627104,-1.4473441,-4
 .9973592,-0.4067962,-1.0762953,-0.2002413,0.0584495,2.2648542,-0.23917
 99,1.8061979,-0.7587658,2.1543053,-3.6971118,2.0956853,10.9449714,11.1
 452671,2.970031,5.3466804,4.4755739,1.7936592,2.3464951,0.3911761,2.56
 10378,1.3464543,0.5870846,1.2575927,0.0949324,2.003745,0.8870857,-1.15
 43445,2.476127,0.6842288,2.3752046,-0.3378854,2.8822137,-7.7633762,-0.
 383751,-0.8314418,-1.299928,-2.4648055,-1.6824996,-2.4035419,-0.009869
 ,-4.789447,-3.6587953,-0.6325361,0.6341032,-21.6447097,-1.4642458,-0.7
 548161,-3.9599587,-0.1268643,1.4897453,1.9849496,-0.0306153,0.3686042,
 0.5551527,0.2516617,-0.0419846,24.632149,0.354179,5.0968967,2.2185375,
 0.6535015,0.0003791,9.7565458,0.1796547,3.5610631,1.6196678\HyperPolar
 =-7.3297177,-120.4365973,84.0161966,994.0731744,-45.3852073,-3.1326425
 ,494.5024347,-51.793376,0.4555743,-184.1330073\Quadrupole=-11.7087584,
 -6.6259103,18.3346687,26.9941791,-0.4699952,9.1192716\PG=C01 [X(C4H5N2
 O1)]\NImag=0\\0.53131394,0.07628539,0.65828180,-0.11205557,0.21314423,
 0.34484838,-0.20381122,0.04735921,0.07999294,0.44858735,0.06445529,-0.
 11690584,-0.04411398,0.06215909,0.40089359,0.09068294,-0.04225020,-0.1
 3832863,-0.11765953,0.13586398,0.23055152,0.00253267,-0.00254487,-0.00
 027355,-0.12560715,-0.07848608,-0.01939310,0.58791185,0.03905363,-0.07
 273916,-0.06867518,-0.06379137,-0.22437826,-0.05721282,-0.03663773,0.5
 4752521,0.02679961,-0.04536827,-0.02471081,-0.01064138,-0.05082395,-0.
 09329314,-0.22299243,0.25039785,0.35844106,-0.00837865,-0.01874379,0.0
 0161143,-0.04721674,-0.07625215,-0.01341156,-0.29381100,-0.01328848,0.
 09279545,0.63759183,-0.06344641,-0.08354605,-0.02879440,-0.02062600,-0
 .02797598,-0.01763917,-0.03184744,-0.08663042,0.00295295,0.21901757,0.
 59344682,-0.02620606,-0.04418882,-0.00296251,0.01799236,0.00674966,0.0
 1454390,0.08411931,-0.00513641,-0.10388315,-0.10964230,0.16299481,0.26
 012276,-0.00153878,-0.00433067,0.00063408,0.01045566,-0.00800405,-0.01
 173134,-0.13509976,0.08912176,0.09689157,-0.00016588,0.01889926,0.0093
 6304,0.12974450,-0.00375375,-0.00371989,-0.00322368,0.01637553,-0.0159
 7825,-0.01226236,0.08615375,-0.15608190,-0.10985620,-0.00234298,0.0055
 4052,0.00517751,-0.09568249,0.16924949,0.00092543,-0.00351433,0.003011
 10,0.00161055,-0.00170965,-0.00824967,0.09492993,-0.11095022,-0.125214
 33,-0.00187500,-0.00428068,-0.00348387,-0.09962354,0.12299710,0.130396
 38,-0.23403131,-0.08331777,0.02418106,-0.08377614,0.01420446,0.0586108
 4,-0.03083948,0.00132012,0.02229119,-0.10251462,0.02494143,0.02942348,
 -0.00390695,-0.00260514,0.00353577,0.44735905,-0.09667482,-0.14397999,
 0.01303180,-0.04107711,0.00191549,0.00243716,0.05668809,-0.01393598,-0
 .04425516,0.03948436,-0.20506059,-0.09278221,0.00067893,0.00199423,-0.
 00287824,0.06230396,0.40041990,0.01451316,0.00125831,-0.08249062,0.027
 72521,-0.02211699,0.00622099,0.05371620,-0.01939742,-0.01586474,0.0380
 6934,-0.08618181,-0.13291512,0.00528343,-0.00155648,0.00389082,-0.1185
 2821,0.13554131,0.22930182,-0.00049136,0.00108509,0.00316922,-0.004270
 08,-0.00365743,0.00290796,-0.00336555,-0.01766124,-0.00890268,-0.18107
 822,-0.14455449,-0.00842161,-0.00048990,0.00084476,-0.00011454,0.00868
 835,0.00879684,-0.00208640,0.18004995,0.00086353,-0.00281297,-0.004751
 43,-0.00045539,0.00176700,-0.00263646,0.00370701,0.00278591,0.00103616
 ,-0.14174557,-0.19801797,-0.03213173,-0.00038791,-0.00063302,0.0007763
 7,-0.01548458,-0.01736900,0.00100766,0.15503838,0.21484415,0.00299972,
 -0.00540445,0.00103446,0.00463229,-0.00106938,0.00446321,0.00230273,0.
 01025171,0.00248317,-0.00646624,-0.03057228,-0.03751752,-0.00075526,0.
 00023497,-0.00129437,-0.01539538,-0.00992992,-0.00510440,0.01307683,0.
 03718256,0.03474897,-0.08758490,-0.01830376,0.00085248,0.00383849,0.02
 421109,0.00884220,-0.00348260,0.00251125,0.00434861,-0.00429209,-0.005
 14002,0.00216762,0.00098206,0.00090459,0.00073279,-0.00186198,-0.02705
 660,-0.01656980,0.00077272,-0.00160032,-0.00038786,0.57968685,-0.01784
 971,-0.18374766,-0.06779839,0.00284614,-0.02274924,-0.01192094,0.00893
 979,0.01178165,-0.00080593,-0.00969678,0.00935113,0.00631578,-0.000206
 71,0.00043367,0.00018330,-0.00680151,-0.02782649,-0.01069179,0.0003146
 8,0.00026101,-0.00012176,0.04393756,0.44496700,0.00102363,-0.06847191,
 -0.10329404,-0.00363007,-0.02018690,-0.01579377,0.00632626,-0.00090019
 ,0.00200656,0.00062076,0.00152190,0.00528556,0.00016333,-0.00149737,0.
 00102045,-0.00445870,-0.00036623,-0.00466485,0.00036955,-0.00051194,0.
 00141920,-0.04321997,0.07776671,0.50648674,0.00153598,-0.00033517,-0.0
 0260691,0.00075448,-0.00014875,0.00093865,0.00048538,0.00025821,-0.000
 43270,-0.00010794,0.00095963,0.00020027,0.00005464,-0.00002998,0.00000
 501,0.00038217,-0.00058638,-0.00063658,0.00010146,0.00000042,0.0001406
 2,-0.13907678,0.00661476,0.12027589,0.14064550,0.01860309,-0.00121526,
 -0.02381806,-0.00224710,-0.00305793,-0.00371280,0.00058967,-0.00175087
 ,-0.00016462,0.00042429,-0.00046067,-0.00096629,-0.00001066,-0.0007004
 6,0.00021248,0.00120968,0.00203621,0.00239331,-0.00011494,0.00003051,-
 0.00000879,0.00558244,-0.04774604,-0.01663614,-0.01097715,0.05852260,0
 .01169573,-0.00120958,-0.01028179,-0.00123328,-0.00231395,-0.00095302,
 0.00032067,-0.00023330,-0.00011484,0.00011485,-0.00081470,-0.00018283,
 -0.00017552,-0.00024918,-0.00005323,0.00007007,0.00210867,0.00156449,-
 0.00004740,0.00002653,0.00001013,0.11496968,-0.01702599,-0.21060372,-0
 .12756964,0.00637244,0.23754867,-0.00360127,-0.00106509,0.00155011,0.0
 0044500,0.00164199,0.00072743,0.00002139,-0.00117395,-0.00008805,0.000
 35348,-0.00004047,0.00003747,-0.00000297,0.00002012,-0.00013359,0.0003
 7236,-0.00087191,-0.00131157,0.00006585,-0.00002035,-0.00015762,-0.278
 30599,-0.04891160,-0.04968049,-0.01572249,-0.00485307,-0.00290397,0.30
 256699,-0.02949514,-0.00562516,-0.00516209,0.00070537,0.00223228,0.002
 86050,-0.00089203,-0.00083179,-0.00049117,-0.00010643,-0.00184916,0.00
 014219,0.00006764,0.00005646,-0.00010359,-0.00032351,-0.00283997,-0.00
 463864,0.00027788,-0.00067004,0.00009228,-0.04840150,-0.05611663,-0.01
 548857,0.00279777,0.00213989,-0.00033744,0.04620358,0.06720713,-0.0149
 0814,-0.00349902,-0.00081284,0.00026933,0.00136220,0.00085176,-0.00005
 564,-0.00000346,-0.00002436,-0.00066991,-0.00020233,0.00011139,0.00004
 611,0.00002396,0.00009740,0.00052297,-0.00187279,-0.00073302,0.0000948
 2,-0.00022912,-0.00009326,-0.04454931,-0.01427735,-0.06246077,0.023977
 05,0.00496981,0.00795488,0.06196811,0.00635201,0.06700741,0.00437139,0
 .00299027,0.00433956,0.00057506,-0.00024831,-0.00085347,0.00116455,0.0
 0032899,-0.00000738,-0.00045515,0.00155314,0.00068018,-0.00002125,0.00
 009007,0.00001328,0.00022835,-0.00181035,0.00020065,-0.00000680,0.0001
 1445,-0.00007128,-0.07072836,0.00766186,-0.03283725,0.01049679,-0.0078
 3204,0.00533857,-0.00658148,0.02875375,-0.02733036,0.07525928,0.010100
 09,-0.03795944,0.01680179,-0.00099939,0.00281023,0.00461893,-0.0042461
 5,-0.00447743,-0.00216728,0.00231840,-0.00377458,-0.00481647,-0.000107
 73,-0.00019094,-0.00059708,0.00337260,0.00309769,0.00314627,-0.0003018
 2,-0.00020733,-0.00053852,0.02778103,-0.10668960,0.06086870,0.00249707
 ,-0.00898548,0.01453652,0.00896409,-0.00511919,0.00860075,0.00383928,0
 .55391437,0.00569035,-0.00142163,0.01652555,0.00126079,-0.00224517,-0.
 00027056,0.00106712,0.00175371,-0.00007362,-0.00127997,0.00102096,0.00
 084182,-0.00013827,0.00021973,-0.00019297,-0.00067859,-0.00171494,0.00
 052603,-0.00005588,0.00021891,-0.00019635,-0.02837584,0.00933935,-0.12
 799301,-0.01464258,0.03088456,-0.02518395,-0.00946101,0.01669584,-0.01
 209340,0.08885146,0.12237635,0.29842161,-0.00031648,0.00092116,-0.0013
 9482,0.00002530,0.00012484,0.00033899,0.00008969,-0.00004120,-0.000061
 83,0.00007496,0.00028380,0.00028624,-0.00001137,0.00002554,-0.00000609
 ,-0.00009980,0.00012497,-0.00037543,0.00002357,-0.00002968,0.00008147,
 0.00005259,0.01315151,0.00504708,0.00045082,-0.00037422,-0.00057975,0.
 00038913,0.00041263,0.00063497,-0.01430239,-0.05321746,-0.04223759,0.0
 1362399,0.00185880,-0.00603040,0.00335939,-0.00024898,0.00142692,0.001
 85418,-0.00142402,-0.00126696,-0.00045438,0.00093155,-0.00102303,-0.00
 135803,-0.00003738,0.00003008,-0.00013545,0.00118028,0.00154851,0.0012
 3627,-0.00006773,0.00002176,-0.00011643,-0.00442576,-0.02191880,-0.016
 09806,-0.00105043,0.00118750,-0.00086002,0.00010667,0.00141621,-0.0012
 2466,-0.03544111,-0.39241831,-0.17712765,0.03861810,0.41702652,-0.0011
 6079,0.00092567,-0.00253824,-0.00031920,0.00060413,0.00025742,-0.00006
 752,0.00010572,0.00024820,0.00013315,-0.00000524,0.00003957,0.00004239
 ,-0.00000800,0.00007229,0.00042551,0.00068056,0.00026861,0.00001013,0.
 00001248,0.00004676,0.00118941,0.02903702,0.00859167,0.00035094,0.0004
 7411,0.00029522,-0.00054683,0.00007869,0.00019481,-0.03832396,-0.22282
 998,-0.15031115,0.03826677,0.19092484,0.14283484\\-0.00000035,0.000000
 65,-0.00000745,0.00000603,0.00000200,0.00002253,0.00001155,-0.00000532
 ,0.00002842,0.00000885,-0.00000755,0.00001122,0.00000422,-0.00000025,0
 .00001472,0.00000442,-0.00000544,-0.00001301,0.00001027,-0.00000537,0.
 00000950,-0.00002911,0.00002028,-0.00000552,0.00001547,0.00000668,-0.0
 0003266,-0.00002605,0.00000807,-0.00001458,0.00000360,0.00000731,0.000
 02028,-0.00000890,-0.00002107,-0.00003346\\\@
 The archive entry for this job was punched.


 MISERY NO LONGER LOVES COMPANY.  NOWADAYS IT INSISTS ON IT.

                                              -- BAKER'S LAW
 Job cpu time:       0 days  0 hours 12 minutes 56.6 seconds.
 Elapsed time:       0 days  0 hours  1 minutes  8.8 seconds.
 File lengths (MBytes):  RWF=    105 Int=      0 D2E=      0 Chk=     13 Scr=      1
 Normal termination of Gaussian 16 at Thu Jan 11 14:12:14 2024.
