 Entering Gaussian System, Link 0=g16
 Input=glycerol-CO2_binding_direct-site_index-0-freq.gjf
 Output=glycerol-CO2_binding_direct-site_index-0-freq.log
 Initial command:
 /software/commercial/gaussian/g16/AVX/g16/l1.exe "/scratch1/svicchi/G09-659920.pbs02/Gau-703083.inp" -scrdir="/scratch1/svicchi/G09-659920.pbs02/"
 Entering Link 1 = /software/commercial/gaussian/g16/AVX/g16/l1.exe PID=    703084.
  
 Copyright (c) 1988-2019, Gaussian, Inc.  All Rights Reserved.
  
 This is part of the Gaussian(R) 16 program.  It is based on
 the Gaussian(R) 09 system (copyright 2009, Gaussian, Inc.),
 the Gaussian(R) 03 system (copyright 2003, Gaussian, Inc.),
 the Gaussian(R) 98 system (copyright 1998, Gaussian, Inc.),
 the Gaussian(R) 94 system (copyright 1995, Gaussian, Inc.),
 the Gaussian 92(TM) system (copyright 1992, Gaussian, Inc.),
 the Gaussian 90(TM) system (copyright 1990, Gaussian, Inc.),
 the Gaussian 88(TM) system (copyright 1988, Gaussian, Inc.),
 the Gaussian 86(TM) system (copyright 1986, Carnegie Mellon
 University), and the Gaussian 82(TM) system (copyright 1983,
 Carnegie Mellon University). Gaussian is a federally registered
 trademark of Gaussian, Inc.
  
 This software contains proprietary and confidential information,
 including trade secrets, belonging to Gaussian, Inc.
  
 This software is provided under written license and may be
 used, copied, transmitted, or stored only in accord with that
 written license.
  
 The following legend is applicable only to US Government
 contracts under FAR:
  
                    RESTRICTED RIGHTS LEGEND
  
 Use, reproduction and disclosure by the US Government is
 subject to restrictions as set forth in subparagraphs (a)
 and (c) of the Commercial Computer Software - Restricted
 Rights clause in FAR 52.227-19.
  
 Gaussian, Inc.
 340 Quinnipiac St., Bldg. 40, Wallingford CT 06492
  
  
 ---------------------------------------------------------------
 Warning -- This program may not be used in any manner that
 competes with the business of Gaussian, Inc. or will provide
 assistance to any competitor of Gaussian, Inc.  The licensee
 of this program is prohibited from giving any competitor of
 Gaussian, Inc. access to this program.  By using this program,
 the user acknowledges that Gaussian, Inc. is engaged in the
 business of creating and licensing software in the field of
 computational chemistry and represents and warrants to the
 licensee that it is not a competitor of Gaussian, Inc. and that
 it will not use this program in any manner prohibited above.
 ---------------------------------------------------------------
  

 Cite this work as:
 Gaussian 16, Revision C.01,
 M. J. Frisch, G. W. Trucks, H. B. Schlegel, G. E. Scuseria, 
 M. A. Robb, J. R. Cheeseman, G. Scalmani, V. Barone, 
 G. A. Petersson, H. Nakatsuji, X. Li, M. Caricato, A. V. Marenich, 
 J. Bloino, B. G. Janesko, R. Gomperts, B. Mennucci, H. P. Hratchian, 
 J. V. Ortiz, A. F. Izmaylov, J. L. Sonnenberg, D. Williams-Young, 
 F. Ding, F. Lipparini, F. Egidi, J. Goings, B. Peng, A. Petrone, 
 T. Henderson, D. Ranasinghe, V. G. Zakrzewski, J. Gao, N. Rega, 
 G. Zheng, W. Liang, M. Hada, M. Ehara, K. Toyota, R. Fukuda, 
 J. Hasegawa, M. Ishida, T. Nakajima, Y. Honda, O. Kitao, H. Nakai, 
 T. Vreven, K. Throssell, J. A. Montgomery, Jr., J. E. Peralta, 
 F. Ogliaro, M. J. Bearpark, J. J. Heyd, E. N. Brothers, K. N. Kudin, 
 V. N. Staroverov, T. A. Keith, R. Kobayashi, J. Normand, 
 K. Raghavachari, A. P. Rendell, J. C. Burant, S. S. Iyengar, 
 J. Tomasi, M. Cossi, J. M. Millam, M. Klene, C. Adamo, R. Cammi, 
 J. W. Ochterski, R. L. Martin, K. Morokuma, O. Farkas, 
 J. B. Foresman, and D. J. Fox, Gaussian, Inc., Wallingford CT, 2019.
 
 ******************************************
 Gaussian 16:  ES64L-G16RevC.01  3-Jul-2019
                 2-Jun-2023 
 ******************************************
 %NProcShared=2
 Will use up to    2 processors via shared memory.
 %mem=55gb
 %chk=/scratch1/svicchi/G09-659920.pbs02/02-freq/glycerol-CO2_binding_direct-site
 _index-0-freq.chk
 ----------------------------------------------------------------------
 #p freq=raman scale=0.967 pop=(nbo,full,hirshfeld) guess=read geom=all
 check b3lyp/6-311+G(d,p) int=grid=ultrafine EmpiricalDispersion=GD3BJ 
 SCRF=(Solvent=ethanol) scf=(xqc,intrep,maxconventionalcycle=350) nosym
 m
 ----------------------------------------------------------------------
 1/10=4,29=7,30=1,38=1,114=967000/1,3;
 2/12=2,15=1,40=1/2;
 3/5=4,6=6,7=111,11=2,14=-4,25=1,30=1,70=2201,71=2,72=4,74=-5,75=-5,116=-2,124=41,140=1/1,2,3;
 4/5=1/1;
 5/5=2,8=3,13=1,17=20,38=6,53=4,85=350,98=1/2,8;
 8/6=4,10=90,11=11/1;
 10/13=10,15=4,31=1/2;
 11/6=3,8=1,9=11,15=111,16=1,31=1/1,2,10;
 10/6=1,31=1/2;
 6/7=3,28=1,40=1,79=1/1,7;
 7/8=1,10=1,25=1,30=1/1,2,3,16;
 1/10=4,30=1/3;
 99//99;
 Leave Link    1 at Fri Jun  2 14:05:09 2023, MaxMem=  7381975040 cpu:               1.5 elap:               1.5
 (Enter /software/commercial/gaussian/g16/AVX/g16/l101.exe)
 Structure from the checkpoint file:  "/scratch1/svicchi/G09-659920.pbs02/02-freq/glycerol-CO2_binding_direct-site_index-0-freq.chk"
 --------------------------------------------
 glycerol-CO2_binding_direct-site_index-0.gjf
 --------------------------------------------
 Charge =  0 Multiplicity = 1
 No Z-Matrix found in chk file; cartesian coordinates used.
  O                                                 2.598787246282     -0.010199111696      0.950303732025
  C                                                 1.308553070676      0.565597100772      1.154606316496
  C                                                 0.333946281066      0.134765644141      0.072502143609
  O                                                 0.267266975883     -1.295537570575      0.131304376232
  C                                                -1.044885524933      0.744403641738      0.253924504309
  O                                                -1.863139271052      0.225144667645     -0.802371719059
  H                                                 0.915516317395      0.281085989672      2.138144863208
  H                                                 1.442578294962      1.647371726883      1.129655149912
  H                                                 0.728092365827      0.437814930413     -0.906450158199
  H                                                -0.419740602985     -1.574849147116     -0.486705514480
  H                                                -1.452488103232      0.459558146741      1.229647193609
  H                                                -0.982007577996      1.836774121694      0.196396659559
  H                                                -2.788030994341      0.384862063049     -0.589478735478
  H                                                 2.472542241863     -0.961587853610      0.845499059042
  C                                                 3.928329492985      1.210353110025     -1.142163563268
  O                                                 3.290774013815      2.167345647732     -0.981251337097
  O                                                 4.588843773784      0.277181892492     -1.342473970419
 Recover connectivity data from disk.
 ITRead=  0  0  0  0  0  0  0  0  0  0  0  0  0  0  0  0  0
 MicOpt= -1 -1 -1 -1 -1 -1 -1 -1 -1 -1 -1 -1 -1 -1 -1 -1 -1
 NAtoms=     17 NQM=       17 NQMF=       0 NMMI=      0 NMMIF=      0
                NMic=       0 NMicF=      0.
                    Isotopes and Nuclear Properties:
 (Nuclear quadrupole moments (NQMom) in fm**2, nuclear magnetic moments (NMagM)
  in nuclear magnetons)

  Atom         1           2           3           4           5           6           7           8           9          10
 IAtWgt=          16          12          12          16          12          16           1           1           1           1
 AtmWgt=  15.9949146  12.0000000  12.0000000  15.9949146  12.0000000  15.9949146   1.0078250   1.0078250   1.0078250   1.0078250
 NucSpn=           0           0           0           0           0           0           1           1           1           1
 AtZEff=   5.6000000   3.6000000   3.6000000   5.6000000   3.6000000   5.6000000   1.0000000   1.0000000   1.0000000   1.0000000
 NQMom=    0.0000000   0.0000000   0.0000000   0.0000000   0.0000000   0.0000000   0.0000000   0.0000000   0.0000000   0.0000000
 NMagM=    0.0000000   0.0000000   0.0000000   0.0000000   0.0000000   0.0000000   2.7928460   2.7928460   2.7928460   2.7928460
 AtZNuc=   8.0000000   6.0000000   6.0000000   8.0000000   6.0000000   8.0000000   1.0000000   1.0000000   1.0000000   1.0000000

  Atom        11          12          13          14          15          16          17
 IAtWgt=           1           1           1           1          12          16          16
 AtmWgt=   1.0078250   1.0078250   1.0078250   1.0078250  12.0000000  15.9949146  15.9949146
 NucSpn=           1           1           1           1           0           0           0
 AtZEff=   1.0000000   1.0000000   1.0000000   1.0000000   3.6000000   5.6000000   5.6000000
 NQMom=    0.0000000   0.0000000   0.0000000   0.0000000   0.0000000   0.0000000   0.0000000
 NMagM=    2.7928460   2.7928460   2.7928460   2.7928460   0.0000000   0.0000000   0.0000000
 AtZNuc=   1.0000000   1.0000000   1.0000000   1.0000000   6.0000000   8.0000000   8.0000000
 Leave Link  101 at Fri Jun  2 14:05:11 2023, MaxMem=  7381975040 cpu:               0.3 elap:               0.9
 (Enter /software/commercial/gaussian/g16/AVX/g16/l103.exe)

 GradGradGradGradGradGradGradGradGradGradGradGradGradGradGradGradGradGrad
 Berny optimization.
 Initialization pass.
 Trust Radius=3.00D-01 FncErr=1.00D-07 GrdErr=1.00D-07 EigMax=2.50D+02 EigMin=1.00D-04
 Number of steps in this run=      2 maximum allowed number of steps=      2.
 GradGradGradGradGradGradGradGradGradGradGradGradGradGradGradGradGradGrad

 Leave Link  103 at Fri Jun  2 14:05:14 2023, MaxMem=  7381975040 cpu:               0.1 elap:               1.8
 (Enter /software/commercial/gaussian/g16/AVX/g16/l202.exe)
                          Input orientation:                          
 ---------------------------------------------------------------------
 Center     Atomic      Atomic             Coordinates (Angstroms)
 Number     Number       Type             X           Y           Z
 ---------------------------------------------------------------------
      1          8           0        2.598787   -0.010199    0.950304
      2          6           0        1.308553    0.565597    1.154606
      3          6           0        0.333946    0.134766    0.072502
      4          8           0        0.267267   -1.295538    0.131304
      5          6           0       -1.044886    0.744404    0.253925
      6          8           0       -1.863139    0.225145   -0.802372
      7          1           0        0.915516    0.281086    2.138145
      8          1           0        1.442578    1.647372    1.129655
      9          1           0        0.728092    0.437815   -0.906450
     10          1           0       -0.419741   -1.574849   -0.486706
     11          1           0       -1.452488    0.459558    1.229647
     12          1           0       -0.982008    1.836774    0.196397
     13          1           0       -2.788031    0.384862   -0.589479
     14          1           0        2.472542   -0.961588    0.845499
     15          6           0        3.928329    1.210353   -1.142164
     16          8           0        3.290774    2.167346   -0.981251
     17          8           0        4.588844    0.277182   -1.342474
 ---------------------------------------------------------------------
                    Distance matrix (angstroms):
                    1          2          3          4          5
     1  O    0.000000
     2  C    1.427580   0.000000
     3  C    2.433322   1.518691   0.000000
     4  O    2.785470   2.365427   1.433064   0.000000
     5  C    3.785594   2.526237   1.518470   2.428609   0.000000
     6  O    4.799588   3.742366   2.366592   2.779003   1.433503
     7  H    2.080676   1.096710   2.150933   2.633131   2.758283
     8  H    2.028923   1.090331   2.152816   3.322465   2.787424
     9  H    2.673528   2.145045   1.097970   2.072150   2.141008
    10  H    3.691156   3.203500   1.950267   0.965366   2.513617
    11  H    4.087975   2.764095   2.153096   2.691519   1.095131
    12  H    4.098997   2.789395   2.154975   3.372877   1.095690
    13  H    5.616477   4.456063   3.201173   3.560634   1.969557
    14  H    0.965434   1.944920   2.524502   2.341973   3.953817
    15  C    2.763304   3.543175   3.943589   4.615689   5.186428
    16  O    2.991898   3.325160   3.739600   4.729792   4.727406
    17  O    3.049548   4.132663   4.486267   4.829233   5.874154
                    6          7          8          9         10
     6  O    0.000000
     7  H    4.046071   0.000000
     8  H    4.084511   1.778084   0.000000
     9  H    2.602027   3.054382   2.473710   0.000000
    10  H    2.328738   3.480983   4.057531   2.354681   0.000000
    11  H    2.086309   2.542571   3.130864   3.052592   2.855039
    12  H    2.090761   3.129081   2.604892   2.469372   3.524478
    13  H    0.962423   4.600757   4.737869   3.530779   3.075684
    14  H    4.787687   2.374763   2.819262   2.840908   3.242863
    15  C    5.884488   4.549836   3.395748   3.300590   5.205064
    16  O    5.510623   4.350915   2.853441   3.092606   5.293063
    17  O    6.474759   5.060440   4.229401   3.888614   5.408168
                   11         12         13         14         15
    11  H    0.000000
    12  H    1.784848   0.000000
    13  H    2.257980   2.446910   0.000000
    14  H    4.192027   4.492892   5.616558   0.000000
    15  C    5.928101   5.127919   6.789433   3.284425   0.000000
    16  O    5.504829   4.444412   6.346858   3.714397   1.161122
    17  O    6.568619   5.986220   7.415988   3.286413   1.160695
                   16         17
    16  O    0.000000
    17  O    2.321247   0.000000
 Symmetry turned off by external request.
 Stoichiometry    C4H8O5
 Framework group  C1[X(C4H8O5)]
 Deg. of freedom    45
 Full point group                 C1      NOp   1
 Rotational constants (GHZ):           2.5987816           0.6853777           0.6438856
 Leave Link  202 at Fri Jun  2 14:05:16 2023, MaxMem=  7381975040 cpu:               0.0 elap:               0.7
 (Enter /software/commercial/gaussian/g16/AVX/g16/l301.exe)
 Standard basis: 6-311+G(d,p) (5D, 7F)
 Ernie: Thresh=  0.10000D-02 Tol=  0.10000D-05 Strict=F.
   246 basis functions,   388 primitive gaussians,   255 cartesian basis functions
    36 alpha electrons       36 beta electrons
       nuclear repulsion energy       457.0992635848 Hartrees.
 IExCor=  402 DFT=T Ex+Corr=B3LYP ExCW=0 ScaHFX=  0.200000
 ScaDFX=  0.800000  0.720000  1.000000  0.810000 ScalE2=  1.000000  1.000000
 IRadAn=      5 IRanWt=     -1 IRanGd=            0 ICorTp=0 IEmpDi=141
 NAtoms=   17 NActive=   17 NUniq=   17 SFac= 1.00D+00 NAtFMM=   60 NAOKFM=F Big=F
 Integral buffers will be    131072 words long.
 Raffenetti 2 integral format.
 Two-electron integral symmetry is turned off.
 R6Disp:  Grimme-D3(BJ) Dispersion energy=       -0.0211006880 Hartrees.
 Nuclear repulsion after empirical dispersion term =      457.0781628967 Hartrees.
 Force inversion solution in PCM.
 ------------------------------------------------------------------------------
 Polarizable Continuum Model (PCM)
 =================================
 Model                : PCM.
 Atomic radii         : UFF (Universal Force Field).
 Polarization charges : Total charges.
 Charge compensation  : None.
 Solution method      : Matrix inversion.
 Cavity type          : Scaled VdW (van der Waals Surface) (Alpha=1.100).
 Cavity algorithm     : GePol (No added spheres)
                        Default sphere list used, NSphG=   17.
                        Lebedev-Laikov grids with approx.  5.0 points / Ang**2.
                        Smoothing algorithm: York/Karplus (Gamma=1.0000).
                        Polarization charges: spherical gaussians, with
                                              point-specific exponents (IZeta= 3).
                        Self-potential: point-specific (ISelfS= 7).
                        Self-field    : sphere-specific E.n sum rule (ISelfD= 2).
 1st derivatives      : Analytical E(r).r(x)/FMM algorithm (CHGder, D1EAlg=3).
                        Cavity 1st derivative terms included.
 2nd derivatives      : Analytical E(r).r(xy)/FMM algorithm (CHGder, D2EAlg=3).
                        Cavity 2nd derivative terms included.
 Solvent              : Ethanol, Eps=  24.852000 Eps(inf)=   1.852593
 ------------------------------------------------------------------------------
 Spheres list:
 ISph  on   Nord     Re0    Alpha      Xe            Ye            Ze
    1   O      1    1.7500  1.100      2.598787     -0.010199      0.950304
    2   C      2    1.9255  1.100      1.308553      0.565597      1.154606
    3   C      3    1.9255  1.100      0.333946      0.134766      0.072502
    4   O      4    1.7500  1.100      0.267267     -1.295538      0.131304
    5   C      5    1.9255  1.100     -1.044886      0.744404      0.253925
    6   O      6    1.7500  1.100     -1.863139      0.225145     -0.802372
    7   H      7    1.4430  1.100      0.915516      0.281086      2.138145
    8   H      8    1.4430  1.100      1.442578      1.647372      1.129655
    9   H      9    1.4430  1.100      0.728092      0.437815     -0.906450
   10   H     10    1.4430  1.100     -0.419741     -1.574849     -0.486706
   11   H     11    1.4430  1.100     -1.452488      0.459558      1.229647
   12   H     12    1.4430  1.100     -0.982008      1.836774      0.196397
   13   H     13    1.4430  1.100     -2.788031      0.384862     -0.589479
   14   H     14    1.4430  1.100      2.472542     -0.961588      0.845499
   15   C     15    1.9255  1.100      3.928329      1.210353     -1.142164
   16   O     16    1.7500  1.100      3.290774      2.167346     -0.981251
   17   O     17    1.7500  1.100      4.588844      0.277182     -1.342474
 ------------------------------------------------------------------------------
 GePol: Number of generator spheres                  =      17
 GePol: Total number of spheres                      =      17
 GePol: Number of exposed spheres                    =      17 (100.00%)
 GePol: Number of points                             =    1529
 GePol: Average weight of points                     =       0.13
 GePol: Minimum weight of points                     =   0.23D-09
 GePol: Maximum weight of points                     =    0.20577
 GePol: Number of points with low weight             =      84
 GePol: Fraction of low-weight points (<1% of avg)   =       5.49%
 GePol: Cavity surface area                          =    204.494 Ang**2
 GePol: Cavity volume                                =    194.272 Ang**3
 Leave Link  301 at Fri Jun  2 14:05:19 2023, MaxMem=  7381975040 cpu:               0.2 elap:               1.6
 (Enter /software/commercial/gaussian/g16/AVX/g16/l302.exe)
 NPDir=0 NMtPBC=     1 NCelOv=     1 NCel=       1 NClECP=     1 NCelD=      1
         NCelK=      1 NCelE2=     1 NClLst=     1 CellRange=     0.0.
 One-electron integrals computed using PRISM.
 NBasis=   246 RedAO= T EigKep=  3.11D-05  NBF=   246
 NBsUse=   246 1.00D-06 EigRej= -1.00D+00 NBFU=   246
 Precomputing XC quadrature grid using
 IXCGrd= 4 IRadAn=           5 IRanWt=          -1 IRanGd=           0 AccXCQ= 0.00D+00.
 Generated NRdTot=       0 NPtTot=           0 NUsed=           0 NTot=          32
 NSgBfM=   255   255   255   255   255 MxSgAt=    17 MxSgA2=    17.
 Leave Link  302 at Fri Jun  2 14:05:21 2023, MaxMem=  7381975040 cpu:               0.9 elap:               1.6
 (Enter /software/commercial/gaussian/g16/AVX/g16/l303.exe)
 DipDrv:  MaxL=1.
 Leave Link  303 at Fri Jun  2 14:05:23 2023, MaxMem=  7381975040 cpu:               0.2 elap:               1.3
 (Enter /software/commercial/gaussian/g16/AVX/g16/l401.exe)
 Initial guess from the checkpoint file:  "/scratch1/svicchi/G09-659920.pbs02/02-freq/glycerol-CO2_binding_direct-site_index-0-freq.chk"
 B after Tr=     0.000000    0.000000    0.000000
         Rot=    1.000000    0.000000    0.000000    0.000000 Ang=   0.00 deg.
 Guess basis will be translated and rotated to current coordinates.
 JPrj=2 DoOrth=T DoCkMO=T.
 Leave Link  401 at Fri Jun  2 14:05:25 2023, MaxMem=  7381975040 cpu:               0.8 elap:               1.3
 (Enter /software/commercial/gaussian/g16/AVX/g16/l502.exe)
 Keep R1 ints in memory in canonical form, NReq=469907492.
 FoFCou: FMM=F IPFlag=           0 FMFlag=           0 FMFlg1=           0
         NFxFlg=           0 DoJE=F BraDBF=F KetDBF=F FulRan=T
         wScrn=  0.000000 ICntrl=       600 IOpCl=  0 I1Cent=           0 NGrid=           0
         NMat0=    1 NMatS0=  30381 NMatT0=    0 NMatD0=    1 NMtDS0=    0 NMtDT0=    0
 Symmetry not used in FoFCou.
 Two-electron integral symmetry not used.
 Closed shell SCF:
 Using DIIS extrapolation, IDIIS=  1040.
 NGot=  7381975040 LenX=  6920323330 LenY=  6920257864
 Requested convergence on RMS density matrix=1.00D-08 within 350 cycles.
 Requested convergence on MAX density matrix=1.00D-06.
 Requested convergence on             energy=1.00D-06.
 No special actions if energy rises.

 Cycle   1  Pass 1  IDiag  1:
 Inv3:  Mode=1 IEnd=     7013523.
 Iteration    1 A*A^-1 deviation from unit magnitude is 4.33D-15 for   1521.
 Iteration    1 A*A^-1 deviation from orthogonality  is 2.58D-15 for   1521    408.
 Iteration    1 A^-1*A deviation from unit magnitude is 4.44D-15 for   1521.
 Iteration    1 A^-1*A deviation from orthogonality  is 3.71D-15 for   1028    957.
 E= -533.586956795914    
 DIIS: error= 6.80D-09 at cycle   1 NSaved=   1.
 NSaved= 1 IEnMin= 1 EnMin= -533.586956795914     IErMin= 1 ErrMin= 6.80D-09
 ErrMax= 6.80D-09  0.00D+00 EMaxC= 1.00D-01 BMatC= 1.69D-14 BMatP= 1.69D-14
 IDIUse=1 WtCom= 1.00D+00 WtEn= 0.00D+00
 Coeff-Com:  0.100D+01
 Coeff:      0.100D+01
 Gap=     0.281 Goal=   None    Shift=    0.000
 RMSDP=9.15D-10 MaxDP=4.02D-08              OVMax= 4.13D-08

 Error on total polarization charges =  0.01101
 SCF Done:  E(RB3LYP) =  -533.586956796     A.U. after    1 cycles
            NFock=  1  Conv=0.92D-09     -V/T= 2.0035
 KE= 5.317206195135D+02 PE=-2.168667304960D+03 EE= 6.462815657539D+02
 Leave Link  502 at Fri Jun  2 14:05:50 2023, MaxMem=  7381975040 cpu:              40.9 elap:              23.7
 (Enter /software/commercial/gaussian/g16/AVX/g16/l508.exe)
 QCSCF skips out because SCF is already converged.
 Leave Link  508 at Fri Jun  2 14:05:52 2023, MaxMem=  7381975040 cpu:               0.0 elap:               0.9
 (Enter /software/commercial/gaussian/g16/AVX/g16/l801.exe)
 DoSCS=F DFT=T ScalE2(SS,OS)=  1.000000  1.000000
 Range of M.O.s used for correlation:     1   246
 NBasis=   246 NAE=    36 NBE=    36 NFC=     0 NFV=     0
 NROrb=    246 NOA=    36 NOB=    36 NVA=   210 NVB=   210

 **** Warning!!: The largest alpha MO coefficient is  0.60943341D+02

 Leave Link  801 at Fri Jun  2 14:05:54 2023, MaxMem=  7381975040 cpu:               0.1 elap:               1.1
 (Enter /software/commercial/gaussian/g16/AVX/g16/l1002.exe)
 Minotr:  Closed shell wavefunction.
 NEqPCM:  Using equilibrium solvation (IEInf=0, Eps=  24.8520, EpsInf=   1.8526)
          Direct CPHF calculation.
          Differentiating once with respect to electric field.
                with respect to dipole field.
          Electric field/nuclear overlap derivatives assumed to be zero.
          Requested convergence is 1.0D-08 RMS, and 1.0D-07 maximum.
          Secondary convergence is 1.0D-12 RMS, and 1.0D-12 maximum.
          NewPWx=F KeepS1=T KeepF1=T KeepIn=T MapXYZ=F SortEE=F KeepMc=T.
         5256 words used for storage of precomputed grid.
 Keep R1 ints in memory in canonical form, NReq=469914727.
 FoFCou: FMM=F IPFlag=           0 FMFlag=           0 FMFlg1=           0
         NFxFlg=           0 DoJE=F BraDBF=F KetDBF=F FulRan=T
         wScrn=  0.000000 ICntrl=       600 IOpCl=  0 I1Cent=           0 NGrid=           0
         NMat0=    1 NMatS0=  30381 NMatT0=    0 NMatD0=    1 NMtDS0=    0 NMtDT0=    0
 Symmetry not used in FoFCou.
 Two-electron integral symmetry not used.
          MDV=    7381975040 using IRadAn=       1.
          Solving linear equations simultaneously, MaxMat=       0.
          There are     3 degrees of freedom in the 1st order CPHF.  IDoFFX=0 NUNeed=     3.
      3 vectors produced by pass  0 Test12= 2.52D-13 3.33D-08 XBig12= 4.60D+01 2.13D+00.
 AX will form     3 AO Fock derivatives at one time.
      3 vectors produced by pass  1 Test12= 2.52D-13 3.33D-08 XBig12= 1.56D+01 1.44D+00.
      3 vectors produced by pass  2 Test12= 2.52D-13 3.33D-08 XBig12= 2.80D+00 2.45D-01.
      3 vectors produced by pass  3 Test12= 2.52D-13 3.33D-08 XBig12= 7.28D-01 7.60D-02.
      3 vectors produced by pass  4 Test12= 2.52D-13 3.33D-08 XBig12= 8.40D-02 4.28D-02.
      3 vectors produced by pass  5 Test12= 2.52D-13 3.33D-08 XBig12= 7.25D-03 2.95D-02.
      3 vectors produced by pass  6 Test12= 2.52D-13 3.33D-08 XBig12= 2.49D-03 1.19D-02.
      3 vectors produced by pass  7 Test12= 2.52D-13 3.33D-08 XBig12= 1.08D-04 1.12D-03.
      3 vectors produced by pass  8 Test12= 2.52D-13 3.33D-08 XBig12= 3.98D-06 2.69D-04.
      3 vectors produced by pass  9 Test12= 2.52D-13 3.33D-08 XBig12= 1.17D-07 4.75D-05.
      3 vectors produced by pass 10 Test12= 2.52D-13 3.33D-08 XBig12= 3.38D-09 9.90D-06.
      3 vectors produced by pass 11 Test12= 2.52D-13 3.33D-08 XBig12= 8.52D-11 1.52D-06.
      3 vectors produced by pass 12 Test12= 2.52D-13 3.33D-08 XBig12= 1.47D-12 3.14D-07.
      1 vectors produced by pass 13 Test12= 2.52D-13 3.33D-08 XBig12= 3.65D-14 5.66D-08.
 InvSVY:  IOpt=1 It=  1 EMax= 1.78D-15
 Solved reduced A of dimension    40 with     3 vectors.
 End of Minotr F.D. properties file   721 does not exist.
 End of Minotr F.D. properties file   722 does not exist.
 End of Minotr F.D. properties file   788 does not exist.
 Leave Link 1002 at Fri Jun  2 14:07:53 2023, MaxMem=  7381975040 cpu:             218.9 elap:             117.7
 (Enter /software/commercial/gaussian/g16/AVX/g16/l1101.exe)
 Using compressed storage, NAtomX=    17.
 Will process     18 centers per pass.
 R6Disp: Adding Grimme-D3(BJ) dispersion energy 1st derivatives to the gradient.
 Leave Link 1101 at Fri Jun  2 14:07:56 2023, MaxMem=  7381975040 cpu:               0.8 elap:               1.9
 (Enter /software/commercial/gaussian/g16/AVX/g16/l1102.exe)
 Symmetrizing basis deriv contribution to polar:
 IMax=3 JMax=2 DiffMx= 0.00D+00
 Leave Link 1102 at Fri Jun  2 14:07:58 2023, MaxMem=  7381975040 cpu:               0.4 elap:               1.0
 (Enter /software/commercial/gaussian/g16/AVX/g16/l1110.exe)
 Forming Gx(P) for the SCF density, NAtomX=    17.
 Integral derivatives from FoFJK, PRISM(SPDF).
 Do as many integral derivatives as possible in FoFJK.
 G2DrvN: MDV=    7381973153.
 G2DrvN: will do    18 centers at a time, making    1 passes.
 PxScal for G2LodP:  IOpCl= 0 ISclPx=1 IMOff=     1 NMtTot=     4 NTT=   30381 ScalPx= 1.39D+01
 Calling FoFCou, ICntrl=  3107 FMM=F I1Cent=   0 AccDes= 0.00D+00.
 FoFJK:  IHMeth= 1 ICntrl=    3107 DoSepK=F KAlg= 0 I1Cent=           0 FoldK=F
 IRaf=         0 NMat=       1 IRICut=       1 DoRegI=T DoRafI=F ISym2E= 0 IDoP0=0 IntGTp=1.
 FoFCou: FMM=F IPFlag=           0 FMFlag=      100000 FMFlg1=           0
         NFxFlg=           0 DoJE=F BraDBF=F KetDBF=F FulRan=T
         wScrn=  0.000000 ICntrl=      3107 IOpCl=  0 I1Cent=           0 NGrid=           0
         NMat0=    1 NMatS0=      1 NMatT0=    0 NMatD0=    4 NMtDS0=    3 NMtDT0=    0
 Symmetry not used in FoFCou.
 PxScal for G2LodP:  IOpCl= 0 ISclPx=0 IMOff=     1 NMtTot=     4 NTT=   30381 ScalPx= 1.00D+00
 NEqPCM:  Using equilibrium solvation (IEInf=0, Eps=  24.8520, EpsInf=   1.8526)
 G2PCM: DoFxE=T DoFxN=T DoGrad=T DoDP/DQ/DG/TGxP=TFFF NFrqRd=   0 IEInf=0 SqF1=F DoCFld=F IF1Alg=4.
 GePol: Maximum number of non-zero 1st derivatives   =     220
 End of G2Drv F.D. properties file   721 does not exist.
 End of G2Drv F.D. properties file   722 does not exist.
 End of G2Drv F.D. properties file   788 does not exist.
 Leave Link 1110 at Fri Jun  2 14:13:03 2023, MaxMem=  7381975040 cpu:             600.2 elap:             303.7
 (Enter /software/commercial/gaussian/g16/AVX/g16/l1002.exe)
 Minotr:  Closed shell wavefunction.
          IDoAtm=11111111111111111
 NEqPCM:  Using equilibrium solvation (IEInf=0, Eps=  24.8520, EpsInf=   1.8526)
          Direct CPHF calculation.
          Differentiating once with respect to electric field.
                with respect to dipole field.
          Differentiating once with respect to nuclear coordinates.
          Requested convergence is 1.0D-08 RMS, and 1.0D-07 maximum.
          Secondary convergence is 1.0D-12 RMS, and 1.0D-12 maximum.
          NewPWx=T KeepS1=F KeepF1=F KeepIn=T MapXYZ=F SortEE=F KeepMc=T.
         5256 words used for storage of precomputed grid.
 Keep R1 ints in memory in canonical form, NReq=469915118.
 FoFCou: FMM=F IPFlag=           0 FMFlag=           0 FMFlg1=           0
         NFxFlg=           0 DoJE=F BraDBF=F KetDBF=F FulRan=T
         wScrn=  0.000000 ICntrl=       600 IOpCl=  0 I1Cent=           0 NGrid=           0
         NMat0=    1 NMatS0=  30381 NMatT0=    0 NMatD0=    1 NMtDS0=    0 NMtDT0=    0
 Symmetry not used in FoFCou.
 Two-electron integral symmetry not used.
          MDV=    7381975040 using IRadAn=       1.
          Solving linear equations simultaneously, MaxMat=       0.
          There are    54 degrees of freedom in the 1st order CPHF.  IDoFFX=5 NUNeed=    54.
 Will reuse    3 saved solutions.
     48 vectors produced by pass  0 Test12= 1.40D-14 1.85D-09 XBig12= 2.03D-01 1.08D-01.
 AX will form    48 AO Fock derivatives at one time.
     48 vectors produced by pass  1 Test12= 1.40D-14 1.85D-09 XBig12= 9.42D-03 1.36D-02.
     48 vectors produced by pass  2 Test12= 1.40D-14 1.85D-09 XBig12= 1.52D-04 1.51D-03.
     48 vectors produced by pass  3 Test12= 1.40D-14 1.85D-09 XBig12= 4.41D-07 1.02D-04.
     48 vectors produced by pass  4 Test12= 1.40D-14 1.85D-09 XBig12= 1.07D-09 6.44D-06.
     39 vectors produced by pass  5 Test12= 1.40D-14 1.85D-09 XBig12= 2.61D-12 3.31D-07.
     14 vectors produced by pass  6 Test12= 1.40D-14 1.85D-09 XBig12= 2.62D-15 6.64D-09.
 InvSVY:  IOpt=1 It=  1 EMax= 5.00D-16
 Solved reduced A of dimension   293 with    54 vectors.
 FullF1:  Do perturbations      1 to       3.
 Isotropic polarizability for W=    0.000000       82.12 Bohr**3.
 FullF1:  Do perturbations      1 to       6.
 End of Minotr F.D. properties file   721 does not exist.
 End of Minotr F.D. properties file   722 does not exist.
 End of Minotr F.D. properties file   788 does not exist.
 Leave Link 1002 at Fri Jun  2 14:18:22 2023, MaxMem=  7381975040 cpu:             614.6 elap:             318.1
 (Enter /software/commercial/gaussian/g16/AVX/g16/l601.exe)
 Copying SCF densities to generalized density rwf, IOpCl= 0 IROHF=0.

 **********************************************************************

            Population analysis using the SCF Density.

 **********************************************************************

 Alpha  occ. eigenvalues --  -19.20226 -19.20218 -19.14032 -19.13566 -19.13483
 Alpha  occ. eigenvalues --  -10.36031 -10.23108 -10.22712 -10.22453  -1.16379
 Alpha  occ. eigenvalues --   -1.12510  -1.05416  -1.03654  -1.02069  -0.77935
 Alpha  occ. eigenvalues --   -0.68619  -0.61264  -0.56653  -0.55487  -0.52567
 Alpha  occ. eigenvalues --   -0.52392  -0.51751  -0.51517  -0.50324  -0.48152
 Alpha  occ. eigenvalues --   -0.44027  -0.43093  -0.42119  -0.37528  -0.37463
 Alpha  occ. eigenvalues --   -0.37130  -0.36737  -0.34814  -0.29984  -0.29601
 Alpha  occ. eigenvalues --   -0.29060
 Alpha virt. eigenvalues --   -0.00986   0.00241   0.01999   0.02216   0.02828
 Alpha virt. eigenvalues --    0.03203   0.03581   0.04778   0.05392   0.05986
 Alpha virt. eigenvalues --    0.06952   0.08128   0.08451   0.09467   0.10978
 Alpha virt. eigenvalues --    0.11482   0.12236   0.13309   0.14293   0.15068
 Alpha virt. eigenvalues --    0.16473   0.16742   0.17510   0.17688   0.18181
 Alpha virt. eigenvalues --    0.19206   0.19832   0.20663   0.21742   0.22079
 Alpha virt. eigenvalues --    0.22651   0.23333   0.23851   0.24316   0.25193
 Alpha virt. eigenvalues --    0.25846   0.26213   0.27338   0.27714   0.28136
 Alpha virt. eigenvalues --    0.28779   0.29256   0.30574   0.31267   0.31918
 Alpha virt. eigenvalues --    0.32798   0.33980   0.34595   0.35808   0.37721
 Alpha virt. eigenvalues --    0.38457   0.40433   0.45766   0.47870   0.51169
 Alpha virt. eigenvalues --    0.52476   0.53617   0.54629   0.56798   0.58068
 Alpha virt. eigenvalues --    0.58529   0.61217   0.61894   0.62535   0.65452
 Alpha virt. eigenvalues --    0.65904   0.67891   0.70549   0.70640   0.72382
 Alpha virt. eigenvalues --    0.73657   0.74440   0.83658   0.84530   0.85983
 Alpha virt. eigenvalues --    0.92590   0.95350   0.97103   0.97741   1.00883
 Alpha virt. eigenvalues --    1.05492   1.06422   1.06628   1.07410   1.09930
 Alpha virt. eigenvalues --    1.10423   1.11797   1.12062   1.15175   1.16363
 Alpha virt. eigenvalues --    1.16732   1.18121   1.20724   1.24443   1.26369
 Alpha virt. eigenvalues --    1.26769   1.31896   1.32545   1.36294   1.37167
 Alpha virt. eigenvalues --    1.39901   1.40342   1.40917   1.44082   1.46395
 Alpha virt. eigenvalues --    1.49600   1.50622   1.52503   1.55214   1.56952
 Alpha virt. eigenvalues --    1.58770   1.59597   1.62625   1.62794   1.64474
 Alpha virt. eigenvalues --    1.67342   1.68773   1.73426   1.75035   1.78353
 Alpha virt. eigenvalues --    1.80613   1.87948   1.89581   1.90840   1.94389
 Alpha virt. eigenvalues --    2.01293   2.06613   2.07070   2.08696   2.10617
 Alpha virt. eigenvalues --    2.12740   2.15475   2.20357   2.29355   2.31426
 Alpha virt. eigenvalues --    2.45074   2.45858   2.49182   2.50336   2.52953
 Alpha virt. eigenvalues --    2.54058   2.56782   2.59520   2.61186   2.61854
 Alpha virt. eigenvalues --    2.66430   2.70128   2.72821   2.74089   2.74483
 Alpha virt. eigenvalues --    2.77953   2.82897   2.84606   2.85417   2.86102
 Alpha virt. eigenvalues --    2.88931   2.92982   2.99424   3.06566   3.08484
 Alpha virt. eigenvalues --    3.09690   3.11390   3.13366   3.15332   3.16008
 Alpha virt. eigenvalues --    3.19309   3.20540   3.21404   3.28647   3.30143
 Alpha virt. eigenvalues --    3.33345   3.44829   3.67209   3.68261   3.74559
 Alpha virt. eigenvalues --    3.80397   3.81512   3.84955   3.85466   3.88147
 Alpha virt. eigenvalues --    3.89023   3.94726   3.97837   4.00693   4.14577
 Alpha virt. eigenvalues --    4.29308   4.96234   5.00045   5.00409   5.03120
 Alpha virt. eigenvalues --    5.06486   5.07362   5.09285   5.35742   5.37827
 Alpha virt. eigenvalues --    5.40562   5.61838   5.63573   5.64421   5.66512
 Alpha virt. eigenvalues --    5.70267  23.77624  23.80848  23.85174  24.39611
 Alpha virt. eigenvalues --   49.88804  49.90243  49.92175  49.92806  50.06913
     Molecular Orbital Coefficients:
                           1         2         3         4         5
                           O         O         O         O         O
     Eigenvalues --   -19.20226 -19.20218 -19.14032 -19.13566 -19.13483
   1 1   O  1S          0.00000  -0.00000   0.00013   0.00032   0.55133
   2        2S         -0.00000  -0.00000   0.00010   0.00027   0.46972
   3        2PX         0.00000  -0.00001   0.00001   0.00001  -0.00110
   4        2PY        -0.00001   0.00001  -0.00000  -0.00002  -0.00060
   5        2PZ         0.00000   0.00001   0.00001   0.00001   0.00005
   6        3S          0.00004  -0.00000   0.00009   0.00011   0.01373
   7        3PX        -0.00002   0.00007  -0.00004  -0.00006   0.00001
   8        3PY         0.00006  -0.00003   0.00001   0.00010  -0.00015
   9        3PZ        -0.00001  -0.00004  -0.00002  -0.00005  -0.00010
  10        4S          0.00015  -0.00006  -0.00034  -0.00038  -0.01028
  11        4PX        -0.00000  -0.00022   0.00025   0.00053   0.00150
  12        4PY        -0.00047   0.00030  -0.00001  -0.00004  -0.00074
  13        4PZ         0.00001   0.00019   0.00007   0.00015   0.00010
  14        5S          0.00028  -0.00082  -0.00051  -0.00203   0.00921
  15        5PX        -0.00001   0.00042   0.00006   0.00018  -0.00111
  16        5PY         0.00023  -0.00024   0.00016  -0.00013  -0.00063
  17        5PZ        -0.00002   0.00036   0.00024   0.00018  -0.00077
  18        6D 0       -0.00001   0.00001   0.00001   0.00004  -0.00009
  19        6D+1        0.00001   0.00000  -0.00000  -0.00002   0.00002
  20        6D-1        0.00003  -0.00002  -0.00000  -0.00002   0.00005
  21        6D+2       -0.00003   0.00004   0.00000   0.00000  -0.00022
  22        6D-2        0.00001  -0.00001   0.00001  -0.00001   0.00006
  23 2   C  1S          0.00000  -0.00000  -0.00000  -0.00000   0.00002
  24        2S         -0.00002   0.00001   0.00001   0.00002  -0.00006
  25        2PX        -0.00002   0.00003  -0.00001  -0.00003   0.00014
  26        2PY        -0.00001  -0.00000  -0.00000  -0.00001  -0.00008
  27        2PZ         0.00001  -0.00001  -0.00001  -0.00006  -0.00004
  28        3S          0.00015  -0.00014  -0.00020  -0.00018   0.00001
  29        3PX         0.00012  -0.00013   0.00006   0.00020   0.00017
  30        3PY         0.00004   0.00006   0.00003   0.00016   0.00016
  31        3PZ        -0.00008   0.00006   0.00008   0.00036   0.00017
  32        4S         -0.00017   0.00080   0.00225   0.00044   0.00508
  33        4PX        -0.00001   0.00004  -0.00081   0.00077   0.00086
  34        4PY         0.00003   0.00035   0.00001   0.00042  -0.00129
  35        4PZ         0.00030  -0.00063  -0.00050  -0.00034  -0.00112
  36        5S         -0.00594  -0.00002  -0.00627   0.01521  -0.01388
  37        5PX         0.00126   0.00044   0.00095  -0.00190  -0.00047
  38        5PY         0.00026   0.00038   0.00041  -0.00181   0.00142
  39        5PZ         0.00156  -0.00013   0.00062  -0.00260   0.00327
  40        6D 0       -0.00002  -0.00002  -0.00000  -0.00006   0.00008
  41        6D+1       -0.00000   0.00003   0.00001  -0.00005   0.00002
  42        6D-1        0.00000   0.00000  -0.00004  -0.00007  -0.00003
  43        6D+2        0.00002  -0.00006  -0.00001  -0.00009  -0.00015
  44        6D-2        0.00002   0.00001   0.00000  -0.00004   0.00011
  45 3   C  1S          0.00000  -0.00000   0.00000   0.00001   0.00000
  46        2S         -0.00000   0.00000  -0.00000  -0.00003   0.00000
  47        2PX        -0.00003   0.00002  -0.00003  -0.00001   0.00002
  48        2PY        -0.00001   0.00000  -0.00000  -0.00014  -0.00001
  49        2PZ         0.00000  -0.00001   0.00000   0.00007   0.00004
  50        3S         -0.00004   0.00005   0.00007  -0.00021   0.00012
  51        3PX         0.00013  -0.00008   0.00027   0.00008  -0.00010
  52        3PY         0.00004   0.00000  -0.00001  -0.00020   0.00005
  53        3PZ        -0.00003   0.00004  -0.00001  -0.00040  -0.00023
  54        4S          0.00067  -0.00087  -0.00202   0.00405  -0.00213
  55        4PX        -0.00006   0.00023   0.00041  -0.00018  -0.00125
  56        4PY         0.00003  -0.00059  -0.00172  -0.00198  -0.00122
  57        4PZ        -0.00011  -0.00013  -0.00121   0.00054  -0.00085
  58        5S          0.00592  -0.00153   0.02350  -0.02182   0.02167
  59        5PX         0.00023   0.00094  -0.00123  -0.00245  -0.00088
  60        5PY         0.00023  -0.00072   0.00244   0.00159   0.00168
  61        5PZ         0.00024  -0.00045   0.00264  -0.00487   0.00306
  62        6D 0       -0.00000  -0.00001   0.00006   0.00011  -0.00000
  63        6D+1       -0.00003   0.00000  -0.00001  -0.00006  -0.00015
  64        6D-1       -0.00002  -0.00000   0.00001  -0.00001  -0.00001
  65        6D+2        0.00002  -0.00003  -0.00010   0.00009  -0.00008
  66        6D-2        0.00002  -0.00001   0.00006   0.00002  -0.00007
  67 4   O  1S          0.00000   0.00000   0.00010   0.55133  -0.00032
  68        2S          0.00000   0.00000   0.00007   0.46972  -0.00028
  69        2PX         0.00000   0.00000   0.00000  -0.00068   0.00000
  70        2PY        -0.00000  -0.00000  -0.00002   0.00073  -0.00001
  71        2PZ        -0.00000  -0.00000  -0.00001  -0.00071  -0.00001
  72        3S          0.00001   0.00003   0.00014   0.01376   0.00004
  73        3PX        -0.00000  -0.00000  -0.00001  -0.00008   0.00000
  74        3PY         0.00000   0.00000   0.00011  -0.00006   0.00005
  75        3PZ         0.00001   0.00001   0.00003  -0.00005   0.00003
  76        4S         -0.00010  -0.00020  -0.00055  -0.01042   0.00023
  77        4PX         0.00001   0.00002   0.00037  -0.00019  -0.00030
  78        4PY        -0.00003  -0.00005  -0.00052  -0.00176  -0.00042
  79        4PZ        -0.00001   0.00001   0.00032  -0.00007  -0.00022
  80        5S         -0.00033   0.00007  -0.00273   0.00941  -0.00259
  81        5PX         0.00031   0.00002  -0.00044  -0.00025  -0.00005
  82        5PY         0.00013   0.00014  -0.00084   0.00090  -0.00090
  83        5PZ         0.00025   0.00012  -0.00039  -0.00025  -0.00030
  84        6D 0       -0.00000   0.00000   0.00003   0.00005   0.00002
  85        6D+1       -0.00000  -0.00000  -0.00005   0.00018   0.00001
  86        6D-1        0.00000  -0.00000   0.00001   0.00010   0.00001
  87        6D+2       -0.00000   0.00000  -0.00000   0.00013   0.00002
  88        6D-2       -0.00000  -0.00000   0.00001   0.00009  -0.00000
  89 5   C  1S         -0.00000  -0.00000   0.00002  -0.00000  -0.00000
  90        2S          0.00000   0.00000  -0.00006   0.00001   0.00000
  91        2PX         0.00001   0.00000  -0.00005   0.00008   0.00003
  92        2PY         0.00000   0.00000  -0.00009  -0.00005  -0.00001
  93        2PZ         0.00000  -0.00000  -0.00014  -0.00001   0.00000
  94        3S          0.00000  -0.00007   0.00004  -0.00011  -0.00009
  95        3PX        -0.00003  -0.00001  -0.00030  -0.00040  -0.00013
  96        3PY        -0.00000  -0.00001   0.00018   0.00027   0.00005
  97        3PZ        -0.00001   0.00000   0.00009   0.00011   0.00001
  98        4S         -0.00022   0.00087   0.00476   0.00019   0.00052
  99        4PX         0.00006   0.00032   0.00004   0.00004   0.00065
 100        4PY         0.00011   0.00004  -0.00113   0.00056   0.00027
 101        4PZ         0.00004  -0.00020  -0.00132  -0.00055   0.00018
 102        5S          0.00010   0.00284  -0.01671   0.00356  -0.01042
 103        5PX         0.00042   0.00074  -0.00337   0.00079  -0.00232
 104        5PY         0.00016  -0.00018   0.00216  -0.00122   0.00116
 105        5PZ         0.00038   0.00004   0.00169   0.00054  -0.00038
 106        6D 0       -0.00001  -0.00001  -0.00004   0.00001  -0.00000
 107        6D+1       -0.00000   0.00000  -0.00013  -0.00001  -0.00001
 108        6D-1        0.00000  -0.00000  -0.00014  -0.00002  -0.00002
 109        6D+2       -0.00000   0.00001  -0.00005  -0.00009  -0.00002
 110        6D-2       -0.00001   0.00001  -0.00001   0.00015   0.00003
 111 6   O  1S         -0.00000   0.00000   0.55133  -0.00010  -0.00013
 112        2S         -0.00000  -0.00000   0.46973  -0.00009  -0.00012
 113        2PX         0.00000  -0.00000  -0.00043  -0.00001  -0.00001
 114        2PY        -0.00000  -0.00000   0.00056  -0.00001   0.00001
 115        2PZ         0.00000  -0.00000   0.00103   0.00000   0.00000
 116        3S         -0.00001   0.00002   0.01360   0.00009   0.00007
 117        3PX        -0.00000   0.00001  -0.00009   0.00006   0.00005
 118        3PY         0.00001   0.00001  -0.00002   0.00003  -0.00002
 119        3PZ        -0.00000   0.00001  -0.00000   0.00000  -0.00001
 120        4S          0.00014  -0.00011  -0.00951  -0.00010  -0.00014
 121        4PX        -0.00004  -0.00004  -0.00139  -0.00047  -0.00029
 122        4PY        -0.00001  -0.00007  -0.00038  -0.00009   0.00006
 123        4PZ         0.00004  -0.00007  -0.00108  -0.00017   0.00000
 124        5S         -0.00014  -0.00030   0.00735  -0.00048   0.00060
 125        5PX        -0.00025  -0.00009   0.00013  -0.00070   0.00006
 126        5PY         0.00006   0.00002   0.00012   0.00012  -0.00011
 127        5PZ         0.00006   0.00004   0.00051   0.00011   0.00025
 128        6D 0       -0.00000   0.00000  -0.00014  -0.00000  -0.00000
 129        6D+1       -0.00000  -0.00000  -0.00011  -0.00003  -0.00001
 130        6D-1        0.00000  -0.00000  -0.00001  -0.00001  -0.00000
 131        6D+2        0.00000  -0.00000   0.00021   0.00000   0.00000
 132        6D-2       -0.00000  -0.00000  -0.00008   0.00001  -0.00000
 133 7   H  1S          0.00002  -0.00001   0.00004   0.00006   0.00004
 134        2S         -0.00003   0.00011  -0.00041  -0.00022  -0.00097
 135        3S          0.00004   0.00048  -0.00020   0.00021  -0.00058
 136        4PX        -0.00000   0.00002   0.00000   0.00001  -0.00023
 137        4PY        -0.00001  -0.00001  -0.00004   0.00007   0.00007
 138        4PZ        -0.00002  -0.00001   0.00006   0.00016   0.00026
 139 8   H  1S          0.00003   0.00004   0.00002  -0.00001   0.00005
 140        2S         -0.00009  -0.00034  -0.00034  -0.00031  -0.00119
 141        3S          0.00062  -0.00026  -0.00071  -0.00016   0.00078
 142        4PX        -0.00002  -0.00002   0.00003  -0.00005  -0.00010
 143        4PY         0.00001   0.00007   0.00006   0.00010   0.00027
 144        4PZ        -0.00001   0.00006  -0.00000  -0.00001   0.00006
 145 9   H  1S          0.00002  -0.00002   0.00005   0.00006   0.00004
 146        2S         -0.00011   0.00019  -0.00021  -0.00118  -0.00003
 147        3S         -0.00041  -0.00031  -0.00171   0.00050  -0.00072
 148        4PX         0.00001  -0.00002   0.00017   0.00012  -0.00003
 149        4PY         0.00001   0.00000   0.00010   0.00030   0.00008
 150        4PZ        -0.00006   0.00003  -0.00006  -0.00027  -0.00013
 151 10  H  1S         -0.00001  -0.00001  -0.00001   0.00005   0.00001
 152        2S          0.00004   0.00007   0.00028  -0.00006  -0.00034
 153        3S          0.00016  -0.00016  -0.00045  -0.00162  -0.00035
 154        4PX        -0.00001   0.00000   0.00012  -0.00057  -0.00007
 155        4PY        -0.00001  -0.00000   0.00001  -0.00011  -0.00003
 156        4PZ         0.00001   0.00001   0.00007  -0.00049  -0.00007
 157 11  H  1S         -0.00000  -0.00001   0.00005   0.00006   0.00004
 158        2S          0.00006   0.00001  -0.00109  -0.00020  -0.00028
 159        3S         -0.00015  -0.00003   0.00005   0.00021   0.00035
 160        4PX        -0.00000  -0.00001  -0.00002  -0.00011  -0.00004
 161        4PY        -0.00000  -0.00000   0.00006   0.00005  -0.00003
 162        4PZ        -0.00001   0.00000   0.00035   0.00011   0.00001
 163 12  H  1S          0.00000   0.00000   0.00002   0.00002   0.00003
 164        2S         -0.00002  -0.00009  -0.00094  -0.00046  -0.00034
 165        3S         -0.00013  -0.00022   0.00013   0.00026   0.00000
 166        4PX        -0.00000   0.00001   0.00009   0.00004  -0.00001
 167        4PY         0.00001   0.00001   0.00028   0.00011   0.00005
 168        4PZ         0.00000   0.00001   0.00015   0.00003  -0.00002
 169 13  H  1S          0.00001   0.00000  -0.00000   0.00000   0.00001
 170        2S         -0.00012   0.00003  -0.00018  -0.00016  -0.00016
 171        3S          0.00002   0.00004  -0.00164  -0.00063   0.00001
 172        4PX        -0.00002   0.00002  -0.00079  -0.00002  -0.00000
 173        4PY         0.00001   0.00001   0.00019   0.00001   0.00002
 174        4PZ         0.00001   0.00001   0.00030   0.00007   0.00003
 175 14  H  1S          0.00002  -0.00002   0.00000  -0.00001   0.00008
 176        2S         -0.00041   0.00039   0.00012   0.00015  -0.00019
 177        3S          0.00039   0.00002   0.00013   0.00041  -0.00214
 178        4PX        -0.00004   0.00006   0.00000   0.00002  -0.00020
 179        4PY        -0.00007   0.00007   0.00002   0.00011  -0.00075
 180        4PZ        -0.00002  -0.00002  -0.00001   0.00000  -0.00010
 181 15  C  1S         -0.00009  -0.00010  -0.00000   0.00000   0.00000
 182        2S          0.00039   0.00042  -0.00000  -0.00000  -0.00001
 183        2PX        -0.00005   0.00003   0.00000  -0.00000   0.00000
 184        2PY         0.00005  -0.00006  -0.00000  -0.00001  -0.00002
 185        2PZ         0.00002  -0.00000  -0.00000   0.00001   0.00002
 186        3S         -0.00015  -0.00018   0.00001  -0.00001   0.00008
 187        3PX        -0.00029   0.00031  -0.00002   0.00003  -0.00003
 188        3PY         0.00046  -0.00043   0.00002   0.00002   0.00006
 189        3PZ         0.00009  -0.00009   0.00001  -0.00004  -0.00004
 190        4S         -0.00271  -0.00274  -0.00016  -0.00022   0.00171
 191        4PX        -0.00771   0.00732   0.00018   0.00004   0.00021
 192        4PY         0.01106  -0.01092  -0.00024  -0.00037  -0.00011
 193        4PZ         0.00217  -0.00195  -0.00005   0.00012  -0.00002
 194        5S         -0.00319  -0.00371  -0.00009  -0.00038   0.00196
 195        5PX         0.00052   0.00070  -0.00007   0.00036  -0.00051
 196        5PY         0.00033   0.00023   0.00005  -0.00015  -0.00016
 197        5PZ        -0.00031  -0.00046  -0.00004  -0.00005   0.00046
 198        6D 0        0.00100   0.00107   0.00001  -0.00002  -0.00005
 199        6D+1        0.00032   0.00033  -0.00000  -0.00003   0.00001
 200        6D-1       -0.00048  -0.00052  -0.00001  -0.00001   0.00008
 201        6D+2        0.00065   0.00070   0.00001  -0.00001  -0.00002
 202        6D-2        0.00172   0.00183   0.00001  -0.00001  -0.00013
 203 16  O  1S          0.55102   0.01743   0.00000  -0.00000  -0.00000
 204        2S          0.46941   0.01482   0.00000  -0.00000  -0.00001
 205        2PX         0.00075  -0.00005   0.00000   0.00000   0.00002
 206        2PY        -0.00110   0.00011   0.00000  -0.00001   0.00000
 207        2PZ        -0.00021   0.00001  -0.00000  -0.00000  -0.00002
 208        3S          0.01467   0.00037  -0.00001   0.00000   0.00006
 209        3PX         0.00059   0.00054  -0.00002  -0.00002  -0.00008
 210        3PY        -0.00098  -0.00090  -0.00001   0.00003  -0.00000
 211        3PZ        -0.00011  -0.00011   0.00001   0.00000   0.00008
 212        4S         -0.01403   0.00723   0.00017  -0.00001  -0.00028
 213        4PX        -0.00154   0.00140   0.00008   0.00007  -0.00002
 214        4PY         0.00258  -0.00194   0.00001  -0.00005   0.00037
 215        4PZ         0.00028  -0.00034  -0.00003  -0.00002  -0.00018
 216        5S         -0.00232   0.01038  -0.00001   0.00077  -0.00105
 217        5PX        -0.00124   0.00146   0.00025   0.00011  -0.00009
 218        5PY         0.00119  -0.00278  -0.00016  -0.00022   0.00026
 219        5PZ         0.00046  -0.00024  -0.00004  -0.00009   0.00006
 220        6D 0       -0.00020  -0.00022   0.00000  -0.00000   0.00002
 221        6D+1       -0.00005  -0.00005   0.00000  -0.00000   0.00002
 222        6D-1        0.00008   0.00007   0.00000  -0.00000   0.00001
 223        6D+2       -0.00014  -0.00017   0.00000  -0.00000   0.00003
 224        6D-2       -0.00033  -0.00036  -0.00000   0.00000   0.00003
 225 17  O  1S         -0.01743   0.55102  -0.00000  -0.00000   0.00000
 226        2S         -0.01488   0.46941  -0.00000  -0.00000   0.00000
 227        2PX         0.00013  -0.00074  -0.00000   0.00000   0.00001
 228        2PY        -0.00016   0.00109  -0.00000   0.00001   0.00000
 229        2PZ        -0.00004   0.00021  -0.00000   0.00000  -0.00001
 230        3S         -0.00055   0.01467   0.00001   0.00002   0.00001
 231        3PX        -0.00060  -0.00074   0.00000  -0.00001  -0.00002
 232        3PY         0.00076   0.00095   0.00001  -0.00003  -0.00002
 233        3PZ         0.00020   0.00026   0.00001  -0.00001   0.00003
 234        4S          0.00797  -0.01368  -0.00004  -0.00025  -0.00022
 235        4PX        -0.00134   0.00183  -0.00003   0.00010   0.00022
 236        4PY         0.00206  -0.00229  -0.00001   0.00004  -0.00026
 237        4PZ         0.00043  -0.00066  -0.00002  -0.00001  -0.00010
 238        5S          0.00990  -0.00252  -0.00025   0.00002  -0.00170
 239        5PX        -0.00204   0.00067   0.00018  -0.00029   0.00048
 240        5PY         0.00227  -0.00148  -0.00012  -0.00012  -0.00020
 241        5PZ         0.00071  -0.00009   0.00004   0.00001  -0.00040
 242        6D 0       -0.00019  -0.00020  -0.00000  -0.00000   0.00001
 243        6D+1       -0.00009  -0.00008  -0.00000  -0.00000   0.00002
 244        6D-1        0.00012   0.00011   0.00000  -0.00000  -0.00000
 245        6D+2       -0.00010  -0.00012  -0.00000   0.00000   0.00001
 246        6D-2       -0.00034  -0.00036  -0.00001   0.00000   0.00003
                           6         7         8         9        10
                           O         O         O         O         O
     Eigenvalues --   -10.36031 -10.23108 -10.22712 -10.22453  -1.16379
   1 1   O  1S         -0.00000   0.00000   0.00000  -0.00002  -0.00198
   2        2S         -0.00001   0.00000   0.00001  -0.00007  -0.00315
   3        2PX        -0.00000  -0.00003  -0.00003  -0.00013  -0.00017
   4        2PY         0.00000   0.00001   0.00001   0.00004   0.00010
   5        2PZ         0.00000   0.00000  -0.00000   0.00001  -0.00062
   6        3S          0.00009   0.00005  -0.00005   0.00057   0.00868
   7        3PX         0.00002   0.00012   0.00012  -0.00003  -0.00038
   8        3PY         0.00000  -0.00002  -0.00004   0.00014   0.00019
   9        3PZ        -0.00002   0.00001   0.00000   0.00004  -0.00096
  10        4S         -0.00027  -0.00071   0.00017  -0.00084   0.00717
  11        4PX        -0.00013   0.00031  -0.00042  -0.00005   0.00047
  12        4PY        -0.00010  -0.00032   0.00001   0.00032   0.00058
  13        4PZ         0.00025   0.00000  -0.00001  -0.00017  -0.00122
  14        5S         -0.00041  -0.00011   0.00098   0.01009  -0.00195
  15        5PX         0.00005  -0.00029  -0.00046  -0.00307  -0.00067
  16        5PY        -0.00033   0.00071   0.00038  -0.00087   0.00024
  17        5PZ        -0.00006  -0.00011  -0.00018  -0.00017  -0.00067
  18        6D 0       -0.00000   0.00004  -0.00001   0.00016  -0.00005
  19        6D+1        0.00002   0.00005   0.00001   0.00007  -0.00014
  20        6D-1        0.00001   0.00002   0.00000  -0.00004  -0.00008
  21        6D+2        0.00001  -0.00003  -0.00001  -0.00004  -0.00004
  22        6D-2       -0.00000   0.00006   0.00001   0.00010   0.00001
  23 2   C  1S          0.00000   0.01013  -0.00158   0.56294  -0.00062
  24        2S         -0.00000   0.00836  -0.00127   0.46320  -0.00093
  25        2PX         0.00001  -0.00029  -0.00005   0.00082   0.00058
  26        2PY         0.00000  -0.00016  -0.00002  -0.00048  -0.00017
  27        2PZ         0.00000  -0.00041  -0.00004  -0.00032  -0.00022
  28        3S          0.00001   0.00031  -0.00019   0.01898   0.00229
  29        3PX        -0.00002   0.00064   0.00028  -0.00107   0.00099
  30        3PY         0.00003   0.00059   0.00011   0.00141  -0.00049
  31        3PZ        -0.00004   0.00112   0.00024   0.00124  -0.00037
  32        4S          0.00067   0.00574  -0.00063  -0.01523  -0.00191
  33        4PX         0.00011  -0.00203  -0.00082   0.00010   0.00075
  34        4PY         0.00026  -0.00070   0.00047   0.00155  -0.00091
  35        4PZ        -0.00033  -0.00188   0.00040   0.00155   0.00081
  36        5S          0.00102   0.00881   0.01193  -0.02158   0.01836
  37        5PX         0.00111  -0.00036  -0.00273   0.00297  -0.00503
  38        5PY         0.00011  -0.00070  -0.00047   0.00088  -0.00232
  39        5PZ        -0.00031  -0.00220  -0.00205   0.00318  -0.00492
  40        6D 0       -0.00003  -0.00036  -0.00006   0.00026  -0.00003
  41        6D+1        0.00002  -0.00074  -0.00014  -0.00034  -0.00025
  42        6D-1        0.00002  -0.00032  -0.00004  -0.00035  -0.00001
  43        6D+2       -0.00003  -0.00041  -0.00002  -0.00095   0.00027
  44        6D-2        0.00000  -0.00012  -0.00007   0.00055  -0.00022
  45 3   C  1S          0.00000   0.56269  -0.01679  -0.01021  -0.00019
  46        2S         -0.00000   0.46306  -0.01379  -0.00838  -0.00029
  47        2PX        -0.00002  -0.00015  -0.00048   0.00028   0.00017
  48        2PY        -0.00001  -0.00096   0.00024   0.00019   0.00001
  49        2PZ        -0.00001   0.00023   0.00011   0.00041   0.00002
  50        3S         -0.00001   0.01894  -0.00044  -0.00032   0.00057
  51        3PX         0.00010   0.00052   0.00116  -0.00053   0.00008
  52        3PY         0.00006   0.00136  -0.00045  -0.00038  -0.00017
  53        3PZ         0.00002  -0.00127  -0.00038  -0.00110   0.00012
  54        4S          0.00009  -0.02196   0.00320   0.00450   0.00183
  55        4PX        -0.00058   0.00114  -0.00187   0.00061  -0.00016
  56        4PY        -0.00035   0.00030   0.00104   0.00099   0.00196
  57        4PZ        -0.00024  -0.00249   0.00049   0.00108   0.00133
  58        5S          0.00289  -0.00482   0.01253   0.01578  -0.00956
  59        5PX        -0.00128  -0.00520  -0.00784  -0.00034  -0.00437
  60        5PY         0.00030   0.00006   0.00281   0.00041   0.00283
  61        5PZ        -0.00060   0.00015  -0.00078   0.00286   0.00160
  62        6D 0       -0.00002   0.00084   0.00046  -0.00019   0.00002
  63        6D+1       -0.00004  -0.00045   0.00025  -0.00071   0.00015
  64        6D-1       -0.00001  -0.00034  -0.00013  -0.00038   0.00009
  65        6D+2        0.00000   0.00044  -0.00034  -0.00007   0.00007
  66        6D-2       -0.00001   0.00010   0.00058  -0.00031   0.00002
  67 4   O  1S          0.00000  -0.00002   0.00000   0.00000  -0.00014
  68        2S         -0.00000  -0.00005   0.00002   0.00002  -0.00023
  69        2PX         0.00001  -0.00001  -0.00002  -0.00001   0.00000
  70        2PY         0.00000   0.00016   0.00005   0.00003   0.00008
  71        2PZ        -0.00000  -0.00001   0.00000   0.00000  -0.00001
  72        3S          0.00001   0.00028  -0.00012  -0.00008   0.00058
  73        3PX        -0.00003   0.00011   0.00008   0.00003   0.00004
  74        3PY        -0.00001  -0.00004  -0.00022  -0.00014   0.00011
  75        3PZ         0.00001   0.00000  -0.00001  -0.00002  -0.00005
  76        4S         -0.00020   0.00089  -0.00012  -0.00059   0.00121
  77        4PX         0.00015  -0.00002  -0.00021   0.00040  -0.00008
  78        4PY         0.00000   0.00091   0.00026   0.00018   0.00029
  79        4PZ         0.00002   0.00062  -0.00007   0.00052  -0.00002
  80        5S          0.00014   0.00711   0.00279  -0.00115   0.00092
  81        5PX        -0.00004  -0.00055  -0.00090   0.00080  -0.00103
  82        5PY        -0.00004   0.00186  -0.00031   0.00003  -0.00079
  83        5PZ        -0.00006  -0.00127  -0.00106   0.00044  -0.00126
  84        6D 0        0.00000   0.00010  -0.00002   0.00002  -0.00001
  85        6D+1       -0.00000  -0.00007   0.00001  -0.00002   0.00002
  86        6D-1       -0.00000   0.00005   0.00001   0.00003  -0.00000
  87        6D+2       -0.00000   0.00016   0.00006   0.00001  -0.00001
  88        6D-2        0.00000  -0.00004  -0.00003   0.00001   0.00001
  89 5   C  1S         -0.00000   0.01678   0.56278   0.00127  -0.00003
  90        2S          0.00000   0.01383   0.46309   0.00108  -0.00006
  91        2PX         0.00001   0.00046  -0.00050   0.00006   0.00000
  92        2PY         0.00000  -0.00021  -0.00044  -0.00003  -0.00001
  93        2PZ        -0.00000  -0.00014  -0.00085  -0.00002  -0.00000
  94        3S         -0.00000   0.00043   0.01880  -0.00008   0.00036
  95        3PX        -0.00003  -0.00117   0.00018  -0.00039   0.00017
  96        3PY        -0.00002   0.00067   0.00131   0.00019  -0.00001
  97        3PZ         0.00000   0.00050   0.00192   0.00008  -0.00004
  98        4S         -0.00024   0.00688  -0.01519  -0.00110  -0.00216
  99        4PX         0.00002   0.00211  -0.00084   0.00006  -0.00147
 100        4PY         0.00038  -0.00146   0.00165   0.00026  -0.00043
 101        4PZ        -0.00010  -0.00049   0.00087   0.00099   0.00059
 102        5S         -0.00116  -0.00703  -0.02823  -0.00056  -0.01298
 103        5PX         0.00016  -0.00156  -0.00580   0.00102  -0.00479
 104        5PY         0.00028   0.00099   0.00199   0.00096   0.00021
 105        5PZ         0.00040  -0.00030   0.00001   0.00075  -0.00113
 106        6D 0       -0.00001   0.00035  -0.00001   0.00010   0.00005
 107        6D+1        0.00001   0.00019  -0.00081   0.00005  -0.00001
 108        6D-1        0.00000  -0.00020  -0.00056  -0.00002  -0.00000
 109        6D+2        0.00000  -0.00072  -0.00076  -0.00010  -0.00001
 110        6D-2        0.00001   0.00055   0.00005   0.00011  -0.00001
 111 6   O  1S         -0.00000   0.00000  -0.00002   0.00000  -0.00002
 112        2S         -0.00000   0.00000  -0.00007   0.00001  -0.00003
 113        2PX        -0.00000   0.00001   0.00006   0.00002   0.00001
 114        2PY        -0.00000   0.00001   0.00005   0.00001   0.00001
 115        2PZ        -0.00000   0.00002   0.00011   0.00001   0.00001
 116        3S          0.00000   0.00013   0.00052  -0.00009   0.00006
 117        3PX         0.00001  -0.00001   0.00013  -0.00008  -0.00002
 118        3PY         0.00001  -0.00002   0.00000  -0.00004  -0.00003
 119        3PZ         0.00001  -0.00004   0.00001  -0.00006  -0.00000
 120        4S          0.00010  -0.00157  -0.00044   0.00051  -0.00001
 121        4PX        -0.00011   0.00032   0.00066   0.00030   0.00041
 122        4PY        -0.00004  -0.00040  -0.00008   0.00016   0.00019
 123        4PZ         0.00000  -0.00072   0.00008   0.00027   0.00012
 124        5S         -0.00029  -0.00048   0.00853   0.00039   0.00191
 125        5PX        -0.00025  -0.00066  -0.00003  -0.00003   0.00089
 126        5PY         0.00007   0.00021   0.00086   0.00006  -0.00020
 127        5PZ         0.00015  -0.00007   0.00215   0.00000  -0.00040
 128        6D 0        0.00000  -0.00004  -0.00004  -0.00001  -0.00000
 129        6D+1       -0.00001  -0.00000  -0.00010  -0.00000   0.00001
 130        6D-1       -0.00000  -0.00005  -0.00012  -0.00000   0.00001
 131        6D+2        0.00001  -0.00004  -0.00008   0.00001  -0.00000
 132        6D-2       -0.00000  -0.00003  -0.00004  -0.00001   0.00001
 133 7   H  1S          0.00001  -0.00012   0.00000   0.00003   0.00014
 134        2S          0.00008  -0.00076  -0.00012  -0.00252   0.00023
 135        3S          0.00014   0.00013  -0.00138   0.00393  -0.00130
 136        4PX         0.00001  -0.00020   0.00007  -0.00075   0.00002
 137        4PY        -0.00001  -0.00014  -0.00006  -0.00072   0.00004
 138        4PZ        -0.00002   0.00019   0.00007   0.00179  -0.00002
 139 8   H  1S          0.00004  -0.00008   0.00000   0.00010   0.00021
 140        2S         -0.00027  -0.00123  -0.00009  -0.00336   0.00188
 141        3S         -0.00042   0.00004  -0.00167   0.00513  -0.00100
 142        4PX        -0.00004   0.00001   0.00013   0.00034   0.00025
 143        4PY         0.00006   0.00047   0.00006   0.00221  -0.00025
 144        4PZ         0.00004  -0.00006   0.00000  -0.00020  -0.00028
 145 9   H  1S         -0.00001  -0.00004  -0.00014  -0.00011   0.00014
 146        2S          0.00016  -0.00255  -0.00030  -0.00079   0.00036
 147        3S         -0.00107   0.00417  -0.00034   0.00029   0.00225
 148        4PX        -0.00000   0.00076   0.00001   0.00016   0.00016
 149        4PY         0.00000   0.00057   0.00009   0.00009   0.00001
 150        4PZ        -0.00003  -0.00197  -0.00020  -0.00023   0.00015
 151 10  H  1S         -0.00001  -0.00008  -0.00004  -0.00007   0.00011
 152        2S          0.00011   0.00063  -0.00005   0.00088  -0.00022
 153        3S         -0.00058  -0.00210  -0.00257   0.00059   0.00020
 154        4PX        -0.00001   0.00016  -0.00002   0.00016   0.00003
 155        4PY        -0.00003   0.00024  -0.00003   0.00007   0.00006
 156        4PZ         0.00002   0.00008   0.00001   0.00011  -0.00003
 157 11  H  1S         -0.00001  -0.00010   0.00004   0.00002   0.00003
 158        2S          0.00010  -0.00110  -0.00270  -0.00035  -0.00015
 159        3S         -0.00010   0.00077   0.00450  -0.00058   0.00038
 160        4PX        -0.00000  -0.00001  -0.00079  -0.00011   0.00003
 161        4PY        -0.00001  -0.00014  -0.00072  -0.00005   0.00001
 162        4PZ        -0.00001   0.00036   0.00185   0.00003   0.00000
 163 12  H  1S         -0.00000  -0.00008   0.00008   0.00001   0.00000
 164        2S         -0.00002  -0.00125  -0.00306  -0.00009   0.00040
 165        3S         -0.00056   0.00097   0.00412  -0.00057   0.00094
 166        4PX        -0.00000   0.00012   0.00016  -0.00007  -0.00001
 167        4PY         0.00000   0.00046   0.00216   0.00008  -0.00005
 168        4PZ         0.00001  -0.00004  -0.00025  -0.00011  -0.00002
 169 13  H  1S          0.00001  -0.00006  -0.00004   0.00003  -0.00002
 170        2S         -0.00014   0.00104   0.00067  -0.00017   0.00037
 171        3S          0.00002  -0.00063  -0.00273   0.00047  -0.00061
 172        4PX        -0.00002   0.00026   0.00028  -0.00002   0.00001
 173        4PY         0.00001   0.00001  -0.00000  -0.00001  -0.00004
 174        4PZ         0.00001   0.00002   0.00002  -0.00001  -0.00005
 175 14  H  1S          0.00000   0.00002   0.00002  -0.00004   0.00125
 176        2S          0.00008  -0.00027  -0.00025   0.00069   0.00075
 177        3S         -0.00023   0.00053   0.00062  -0.00297  -0.00001
 178        4PX         0.00000   0.00002  -0.00002  -0.00021   0.00004
 179        4PY         0.00001  -0.00000  -0.00001   0.00036   0.00034
 180        4PZ        -0.00002  -0.00001   0.00000   0.00013   0.00005
 181 15  C  1S          0.56285  -0.00000   0.00000  -0.00000  -0.08698
 182        2S          0.46272  -0.00000   0.00000  -0.00000  -0.13187
 183        2PX        -0.00004   0.00003  -0.00000   0.00001   0.00132
 184        2PY        -0.00003   0.00001  -0.00000  -0.00001   0.00187
 185        2PZ         0.00004  -0.00001  -0.00000   0.00000  -0.00258
 186        3S          0.02098  -0.00001   0.00002   0.00008   0.34855
 187        3PX         0.00019  -0.00014  -0.00001  -0.00012   0.00188
 188        3PY         0.00016  -0.00005   0.00003   0.00012   0.00260
 189        3PZ        -0.00027   0.00005   0.00002   0.00003  -0.00367
 190        4S         -0.00389   0.00021   0.00009  -0.00072   0.10847
 191        4PX         0.00010   0.00032  -0.00018  -0.00032  -0.00072
 192        4PY        -0.00066   0.00013   0.00034   0.00098   0.00240
 193        4PZ         0.00015  -0.00012  -0.00004   0.00003  -0.00068
 194        5S         -0.00556   0.00041   0.00086   0.00149   0.03139
 195        5PX         0.00093   0.00003  -0.00016  -0.00028  -0.00399
 196        5PY         0.00007  -0.00023  -0.00043  -0.00022  -0.00186
 197        5PZ        -0.00061  -0.00018   0.00019   0.00043   0.00231
 198        6D 0       -0.00347   0.00002   0.00001   0.00003  -0.02664
 199        6D+1       -0.00113   0.00003   0.00003   0.00005  -0.00832
 200        6D-1        0.00164   0.00001  -0.00000   0.00001   0.01280
 201        6D+2       -0.00228   0.00002   0.00000   0.00001  -0.01729
 202        6D-2       -0.00590   0.00001   0.00003   0.00002  -0.04514
 203 16  O  1S         -0.00012  -0.00000   0.00000  -0.00000  -0.07394
 204        2S          0.00013  -0.00000   0.00000  -0.00001  -0.11759
 205        2PX         0.00049   0.00001  -0.00001  -0.00000   0.03332
 206        2PY        -0.00073   0.00000   0.00000  -0.00001  -0.04969
 207        2PZ        -0.00012  -0.00001   0.00001   0.00000  -0.00867
 208        3S         -0.00155   0.00000  -0.00000   0.00014   0.33229
 209        3PX        -0.00240  -0.00005   0.00004  -0.00000   0.04225
 210        3PY         0.00357  -0.00002  -0.00002   0.00002  -0.06218
 211        3PZ         0.00060   0.00002  -0.00002  -0.00000  -0.01134
 212        4S         -0.00688   0.00019  -0.00001  -0.00071   0.20216
 213        4PX        -0.00110   0.00012  -0.00015  -0.00003   0.01242
 214        4PY         0.00198   0.00001   0.00006   0.00011  -0.01955
 215        4PZ         0.00016  -0.00004   0.00008  -0.00001  -0.00328
 216        5S          0.00698  -0.00068  -0.00103   0.00009  -0.04102
 217        5PX         0.00101  -0.00022   0.00027  -0.00035  -0.00346
 218        5PY        -0.00194   0.00036   0.00034  -0.00013   0.00951
 219        5PZ        -0.00014  -0.00016  -0.00021   0.00006   0.00029
 220        6D 0        0.00084   0.00000   0.00000  -0.00000  -0.00472
 221        6D+1        0.00021   0.00001   0.00000   0.00001  -0.00147
 222        6D-1       -0.00032   0.00001  -0.00000  -0.00000   0.00226
 223        6D+2        0.00060   0.00001  -0.00000  -0.00001  -0.00308
 224        6D-2        0.00137  -0.00001   0.00000   0.00001  -0.00798
 225 17  O  1S         -0.00013   0.00000   0.00000   0.00000  -0.07350
 226        2S          0.00013   0.00000   0.00000   0.00001  -0.11688
 227        2PX        -0.00050  -0.00000   0.00001   0.00001  -0.03408
 228        2PY         0.00072  -0.00000  -0.00000  -0.00000   0.04860
 229        2PZ         0.00015  -0.00000  -0.00000  -0.00001   0.01004
 230        3S         -0.00155  -0.00001  -0.00004  -0.00014   0.33020
 231        3PX         0.00242   0.00000  -0.00003  -0.00002  -0.04241
 232        3PY        -0.00350   0.00002   0.00001   0.00002   0.06126
 233        3PZ        -0.00073   0.00001   0.00000   0.00002   0.01216
 234        4S         -0.00715   0.00007   0.00033   0.00104   0.20185
 235        4PX         0.00162  -0.00007   0.00001  -0.00023  -0.01389
 236        4PY        -0.00182  -0.00000   0.00005   0.00026   0.01940
 237        4PZ        -0.00062   0.00001   0.00002   0.00004   0.00392
 238        5S          0.00512  -0.00018  -0.00032  -0.00005  -0.03494
 239        5PX        -0.00129  -0.00016  -0.00005   0.00003   0.00639
 240        5PY         0.00111  -0.00010   0.00004   0.00000  -0.00586
 241        5PZ         0.00055   0.00009  -0.00002   0.00004  -0.00228
 242        6D 0        0.00079  -0.00001  -0.00000  -0.00001  -0.00470
 243        6D+1        0.00033  -0.00000   0.00000  -0.00000  -0.00145
 244        6D-1       -0.00045   0.00000   0.00000   0.00001   0.00226
 245        6D+2        0.00046   0.00000  -0.00000  -0.00001  -0.00305
 246        6D-2        0.00140  -0.00001  -0.00000  -0.00002  -0.00796
                          11        12        13        14        15
                           O         O         O         O         O
     Eigenvalues --    -1.12510  -1.05416  -1.03654  -1.02069  -0.77935
   1 1   O  1S          0.00030  -0.04799   0.07875   0.06302   0.02370
   2        2S          0.00047  -0.07669   0.12596   0.10083   0.03820
   3        2PX         0.00029  -0.02057   0.03059   0.02221  -0.01722
   4        2PY        -0.00028  -0.00932   0.01557   0.01242   0.02730
   5        2PZ        -0.00001  -0.00021  -0.00049  -0.00100   0.00138
   6        3S         -0.00124   0.22050  -0.36394  -0.29177  -0.11436
   7        3PX         0.00019  -0.03271   0.04952   0.03609  -0.02482
   8        3PY        -0.00013  -0.01409   0.02336   0.01864   0.04052
   9        3PZ         0.00007   0.00035  -0.00138  -0.00191   0.00193
  10        4S         -0.00084   0.16444  -0.27009  -0.22124  -0.09146
  11        4PX         0.00096  -0.01867   0.02316   0.01755  -0.01658
  12        4PY        -0.00263  -0.00300   0.00448   0.00343   0.01657
  13        4PZ        -0.00041  -0.00177   0.00105   0.00041   0.00052
  14        5S          0.00758  -0.02042   0.05297   0.03968  -0.00501
  15        5PX        -0.00207   0.00636  -0.01228  -0.00874   0.00160
  16        5PY         0.00043   0.00150  -0.00386  -0.00011   0.00237
  17        5PZ        -0.00189   0.00103  -0.00458  -0.00287   0.00032
  18        6D 0        0.00001  -0.00410   0.00610   0.00458   0.00015
  19        6D+1       -0.00002  -0.00052   0.00114   0.00108   0.00035
  20        6D-1        0.00013   0.00096  -0.00146  -0.00108  -0.00056
  21        6D+2       -0.00006   0.00024   0.00030   0.00071   0.00451
  22        6D-2        0.00005  -0.00055   0.00095   0.00087  -0.00199
  23 2   C  1S          0.00024  -0.02383   0.02908   0.01763  -0.05339
  24        2S          0.00032  -0.03670   0.04473   0.02711  -0.08287
  25        2PX        -0.00028   0.01198  -0.02761  -0.02627  -0.03637
  26        2PY        -0.00004  -0.01245   0.01516   0.00765   0.00512
  27        2PZ         0.00018  -0.00724   0.00560   0.00063  -0.01836
  28        3S         -0.00001   0.09508  -0.11522  -0.07093   0.22211
  29        3PX         0.00036   0.01786  -0.04619  -0.04503  -0.05172
  30        3PY        -0.00005  -0.02435   0.02813   0.01389   0.00430
  31        3PZ        -0.00030  -0.01719   0.01169   0.00048  -0.03267
  32        4S         -0.00266   0.02195  -0.03133   0.00049   0.11329
  33        4PX        -0.00049   0.00012  -0.00188  -0.00885  -0.01416
  34        4PY        -0.00056  -0.00470   0.00359  -0.00326   0.00562
  35        4PZ         0.00341   0.00135  -0.00277  -0.00731  -0.00586
  36        5S         -0.03156   0.01619  -0.09110  -0.17270   0.00561
  37        5PX         0.00438   0.00330   0.00030   0.01704  -0.00703
  38        5PY         0.00115   0.00185   0.00948   0.01825  -0.00199
  39        5PZ         0.00907  -0.00329   0.02204   0.03223   0.00794
  40        6D 0       -0.00000  -0.00414   0.00782   0.00700   0.00305
  41        6D+1        0.00003   0.00076   0.00340   0.00473   0.00751
  42        6D-1       -0.00000   0.00396  -0.00284  -0.00002   0.00146
  43        6D+2        0.00013   0.00614  -0.00795  -0.00580   0.00242
  44        6D-2        0.00003  -0.00568   0.01176   0.01095   0.00403
  45 3   C  1S          0.00011  -0.03651   0.00403  -0.02187  -0.07180
  46        2S          0.00016  -0.05632   0.00624  -0.03376  -0.11157
  47        2PX        -0.00017  -0.00392  -0.01247  -0.00362  -0.00474
  48        2PY        -0.00004  -0.02779   0.00495  -0.03443   0.03867
  49        2PZ         0.00002   0.00214  -0.00504  -0.00148   0.02040
  50        3S         -0.00065   0.14524  -0.01653   0.09015   0.29924
  51        3PX         0.00048  -0.00959  -0.02369  -0.00679  -0.00936
  52        3PY         0.00011  -0.04651   0.00858  -0.05831   0.05311
  53        3PZ        -0.00018   0.00891  -0.01052  -0.00191   0.03678
  54        4S          0.00443   0.06074   0.00147  -0.00628   0.19133
  55        4PX        -0.00093  -0.00298  -0.01992  -0.00470  -0.00802
  56        4PY         0.00132   0.00404   0.00330  -0.01409   0.02097
  57        4PZ        -0.00020   0.00161  -0.00179  -0.00887   0.01868
  58        5S          0.03340  -0.06626   0.03097   0.33467  -0.06993
  59        5PX        -0.00174   0.02601   0.00466  -0.01882   0.01904
  60        5PY         0.00312  -0.02376   0.00241   0.01061  -0.00201
  61        5PZ         0.00389  -0.00258   0.01100   0.04402  -0.01717
  62        6D 0       -0.00001  -0.01009  -0.00113  -0.00817   0.00096
  63        6D+1       -0.00012   0.00332  -0.00332  -0.00151   0.00315
  64        6D-1       -0.00007   0.00075  -0.00071   0.00018   0.00293
  65        6D+2        0.00008  -0.01017   0.00281  -0.01703   0.00705
  66        6D-2        0.00004   0.00171  -0.00272   0.00309  -0.00380
  67 4   O  1S          0.00008  -0.07566   0.00991  -0.08102   0.03199
  68        2S          0.00012  -0.12095   0.01586  -0.12967   0.05154
  69        2PX         0.00000  -0.01652  -0.00148  -0.01989   0.02029
  70        2PY        -0.00004   0.02350  -0.00317   0.01906   0.03874
  71        2PZ         0.00001  -0.01688   0.00061  -0.02019   0.02166
  72        3S         -0.00036   0.34819  -0.04590   0.37561  -0.15334
  73        3PX         0.00003  -0.02554  -0.00215  -0.03101   0.02996
  74        3PY        -0.00006   0.03832  -0.00533   0.03199   0.05714
  75        3PZ         0.00004  -0.02643   0.00104  -0.03136   0.03276
  76        4S         -0.00023   0.25650  -0.03377   0.28135  -0.13185
  77        4PX        -0.00011  -0.00631  -0.00374  -0.00915   0.01207
  78        4PY        -0.00012   0.02341  -0.00272   0.01776   0.02712
  79        4PZ        -0.00012  -0.00834  -0.00151  -0.00994   0.01168
  80        5S         -0.00198  -0.03411   0.00198  -0.05873  -0.00847
  81        5PX         0.00173   0.00276   0.00481   0.00070   0.00101
  82        5PY         0.00019  -0.00612   0.00184  -0.01475  -0.00337
  83        5PZ         0.00105   0.00394   0.00177  -0.00159   0.00249
  84        6D 0        0.00000  -0.00275   0.00036  -0.00190  -0.00252
  85        6D+1       -0.00000   0.00518  -0.00045   0.00529  -0.00372
  86        6D-1        0.00000   0.00026  -0.00029   0.00039  -0.00095
  87        6D+2        0.00000  -0.00319   0.00043  -0.00265  -0.00497
  88        6D-2        0.00000   0.00124  -0.00089   0.00137  -0.00177
  89 5   C  1S          0.00002  -0.02740  -0.02707   0.01358  -0.05546
  90        2S          0.00003  -0.04220  -0.04164   0.02087  -0.08617
  91        2PX         0.00000  -0.00792  -0.01992   0.01766   0.03971
  92        2PY         0.00001  -0.01299  -0.01071   0.00258  -0.00254
  93        2PZ         0.00001  -0.01661  -0.02253   0.01476   0.00871
  94        3S          0.00006   0.10894   0.10787  -0.05466   0.23203
  95        3PX        -0.00013  -0.00889  -0.03368   0.03131   0.06086
  96        3PY         0.00000  -0.02529  -0.01921   0.00450  -0.00870
  97        3PZ         0.00001  -0.03065  -0.03937   0.02487   0.00644
  98        4S         -0.00282   0.02566   0.01556  -0.00060   0.11414
  99        4PX        -0.00052  -0.00592  -0.00921   0.01016   0.01200
 100        4PY         0.00038  -0.00443   0.00391  -0.00601   0.00547
 101        4PZ         0.00044   0.00179   0.00059   0.00122   0.00462
 102        5S         -0.00722   0.09653   0.03856  -0.16375   0.06537
 103        5PX        -0.00018   0.01542   0.00422  -0.03015   0.01380
 104        5PY         0.00123  -0.00973  -0.00600   0.02433  -0.00552
 105        5PZ         0.00060  -0.00784  -0.00963   0.00656   0.00432
 106        6D 0       -0.00001   0.00125   0.00432  -0.00389  -0.00368
 107        6D+1       -0.00000   0.00889   0.01241  -0.00903  -0.00262
 108        6D-1        0.00000   0.00657   0.00765  -0.00442   0.00051
 109        6D+2       -0.00004   0.00537   0.00406  -0.00210   0.00538
 110        6D-2       -0.00003   0.00083   0.00627  -0.00662  -0.00498
 111 6   O  1S          0.00002  -0.05858  -0.07927   0.05370   0.02194
 112        2S          0.00003  -0.09366  -0.12683   0.08595   0.03537
 113        2PX        -0.00001  -0.00399  -0.01052   0.01045   0.03920
 114        2PY        -0.00000   0.01003   0.01485  -0.01107   0.00377
 115        2PZ        -0.00001   0.02160   0.02773  -0.01783   0.01017
 116        3S         -0.00016   0.26996   0.36703  -0.24923  -0.10574
 117        3PX         0.00000  -0.00566  -0.01514   0.01540   0.05782
 118        3PY        -0.00001   0.01613   0.02391  -0.01803   0.00565
[...]
 25,-0.4682878,-3.4799981,0.6041908,-0.4631586,0.8769403,-6.9618566,-3.
 2684748,-0.314104,6.0768322,1.8079654,2.4722919,-5.4234668,2.1043915,0
 .763046,0.5802206,-6.0234998,-4.133262,10.4264538,3.6538472,-0.4959242
 ,2.6920818,2.6676594,1.0069772,3.3486028,0.6938694,2.0309455,-7.411150
 6,0.0631794,-0.6486139,1.9243772,3.2132312,0.9648579,3.1824283,2.92519
 9,-0.3058238,2.1126887,-1.0178092,2.4374188,-2.1141827,0.7055467,-0.24
 3619,4.0966194,3.3699427,-1.0042708,-10.8218351,0.0061915,-0.6165884,3
 .8313064,0.2199006,0.1427732,0.2692967,6.0483882,2.3448189,-7.392131,5
 .1532903,-2.0252704,1.0184666,-3.2331414,0.022164,-0.0621567,-3.253141
 5,-0.6907378,-0.9522305,-0.7094522,-1.6891481,-1.7223309,-5.3883525,0.
 2684865,-1.1825097,-3.6427028,-1.1869534,-4.9864156,-3.0456904,-0.5496
 372,-0.2645999,2.650687,-0.043707,-3.7519264,-1.7269314,-0.4913184,-0.
 1373585,0.3525426,2.018336,-2.8171547,2.1327425,0.032236,1.4465173,-2.
 9312136,-0.6689991,11.6063577,1.3459674,1.8026419,0.8842115,-0.3714755
 ,0.0876239,-0.1618564,1.8994618,1.4369421,11.2226578,0.2344051,1.13833
 29,1.3247666,-0.9726075,0.1307285,-0.0849486,-0.3144878,1.5414965,0.76
 51555,2.9023356,1.8383582,0.9343765,-2.5220003,-0.6223274,3.6768947,2.
 1402874,1.0975755,1.6712029,-0.7379451,-2.7688172,2.9797806,-3.108723,
 -0.6697891,-2.6802568,3.434309,2.7074219,-10.75775,-4.2732694,-1.59949
 82,-3.7236008,-2.3205698,-1.1183147,-2.6173242,-1.2863342,-1.9037724,-
 2.7211985,-0.8792507,-1.4817099,-1.5979817,-2.9134299,-1.1966656,-2.76
 68549,-2.1797922,-2.0183756,-3.0680947,-2.0834147,-0.7584199,-0.601756
 5,2.6906877,0.0537041,-1.9924894,-2.0037962,-0.6898351,-0.1381202,0.48
 25567,1.8820189,-2.5049995,2.9864131,-0.0924647,1.2414247,-3.2377888,-
 0.8843666,10.4233646,1.3357491,2.1074284,0.9344855,0.318558,0.3138533,
 -0.2589489,1.8599041,-0.2772596,14.0972548,0.2847747,0.7812567,1.16370
 53,-0.6056974,0.0665627,-0.58973,-0.5938344,1.9517117,0.3770373,-12.72
 46661,0.8245873,-1.0002913,-1.0447623,-0.1758303,-1.6311549,0.9271523,
 -1.0255328,-0.087827,-0.1350333,-0.1203972,0.4946176,1.6513799,-0.2808
 762,0.5501642,-1.0663144,0.1521624,-0.0983258,-0.3311465,-1.1788816,0.
 074276,-0.4318998,-0.2502753,0.2890175,-3.113246,1.2338893,-8.7032121,
 0.1395902,-0.4420383,-1.4846619,-0.6985848,-0.0958913,-0.5345648,0.480
 5783,-0.5957705,-0.3372193,-1.8463061,-0.781265,0.2042257,2.2196459,0.
 851567,-1.6091774,-0.9777854,-1.2793642,-1.0274554,1.2709141,1.4698011
 ,-1.6707852,1.9202408,1.2519983,0.4526514,-2.5076361,-1.1707446,2.0239
 218,-7.7366666,4.0598252,-2.8451054,0.9602459,-0.0753353,-2.2316858,4.
 5292682,-2.3680683,12.5974715,-1.5744894,-0.3859962,4.2342111,0.653753
 7,-0.3599834,0.3701679,-1.9776897,3.9182691,1.3995747,9.3773749,-4.042
 5229,2.9252723,-2.7483953,-0.2314833,3.1157469,-4.3646858,3.6406916,-1
 1.0766287,0.9995428,-1.135854,-3.1969249,-1.7543924,0.0024434,-0.99440
 85,3.9698441,-3.2042376,-3.1177502\HyperPolar=-67.9486753,30.2221186,1
 0.4825796,131.0636897,0.1570369,-11.2983064,-6.8824523,19.1834463,20.8
 743776,35.7275612\Quadrupole=-1.6046483,0.9801181,0.6245303,-0.5413187
 ,-1.6717694,1.1590916\PG=C01 [X(C4H8O5)]\NImag=0\\0.32146719,-0.004809
 35,0.61242217,-0.02980044,0.07041065,0.06967159,-0.18562372,0.06243240
 ,0.02836643,0.44723618,0.01754169,-0.11074473,-0.01011906,0.03698928,0
 .62220107,0.01900356,-0.01118957,-0.06668057,-0.03286056,-0.02404513,0
 .53922247,-0.04691312,0.00162437,-0.02401688,-0.10853975,-0.00740400,-
 0.04505314,0.52542077,0.02042277,-0.00074573,0.01064961,-0.02904779,-0
 .08178563,-0.03035631,0.01288528,0.44745436,0.00422957,0.00142704,0.00
 698246,-0.05216589,-0.01486659,-0.15127220,-0.01498503,-0.01533908,0.5
 9022358,0.00067800,-0.00302828,-0.00122276,-0.00474653,-0.03190599,-0.
 00104650,-0.07813041,-0.02232207,-0.01288342,0.34273081,-0.00025891,0.
 00117756,-0.00004354,-0.00605203,-0.03124121,-0.00403058,0.01222805,-0
 .18797400,0.02726441,0.10132630,0.36353165,0.00032273,-0.00088580,0.00
 055338,-0.00500483,-0.03377323,0.00195516,-0.01405322,0.00109546,-0.08
 134329,0.25716496,0.06884449,0.28533743,0.00302795,-0.00142023,-0.0008
 9378,-0.02397999,0.00204431,-0.00279563,-0.16672528,0.04919510,0.03417
 163,0.00163470,0.00213999,-0.00199744,0.48037378,-0.00656278,0.0008704
 4,-0.00339150,-0.00345771,0.00786122,0.00758716,0.02661946,-0.08560684
 ,-0.01038580,0.03494891,-0.04391858,-0.00614749,0.00914721,0.57370512,
 -0.00549455,-0.00030493,-0.00248330,-0.01912028,0.01069878,0.00388675,
 0.01866540,-0.00362950,-0.08640694,-0.00398191,-0.00115048,0.00203934,
 -0.06244508,-0.03562979,0.52657045,-0.00592323,0.00083679,-0.00241039,
 -0.00150311,0.00587993,0.00568073,-0.03692275,-0.01580288,-0.04085251,
 -0.00072065,-0.00097282,-0.00108971,-0.12007385,-0.03199584,-0.0638738
 9,0.64132192,0.00060483,0.00044497,0.00024793,0.00165685,-0.00088915,-
 0.00042153,0.00518037,0.00194319,0.00681230,0.00379648,0.00231374,0.00
 176877,-0.01468999,-0.08360286,-0.04734700,-0.04121903,0.10692884,-0.0
 0102929,0.00010282,-0.00004927,0.00165559,0.00019517,0.00126140,-0.007
 21177,0.00016836,-0.00114649,-0.00025994,0.00014603,0.00102175,-0.0229
 8382,-0.04737128,-0.15052118,-0.02102761,0.11055420,0.24688505,-0.0290
 6976,0.00133520,0.03120675,-0.07116666,-0.02426092,0.06963499,0.007008
 25,0.00567657,-0.02086068,0.00092925,0.00104819,0.00163299,0.00122307,
 0.00019708,-0.00079810,-0.00010575,-0.00009383,0.00014185,0.09353478,0
 .01294635,0.00533185,-0.01561908,-0.02617040,-0.07532325,0.06585470,0.
 00073649,0.00208352,-0.00944589,0.00104558,0.00190878,0.00013619,0.000
 40392,-0.00002511,0.00013358,-0.00000111,-0.00006765,0.00003888,0.0211
 5589,0.07117252,0.00874651,-0.00430104,0.00142310,0.06946821,0.0628882
 3,-0.24987698,0.00634987,0.00982864,-0.02541432,0.00077947,0.00021306,
 0.00271617,0.00186059,-0.00035414,-0.00046651,-0.00052235,-0.00017249,
 0.00040863,-0.08198227,-0.06728384,0.27174358,-0.00339154,0.04162727,0
 .00199459,-0.05516838,-0.04951928,-0.00128822,0.00056300,-0.01848426,0
 .00574062,-0.00361929,-0.00257322,-0.00454203,-0.00009392,-0.00042963,
 0.00023025,0.00021000,0.00026911,0.00006201,0.00018074,-0.00932488,-0.
 00072153,0.06696782,0.00644364,-0.01673845,-0.00195234,-0.03926452,-0.
 30644066,0.00720173,-0.00173360,-0.00797568,0.00204726,-0.00151789,0.0
 0019093,-0.00168399,0.00053059,-0.00069332,0.00000512,-0.00023460,0.00
 033847,-0.00012364,-0.00244049,-0.00648820,0.00066076,0.03564861,0.336
 14277,0.00012962,-0.00651197,0.00165300,0.00074837,0.01247499,-0.05337
 073,-0.00188578,-0.02300096,0.00235731,-0.00401928,-0.00223880,-0.0034
 5808,0.00011237,-0.00009401,0.00048331,0.00034804,0.00018033,-0.000054
 99,0.00431248,0.02815156,0.00081589,-0.00105782,-0.00671175,0.05051392
 ,0.00261847,-0.00026762,0.00152193,0.00650207,0.00445278,-0.02104842,-
 0.08431824,-0.02009836,0.07839936,0.00302512,-0.00428175,0.00022707,-0
 .01409014,-0.00478822,0.03018456,0.00300984,-0.00044353,-0.00049378,-0
 .00246392,-0.00063951,-0.00322069,0.00068874,0.00014356,0.00083523,0.0
 8937665,0.00024477,-0.00007737,0.00100381,0.00391399,0.00336818,-0.009
 64495,-0.02096247,-0.05789505,0.05061383,-0.01357417,-0.03346812,0.031
 53130,0.00578077,0.00453929,-0.01251462,-0.00100557,0.00015828,0.00072
 688,-0.00166254,0.00027623,-0.00175568,0.00063959,0.00038781,0.0002168
 1,0.02400489,0.08183532,0.00069716,0.00011662,0.00350548,0.00925691,0.
 00382665,-0.02446636,0.07820046,0.05182618,-0.24748356,0.00003517,0.00
 607889,0.00557068,0.00123791,0.00046269,-0.00530557,0.00013634,0.00018
 368,0.00134757,-0.00295098,-0.00132975,-0.00243237,-0.00008951,-0.0002
 8600,0.00052878,-0.08646085,-0.06064201,0.26744224,0.00046558,-0.00087
 293,-0.00031716,-0.00126010,0.00061177,0.00066961,-0.00030885,-0.00053
 239,-0.00030087,-0.26142941,-0.10785343,-0.23346765,0.00187682,0.00354
 318,0.00162069,0.00070093,-0.00183100,0.00012788,0.00005379,-0.0000077
 6,0.00005430,0.00030569,0.00045052,-0.00009138,-0.00001284,0.00102791,
 -0.00059181,0.25997429,0.00123004,0.00116137,0.00054863,0.00059563,-0.
 00881190,0.00124076,-0.03140595,-0.01909343,-0.02909685,-0.07165347,-0
 .07393333,-0.06060431,-0.00085369,-0.00154459,-0.00287027,-0.00175324,
 0.00163487,0.00022332,0.00026761,0.00021430,0.00020107,-0.00131351,-0.
 00023714,-0.00143940,-0.00038019,0.00069744,0.00036441,0.10643287,0.09
 839286,0.00068098,0.00038259,0.00048245,-0.00008151,-0.00089344,0.0002
 8022,0.00240755,0.00176910,0.00075601,-0.23521469,-0.09439255,-0.21695
 832,-0.00045433,0.00051036,0.00049268,0.00043817,0.00103184,-0.0008776
 3,0.00010891,0.00010739,0.00046272,-0.00029750,0.00006311,0.00026893,0
 .00048338,0.00105516,0.00036645,0.23260247,0.09077641,0.21613420,-0.00
 007836,0.00019586,-0.00079327,0.00091896,-0.00010884,0.00202384,-0.014
 42400,-0.01083414,0.02869611,0.00316391,-0.00088771,-0.00212234,-0.090
 46987,-0.02633101,0.09081033,0.00400674,0.00132597,-0.02911354,-0.0003
 7363,0.00002696,-0.00097105,-0.00003677,0.00000256,-0.00008230,-0.0051
 0532,0.00306839,0.00011831,-0.00025731,0.00028631,0.00015017,0.0984338
 6,-0.00010976,-0.00009712,0.00010380,-0.00044177,0.00018630,-0.0000955
 3,0.00630419,0.00256348,-0.01125767,-0.00088646,0.00232508,-0.00018586
 ,-0.02969195,-0.07473348,0.06580727,0.00284235,0.00477298,-0.01787270,
 -0.00012819,0.00012825,0.00003465,0.00005436,0.00001664,0.00003868,0.0
 0205039,-0.00016404,-0.00066278,-0.00007587,-0.00008422,-0.00023713,0.
 03219825,0.07152153,0.00003893,-0.00018770,0.00026263,-0.00068606,-0.0
 0014707,-0.00019848,0.00337667,0.00223283,-0.00289861,-0.00081895,-0.0
 0057649,0.00085778,0.08672477,0.06180797,-0.23740044,-0.00330844,-0.00
 096008,-0.03193883,-0.00006852,0.00010764,0.00047422,-0.00004189,-0.00
 010462,0.00000272,0.00028766,-0.00020686,0.00057587,-0.00010749,0.0002
 1151,-0.00023307,-0.08892260,-0.06330196,0.26975124,0.00021433,-0.0004
 3004,0.00014401,0.00044451,0.00024444,-0.00027012,0.00629897,0.0270379
 4,-0.00393679,-0.00617088,0.00663328,0.00129296,-0.05288209,-0.0057341
 6,0.00621902,-0.00586018,-0.02505281,-0.00969291,-0.00009901,-0.000018
 99,-0.00007493,-0.00056095,-0.00011309,-0.00033020,0.00091588,-0.00090
 678,0.00050280,-0.00047930,-0.00048115,-0.00061443,0.00155103,-0.01331
 230,0.00244008,0.05585077,0.00053785,0.00037651,0.00011153,-0.00065203
 ,-0.00073415,-0.00038513,-0.00211410,-0.01201470,0.00355328,0.00300928
 ,-0.00158835,-0.00127638,-0.00569422,-0.29592718,0.02494766,-0.0090764
 9,-0.00861326,-0.01011904,0.00008421,0.00004154,-0.00008064,0.00008635
 ,0.00060770,0.00016462,0.00008100,0.00055628,-0.00043521,-0.00032405,0
 .00063563,0.00034643,0.00074254,-0.00707856,0.00182360,0.01311740,0.32
 377715,-0.00004961,0.00003336,-0.00009146,-0.00016437,0.00014789,0.000
 05402,0.00252404,-0.00496798,0.00002552,-0.00003055,0.00009365,0.00152
 711,0.00349594,0.02851004,-0.05301126,-0.01010199,-0.03258909,-0.00569
 806,0.00002744,-0.00001394,0.00004921,-0.00031457,0.00007186,0.0000349
 2,-0.00053144,-0.00020042,0.00023511,-0.00044280,0.00018164,-0.0003520
 2,0.00056474,0.02701059,-0.00015937,0.00406381,-0.01810328,0.05725231,
 -0.00030861,0.00002221,-0.00019253,-0.00016021,0.00084089,0.00064494,-
 0.00241160,-0.00195777,-0.00419405,0.00094561,-0.00096102,0.00024935,-
 0.01960265,0.00467628,0.00780910,-0.47874263,0.07080365,0.08966446,-0.
 00001633,-0.00004039,-0.00013998,0.00001034,-0.00003822,0.00003004,0.0
 0065706,-0.00013862,-0.00014164,-0.00040307,0.00041857,0.00009116,0.00
 255629,0.00115959,0.00110313,0.00051318,0.00047932,0.00094164,0.496982
 41,-0.00009480,0.00012886,-0.00005062,-0.00021955,0.00026455,0.0000013
 6,-0.00017714,-0.00233288,-0.00142010,0.00108187,0.00069641,0.00090069
 ,-0.01733002,0.00025079,0.00211489,0.09331278,-0.02541160,-0.03642410,
 0.00000125,-0.00001651,-0.00000539,0.00001554,0.00004104,0.00006827,0.
 00008320,-0.00003754,-0.00002066,-0.00074293,0.00116008,-0.00062112,0.
 00041610,0.00062656,-0.00073852,-0.00108804,-0.00011574,-0.00019313,-0
 .07520934,0.02472939,-0.00091843,0.00007878,-0.00045209,-0.00072529,0.
 00083758,0.00125070,-0.00327994,-0.00289379,-0.00536477,0.00034530,-0.
 00012594,0.00022548,-0.03573413,0.00453798,0.00210898,0.13639767,-0.03
 922556,-0.06066842,0.00011765,0.00005745,-0.00003969,0.00003567,-0.000
 02496,0.00004084,-0.00003829,-0.00016738,0.00029266,-0.00007033,0.0004
 3054,-0.00027173,-0.00046146,0.00062782,0.00097403,0.00015734,-0.00044
 082,0.00015050,-0.09585896,0.03641954,0.06175137,-0.05475478,-0.097887
 76,-0.00525088,-0.00143912,0.04445832,0.00491584,-0.00059145,0.0042016
 9,-0.00112939,0.00159636,0.00037897,0.00139408,-0.00021383,0.00001164,
 0.00026826,0.00049118,-0.00029325,0.00012640,0.00029592,-0.00008921,0.
 00053169,-0.00599328,0.00253820,0.00089814,-0.00014400,-0.00033196,-0.
 00004200,0.00076066,-0.00137232,-0.00027128,0.00005121,0.00004497,-0.0
 0000480,0.00025615,-0.00026605,0.00001777,-0.00002183,-0.00005607,0.00
 002425,0.05931285,-0.04784535,-0.48969330,-0.05339631,-0.00021830,-0.0
 1854723,-0.00133639,-0.00188981,0.00129722,0.00049820,-0.00029474,0.00
 018947,0.00019815,0.00039288,-0.00117808,-0.00033711,-0.00082755,0.000
 06241,-0.00024704,-0.00151581,0.00082965,0.00016381,0.00313535,0.00100
 996,-0.00117430,0.00024639,-0.00012730,0.00022932,0.00014301,-0.000199
 49,0.00011262,-0.00007587,0.00001310,0.00002745,0.00010330,0.00008049,
 0.00001836,-0.00005806,0.00001545,-0.00011450,0.04895016,0.50665777,0.
 00060400,-0.05054466,-0.01165020,0.00001422,-0.00687692,-0.00088979,-0
 .00091853,0.00248916,0.00092604,0.00120260,-0.00008819,-0.00002430,-0.
 00029362,0.00004450,0.00005196,0.00026034,-0.00007115,0.00005123,-0.00
 027858,-0.00095469,0.00002954,0.00043265,0.00043771,0.00015151,-0.0002
 3102,-0.00004555,-0.00024859,0.00033738,-0.00018722,-0.00058054,0.0001
 1904,-0.00000799,-0.00006609,0.00010145,-0.00010836,-0.00001273,-0.000
 00406,-0.00003032,0.00001448,-0.00106734,0.05504549,0.01215739,-0.0012
 0325,0.00374256,-0.00211803,-0.00270549,-0.00038372,0.00202378,-0.0006
 7781,-0.00173936,0.00069995,0.00073868,0.00141709,-0.00000905,-0.00054
 981,0.00042820,-0.00038480,0.00062146,0.00008272,0.00023123,0.00053701
 ,0.00049112,-0.00039094,-0.00042658,0.00051526,0.00085863,-0.00095565,
 -0.00018028,-0.00080785,-0.00008718,-0.00010299,-0.00007604,0.00025679
 ,-0.00001667,-0.00006871,-0.00002852,0.00001045,0.00003020,-0.00001848
 ,-0.00001282,0.00004739,0.00110772,-0.00061414,-0.00111375,0.68655425,
 0.00394163,-0.00423762,-0.00259855,-0.00128622,0.00349964,-0.00134278,
 0.00056364,0.00056982,-0.00050792,-0.00015807,-0.00093522,0.00005375,0
 .00018961,0.00011995,0.00027822,-0.00004490,-0.00013253,-0.00003750,0.
 00096688,-0.00088123,-0.00009426,0.00079493,-0.00098738,-0.00096862,0.
 00021091,0.00024680,0.00069379,0.00004094,-0.00001193,0.00000621,-0.00
 011077,-0.00000654,0.00003782,0.00003837,-0.00007384,-0.00001253,0.000
 02381,0.00002253,-0.00000288,-0.00094572,-0.00115856,0.00146742,-0.793
 47531,1.29255673,-0.00168442,-0.00195870,0.00082690,0.00303481,-0.0014
 9310,-0.00053525,0.00008529,0.00071902,0.00052261,-0.00046843,-0.00052
 700,-0.00027531,0.00032323,-0.00031077,-0.00005759,-0.00046339,-0.0000
 0195,-0.00017346,-0.00107803,-0.00000475,0.00027950,0.00008834,-0.0000
 6658,-0.00033030,0.00015986,0.00006240,0.00018635,-0.00001824,0.000066
 06,0.00007232,-0.00005735,-0.00000403,0.00000324,0.00000657,0.00000509
 ,-0.00001681,-0.00000641,-0.00000501,-0.00004504,-0.00113440,0.0008509
 6,0.00110086,-0.14584793,0.22535722,0.18011310,0.00033854,-0.00248107,
 0.00160707,0.00038355,0.00076109,-0.00053924,0.00041144,0.00089464,-0.
 00064247,-0.00037185,-0.00089611,0.00007070,0.00033710,-0.00015628,0.0
 0024590,-0.00026923,-0.00006259,-0.00010811,0.00001364,-0.00039780,0.0
 0012430,0.00021390,-0.00069428,-0.00049521,0.00010399,0.00000044,0.000
 74216,0.00007529,0.00004877,0.00002299,-0.00014223,0.00001219,0.000039
 20,0.00002339,-0.00001257,-0.00001965,0.00001543,0.00001311,-0.0000192
 1,-0.00040209,0.00001791,0.00052784,-0.33401953,0.39223465,0.06622222,
 0.34119128,-0.00181330,-0.00160971,0.00227420,0.00100209,-0.00150105,0
 .00031759,-0.00015741,-0.00001790,-0.00006321,-0.00003243,0.00018161,0
 .00001938,0.00000771,-0.00012243,-0.00006347,-0.00005261,0.00005388,-0
 .00001099,-0.00041287,0.00039193,0.00005027,-0.00034915,0.00031322,0.0
 0038358,-0.00017690,-0.00016764,-0.00008030,0.00001004,0.00002931,-0.0
 0000144,0.00001594,0.00000773,-0.00000666,-0.00001775,0.00003677,0.000
 00259,-0.00000953,-0.00000983,-0.00000365,0.00002525,0.00052420,0.0003
 3307,0.39301240,-0.65391742,-0.10326178,-0.45204788,0.71176283,0.00115
 202,0.00367370,-0.00166622,-0.00094576,0.00012143,0.00000444,-0.000194
 49,-0.00030135,-0.00028169,0.00025605,0.00031195,0.00016089,-0.0001894
 8,0.00010782,-0.00000353,0.00020130,0.00000596,0.00008012,0.00023164,0
 .00016185,-0.00006990,-0.00021966,0.00044600,0.00027552,-0.00002375,-0
 .00001108,-0.00006562,-0.00001064,-0.00001463,-0.00001289,0.00002527,0
 .00000017,-0.00000534,-0.00000521,-0.00000081,0.00000637,0.00000216,0.
 00000357,0.00001511,0.00062918,-0.00017309,-0.00088046,0.06613439,-0.1
 0292405,-0.08732804,-0.08037569,0.11582238,0.05882423,-0.00154368,-0.0
 0061939,0.00217535,0.00080778,-0.00024176,0.00030454,0.00026082,0.0005
 0502,0.00001388,-0.00025343,-0.00043487,-0.00006856,0.00020801,-0.0001
 1634,0.00004509,-0.00024069,-0.00003396,-0.00008867,-0.00048141,-0.000
 11626,0.00010879,0.00015048,-0.00023627,-0.00031096,0.00019229,0.00008
 163,0.00015743,0.00002501,0.00003670,0.00002400,-0.00005130,-0.0000033
 1,0.00001700,0.00001271,-0.00000891,-0.00001060,0.00000508,0.00000685,
 -0.00001923,-0.00031167,0.00035063,0.00030740,-0.34914361,0.39701564,0
 .08083827,-0.00790263,0.06099638,0.01333266,0.35826625,-0.00241932,0.0
 0203030,0.00182084,0.00022009,-0.00136201,0.00064460,-0.00029739,-0.00
 046976,0.00016679,0.00016517,0.00054359,0.00000888,-0.00015201,0.00000
 568,-0.00013836,0.00011477,0.00006543,0.00005063,-0.00021824,0.0004233
 9,0.00000700,-0.00027719,0.00051229,0.00046097,-0.00019704,-0.00012855
 ,-0.00032553,-0.00001987,-0.00000982,-0.00001553,0.00006943,0.00000231
 ,-0.00001885,-0.00001963,0.00003372,0.00001039,-0.00001137,-0.00001157
 ,0.00000977,0.00063314,0.00022423,-0.00090232,0.39682547,-0.63467321,-
 0.11942707,0.06276577,-0.05595550,-0.01722981,-0.45718178,0.68876948,0
 .00337165,-0.00034119,-0.00228788,-0.00078998,0.00102381,-0.00062478,-
 0.00001050,-0.00028939,-0.00018165,0.00016288,0.00022109,0.00009412,-0
 .00013914,0.00011625,0.00002285,0.00018769,0.00000384,0.00007259,0.000
 60246,-0.00009731,-0.00010280,-0.00001141,0.00002034,0.00008746,-0.000
 05080,-0.00002164,-0.00004911,0.00000605,-0.00003165,-0.00002978,0.000
 01610,0.00000265,-0.00000150,-0.00000346,-0.00000254,0.00000664,0.0000
 0165,0.00000064,0.00001758,0.00009450,-0.00036561,-0.00013032,0.080791
 51,-0.11940535,-0.09434308,0.01259721,-0.01571156,0.03094701,-0.096826
 41,0.13487760,0.06650265\\0.00000231,0.00000306,-0.00000065,0.00000117
 ,0.00000027,-0.00000153,0.00000137,-0.00000069,0.00000159,0.00002244,0
 .00001663,0.00002514,0.00000094,0.00000073,0.00000440,-0.00001971,0.00
 000322,0.00001298,0.00000103,0.00000136,-0.00000051,0.00000032,0.00000
 089,-0.00000101,-0.00000290,-0.00000191,0.00000443,-0.00002116,-0.0000
 1069,-0.00002046,0.00000349,0.00000175,-0.00000492,-0.00000102,-0.0000
 0774,0.00000065,0.00001665,-0.00000414,-0.00000383,0.00000076,-0.00000
 106,-0.00000056,-0.00000221,-0.00000064,-0.00000393,-0.00002032,0.0000
 2477,-0.00000098,0.00001685,-0.00002581,-0.00001082\\\@
 The archive entry for this job was punched.


 LAWS OF PROGRAMMING DEFINITION:  A WORKING PROGRAM
                                  IS ONE THAT HAS
                                  ONLY UNOBSERVED
                                  BUGS.
 Job cpu time:       0 days  0 hours 35 minutes 53.7 seconds.
 Elapsed time:       0 days  0 hours 18 minutes 49.1 seconds.
 File lengths (MBytes):  RWF=    192 Int=      0 D2E=      0 Chk=     20 Scr=      1
 Normal termination of Gaussian 16 at Fri Jun  2 14:24:21 2023.
