 Entering Gaussian System, Link 0=g16
 Input=pyrrolide-H_dissociation-site_index-4-freq.gjf
 Output=pyrrolide-H_dissociation-site_index-4-freq.log
 Initial command:
 /software/commercial/gaussian/g16/AVX/g16/l1.exe "/scratch1/svicchi/G09-659825.pbs02/Gau-1722716.inp" -scrdir="/scratch1/svicchi/G09-659825.pbs02/"
 Entering Link 1 = /software/commercial/gaussian/g16/AVX/g16/l1.exe PID=   1722735.
  
 Copyright (c) 1988-2019, Gaussian, Inc.  All Rights Reserved.
  
 This is part of the Gaussian(R) 16 program.  It is based on
 the Gaussian(R) 09 system (copyright 2009, Gaussian, Inc.),
 the Gaussian(R) 03 system (copyright 2003, Gaussian, Inc.),
 the Gaussian(R) 98 system (copyright 1998, Gaussian, Inc.),
 the Gaussian(R) 94 system (copyright 1995, Gaussian, Inc.),
 the Gaussian 92(TM) system (copyright 1992, Gaussian, Inc.),
 the Gaussian 90(TM) system (copyright 1990, Gaussian, Inc.),
 the Gaussian 88(TM) system (copyright 1988, Gaussian, Inc.),
 the Gaussian 86(TM) system (copyright 1986, Carnegie Mellon
 University), and the Gaussian 82(TM) system (copyright 1983,
 Carnegie Mellon University). Gaussian is a federally registered
 trademark of Gaussian, Inc.
  
 This software contains proprietary and confidential information,
 including trade secrets, belonging to Gaussian, Inc.
  
 This software is provided under written license and may be
 used, copied, transmitted, or stored only in accord with that
 written license.
  
 The following legend is applicable only to US Government
 contracts under FAR:
  
                    RESTRICTED RIGHTS LEGEND
  
 Use, reproduction and disclosure by the US Government is
 subject to restrictions as set forth in subparagraphs (a)
 and (c) of the Commercial Computer Software - Restricted
 Rights clause in FAR 52.227-19.
  
 Gaussian, Inc.
 340 Quinnipiac St., Bldg. 40, Wallingford CT 06492
  
  
 ---------------------------------------------------------------
 Warning -- This program may not be used in any manner that
 competes with the business of Gaussian, Inc. or will provide
 assistance to any competitor of Gaussian, Inc.  The licensee
 of this program is prohibited from giving any competitor of
 Gaussian, Inc. access to this program.  By using this program,
 the user acknowledges that Gaussian, Inc. is engaged in the
 business of creating and licensing software in the field of
 computational chemistry and represents and warrants to the
 licensee that it is not a competitor of Gaussian, Inc. and that
 it will not use this program in any manner prohibited above.
 ---------------------------------------------------------------
  

 Cite this work as:
 Gaussian 16, Revision C.01,
 M. J. Frisch, G. W. Trucks, H. B. Schlegel, G. E. Scuseria, 
 M. A. Robb, J. R. Cheeseman, G. Scalmani, V. Barone, 
 G. A. Petersson, H. Nakatsuji, X. Li, M. Caricato, A. V. Marenich, 
 J. Bloino, B. G. Janesko, R. Gomperts, B. Mennucci, H. P. Hratchian, 
 J. V. Ortiz, A. F. Izmaylov, J. L. Sonnenberg, D. Williams-Young, 
 F. Ding, F. Lipparini, F. Egidi, J. Goings, B. Peng, A. Petrone, 
 T. Henderson, D. Ranasinghe, V. G. Zakrzewski, J. Gao, N. Rega, 
 G. Zheng, W. Liang, M. Hada, M. Ehara, K. Toyota, R. Fukuda, 
 J. Hasegawa, M. Ishida, T. Nakajima, Y. Honda, O. Kitao, H. Nakai, 
 T. Vreven, K. Throssell, J. A. Montgomery, Jr., J. E. Peralta, 
 F. Ogliaro, M. J. Bearpark, J. J. Heyd, E. N. Brothers, K. N. Kudin, 
 V. N. Staroverov, T. A. Keith, R. Kobayashi, J. Normand, 
 K. Raghavachari, A. P. Rendell, J. C. Burant, S. S. Iyengar, 
 J. Tomasi, M. Cossi, J. M. Millam, M. Klene, C. Adamo, R. Cammi, 
 J. W. Ochterski, R. L. Martin, K. Morokuma, O. Farkas, 
 J. B. Foresman, and D. J. Fox, Gaussian, Inc., Wallingford CT, 2019.
 
 ******************************************
 Gaussian 16:  ES64L-G16RevC.01  3-Jul-2019
                 2-Jun-2023 
 ******************************************
 %NProcShared=2
 Will use up to    2 processors via shared memory.
 %mem=55gb
 %chk=/scratch1/svicchi/G09-659825.pbs02/02-freq/pyrrolide-H_dissociation-site_in
 dex-4-freq.chk
 ----------------------------------------------------------------------
 #p freq=raman scale=0.967 pop=(nbo,full,hirshfeld) guess=read geom=all
 check b3lyp/6-311+G(d,p) int=grid=ultrafine EmpiricalDispersion=GD3BJ 
 SCRF=(Solvent=ethanol) scf=(xqc,intrep,maxconventionalcycle=350) nosym
 m
 ----------------------------------------------------------------------
 1/10=4,29=7,30=1,38=1,114=967000/1,3;
 2/12=2,15=1,40=1/2;
 3/5=4,6=6,7=111,11=2,14=-4,25=1,30=1,70=2201,71=2,72=4,74=-5,75=-5,116=-2,124=41,140=1/1,2,3;
 4/5=1/1;
 5/5=2,8=3,13=1,17=20,38=6,53=4,85=350,98=1/2,8;
 8/6=4,10=90,11=11/1;
 10/13=10,15=4,31=1/2;
 11/6=3,8=1,9=11,15=111,16=1,31=1/1,2,10;
 10/6=1,31=1/2;
 6/7=3,28=1,40=1,79=1/1,7;
 7/8=1,10=1,25=1,30=1/1,2,3,16;
 1/10=4,30=1/3;
 99//99;
 Leave Link    1 at Fri Jun  2 10:50:19 2023, MaxMem=  7381975040 cpu:               1.0 elap:               1.0
 (Enter /software/commercial/gaussian/g16/AVX/g16/l101.exe)
 Structure from the checkpoint file:  "/scratch1/svicchi/G09-659825.pbs02/02-freq/pyrrolide-H_dissociation-site_index-4-freq.chk"
 -----------------------------------------
 pyrrolide-H_dissociation-site_index-4.gjf
 -----------------------------------------
 Charge =  0 Multiplicity = 1
 No Z-Matrix found in chk file; cartesian coordinates used.
  C                                                -2.863351716938     -1.707056130384      0.000000000000
  C                                                -1.436331581126     -1.705045619116     -0.000000000000
  C                                                -3.276712653224     -0.390624161025     -0.000000000000
  C                                                -1.026681211979     -0.387456198256     -0.000000000001
  N                                                -2.152803695901      0.398857684896     -0.000000000003
  H                                                -4.262828858410      0.043963366746      0.000000000001
  H                                                -3.509886147979     -2.571024435647     -0.000000000001
  H                                                -0.787362358059     -2.567186787694      0.000000000001
  H                                                -0.041792582038      0.049905130026      0.000000000001
  H                                                -2.154213194347      1.406537150453      0.000000000002
 Recover connectivity data from disk.
 ITRead=  0  0  0  0  0  0  0  0  0  0
 MicOpt= -1 -1 -1 -1 -1 -1 -1 -1 -1 -1
 NAtoms=     10 NQM=       10 NQMF=       0 NMMI=      0 NMMIF=      0
                NMic=       0 NMicF=      0.
                    Isotopes and Nuclear Properties:
 (Nuclear quadrupole moments (NQMom) in fm**2, nuclear magnetic moments (NMagM)
  in nuclear magnetons)

  Atom         1           2           3           4           5           6           7           8           9          10
 IAtWgt=          12          12          12          12          14           1           1           1           1           1
 AtmWgt=  12.0000000  12.0000000  12.0000000  12.0000000  14.0030740   1.0078250   1.0078250   1.0078250   1.0078250   1.0078250
 NucSpn=           0           0           0           0           2           1           1           1           1           1
 AtZEff=   3.6000000   3.6000000   3.6000000   3.6000000   4.5500000   1.0000000   1.0000000   1.0000000   1.0000000   1.0000000
 NQMom=    0.0000000   0.0000000   0.0000000   0.0000000   2.0440000   0.0000000   0.0000000   0.0000000   0.0000000   0.0000000
 NMagM=    0.0000000   0.0000000   0.0000000   0.0000000   0.4037610   2.7928460   2.7928460   2.7928460   2.7928460   2.7928460
 AtZNuc=   6.0000000   6.0000000   6.0000000   6.0000000   7.0000000   1.0000000   1.0000000   1.0000000   1.0000000   1.0000000
 Leave Link  101 at Fri Jun  2 10:50:21 2023, MaxMem=  7381975040 cpu:               0.4 elap:               1.0
 (Enter /software/commercial/gaussian/g16/AVX/g16/l103.exe)

 GradGradGradGradGradGradGradGradGradGradGradGradGradGradGradGradGradGrad
 Berny optimization.
 Initialization pass.
 Trust Radius=3.00D-01 FncErr=1.00D-07 GrdErr=1.00D-07 EigMax=2.50D+02 EigMin=1.00D-04
 Number of steps in this run=      2 maximum allowed number of steps=      2.
 GradGradGradGradGradGradGradGradGradGradGradGradGradGradGradGradGradGrad

 Leave Link  103 at Fri Jun  2 10:50:23 2023, MaxMem=  7381975040 cpu:               0.0 elap:               1.4
 (Enter /software/commercial/gaussian/g16/AVX/g16/l202.exe)
                          Input orientation:                          
 ---------------------------------------------------------------------
 Center     Atomic      Atomic             Coordinates (Angstroms)
 Number     Number       Type             X           Y           Z
 ---------------------------------------------------------------------
      1          6           0       -2.863352   -1.707056    0.000000
      2          6           0       -1.436332   -1.705046   -0.000000
      3          6           0       -3.276713   -0.390624   -0.000000
      4          6           0       -1.026681   -0.387456   -0.000000
      5          7           0       -2.152804    0.398858   -0.000000
      6          1           0       -4.262829    0.043963    0.000000
      7          1           0       -3.509886   -2.571024   -0.000000
      8          1           0       -0.787362   -2.567187    0.000000
      9          1           0       -0.041793    0.049905    0.000000
     10          1           0       -2.154213    1.406537    0.000000
 ---------------------------------------------------------------------
                    Distance matrix (angstroms):
                    1          2          3          4          5
     1  C    0.000000
     2  C    1.427022   0.000000
     3  C    1.379804   2.261572   0.000000
     4  C    2.261571   1.379803   2.250034   0.000000
     5  N    2.222555   2.222553   1.373482   1.373478   0.000000
     6  H    2.241563   3.323871   1.077632   3.264778   2.139663
     7  H    1.079096   2.247120   2.192833   3.306702   3.265252
     8  H    2.247122   1.079096   3.306704   2.192829   3.265249
     9  H    3.323870   2.241560   3.264778   1.077632   2.139658
    10  H    3.193328   3.193321   2.118913   2.118901   1.007680
                    6          7          8          9         10
     6  H    0.000000
     7  H    2.721228   0.000000
     8  H    4.347065   2.722526   0.000000
     9  H    4.221040   4.347062   2.721221   0.000000
    10  H    2.510551   4.202243   4.202233   2.510532   0.000000
 Symmetry turned off by external request.
 Stoichiometry    C4H5N
 Framework group  CS[SG(C4H5N)]
 Deg. of freedom    17
 Full point group                 CS      NOp   2
 Rotational constants (GHZ):           9.1376003           9.0039506           4.5351416
 Leave Link  202 at Fri Jun  2 10:50:25 2023, MaxMem=  7381975040 cpu:               0.1 elap:               0.9
 (Enter /software/commercial/gaussian/g16/AVX/g16/l301.exe)
 Standard basis: 6-311+G(d,p) (5D, 7F)
 Ernie: Thresh=  0.10000D-02 Tol=  0.10000D-05 Strict=F.
   140 basis functions,   220 primitive gaussians,   145 cartesian basis functions
    18 alpha electrons       18 beta electrons
       nuclear repulsion energy       160.7664943823 Hartrees.
 IExCor=  402 DFT=T Ex+Corr=B3LYP ExCW=0 ScaHFX=  0.200000
 ScaDFX=  0.800000  0.720000  1.000000  0.810000 ScalE2=  1.000000  1.000000
 IRadAn=      5 IRanWt=     -1 IRanGd=            0 ICorTp=0 IEmpDi=141
 NAtoms=   10 NActive=   10 NUniq=   10 SFac= 1.00D+00 NAtFMM=   60 NAOKFM=F Big=F
 Integral buffers will be    131072 words long.
 Raffenetti 2 integral format.
 Two-electron integral symmetry is turned off.
 R6Disp:  Grimme-D3(BJ) Dispersion energy=       -0.0131416165 Hartrees.
 Nuclear repulsion after empirical dispersion term =      160.7533527657 Hartrees.
 Force inversion solution in PCM.
 ------------------------------------------------------------------------------
 Polarizable Continuum Model (PCM)
 =================================
 Model                : PCM.
 Atomic radii         : UFF (Universal Force Field).
 Polarization charges : Total charges.
 Charge compensation  : None.
 Solution method      : Matrix inversion.
 Cavity type          : Scaled VdW (van der Waals Surface) (Alpha=1.100).
 Cavity algorithm     : GePol (No added spheres)
                        Default sphere list used, NSphG=   10.
                        Lebedev-Laikov grids with approx.  5.0 points / Ang**2.
                        Smoothing algorithm: York/Karplus (Gamma=1.0000).
                        Polarization charges: spherical gaussians, with
                                              point-specific exponents (IZeta= 3).
                        Self-potential: point-specific (ISelfS= 7).
                        Self-field    : sphere-specific E.n sum rule (ISelfD= 2).
 1st derivatives      : Analytical E(r).r(x)/FMM algorithm (CHGder, D1EAlg=3).
                        Cavity 1st derivative terms included.
 2nd derivatives      : Analytical E(r).r(xy)/FMM algorithm (CHGder, D2EAlg=3).
                        Cavity 2nd derivative terms included.
 Solvent              : Ethanol, Eps=  24.852000 Eps(inf)=   1.852593
 ------------------------------------------------------------------------------
 Spheres list:
 ISph  on   Nord     Re0    Alpha      Xe            Ye            Ze
    1   C      1    1.9255  1.100     -2.863352     -1.707056      0.000000
    2   C      2    1.9255  1.100     -1.436332     -1.705046     -0.000000
    3   C      3    1.9255  1.100     -3.276713     -0.390624     -0.000000
    4   C      4    1.9255  1.100     -1.026681     -0.387456     -0.000000
    5   N      5    1.8300  1.100     -2.152804      0.398858     -0.000000
    6   H      6    1.4430  1.100     -4.262829      0.043963      0.000000
    7   H      7    1.4430  1.100     -3.509886     -2.571024     -0.000000
    8   H      8    1.4430  1.100     -0.787362     -2.567187      0.000000
    9   H      9    1.4430  1.100     -0.041793      0.049905      0.000000
   10   H     10    1.4430  1.100     -2.154213      1.406537      0.000000
 ------------------------------------------------------------------------------
 GePol: Number of generator spheres                  =      10
 GePol: Total number of spheres                      =      10
 GePol: Number of exposed spheres                    =      10 (100.00%)
 GePol: Number of points                             =     951
 GePol: Average weight of points                     =       0.13
 GePol: Minimum weight of points                     =   0.93D-07
 GePol: Maximum weight of points                     =    0.20577
 GePol: Number of points with low weight             =      51
 GePol: Fraction of low-weight points (<1% of avg)   =       5.36%
 GePol: Cavity surface area                          =    124.612 Ang**2
 GePol: Cavity volume                                =    112.752 Ang**3
 Leave Link  301 at Fri Jun  2 10:50:28 2023, MaxMem=  7381975040 cpu:               0.4 elap:               1.9
 (Enter /software/commercial/gaussian/g16/AVX/g16/l302.exe)
 NPDir=0 NMtPBC=     1 NCelOv=     1 NCel=       1 NClECP=     1 NCelD=      1
         NCelK=      1 NCelE2=     1 NClLst=     1 CellRange=     0.0.
 One-electron integrals computed using PRISM.
 NBasis=   140 RedAO= T EigKep=  2.05D-05  NBF=   140
 NBsUse=   140 1.00D-06 EigRej= -1.00D+00 NBFU=   140
 Precomputing XC quadrature grid using
 IXCGrd= 4 IRadAn=           5 IRanWt=          -1 IRanGd=           0 AccXCQ= 0.00D+00.
 Generated NRdTot=       0 NPtTot=           0 NUsed=           0 NTot=          32
 NSgBfM=   145   145   145   145   145 MxSgAt=    10 MxSgA2=    10.
 Leave Link  302 at Fri Jun  2 10:50:30 2023, MaxMem=  7381975040 cpu:               0.5 elap:               0.8
 (Enter /software/commercial/gaussian/g16/AVX/g16/l303.exe)
 DipDrv:  MaxL=1.
 Leave Link  303 at Fri Jun  2 10:50:31 2023, MaxMem=  7381975040 cpu:               0.1 elap:               0.7
 (Enter /software/commercial/gaussian/g16/AVX/g16/l401.exe)
 Initial guess from the checkpoint file:  "/scratch1/svicchi/G09-659825.pbs02/02-freq/pyrrolide-H_dissociation-site_index-4-freq.chk"
 B after Tr=     0.000000    0.000000    0.000000
         Rot=    1.000000    0.000000    0.000000    0.000000 Ang=   0.00 deg.
 Guess basis will be translated and rotated to current coordinates.
 JPrj=2 DoOrth=T DoCkMO=T.
 Leave Link  401 at Fri Jun  2 10:50:34 2023, MaxMem=  7381975040 cpu:               0.6 elap:               1.5
 (Enter /software/commercial/gaussian/g16/AVX/g16/l502.exe)
 Keep R1 ints in memory in canonical form, NReq=50658856.
 FoFCou: FMM=F IPFlag=           0 FMFlag=           0 FMFlg1=           0
         NFxFlg=           0 DoJE=F BraDBF=F KetDBF=F FulRan=T
         wScrn=  0.000000 ICntrl=       600 IOpCl=  0 I1Cent=           0 NGrid=           0
         NMat0=    1 NMatS0=   9870 NMatT0=    0 NMatD0=    1 NMtDS0=    0 NMtDT0=    0
 Symmetry not used in FoFCou.
 Two-electron integral symmetry not used.
 Closed shell SCF:
 Using DIIS extrapolation, IDIIS=  1040.
 NGot=  7381975040 LenX=  7333217324 LenY=  7333195858
 Requested convergence on RMS density matrix=1.00D-08 within 350 cycles.
 Requested convergence on MAX density matrix=1.00D-06.
 Requested convergence on             energy=1.00D-06.
 No special actions if energy rises.

 Cycle   1  Pass 1  IDiag  1:
 Inv3:  Mode=1 IEnd=     2713203.
 Iteration    1 A*A^-1 deviation from unit magnitude is 3.11D-15 for    945.
 Iteration    1 A*A^-1 deviation from orthogonality  is 1.61D-15 for    527    355.
 Iteration    1 A^-1*A deviation from unit magnitude is 3.11D-15 for    945.
 Iteration    1 A^-1*A deviation from orthogonality  is 2.93D-15 for    937     12.
 E= -210.249813692277    
 DIIS: error= 1.02D-08 at cycle   1 NSaved=   1.
 NSaved= 1 IEnMin= 1 EnMin= -210.249813692277     IErMin= 1 ErrMin= 1.02D-08
 ErrMax= 1.02D-08  0.00D+00 EMaxC= 1.00D-01 BMatC= 6.67D-15 BMatP= 6.67D-15
 IDIUse=1 WtCom= 1.00D+00 WtEn= 0.00D+00
 Coeff-Com:  0.100D+01
 Coeff:      0.100D+01
 Gap=     0.230 Goal=   None    Shift=    0.000
 RMSDP=9.05D-10 MaxDP=2.81D-08              OVMax= 6.32D-08

 Error on total polarization charges =  0.01368
 SCF Done:  E(RB3LYP) =  -210.249813692     A.U. after    1 cycles
            NFock=  1  Conv=0.90D-09     -V/T= 2.0046
 KE= 2.092904006666D+02 PE=-8.101155421066D+02 EE= 2.298219749820D+02
 Leave Link  502 at Fri Jun  2 10:50:43 2023, MaxMem=  7381975040 cpu:              12.2 elap:               8.6
 (Enter /software/commercial/gaussian/g16/AVX/g16/l508.exe)
 QCSCF skips out because SCF is already converged.
 Leave Link  508 at Fri Jun  2 10:50:46 2023, MaxMem=  7381975040 cpu:               0.0 elap:               1.1
 (Enter /software/commercial/gaussian/g16/AVX/g16/l801.exe)
 DoSCS=F DFT=T ScalE2(SS,OS)=  1.000000  1.000000
 Range of M.O.s used for correlation:     1   140
 NBasis=   140 NAE=    18 NBE=    18 NFC=     0 NFV=     0
 NROrb=    140 NOA=    18 NOB=    18 NVA=   122 NVB=   122

 **** Warning!!: The largest alpha MO coefficient is  0.81339016D+02

 Leave Link  801 at Fri Jun  2 10:50:48 2023, MaxMem=  7381975040 cpu:               0.2 elap:               0.8
 (Enter /software/commercial/gaussian/g16/AVX/g16/l1002.exe)
 Minotr:  Closed shell wavefunction.
 NEqPCM:  Using equilibrium solvation (IEInf=0, Eps=  24.8520, EpsInf=   1.8526)
          Direct CPHF calculation.
          Differentiating once with respect to electric field.
                with respect to dipole field.
          Electric field/nuclear overlap derivatives assumed to be zero.
          Requested convergence is 1.0D-08 RMS, and 1.0D-07 maximum.
          Secondary convergence is 1.0D-12 RMS, and 1.0D-12 maximum.
          NewPWx=F KeepS1=T KeepF1=T KeepIn=T MapXYZ=F SortEE=F KeepMc=T.
         3051 words used for storage of precomputed grid.
 Keep R1 ints in memory in canonical form, NReq=52255187.
 FoFCou: FMM=F IPFlag=           0 FMFlag=           0 FMFlg1=           0
         NFxFlg=           0 DoJE=F BraDBF=F KetDBF=F FulRan=T
         wScrn=  0.000000 ICntrl=       600 IOpCl=  0 I1Cent=           0 NGrid=           0
         NMat0=    1 NMatS0=   9870 NMatT0=    0 NMatD0=    1 NMtDS0=    0 NMtDT0=    0
 Symmetry not used in FoFCou.
 Two-electron integral symmetry not used.
          MDV=    7381975040 using IRadAn=       1.
          Solving linear equations simultaneously, MaxMat=       0.
          There are     3 degrees of freedom in the 1st order CPHF.  IDoFFX=0 NUNeed=     3.
      3 vectors produced by pass  0 Test12= 7.32D-14 3.33D-08 XBig12= 6.17D+01 5.63D+00.
 AX will form     3 AO Fock derivatives at one time.
      3 vectors produced by pass  1 Test12= 7.32D-14 3.33D-08 XBig12= 2.46D+01 2.27D+00.
      3 vectors produced by pass  2 Test12= 7.32D-14 3.33D-08 XBig12= 2.13D+00 4.72D-01.
      3 vectors produced by pass  3 Test12= 7.32D-14 3.33D-08 XBig12= 4.81D-01 3.48D-01.
      3 vectors produced by pass  4 Test12= 7.32D-14 3.33D-08 XBig12= 5.78D-02 9.58D-02.
      3 vectors produced by pass  5 Test12= 7.32D-14 3.33D-08 XBig12= 1.11D-03 7.94D-03.
      3 vectors produced by pass  6 Test12= 7.32D-14 3.33D-08 XBig12= 1.03D-04 2.96D-03.
      3 vectors produced by pass  7 Test12= 7.32D-14 3.33D-08 XBig12= 1.58D-05 1.07D-03.
      3 vectors produced by pass  8 Test12= 7.32D-14 3.33D-08 XBig12= 3.88D-07 1.38D-04.
      2 vectors produced by pass  9 Test12= 7.32D-14 3.33D-08 XBig12= 2.18D-08 5.57D-05.
      2 vectors produced by pass 10 Test12= 7.32D-14 3.33D-08 XBig12= 6.04D-10 6.29D-06.
      1 vectors produced by pass 11 Test12= 7.32D-14 3.33D-08 XBig12= 6.29D-12 6.76D-07.
      1 vectors produced by pass 12 Test12= 7.32D-14 3.33D-08 XBig12= 6.80D-14 4.79D-08.
 InvSVY:  IOpt=1 It=  1 EMax= 1.32D-15
 Solved reduced A of dimension    33 with     3 vectors.
 End of Minotr F.D. properties file   721 does not exist.
 End of Minotr F.D. properties file   722 does not exist.
 End of Minotr F.D. properties file   788 does not exist.
 Leave Link 1002 at Fri Jun  2 10:51:22 2023, MaxMem=  7381975040 cpu:              57.0 elap:              32.8
 (Enter /software/commercial/gaussian/g16/AVX/g16/l1101.exe)
 Using compressed storage, NAtomX=    10.
 Will process     11 centers per pass.
 R6Disp: Adding Grimme-D3(BJ) dispersion energy 1st derivatives to the gradient.
 Leave Link 1101 at Fri Jun  2 10:51:25 2023, MaxMem=  7381975040 cpu:               0.6 elap:               1.6
 (Enter /software/commercial/gaussian/g16/AVX/g16/l1102.exe)
 Symmetrizing basis deriv contribution to polar:
 IMax=3 JMax=2 DiffMx= 0.00D+00
 Leave Link 1102 at Fri Jun  2 10:51:27 2023, MaxMem=  7381975040 cpu:               0.1 elap:               1.1
 (Enter /software/commercial/gaussian/g16/AVX/g16/l1110.exe)
 Forming Gx(P) for the SCF density, NAtomX=    10.
 Integral derivatives from FoFJK, PRISM(SPDF).
 Do as many integral derivatives as possible in FoFJK.
 G2DrvN: MDV=    7381973894.
 G2DrvN: will do    11 centers at a time, making    1 passes.
 PxScal for G2LodP:  IOpCl= 0 ISclPx=1 IMOff=     1 NMtTot=     4 NTT=    9870 ScalPx= 8.20D+00
 Calling FoFCou, ICntrl=  3107 FMM=F I1Cent=   0 AccDes= 0.00D+00.
 FoFJK:  IHMeth= 1 ICntrl=    3107 DoSepK=F KAlg= 0 I1Cent=           0 FoldK=F
 IRaf=         0 NMat=       1 IRICut=       1 DoRegI=T DoRafI=F ISym2E= 0 IDoP0=0 IntGTp=1.
 FoFCou: FMM=F IPFlag=           0 FMFlag=      100000 FMFlg1=           0
         NFxFlg=           0 DoJE=F BraDBF=F KetDBF=F FulRan=T
         wScrn=  0.000000 ICntrl=      3107 IOpCl=  0 I1Cent=           0 NGrid=           0
         NMat0=    1 NMatS0=      1 NMatT0=    0 NMatD0=    4 NMtDS0=    3 NMtDT0=    0
 Symmetry not used in FoFCou.
 PxScal for G2LodP:  IOpCl= 0 ISclPx=0 IMOff=     1 NMtTot=     4 NTT=    9870 ScalPx= 1.00D+00
 NEqPCM:  Using equilibrium solvation (IEInf=0, Eps=  24.8520, EpsInf=   1.8526)
 G2PCM: DoFxE=T DoFxN=T DoGrad=T DoDP/DQ/DG/TGxP=TFFF NFrqRd=   0 IEInf=0 SqF1=F DoCFld=F IF1Alg=4.
 GePol: Maximum number of non-zero 1st derivatives   =     213
 End of G2Drv F.D. properties file   721 does not exist.
 End of G2Drv F.D. properties file   722 does not exist.
 End of G2Drv F.D. properties file   788 does not exist.
 Leave Link 1110 at Fri Jun  2 10:52:47 2023, MaxMem=  7381975040 cpu:             151.1 elap:              78.1
 (Enter /software/commercial/gaussian/g16/AVX/g16/l1002.exe)
 Minotr:  Closed shell wavefunction.
          IDoAtm=1111111111
 NEqPCM:  Using equilibrium solvation (IEInf=0, Eps=  24.8520, EpsInf=   1.8526)
          Direct CPHF calculation.
          Differentiating once with respect to electric field.
                with respect to dipole field.
          Differentiating once with respect to nuclear coordinates.
          Requested convergence is 1.0D-08 RMS, and 1.0D-07 maximum.
          Secondary convergence is 1.0D-12 RMS, and 1.0D-12 maximum.
          NewPWx=T KeepS1=F KeepF1=F KeepIn=T MapXYZ=F SortEE=F KeepMc=T.
         3051 words used for storage of precomputed grid.
 Keep R1 ints in memory in canonical form, NReq=52255417.
 FoFCou: FMM=F IPFlag=           0 FMFlag=           0 FMFlg1=           0
         NFxFlg=           0 DoJE=F BraDBF=F KetDBF=F FulRan=T
         wScrn=  0.000000 ICntrl=       600 IOpCl=  0 I1Cent=           0 NGrid=           0
         NMat0=    1 NMatS0=   9870 NMatT0=    0 NMatD0=    1 NMtDS0=    0 NMtDT0=    0
 Symmetry not used in FoFCou.
 Two-electron integral symmetry not used.
          MDV=    7381975040 using IRadAn=       1.
          Solving linear equations simultaneously, MaxMat=       0.
          There are    33 degrees of freedom in the 1st order CPHF.  IDoFFX=5 NUNeed=    33.
 Will reuse    3 saved solutions.
     27 vectors produced by pass  0 Test12= 6.65D-15 3.03D-09 XBig12= 9.93D-02 1.30D-01.
 AX will form    27 AO Fock derivatives at one time.
     27 vectors produced by pass  1 Test12= 6.65D-15 3.03D-09 XBig12= 1.67D-02 5.73D-02.
     27 vectors produced by pass  2 Test12= 6.65D-15 3.03D-09 XBig12= 1.87D-04 4.29D-03.
     27 vectors produced by pass  3 Test12= 6.65D-15 3.03D-09 XBig12= 7.38D-07 2.00D-04.
     27 vectors produced by pass  4 Test12= 6.65D-15 3.03D-09 XBig12= 8.78D-10 5.39D-06.
     26 vectors produced by pass  5 Test12= 6.65D-15 3.03D-09 XBig12= 1.56D-12 2.45D-07.
      7 vectors produced by pass  6 Test12= 6.65D-15 3.03D-09 XBig12= 3.17D-15 8.95D-09.
 InvSVY:  IOpt=1 It=  1 EMax= 2.22D-15
 Solved reduced A of dimension   168 with    27 vectors.
 FullF1:  Do perturbations      1 to       3.
 Isotropic polarizability for W=    0.000000       67.72 Bohr**3.
 FullF1:  Do perturbations      1 to       6.
 End of Minotr F.D. properties file   721 does not exist.
 End of Minotr F.D. properties file   722 does not exist.
 End of Minotr F.D. properties file   788 does not exist.
 Leave Link 1002 at Fri Jun  2 10:54:13 2023, MaxMem=  7381975040 cpu:             156.2 elap:              85.9
 (Enter /software/commercial/gaussian/g16/AVX/g16/l601.exe)
 Copying SCF densities to generalized density rwf, IOpCl= 0 IROHF=0.

 **********************************************************************

            Population analysis using the SCF Density.

 **********************************************************************

 Alpha  occ. eigenvalues --  -14.36107 -10.19470 -10.19468 -10.16072 -10.16029
 Alpha  occ. eigenvalues --   -0.98127  -0.77799  -0.72662  -0.59340  -0.57176
 Alpha  occ. eigenvalues --   -0.54900  -0.43618  -0.42830  -0.41405  -0.39749
 Alpha  occ. eigenvalues --   -0.38289  -0.25523  -0.22439
 Alpha virt. eigenvalues --    0.00569   0.01630   0.03125   0.03138   0.05183
 Alpha virt. eigenvalues --    0.05261   0.05417   0.05445   0.06442   0.09002
 Alpha virt. eigenvalues --    0.09963   0.10624   0.11323   0.14110   0.14914
 Alpha virt. eigenvalues --    0.15731   0.15854   0.16065   0.19185   0.19350
 Alpha virt. eigenvalues --    0.20212   0.21209   0.22008   0.22926   0.23903
 Alpha virt. eigenvalues --    0.24614   0.26165   0.27404   0.29396   0.37410
 Alpha virt. eigenvalues --    0.42434   0.43166   0.43568   0.51237   0.52303
 Alpha virt. eigenvalues --    0.54379   0.56470   0.58245   0.60279   0.61186
 Alpha virt. eigenvalues --    0.62245   0.63093   0.71656   0.72780   0.73953
 Alpha virt. eigenvalues --    0.75585   0.79711   0.80261   0.81201   0.81566
 Alpha virt. eigenvalues --    0.82994   0.84251   0.87927   0.95940   0.95952
 Alpha virt. eigenvalues --    1.01670   1.05732   1.08303   1.12009   1.16770
 Alpha virt. eigenvalues --    1.16868   1.17947   1.39116   1.52225   1.53812
 Alpha virt. eigenvalues --    1.54520   1.56497   1.58945   1.61426   1.66147
 Alpha virt. eigenvalues --    1.71413   1.72246   1.73712   1.80138   1.81536
 Alpha virt. eigenvalues --    1.85444   1.89473   1.93065   1.96955   1.98064
 Alpha virt. eigenvalues --    1.98639   1.99199   2.14269   2.15684   2.28809
 Alpha virt. eigenvalues --    2.36886   2.37976   2.43820   2.46756   2.50274
 Alpha virt. eigenvalues --    2.55623   2.58115   2.66765   2.66896   2.70486
 Alpha virt. eigenvalues --    2.71762   2.76773   2.76920   2.78757   2.80407
 Alpha virt. eigenvalues --    2.89089   2.90638   2.93651   3.01710   3.19426
 Alpha virt. eigenvalues --    3.29122   3.41756   3.46941   3.50010   3.55235
 Alpha virt. eigenvalues --    3.76711   3.85719   4.05912   4.07484   4.27515
 Alpha virt. eigenvalues --    4.90295   5.11263  23.70237  23.89467  24.12338
 Alpha virt. eigenvalues --   24.18466  35.59028
     Molecular Orbital Coefficients:
                           1         2         3         4         5
                           O         O         O         O         O
     Eigenvalues --   -14.36107 -10.19470 -10.19468 -10.16072 -10.16029
   1 1   C  1S         -0.00001   0.00358   0.00331   0.39828  -0.39774
   2        2S          0.00006   0.00311   0.00292   0.32780  -0.32717
   3        2PX        -0.00008  -0.00027  -0.00011   0.00045   0.00051
   4        2PY         0.00008   0.00064   0.00049  -0.00013   0.00014
   5        2PZ         0.00000  -0.00000   0.00000   0.00000  -0.00000
   6        3S         -0.00035  -0.00010  -0.00023   0.01387  -0.01396
   7        3PX         0.00023   0.00150   0.00022  -0.00183  -0.00141
   8        3PY        -0.00097  -0.00287  -0.00237   0.00075  -0.00067
   9        3PZ         0.00000  -0.00000  -0.00000  -0.00000   0.00000
  10        4S         -0.00220   0.00428  -0.00122  -0.00709   0.01532
  11        4PX        -0.00098   0.00024   0.00015  -0.00055   0.00574
  12        4PY        -0.00180   0.00356   0.00029  -0.00195   0.00680
  13        4PZ        -0.00000   0.00000  -0.00000   0.00000  -0.00000
  14        5S         -0.00297   0.01871   0.00953   0.01563  -0.01880
  15        5PX        -0.00022   0.00654  -0.00171  -0.00046  -0.00519
  16        5PY        -0.00067   0.00059   0.00214   0.00435  -0.00112
  17        5PZ        -0.00000   0.00000  -0.00000  -0.00000  -0.00000
  18        6D 0       -0.00008   0.00064   0.00056  -0.00097   0.00179
  19        6D+1       -0.00000   0.00000   0.00000   0.00000   0.00000
  20        6D-1       -0.00000   0.00000   0.00000   0.00000  -0.00000
  21        6D+2        0.00018   0.00173   0.00088  -0.00143  -0.00048
  22        6D-2        0.00044   0.00052   0.00087   0.00030  -0.00087
  23 2   C  1S         -0.00001  -0.00335   0.00355   0.39768   0.39834
  24        2S          0.00006  -0.00290   0.00313   0.32731   0.32767
  25        2PX         0.00008  -0.00026   0.00012  -0.00045   0.00051
  26        2PY         0.00008  -0.00061   0.00053  -0.00013  -0.00014
  27        2PZ         0.00000   0.00000  -0.00000   0.00000  -0.00000
  28        3S         -0.00035   0.00009  -0.00023   0.01385   0.01398
  29        3PX        -0.00023   0.00147  -0.00031   0.00184  -0.00141
  30        3PY        -0.00097   0.00270  -0.00256   0.00075   0.00067
  31        3PZ         0.00000  -0.00000   0.00000   0.00000   0.00000
  32        4S         -0.00220  -0.00435  -0.00093  -0.00706  -0.01533
  33        4PX         0.00099   0.00024  -0.00017   0.00055   0.00576
  34        4PY        -0.00180  -0.00353   0.00052  -0.00194  -0.00678
  35        4PZ        -0.00000  -0.00000  -0.00000  -0.00000   0.00000
  36        5S         -0.00297  -0.01802   0.01077   0.01561   0.01882
  37        5PX         0.00022   0.00664   0.00126   0.00045  -0.00520
  38        5PY        -0.00067  -0.00043   0.00218   0.00435   0.00111
  39        5PZ        -0.00000  -0.00000   0.00000   0.00000   0.00000
  40        6D 0       -0.00008  -0.00060   0.00060  -0.00097  -0.00180
  41        6D+1       -0.00000  -0.00000   0.00000   0.00000  -0.00000
  42        6D-1       -0.00000  -0.00000   0.00000   0.00000   0.00000
  43        6D+2        0.00019  -0.00167   0.00100  -0.00143   0.00048
  44        6D-2       -0.00044   0.00045  -0.00090  -0.00030  -0.00087
  45 3   C  1S          0.00001   0.41123   0.38438  -0.00355   0.00356
  46        2S          0.00004   0.33835   0.31630  -0.00273   0.00279
  47        2PX         0.00030   0.00033   0.00021   0.00012  -0.00020
  48        2PY         0.00031   0.00054   0.00050  -0.00062   0.00047
  49        2PZ        -0.00000  -0.00000   0.00000   0.00000  -0.00000
  50        3S          0.00027   0.01442   0.01299  -0.00047   0.00022
  51        3PX        -0.00058  -0.00031  -0.00000  -0.00077   0.00070
  52        3PY        -0.00089  -0.00119  -0.00088   0.00285  -0.00167
  53        3PZ        -0.00000  -0.00000  -0.00000  -0.00000   0.00000
  54        4S          0.00660  -0.00864  -0.00622   0.00010  -0.00511
  55        4PX         0.00536  -0.00389  -0.00101   0.00093  -0.00360
  56        4PY        -0.00084   0.00406  -0.00019  -0.00159   0.00232
  57        4PZ         0.00000   0.00000   0.00000  -0.00000   0.00000
  58        5S          0.00248  -0.00329  -0.01316  -0.01722   0.00627
  59        5PX         0.00052  -0.00172  -0.00081  -0.00176   0.00182
  60        5PY        -0.00117  -0.00257   0.00334   0.00448   0.00111
  61        5PZ         0.00000  -0.00000   0.00000   0.00000  -0.00000
  62        6D 0        0.00011  -0.00139  -0.00140   0.00057  -0.00064
  63        6D+1        0.00000   0.00000   0.00000  -0.00000   0.00000
  64        6D-1        0.00000   0.00000   0.00000   0.00000  -0.00000
  65        6D+2       -0.00036  -0.00016   0.00021   0.00129  -0.00050
  66        6D-2       -0.00098  -0.00118  -0.00103   0.00083  -0.00088
  67 4   C  1S          0.00001  -0.38438   0.41122  -0.00354  -0.00356
  68        2S          0.00004  -0.31626   0.33839  -0.00272  -0.00279
  69        2PX        -0.00030   0.00032  -0.00024  -0.00011  -0.00020
  70        2PY         0.00031  -0.00051   0.00054  -0.00062  -0.00048
  71        2PZ        -0.00000   0.00000  -0.00000   0.00000   0.00000
  72        3S          0.00027  -0.01352   0.01393  -0.00047  -0.00022
  73        3PX         0.00059  -0.00032   0.00002   0.00076   0.00069
  74        3PY        -0.00089   0.00112  -0.00096   0.00285   0.00167
  75        3PZ         0.00000  -0.00000  -0.00000  -0.00000  -0.00000
  76        4S          0.00660   0.00820  -0.00679   0.00009   0.00511
  77        4PX        -0.00536  -0.00381   0.00127  -0.00092  -0.00359
  78        4PY        -0.00086  -0.00408   0.00009  -0.00159  -0.00233
  79        4PZ         0.00000   0.00000   0.00000   0.00000  -0.00000
  80        5S          0.00248   0.00240  -0.01335  -0.01721  -0.00629
  81        5PX        -0.00051  -0.00167   0.00091   0.00175   0.00183
  82        5PY        -0.00117   0.00278   0.00316   0.00449  -0.00109
  83        5PZ         0.00000  -0.00000   0.00000   0.00000  -0.00000
  84        6D 0        0.00011   0.00129  -0.00149   0.00057   0.00064
  85        6D+1       -0.00000  -0.00000  -0.00000   0.00000   0.00000
  86        6D-1        0.00000  -0.00000   0.00000   0.00000   0.00000
  87        6D+2       -0.00036   0.00018   0.00019   0.00129   0.00051
  88        6D-2        0.00098  -0.00111   0.00111  -0.00082  -0.00088
  89 5   N  1S          0.55737  -0.00000  -0.00007   0.00000   0.00000
  90        2S          0.46564  -0.00000  -0.00008   0.00005   0.00000
  91        2PX        -0.00000  -0.00036   0.00001  -0.00000   0.00007
  92        2PY         0.00006  -0.00002  -0.00044  -0.00003   0.00000
  93        2PZ         0.00000  -0.00000  -0.00000   0.00000   0.00000
  94        3S          0.01640   0.00004   0.00104  -0.00015  -0.00000
  95        3PX         0.00000   0.00038  -0.00001  -0.00000  -0.00036
  96        3PY        -0.00006   0.00004   0.00110   0.00036  -0.00000
  97        3PZ         0.00000   0.00000   0.00000  -0.00000  -0.00000
  98        4S         -0.01294  -0.00008  -0.00224  -0.00155  -0.00000
  99        4PX        -0.00001   0.00235  -0.00008   0.00000  -0.00129
 100        4PY         0.00651   0.00003   0.00068  -0.00029  -0.00000
 101        4PZ        -0.00000  -0.00000  -0.00000   0.00000   0.00000
 102        5S         -0.00142   0.00034   0.01014   0.00417   0.00000
 103        5PX        -0.00000  -0.00285   0.00010   0.00000   0.00287
 104        5PY         0.00028  -0.00020  -0.00581  -0.00424   0.00000
 105        5PZ        -0.00000   0.00000  -0.00000  -0.00000   0.00000
 106        6D 0       -0.00080   0.00003   0.00076   0.00007   0.00000
 107        6D+1        0.00000   0.00000   0.00000  -0.00000  -0.00000
 108        6D-1        0.00000   0.00000   0.00000  -0.00000  -0.00000
 109        6D+2       -0.00056  -0.00000  -0.00016  -0.00033  -0.00000
 110        6D-2       -0.00000  -0.00082   0.00003  -0.00000   0.00019
 111 6   H  1S         -0.00020   0.00016  -0.00003  -0.00012   0.00004
 112        2S          0.00045  -0.00420  -0.00274  -0.00025  -0.00055
 113        3S          0.00183   0.00020   0.00207   0.00118  -0.00089
 114        4PX        -0.00029  -0.00190  -0.00160  -0.00019  -0.00004
 115        4PY        -0.00015   0.00057   0.00066   0.00031  -0.00014
 116        4PZ        -0.00000   0.00000   0.00000  -0.00000   0.00000
 117 7   H  1S         -0.00005  -0.00005  -0.00016   0.00007  -0.00022
 118        2S         -0.00084   0.00008  -0.00050  -0.00336   0.00396
 119        3S         -0.00025   0.00084   0.00053   0.00186   0.00075
 120        4PX        -0.00017   0.00007  -0.00016  -0.00126   0.00091
 121        4PY        -0.00022  -0.00025  -0.00038  -0.00143   0.00142
 122        4PZ         0.00000   0.00000   0.00000  -0.00000   0.00000
 123 8   H  1S         -0.00005   0.00004  -0.00016   0.00007   0.00022
 124        2S         -0.00084  -0.00012  -0.00049  -0.00335  -0.00396
 125        3S         -0.00025  -0.00080   0.00058   0.00186  -0.00074
 126        4PX         0.00017   0.00008   0.00015   0.00126   0.00092
 127        4PY        -0.00022   0.00022  -0.00040  -0.00143  -0.00142
 128        4PZ         0.00000   0.00000   0.00000   0.00000   0.00000
 129 9   H  1S         -0.00020  -0.00016  -0.00002  -0.00012  -0.00004
 130        2S          0.00045   0.00400  -0.00302  -0.00025   0.00055
 131        3S          0.00183  -0.00006   0.00208   0.00117   0.00089
 132        4PX         0.00029  -0.00179   0.00172   0.00019  -0.00004
 133        4PY        -0.00015  -0.00053   0.00070   0.00031   0.00014
 134        4PZ        -0.00000  -0.00000   0.00000  -0.00000  -0.00000
 135 10  H  1S          0.00013   0.00000   0.00006  -0.00005  -0.00000
 136        2S         -0.00414  -0.00003  -0.00078  -0.00009  -0.00000
 137        3S          0.00131   0.00007   0.00207   0.00281   0.00000
 138        4PX        -0.00000  -0.00014   0.00000  -0.00000   0.00013
 139        4PY         0.00200   0.00000   0.00013  -0.00001   0.00000
 140        4PZ         0.00000   0.00000   0.00000   0.00000  -0.00000
                           6         7         8         9        10
                           O         O         O         O         O
     Eigenvalues --    -0.98127  -0.77799  -0.72662  -0.59340  -0.57176
   1 1   C  1S         -0.02515  -0.07115  -0.03831  -0.04025   0.05562
   2        2S         -0.03854  -0.10989  -0.05918  -0.06278   0.08702
   3        2PX         0.01049   0.02866  -0.03250   0.02225   0.05807
   4        2PY         0.02267   0.02070   0.03325  -0.07110   0.00504
   5        2PZ         0.00000   0.00000   0.00000   0.00000  -0.00000
   6        3S          0.09672   0.28499   0.15489   0.16868  -0.23342
   7        3PX         0.01382   0.04297  -0.04816   0.03640   0.08150
   8        3PY         0.03288   0.02602   0.04720  -0.09875   0.00623
   9        3PZ        -0.00000   0.00000   0.00000   0.00000  -0.00000
  10        4S          0.04801   0.15499   0.09035   0.12433  -0.16061
  11        4PX         0.00533   0.01097  -0.00824   0.00865   0.03948
  12        4PY         0.01127   0.01110   0.01525  -0.04190   0.00851
  13        4PZ         0.00000   0.00000   0.00000   0.00000  -0.00000
  14        5S         -0.05616  -0.08313  -0.07762   0.02703   0.05938
  15        5PX         0.00658   0.00235  -0.02299  -0.01130  -0.00902
  16        5PY        -0.01212  -0.02349  -0.01019   0.00181   0.03429
  17        5PZ        -0.00000  -0.00000   0.00000  -0.00000  -0.00000
  18        6D 0       -0.00644  -0.01140  -0.00440  -0.00207   0.00492
  19        6D+1        0.00000   0.00000  -0.00000   0.00000   0.00000
  20        6D-1       -0.00000   0.00000   0.00000  -0.00000   0.00000
  21        6D+2       -0.00334   0.00482  -0.01139   0.00992   0.00667
  22        6D-2        0.00235   0.00263  -0.00541  -0.00098  -0.00130
  23 2   C  1S         -0.02515  -0.07115   0.03831  -0.04024  -0.05562
  24        2S         -0.03854  -0.10989   0.05918  -0.06277  -0.08702
  25        2PX        -0.01056  -0.02872  -0.03240  -0.02205   0.05808
  26        2PY         0.02264   0.02062  -0.03334  -0.07116  -0.00487
  27        2PZ         0.00000   0.00000  -0.00000   0.00000   0.00000
  28        3S          0.09672   0.28499  -0.15489   0.16867   0.23343
  29        3PX        -0.01391  -0.04304  -0.04803  -0.03613   0.08152
  30        3PY         0.03284   0.02590  -0.04733  -0.09885  -0.00600
  31        3PZ         0.00000   0.00000   0.00000   0.00000  -0.00000
  32        4S          0.04801   0.15499  -0.09035   0.12432   0.16062
  33        4PX        -0.00536  -0.01101  -0.00820  -0.00854   0.03950
  34        4PY         0.01126   0.01107  -0.01527  -0.04193  -0.00840
  35        4PZ        -0.00000  -0.00000  -0.00000  -0.00000   0.00000
  36        5S         -0.05616  -0.08313   0.07762   0.02703  -0.05938
  37        5PX        -0.00655  -0.00228  -0.02302   0.01130  -0.00893
  38        5PY        -0.01214  -0.02350   0.01012   0.00184  -0.03432
  39        5PZ         0.00000   0.00000  -0.00000   0.00000   0.00000
  40        6D 0       -0.00644  -0.01140   0.00440  -0.00207  -0.00492
  41        6D+1       -0.00000   0.00000  -0.00000  -0.00000  -0.00000
  42        6D-1        0.00000   0.00000  -0.00000   0.00000   0.00000
  43        6D+2       -0.00332   0.00483   0.01142   0.00992  -0.00666
  44        6D-2       -0.00236  -0.00261  -0.00535   0.00104  -0.00134
  45 3   C  1S         -0.04846  -0.02025  -0.07610   0.03467  -0.01545
  46        2S         -0.07434  -0.03145  -0.11805   0.05439  -0.02416
  47        2PX         0.04606   0.00245   0.00836  -0.02534   0.01437
  48        2PY         0.01396  -0.06056  -0.00296  -0.00186   0.10380
  49        2PZ        -0.00000  -0.00000  -0.00000   0.00000  -0.00000
  50        3S          0.18984   0.08264   0.31637  -0.14946   0.06764
  51        3PX         0.06790   0.00122   0.01375  -0.03632   0.02208
  52        3PY         0.02238  -0.08895  -0.00103  -0.00457   0.14619
  53        3PZ        -0.00000   0.00000   0.00000   0.00000  -0.00000
  54        4S          0.06670   0.04110   0.17124  -0.09178   0.03235
  55        4PX        -0.00172  -0.00189   0.00115  -0.00550  -0.00429
  56        4PY         0.00699  -0.01417  -0.00558  -0.00189   0.05358
  57        4PZ         0.00000  -0.00000   0.00000  -0.00000   0.00000
  58        5S          0.07529   0.08746   0.03441  -0.02955  -0.02150
  59        5PX         0.00908   0.00819   0.00768   0.00213   0.01214
  60        5PY        -0.01619  -0.02165   0.01358   0.00574   0.02454
  61        5PZ         0.00000   0.00000   0.00000   0.00000   0.00000
  62        6D 0       -0.01281  -0.00383  -0.00999   0.00569  -0.00339
  63        6D+1        0.00000  -0.00000   0.00000  -0.00000   0.00000
  64        6D-1        0.00000  -0.00000   0.00000  -0.00000   0.00000
  65        6D+2        0.00769  -0.00202  -0.00544  -0.01596   0.00667
  66        6D-2        0.00863  -0.01787   0.00177   0.00214   0.00929
  67 4   C  1S         -0.04846  -0.02025   0.07610   0.03467   0.01545
  68        2S         -0.07434  -0.03145   0.11805   0.05439   0.02416
  69        2PX        -0.04610  -0.00228   0.00835   0.02535   0.01466
  70        2PY         0.01383  -0.06057   0.00299  -0.00179  -0.10376
  71        2PZ        -0.00000   0.00000   0.00000   0.00000   0.00000
  72        3S          0.18984   0.08263  -0.31637  -0.14946  -0.06764
  73        3PX        -0.06796  -0.00097   0.01374   0.03634   0.02249
  74        3PY         0.02219  -0.08895   0.00107  -0.00446  -0.14613
  75        3PZ        -0.00000   0.00000   0.00000   0.00000   0.00000
  76        4S          0.06671   0.04110  -0.17124  -0.09178  -0.03235
  77        4PX         0.00170   0.00193   0.00114   0.00550  -0.00414
  78        4PY         0.00699  -0.01416   0.00558  -0.00187  -0.05359
  79        4PZ         0.00000  -0.00000   0.00000   0.00000  -0.00000
  80        5S          0.07529   0.08746  -0.03441  -0.02955   0.02150
  81        5PX        -0.00904  -0.00813   0.00772  -0.00215   0.01221
  82        5PY        -0.01622  -0.02167  -0.01356   0.00574  -0.02450
  83        5PZ         0.00000  -0.00000   0.00000  -0.00000  -0.00000
  84        6D 0       -0.01281  -0.00383   0.00999   0.00569   0.00339
  85        6D+1       -0.00000   0.00000   0.00000   0.00000   0.00000
  86        6D-1        0.00000   0.00000  -0.00000  -0.00000   0.00000
  87        6D+2        0.00774  -0.00212   0.00543  -0.01594  -0.00672
  88        6D-2       -0.00858   0.01786   0.00180  -0.00223   0.00926
  89 5   N  1S         -0.09668   0.05593  -0.00000  -0.01957  -0.00000
  90        2S         -0.15187   0.08857  -0.00000  -0.03112  -0.00000
  91        2PX         0.00004   0.00008  -0.10256  -0.00022  -0.12856
  92        2PY        -0.02937  -0.05427  -0.00014   0.15999  -0.00018
  93        2PZ         0.00000  -0.00000   0.00000   0.00000  -0.00000
  94        3S          0.41703  -0.25206   0.00000   0.08796   0.00000
  95        3PX         0.00006   0.00011  -0.15301  -0.00032  -0.18843
  96        3PY        -0.04527  -0.08063  -0.00022   0.23228  -0.00026
  97        3PZ        -0.00000   0.00000   0.00000  -0.00000  -0.00000
  98        4S          0.27724  -0.18630   0.00000   0.08569   0.00000
  99        4PX         0.00003   0.00006  -0.07872  -0.00020  -0.12666
 100        4PY        -0.02503  -0.04278  -0.00011   0.14175  -0.00017
 101        4PZ        -0.00000   0.00000  -0.00000   0.00000  -0.00000
 102        5S         -0.06022  -0.03170  -0.00000   0.04375  -0.00000
 103        5PX        -0.00005  -0.00001   0.02144  -0.00001   0.02187
 104        5PY         0.03754   0.00848   0.00003   0.00748   0.00003
 105        5PZ        -0.00000  -0.00000  -0.00000  -0.00000  -0.00000
 106        6D 0       -0.01222   0.00262  -0.00000  -0.00036   0.00000
 107        6D+1        0.00000  -0.00000   0.00000  -0.00000   0.00000
 108        6D-1        0.00000   0.00000   0.00000  -0.00000   0.00000
 109        6D+2       -0.00163  -0.00152  -0.00004  -0.00866  -0.00002
 110        6D-2       -0.00000  -0.00000   0.01411  -0.00002   0.00658
 111 6   H  1S          0.01417   0.00269   0.05658  -0.02014   0.03340
 112        2S          0.01174  -0.00038   0.06652  -0.02275   0.04140
 113        3S         -0.00793  -0.00276   0.00328  -0.00189   0.00887
 114        4PX         0.00305  -0.00261   0.00955  -0.00138   0.00616
 115        4PY         0.00045  -0.00193  -0.00470  -0.00052   0.00257
 116        4PZ        -0.00000   0.00000   0.00000  -0.00000   0.00000
 117 7   H  1S          0.00506   0.03618   0.02648   0.06522  -0.08018
 118        2S          0.00564   0.04033   0.03139   0.08182  -0.10082
 119        3S          0.00031  -0.00053   0.00204   0.00623  -0.01349
 120        4PX         0.00016   0.00458   0.00096   0.00904  -0.00540
 121        4PY         0.00062   0.00466   0.00562   0.00732  -0.01100
 122        4PZ        -0.00000  -0.00000  -0.00000  -0.00000   0.00000
 123 8   H  1S          0.00506   0.03618  -0.02648   0.06522   0.08018
 124        2S          0.00564   0.04033  -0.03139   0.08181   0.10082
 125        3S          0.00031  -0.00053  -0.00204   0.00623   0.01349
 126        4PX        -0.00016  -0.00459   0.00098  -0.00906  -0.00543
 127        4PY         0.00062   0.00464  -0.00562   0.00729   0.01098
 128        4PZ         0.00000   0.00000  -0.00000   0.00000   0.00000
 129 9   H  1S          0.01417   0.00269  -0.05658  -0.02014  -0.03340
 130        2S          0.01174  -0.00038  -0.06652  -0.02275  -0.04140
 131        3S         -0.00793  -0.00276  -0.00328  -0.00189  -0.00887
 132        4PX        -0.00305   0.00262   0.00953   0.00138   0.00616
 133        4PY         0.00044  -0.00192   0.00473  -0.00052  -0.00255
 134        4PZ        -0.00000   0.00000  -0.00000  -0.00000  -0.00000
 135 10  H  1S          0.05493  -0.07971   0.00000   0.13526   0.00000
 136        2S          0.05618  -0.07696  -0.00000   0.15587   0.00000
 137        3S         -0.02248   0.00173   0.00000   0.00801   0.00000
 138        4PX         0.00002  -0.00002  -0.00549   0.00003  -0.00770
 139        4PY        -0.01389   0.01522  -0.00001  -0.01834  -0.00001
 140        4PZ         0.00000  -0.00000   0.00000   0.00000   0.00000
                          11        12        13        14        15
                           O         O         O         O         O
     Eigenvalues --    -0.54900  -0.43618  -0.42830  -0.41405  -0.39749
   1 1   C  1S          0.00470  -0.00559   0.01827   0.00000   0.00288
   2        2S          0.00767  -0.00894   0.02900   0.00000   0.00456
   3        2PX        -0.06993   0.03746   0.00733  -0.00000   0.01924
   4        2PY        -0.00009   0.12774   0.00829  -0.00000   0.14160
   5        2PZ        -0.00000   0.00000   0.00000   0.07161   0.00000
   6        3S         -0.02156   0.02772  -0.08032  -0.00000  -0.00670
   7        3PX        -0.09781   0.05203   0.01076  -0.00000   0.02017
   8        3PY         0.00095   0.17449   0.00781  -0.00000   0.19363
   9        3PZ        -0.00000   0.00000  -0.00000   0.11031  -0.00000
  10        4S         -0.01455   0.01606  -0.10081   0.00000  -0.07725
  11        4PX        -0.04675   0.02639  -0.00649  -0.00000   0.01875
  12        4PY        -0.00925   0.10932   0.00808  -0.00000   0.09263
  13        4PZ         0.00000   0.00000   0.00000   0.07151   0.00000
  14        5S          0.05725  -0.04827   0.09923  -0.00000   0.03869
  15        5PX        -0.00360   0.02238   0.03160  -0.00000   0.00924
  16        5PY         0.01118   0.00091   0.00026  -0.00000   0.01527
  17        5PZ        -0.00000  -0.00000  -0.00000  -0.00328  -0.00000
  18        6D 0        0.00281  -0.00109   0.00163  -0.00000   0.00144
  19        6D+1       -0.00000   0.00000   0.00000   0.00607   0.00000
  20        6D-1        0.00000   0.00000   0.00000   0.01294   0.00000
  21        6D+2       -0.00181   0.00202   0.01293  -0.00000  -0.01059
  22        6D-2       -0.00932   0.00153  -0.01306   0.00000  -0.02639
  23 2   C  1S          0.00470  -0.00559  -0.01827   0.00000  -0.00288
  24        2S          0.00767  -0.00894  -0.02900   0.00000  -0.00456
  25        2PX         0.06993  -0.03782   0.00735   0.00000   0.01965
  26        2PY         0.00011   0.12763  -0.00827  -0.00000  -0.14155
  27        2PZ         0.00000   0.00000   0.00000   0.07161   0.00000
  28        3S         -0.02156   0.02772   0.08032  -0.00000   0.00670
  29        3PX         0.09781  -0.05252   0.01078   0.00000   0.02072
  30        3PY         0.00123   0.17434  -0.00777   0.00000  -0.19357
  31        3PZ        -0.00000   0.00000  -0.00000   0.11031  -0.00000
  32        4S         -0.01455   0.01606   0.10081   0.00000   0.07725
  33        4PX         0.04678  -0.02670  -0.00647  -0.00000   0.01901
  34        4PY        -0.00912   0.10925  -0.00809   0.00000  -0.09258
  35        4PZ         0.00000   0.00000  -0.00000   0.07151  -0.00000
  36        5S          0.05724  -0.04828  -0.09923   0.00000  -0.03869
  37        5PX         0.00357  -0.02238   0.03160  -0.00000   0.00929
  38        5PY         0.01119   0.00084  -0.00017   0.00000  -0.01524
  39        5PZ        -0.00000  -0.00000   0.00000  -0.00327   0.00000
  40        6D 0        0.00281  -0.00109  -0.00163   0.00000  -0.00144
  41        6D+1        0.00000   0.00000  -0.00000  -0.00611  -0.00000
  42        6D-1        0.00000   0.00000   0.00000   0.01292  -0.00000
  43        6D+2       -0.00187   0.00202  -0.01285   0.00000   0.01074
  44        6D-2        0.00931  -0.00152  -0.01314   0.00000  -0.02633
  45 3   C  1S         -0.04215  -0.00237  -0.00808  -0.00000  -0.02107
  46        2S         -0.06601  -0.00396  -0.01285   0.00000  -0.03367
  47        2PX        -0.11289  -0.01056  -0.14679   0.00000   0.04358
  48        2PY         0.00502  -0.09562  -0.01024   0.00000  -0.11066
  49        2PZ         0.00000   0.00000   0.00000   0.10628  -0.00000
  50        3S          0.17828   0.00830   0.02648  -0.00000   0.09909
  51        3PX        -0.15371  -0.02071  -0.20277  -0.00000   0.06091
  52        3PY         0.00732  -0.13694  -0.02011  -0.00000  -0.15019
  53        3PZ        -0.00000   0.00000   0.00000   0.16466  -0.00000
  54        4S          0.18030  -0.00693   0.07237  -0.00000   0.12764
  55        4PX        -0.05328  -0.00372  -0.10729  -0.00000   0.05648
  56        4PY         0.00646  -0.05058  -0.00244  -0.00000  -0.09371
  57        4PZ        -0.00000   0.00000  -0.00000   0.10016  -0.00000
  58        5S         -0.04466   0.03661  -0.05181   0.00000  -0.03792
  59        5PX        -0.01021  -0.00580  -0.03300   0.00000  -0.00520
  60        5PY         0.02002  -0.02948  -0.00242  -0.00000  -0.00445
  61        5PZ         0.00000   0.00000   0.00000   0.01568   0.00000
  62        6D 0       -0.00017   0.00002   0.00077   0.00000   0.00017
  63        6D+1       -0.00000  -0.00000  -0.00000   0.02221  -0.00000
  64        6D-1       -0.00000  -0.00000  -0.00000   0.00338   0.00000
  65        6D+2       -0.00955  -0.01455   0.01039  -0.00000  -0.00171
  66        6D-2       -0.00534  -0.01986  -0.02183  -0.00000  -0.01256
  67 4   C  1S         -0.04215  -0.00237   0.00808  -0.00000   0.02107
  68        2S         -0.06601  -0.00396   0.01285  -0.00000   0.03367
  69        2PX         0.11287   0.01083  -0.14682  -0.00000   0.04326
  70        2PY         0.00534  -0.09559   0.00983   0.00000   0.11078
  71        2PZ         0.00000   0.00000  -0.00000   0.10628  -0.00000
  72        3S          0.17828   0.00830  -0.02648   0.00000  -0.09909
  73        3PX         0.15368   0.02110  -0.20283   0.00000   0.06048
  74        3PY         0.00775  -0.13688   0.01954   0.00000   0.15036
  75        3PZ        -0.00000   0.00000   0.00000   0.16466  -0.00000
  76        4S          0.18030  -0.00693  -0.07237  -0.00000  -0.12764
  77        4PX         0.05326   0.00386  -0.10730   0.00000   0.05622
  78        4PY         0.00661  -0.05057   0.00214   0.00000   0.09387
  79        4PZ        -0.00000   0.00000   0.00000   0.10016   0.00000
  80        5S         -0.04466   0.03661   0.05181  -0.00000   0.03791
  81        5PX         0.01016   0.00588  -0.03300   0.00000  -0.00521
  82        5PY         0.02005  -0.02947   0.00233   0.00000   0.00444
  83        5PZ         0.00000   0.00000   0.00000   0.01568  -0.00000
  84        6D 0       -0.00017   0.00002  -0.00077   0.00000  -0.00017
  85        6D+1       -0.00000  -0.00000   0.00000  -0.02222  -0.00000
  86        6D-1       -0.00000   0.00000   0.00000   0.00331  -0.00000
  87        6D+2       -0.00958  -0.01466  -0.01026  -0.00000   0.00178
  88        6D-2        0.00529   0.01978  -0.02189   0.00000  -0.01255
  89 5   N  1S          0.02038   0.01501   0.00000  -0.00000  -0.00000
  90        2S          0.03265   0.02435   0.00000  -0.00000  -0.00000
  91        2PX        -0.00009  -0.00020   0.15227  -0.00000   0.04526
  92        2PY         0.06812   0.13842   0.00021  -0.00000   0.00006
  93        2PZ         0.00000   0.00000   0.00000   0.18323  -0.00000
  94        3S         -0.09455  -0.07897  -0.00000  -0.00000   0.00000
  95        3PX        -0.00014  -0.00028   0.22328   0.00000   0.06320
  96        3PY         0.09877   0.19813   0.00031  -0.00000   0.00009
  97        3PZ        -0.00000   0.00000   0.00000   0.27763  -0.00000
  98        4S         -0.10961  -0.07496  -0.00000   0.00000   0.00000
  99        4PX        -0.00012  -0.00017   0.15223  -0.00000   0.07801
 100        4PY         0.08656   0.11899   0.00021  -0.00000   0.00011
 101        4PZ         0.00000   0.00000   0.00000   0.23636  -0.00000
 102        5S         -0.01171   0.02079   0.00000   0.00000   0.00000
 103        5PX         0.00001  -0.00009  -0.00133   0.00000  -0.00269
 104        5PY        -0.00564   0.05996  -0.00000   0.00000  -0.00000
 105        5PZ        -0.00000  -0.00000  -0.00000   0.00723   0.00000
 106        6D 0        0.00147  -0.00205  -0.00000  -0.00000   0.00000
 107        6D+1       -0.00000  -0.00000  -0.00000   0.00002  -0.00000
 108        6D-1       -0.00000  -0.00000  -0.00000  -0.01220   0.00000
 109        6D+2        0.00763  -0.01780   0.00004   0.00000  -0.00002
 110        6D-2        0.00002  -0.00005  -0.01573   0.00000   0.00793
 111 6   H  1S          0.11502  -0.01767   0.12148  -0.00000  -0.04387
 112        2S          0.15174  -0.02658   0.17364   0.00000  -0.06673
 113        3S          0.02725  -0.00644   0.05909  -0.00000  -0.01742
 114        4PX         0.01560  -0.00568   0.00997   0.00000  -0.00828
 115        4PY        -0.00945  -0.00424  -0.00803   0.00000  -0.00243
 116        4PZ         0.00000   0.00000   0.00000   0.00850  -0.00000
 117 7   H  1S          0.02227  -0.09423  -0.03297   0.00000  -0.11458
 118        2S          0.02697  -0.13301  -0.04348  -0.00000  -0.16632
 119        3S         -0.00183  -0.03754  -0.02131   0.00000  -0.07338
 120        4PX         0.00036  -0.00915  -0.00030  -0.00000  -0.01008
 121        4PY         0.00525  -0.00831  -0.00154  -0.00000  -0.00499
 122        4PZ        -0.00000   0.00000   0.00000   0.00532   0.00000
 123 8   H  1S          0.02227  -0.09423   0.03297  -0.00000   0.11458
 124        2S          0.02697  -0.13301   0.04348   0.00000   0.16632
 125        3S         -0.00183  -0.03754   0.02131  -0.00000   0.07338
 126        4PX        -0.00037   0.00917  -0.00031  -0.00000  -0.01010
 127        4PY         0.00525  -0.00828   0.00154   0.00000   0.00496
 128        4PZ         0.00000  -0.00000   0.00000   0.00532   0.00000
 129 9   H  1S          0.11502  -0.01767  -0.12148   0.00000   0.04387
 130        2S          0.15174  -0.02658  -0.17364  -0.00000   0.06672
 131        3S          0.02725  -0.00644  -0.05909  -0.00000   0.01742
 132        4PX        -0.01558   0.00569   0.00995   0.00000  -0.00829
 133        4PY        -0.00950  -0.00422   0.00806   0.00000   0.00241
 134        4PZ         0.00000   0.00000  -0.00000   0.00850   0.00000
 135 10  H  1S          0.02742   0.10668   0.00000  -0.00000  -0.00000
 136        2S          0.02082   0.16505   0.00000   0.00000  -0.00000
 137        3S          0.00927   0.01458  -0.00000  -0.00000  -0.00000
 138        4PX         0.00000   0.00002   0.01021  -0.00000   0.00388
 139        4PY        -0.00253  -0.01093   0.00001   0.00000   0.00001
 140        4PZ         0.00000   0.00000  -0.00000   0.01391  -0.00000
                          16        17        18        19        20
                           O         O         O         V         V
     Eigenvalues --    -0.38289  -0.25523  -0.22439   0.00569   0.01630
   1 1   C  1S         -0.00552  -0.00000   0.00000  -0.01230   0.00000
   2        2S         -0.00875  -0.00000   0.00000  -0.02030   0.00000
   3        2PX         0.17470  -0.00000  -0.00000  -0.00927   0.00000
   4        2PY        -0.03003  -0.00000   0.00000  -0.01879   0.00000
   5        2PZ         0.00000  -0.15001   0.09823  -0.00000  -0.07331
   6        3S          0.02792   0.00000   0.00000   0.06656  -0.00000
   7        3PX         0.24691   0.00000  -0.00000  -0.01935   0.00000
   8        3PY        -0.04666   0.00000  -0.00000  -0.03324   0.00000
   9        3PZ         0.00000  -0.22976   0.15020  -0.00000  -0.10953
  10        4S          0.02013   0.00000  -0.00000   0.14258  -0.00000
  11        4PX         0.14614   0.00000  -0.00000  -0.00651  -0.00000
  12        4PY        -0.01870   0.00000  -0.00000   0.00070  -0.00000
  13        4PZ         0.00000  -0.21481   0.14611  -0.00000  -0.21091
  14        5S         -0.04190   0.00000  -0.00000  -1.92302  -0.00000
  15        5PX         0.00670   0.00000  -0.00000   0.74681  -0.00000
  16        5PY        -0.00703   0.00000  -0.00000   0.03296  -0.00000
  17        5PZ        -0.00000  -0.03849   0.03932   0.00000  -0.36494
  18        6D 0        0.00020  -0.00000   0.00000  -0.00549  -0.00000
  19        6D+1        0.00000  -0.01530  -0.01643  -0.00000  -0.01939
  20        6D-1        0.00000  -0.00291   0.01705   0.00000   0.02093
  21        6D+2        0.02054  -0.00000  -0.00000   0.00254  -0.00000
  22        6D-2       -0.00285  -0.00000   0.00000  -0.00865   0.00000
  23 2   C  1S         -0.00552  -0.00000   0.00000  -0.01230  -0.00000
  24        2S         -0.00875  -0.00000   0.00000  -0.02030  -0.00000
  25        2PX        -0.17461  -0.00000  -0.00000   0.00933  -0.00000
  26        2PY        -0.03052  -0.00000  -0.00000  -0.01876  -0.00000
  27        2PZ         0.00000  -0.15001  -0.09824  -0.00000  -0.07330
  28        3S          0.02792   0.00000  -0.00000   0.06656   0.00000
  29        3PX        -0.24678   0.00000   0.00000   0.01945   0.00000
  30        3PY        -0.04736   0.00000   0.00000  -0.03318   0.00000
  31        3PZ         0.00000  -0.22976  -0.15020  -0.00000  -0.10952
  32        4S          0.02013  -0.00000   0.00000   0.14259   0.00000
  33        4PX        -0.14608   0.00000  -0.00000   0.00650  -0.00000
  34        4PY        -0.01912  -0.00000   0.00000   0.00073   0.00000
  35        4PZ         0.00000  -0.21481  -0.14611  -0.00000  -0.21090
  36        5S         -0.04192  -0.00000   0.00000  -1.92281   0.00000
  37        5PX        -0.00668   0.00000  -0.00000  -0.74693  -0.00000
  38        5PY        -0.00705   0.00000   0.00000   0.03089   0.00000
  39        5PZ         0.00000  -0.03849  -0.03932  -0.00000  -0.36492
  40        6D 0        0.00020   0.00000  -0.00000  -0.00549   0.00000
  41        6D+1       -0.00000   0.01531  -0.01638   0.00000   0.01933
  42        6D-1       -0.00000  -0.00286  -0.01709   0.00000   0.02098
  43        6D+2        0.02053  -0.00000   0.00000   0.00249   0.00000
  44        6D-2        0.00297   0.00000   0.00000   0.00867   0.00000
  45 3   C  1S         -0.00014  -0.00000  -0.00000  -0.01168  -0.00000
  46        2S         -0.00033  -0.00000   0.00000  -0.01973  -0.00000
  47        2PX        -0.04624  -0.00000   0.00000  -0.03704   0.00000
  48        2PY         0.08628   0.00000   0.00000   0.00449  -0.00000
  49        2PZ         0.00000  -0.01096   0.16682   0.00000   0.13844
  50        3S         -0.00214   0.00000  -0.00000   0.07763  -0.00000
  51        3PX        -0.05880   0.00000   0.00000  -0.06069  -0.00000
  52        3PY         0.11985   0.00000  -0.00000   0.01787  -0.00000
  53        3PZ         0.00000  -0.01643   0.25713   0.00000   0.20229
  54        4S          0.04809  -0.00000   0.00000   0.00429   0.00000
  55        4PX        -0.02918  -0.00000   0.00000  -0.13836   0.00000
  56        4PY         0.08546   0.00000  -0.00000  -0.01833  -0.00000
  57        4PZ        -0.00000  -0.02398   0.26205   0.00000   0.42654
  58        5S          0.07034  -0.00000   0.00000   0.16535   0.00000
  59        5PX         0.01247  -0.00000   0.00000  -0.19758   0.00000
  60        5PY        -0.00106   0.00000  -0.00000  -1.28746  -0.00000
  61        5PZ         0.00000  -0.00223   0.05781   0.00000   0.74390
  62        6D 0       -0.00169   0.00000   0.00000  -0.00515   0.00000
  63        6D+1        0.00000   0.00722   0.00482  -0.00000  -0.02031
  64        6D-1       -0.00000   0.02806  -0.00677  -0.00000  -0.00173
  65        6D+2        0.01228   0.00000  -0.00000  -0.00679  -0.00000
  66        6D-2       -0.01627  -0.00000  -0.00000   0.00636   0.00000
  67 4   C  1S         -0.00014  -0.00000   0.00000  -0.01168   0.00000
  68        2S         -0.00033  -0.00000   0.00000  -0.01973   0.00000
  69        2PX         0.04600  -0.00000  -0.00000   0.03702  -0.00000
  70        2PY         0.08641   0.00000  -0.00000   0.00459  -0.00000
  71        2PZ         0.00000  -0.01096  -0.16682   0.00000   0.13844
  72        3S         -0.00214  -0.00000   0.00000   0.07763  -0.00000
  73        3PX         0.05846   0.00000   0.00000   0.06064   0.00000
  74        3PY         0.12002  -0.00000   0.00000   0.01804  -0.00000
  75        3PZ         0.00000  -0.01643  -0.25713   0.00000   0.20229
  76        4S          0.04809   0.00000  -0.00000   0.00426  -0.00000
  77        4PX         0.02894   0.00000   0.00000   0.13842   0.00000
  78        4PY         0.08554  -0.00000   0.00000  -0.01794   0.00000
  79        4PZ        -0.00000  -0.02398  -0.26205   0.00000   0.42653
  80        5S          0.07035  -0.00000  -0.00000   0.16515  -0.00000
  81        5PX        -0.01247  -0.00000   0.00000   0.20126   0.00000
  82        5PY        -0.00109   0.00000   0.00000  -1.28688   0.00000
  83        5PZ         0.00000  -0.00223  -0.05781   0.00000   0.74388
  84        6D 0       -0.00169  -0.00000  -0.00000  -0.00515  -0.00000
  85        6D+1       -0.00000  -0.00730   0.00480   0.00000   0.02032
  86        6D-1       -0.00000   0.02804   0.00678   0.00000  -0.00167
  87        6D+2        0.01218  -0.00000   0.00000  -0.00675   0.00000
  88        6D-2        0.01634   0.00000  -0.00000  -0.00640   0.00000
  89 5   N  1S          0.01066   0.00000  -0.00000  -0.02030   0.00000
  90        2S          0.01710   0.00000   0.00000  -0.03354   0.00000
  91        2PX         0.00001   0.00000  -0.00000  -0.00006  -0.00000
  92        2PY        -0.00398  -0.00000   0.00000   0.04499   0.00000
  93        2PZ        -0.00000   0.17395   0.00000  -0.00000  -0.15702
  94        3S         -0.05052  -0.00000  -0.00000   0.11429  -0.00000
  95        3PX         0.00000  -0.00000   0.00000  -0.00009   0.00000
  96        3PY        -0.00238  -0.00000  -0.00000   0.06587   0.00000
  97        3PZ         0.00000   0.26145   0.00000  -0.00000  -0.23321
  98        4S         -0.08601   0.00000   0.00000   0.26268  -0.00000
  99        4PX        -0.00002  -0.00000  -0.00000  -0.00009  -0.00000
 100        4PY         0.01538  -0.00000   0.00000   0.06232  -0.00000
 101        4PZ         0.00000   0.27492   0.00000  -0.00000  -0.34741
 102        5S         -0.12048   0.00000  -0.00000   2.38117  -0.00000
 103        5PX        -0.00001  -0.00000   0.00000  -0.00080   0.00000
 104        5PY         0.00648  -0.00000   0.00000   0.58524   0.00000
 105        5PZ        -0.00000   0.08797   0.00000   0.00000  -0.62221
 106        6D 0       -0.00096  -0.00000  -0.00000  -0.00039   0.00000
 107        6D+1       -0.00000  -0.00000  -0.02430   0.00000   0.00002
 108        6D-1       -0.00000   0.00281  -0.00003  -0.00000  -0.01353
 109        6D+2        0.01315   0.00000  -0.00000   0.01058   0.00000
 110        6D-2        0.00004   0.00000   0.00000   0.00003   0.00000
 111 6   H  1S          0.07288   0.00000  -0.00000   0.01038  -0.00000
 112        2S          0.10516  -0.00000   0.00000  -0.05409   0.00000
 113        3S          0.05099  -0.00000  -0.00000   0.17357  -0.00000
 114        4PX         0.00578   0.00000   0.00000   0.00689   0.00000
 115        4PY         0.00110   0.00000   0.00000  -0.00692  -0.00000
 116        4PZ         0.00000  -0.00071   0.01521  -0.00000   0.02176
 117 7   H  1S         -0.06545  -0.00000   0.00000   0.00112   0.00000
 118        2S         -0.09658   0.00000  -0.00000  -0.05525  -0.00000
 119        3S         -0.03842  -0.00000   0.00000   0.21567   0.00000
 120        4PX         0.00441   0.00000  -0.00000   0.00450  -0.00000
 121        4PY        -0.01126   0.00000  -0.00000   0.00599  -0.00000
 122        4PZ         0.00000  -0.01339   0.00911  -0.00000  -0.00986
 123 8   H  1S         -0.06545   0.00000  -0.00000   0.00112  -0.00000
 124        2S         -0.09658  -0.00000   0.00000  -0.05524   0.00000
 125        3S         -0.03842  -0.00000   0.00000   0.21567  -0.00000
 126        4PX        -0.00438  -0.00000  -0.00000  -0.00452  -0.00000
 127        4PY        -0.01127   0.00000   0.00000   0.00597   0.00000
 128        4PZ        -0.00000  -0.01339  -0.00911  -0.00000  -0.00986
 129 9   H  1S          0.07288   0.00000   0.00000   0.01038   0.00000
 130        2S          0.10516  -0.00000  -0.00000  -0.05409  -0.00000
 131        3S          0.05100   0.00000   0.00000   0.17356  -0.00000
 132        4PX        -0.00578   0.00000   0.00000  -0.00687   0.00000
 133        4PY         0.00108   0.00000  -0.00000  -0.00694   0.00000
 134        4PZ         0.00000  -0.00071  -0.01521  -0.00000   0.02176
 135 10  H  1S         -0.01987  -0.00000   0.00000  -0.01592   0.00000
 136        2S         -0.03792   0.00000  -0.00000  -0.02912  -0.00000
 137        3S          0.00313  -0.00000  -0.00000  -0.76389   0.00000
 138        4PX        -0.00000   0.00000   0.00000   0.00003   0.00000
 139        4PY         0.00219  -0.00000   0.00000  -0.01998  -0.00000
 140        4PZ         0.00000   0.01770   0.00000  -0.00000  -0.01996
                          21        22        23        24        25
                           V         V         V         V         V
     Eigenvalues --     0.03125   0.03138   0.05183   0.05261   0.05417
   1 1   C  1S         -0.00811   0.01337   0.02144  -0.00000   0.00629
   2        2S         -0.01362   0.02209   0.03487  -0.00000   0.01054
   3        2PX        -0.00900   0.03437   0.01085  -0.00000  -0.01147
   4        2PY        -0.02853   0.03065   0.01642  -0.00000  -0.00149
   5        2PZ         0.00000   0.00000  -0.00000  -0.15145   0.00000
   6        3S          0.05193  -0.07697  -0.10279   0.00000  -0.03661
   7        3PX        -0.02482   0.05724   0.02314  -0.00000  -0.01119
   8        3PY        -0.04783   0.06280   0.03361  -0.00000  -0.01068
   9        3PZ         0.00000   0.00000  -0.00000  -0.22356  -0.00000
  10        4S         -0.06227  -0.06631  -0.62156   0.00000  -0.09740
  11        4PX         0.02713   0.02651  -0.19330   0.00000  -0.04970
  12        4PY        -0.06724   0.01685  -0.24114   0.00000  -0.09400
  13        4PZ         0.00000   0.00000  -0.00000  -0.48681   0.00000
  14        5S          0.94205  -3.78461 -23.70453   0.00000  -2.94821
  15        5PX         0.56446  -0.32009  -2.92770   0.00000  -0.14587
  16        5PY         0.82814  -1.59049  -4.95048   0.00000  -1.02234
  17        5PZ         0.00000   0.00000  -0.00000  -1.54130  -0.00000
  18        6D 0       -0.00065   0.00252  -0.00168  -0.00000   0.00731
  19        6D+1       -0.00000  -0.00000   0.00000   0.01849   0.00000
  20        6D-1       -0.00000  -0.00000   0.00000   0.01110   0.00000
  21        6D+2       -0.00299  -0.00107   0.00366  -0.00000  -0.00697
  22        6D-2        0.00061  -0.00366  -0.00140   0.00000  -0.00605
  23 2   C  1S          0.00813   0.01335  -0.02144   0.00000   0.00629
  24        2S          0.01366   0.02206  -0.03487   0.00000   0.01054
  25        2PX        -0.00915  -0.03444   0.01090  -0.00000   0.01148
  26        2PY         0.02856   0.03050  -0.01639   0.00000  -0.00146
  27        2PZ        -0.00000   0.00000   0.00000   0.15145   0.00000
  28        3S         -0.05207  -0.07687   0.10279  -0.00000  -0.03661
  29        3PX        -0.02506  -0.05737   0.02323  -0.00000   0.01122
  30        3PY         0.04788   0.06255  -0.03354   0.00000  -0.01065
  31        3PZ        -0.00000   0.00000   0.00000   0.22356   0.00000
  32        4S          0.06215  -0.06641   0.62155  -0.00000  -0.09738
  33        4PX         0.02689  -0.02661  -0.19398   0.00000   0.04996
  34        4PY         0.06735   0.01666   0.24059  -0.00000  -0.09386
  35        4PZ        -0.00000   0.00000   0.00000   0.48681   0.00000
  36        5S         -0.94897  -3.78247  23.70472  -0.00000  -2.94736
  37        5PX         0.56740   0.32348  -2.94164   0.00000   0.14864
  38        5PY        -0.82946  -1.58798   4.94228  -0.00000  -1.02176
  39        5PZ        -0.00000  -0.00000   0.00000   1.54133  -0.00000
  40        6D 0        0.00066   0.00252   0.00168  -0.00000   0.00731
  41        6D+1       -0.00000  -0.00000   0.00000   0.01852   0.00000
  42        6D-1        0.00000   0.00000  -0.00000  -0.01105   0.00000
  43        6D+2        0.00298  -0.00110  -0.00365   0.00000  -0.00701
  44        6D-2        0.00063   0.00366  -0.00143   0.00000   0.00601
  45 3   C  1S         -0.01324  -0.00163  -0.01256   0.00000  -0.02038
  46        2S         -0.02224  -0.00302  -0.02064   0.00000  -0.03273
  47        2PX        -0.04286  -0.01606  -0.01705   0.00000  -0.01801
  48        2PY         0.02026  -0.00723   0.00757  -0.00000   0.01816
  49        2PZ        -0.00000  -0.00000   0.00000   0.09543   0.00000
  50        3S          0.08258   0.01955   0.06480  -0.00000   0.07711
  51        3PX        -0.07688  -0.02943  -0.02822   0.00000  -0.03959
  52        3PY         0.04038  -0.00924   0.02098  -0.00000   0.03349
  53        3PZ        -0.00000   0.00000   0.00000   0.14279   0.00000
  54        4S          0.04284  -0.08605   0.34991  -0.00000   0.64525
  55        4PX         0.00561   0.01070   0.15026  -0.00000   0.18217
  56        4PY        -0.06918  -0.00046  -0.18121   0.00000   0.06124
  57        4PZ         0.00000  -0.00000   0.00000   0.31327   0.00000
  58        5S          0.59813   4.03449  14.21983  -0.00000   3.94830
  59        5PX         1.19199   0.64647   2.57538  -0.00000   1.99458
  60        5PY        -0.61403  -1.40259  -3.38891   0.00000  -0.50254
  61        5PZ        -0.00000  -0.00000   0.00000   0.91971  -0.00000
  62        6D 0       -0.00149   0.00246   0.00111  -0.00000   0.00623
  63        6D+1       -0.00000   0.00000  -0.00000  -0.00225   0.00000
  64        6D-1       -0.00000  -0.00000   0.00000   0.03057   0.00000
  65        6D+2       -0.00101   0.00446   0.00404  -0.00000  -0.00567
  66        6D-2       -0.00233   0.00337   0.00735  -0.00000  -0.00697
  67 4   C  1S          0.01324  -0.00165   0.01256  -0.00000  -0.02038
  68        2S          0.02223  -0.00306   0.02064  -0.00000  -0.03273
  69        2PX        -0.04278   0.01616  -0.01703   0.00000   0.01796
  70        2PY        -0.02040  -0.00715  -0.00762   0.00000   0.01821
  71        2PZ         0.00000   0.00000  -0.00000  -0.09543   0.00000
  72        3S         -0.08254   0.01970  -0.06481   0.00000   0.07711
  73        3PX        -0.07672   0.02959  -0.02816   0.00000   0.03949
  74        3PY        -0.04061  -0.00909  -0.02106   0.00000   0.03360
  75        3PZ         0.00000  -0.00000  -0.00000  -0.14280   0.00000
  76        4S         -0.04300  -0.08599  -0.34993   0.00000   0.64524
  77        4PX         0.00540  -0.01071   0.14975  -0.00000  -0.18234
  78        4PY         0.06919  -0.00061   0.18163  -0.00000   0.06073
  79        4PZ         0.00000  -0.00000  -0.00000  -0.31330   0.00000
  80        5S         -0.59074   4.03532 -14.22002   0.00000   3.94781
  81        5PX         1.18908  -0.64466   2.56589  -0.00000  -1.99307
  82        5PY         0.61482  -1.40548   3.39620  -0.00000  -0.50805
  83        5PZ         0.00000   0.00000  -0.00000  -0.91971  -0.00000
  84        6D 0        0.00150   0.00246  -0.00111   0.00000   0.00623
  85        6D+1        0.00000  -0.00000  -0.00000  -0.00217  -0.00000
  86        6D-1        0.00000   0.00000  -0.00000  -0.03057  -0.00000
  87        6D+2        0.00103   0.00448  -0.00409   0.00000  -0.00571
  88        6D-2       -0.00233  -0.00334   0.00732  -0.00000   0.00694
  89 5   N  1S         -0.00001  -0.01329  -0.00000  -0.00000   0.02481
  90        2S         -0.00002  -0.02198  -0.00000  -0.00000   0.04073
  91        2PX         0.01322  -0.00008  -0.00510   0.00000   0.00001
  92        2PY         0.00006   0.04837  -0.00001   0.00000  -0.00906
  93        2PZ        -0.00000   0.00000   0.00000   0.00000  -0.00000
  94        3S          0.00007   0.07503   0.00000   0.00000  -0.12959
  95        3PX         0.01724  -0.00012  -0.01159   0.00000   0.00002
  96        3PY         0.00009   0.07282  -0.00002   0.00000  -0.01661
  97        3PZ        -0.00000   0.00000   0.00000   0.00000  -0.00000
  98        4S          0.00010   0.10769   0.00001   0.00000  -0.41328
  99        4PX         0.00940  -0.00015   0.04523  -0.00000  -0.00018
 100        4PY         0.00010   0.10007   0.00006  -0.00000   0.13131
 101        4PZ        -0.00000   0.00000   0.00000   0.00001  -0.00000
 102        5S          0.00034   0.38194   0.00001   0.00000  -3.52951
 103        5PX        -0.27803   0.00061  -0.10740   0.00000  -0.00085
 104        5PY        -0.00062  -0.24058  -0.00016  -0.00000   0.59950
 105        5PZ        -0.00000   0.00000   0.00000   0.00001   0.00000
 106        6D 0        0.00000   0.00129  -0.00000  -0.00000   0.00154
 107        6D+1        0.00000   0.00000  -0.00000  -0.02257  -0.00000
 108        6D-1       -0.00000   0.00000  -0.00000  -0.00003  -0.00000
 109        6D+2       -0.00000   0.00056  -0.00001  -0.00000   0.00517
 110        6D-2        0.00024   0.00000   0.00371  -0.00000   0.00001
 111 6   H  1S          0.01880   0.00386  -0.00235   0.00000  -0.00755
 112        2S         -0.01079   0.00486   0.00325   0.00000  -0.09568
 113        3S          0.35510   0.07896   0.12138  -0.00000   0.26251
 114        4PX         0.01529   0.00083   0.00787  -0.00000   0.01202
 115        4PY        -0.00282  -0.00960  -0.01186   0.00000   0.00277
 116        4PZ         0.00000  -0.00000   0.00000   0.01597   0.00000
 117 7   H  1S          0.01278  -0.02344  -0.00305   0.00000  -0.00343
 118        2S         -0.01612   0.02372  -0.00034  -0.00000  -0.01787
 119        3S          0.23300  -0.35986  -0.22069   0.00000  -0.13365
 120        4PX         0.00859  -0.00404  -0.01175   0.00000   0.00605
 121        4PY         0.00402  -0.01181  -0.00947   0.00000  -0.00579
 122        4PZ         0.00000   0.00000  -0.00000  -0.02478  -0.00000
 123 8   H  1S         -0.01283  -0.02341   0.00305  -0.00000  -0.00343
 124        2S          0.01616   0.02369   0.00034   0.00000  -0.01787
[...]
     27  0.000000D+00 -0.218803D-01  0.000000D+00  0.000000D+00 -0.284620D-02
     28  0.260781D-01  0.000000D+00 -0.743030D-01  0.539692D-03  0.000000D+00
     29 -0.851361D-02  0.000000D+00  0.533193D-03 -0.461925D+00  0.000000D+00
     30  0.000000D+00 -0.618467D-02  0.000000D+00  0.000000D+00 -0.391764D-02
               16            17            18            19            20 
     16  0.321539D+00
     17 -0.117262D+00  0.103471D+00
     18  0.000000D+00  0.000000D+00  0.188371D-01
     19 -0.136410D-03 -0.896116D-03  0.000000D+00  0.161727D+00
     20  0.505679D-03  0.440116D-03  0.000000D+00  0.153020D+00  0.254130D+00
     21  0.000000D+00  0.000000D+00 -0.337663D-02  0.000000D+00  0.000000D+00
     22  0.120831D-03  0.142495D-02  0.000000D+00  0.922784D-03 -0.799405D-03
     23  0.148829D-04  0.441008D-03  0.000000D+00  0.802398D-03 -0.113197D-03
     24  0.000000D+00  0.000000D+00  0.123078D-02  0.000000D+00  0.000000D+00
     25 -0.555737D-03 -0.737899D-03  0.000000D+00  0.124857D-03 -0.158112D-04
     26  0.733817D-03  0.879966D-03  0.000000D+00 -0.142580D-02  0.436894D-03
     27  0.000000D+00  0.000000D+00  0.213840D-02  0.000000D+00  0.000000D+00
     28  0.299756D-03  0.965852D-03  0.000000D+00  0.816608D-03 -0.115384D-02
     29 -0.398526D-04  0.526616D-03  0.000000D+00  0.323223D-03 -0.672830D-04
     30  0.000000D+00  0.000000D+00 -0.207736D-02  0.000000D+00  0.000000D+00
               21            22            23            24            25 
     21  0.212965D-01
     22  0.000000D+00  0.162590D+00
     23  0.000000D+00 -0.153278D+00  0.253268D+00
     24 -0.233578D-02  0.000000D+00  0.000000D+00  0.212980D-01
     25  0.000000D+00 -0.137441D-03 -0.507302D-03  0.000000D+00  0.320877D+00
     26  0.000000D+00  0.894503D-03  0.441153D-03  0.000000D+00  0.117878D+00
     27  0.123072D-02  0.000000D+00  0.000000D+00 -0.337656D-02  0.000000D+00
     28  0.000000D+00  0.814193D-03  0.115640D-02  0.000000D+00  0.305478D-03
     29  0.000000D+00 -0.320789D-03 -0.649758D-04  0.000000D+00  0.395507D-04
     30  0.220113D-02  0.000000D+00  0.000000D+00  0.220107D-02  0.000000D+00
               26            27            28            29            30 
     26  0.104146D+00
     27  0.000000D+00  0.188354D-01
     28 -0.965494D-03  0.000000D+00  0.614328D-01
     29  0.523382D-03  0.000000D+00 -0.579152D-03  0.475816D+00
     30  0.000000D+00 -0.207721D-02  0.000000D+00  0.000000D+00  0.114433D-01
 Leave Link  716 at Fri Jun  2 10:56:02 2023, MaxMem=  7381975040 cpu:               0.3 elap:               0.5
 (Enter /software/commercial/gaussian/g16/AVX/g16/l103.exe)

 GradGradGradGradGradGradGradGradGradGradGradGradGradGradGradGradGradGrad
 Berny optimization.
 Search for a local minimum.
 Step number   1 out of a maximum of    2
 All quantities printed in internal units (Hartrees-Bohrs-Radians)
 Second derivative matrix not updated -- analytic derivatives used.
 ITU=  0
     Eigenvalues ---    0.01723   0.02334   0.02699   0.04360   0.04983
     Eigenvalues ---    0.05311   0.05488   0.05732   0.06183   0.16465
     Eigenvalues ---    0.18558   0.19612   0.20851   0.22007   0.22583
     Eigenvalues ---    0.40764   0.42616   0.72972   0.79522   1.05449
     Eigenvalues ---    1.08311   1.24875   1.28204   1.30587
 Angle between quadratic step and forces=  51.29 degrees.
 Linear search not attempted -- first point.
 B after Tr=     0.000000   -0.000002    0.000000
         Rot=    1.000000   -0.000000    0.000000    0.000000 Ang=   0.00 deg.
 Variable       Old X    -DE/DX   Delta X   Delta X   Delta X     New X
                                 (Linear)    (Quad)   (Total)
    X1       -5.41095  -0.00000   0.00000  -0.00001  -0.00001  -5.41096
    Y1       -3.22587  -0.00002   0.00000  -0.00003  -0.00003  -3.22590
    Z1        0.00000   0.00000   0.00000   0.00000   0.00000   0.00000
    X2       -2.71427   0.00000   0.00000   0.00001   0.00001  -2.71427
    Y2       -3.22207  -0.00002   0.00000  -0.00003  -0.00003  -3.22210
    Z2       -0.00000   0.00000   0.00000   0.00000   0.00000   0.00000
    X3       -6.19209  -0.00002   0.00000  -0.00002  -0.00002  -6.19211
    Y3       -0.73817   0.00002   0.00000   0.00002   0.00002  -0.73815
    Z3       -0.00000  -0.00000   0.00000   0.00000   0.00000   0.00000
    X4       -1.94015   0.00002   0.00000   0.00002   0.00002  -1.94012
    Y4       -0.73219   0.00002   0.00000   0.00002   0.00002  -0.73217
    Z4       -0.00000  -0.00000   0.00000   0.00000   0.00000   0.00000
    X5       -4.06821   0.00000   0.00000   0.00000   0.00000  -4.06821
    Y5        0.75373  -0.00000   0.00000   0.00000  -0.00000   0.75373
    Z5       -0.00000   0.00000   0.00000   0.00000   0.00000   0.00000
    X6       -8.05558   0.00000   0.00000   0.00000   0.00000  -8.05558
    Y6        0.08308  -0.00000   0.00000   0.00004   0.00004   0.08311
    Z6        0.00000  -0.00000   0.00000  -0.00000   0.00000   0.00000
    X7       -6.63272  -0.00000   0.00000  -0.00000  -0.00000  -6.63273
    Y7       -4.85853  -0.00000   0.00000  -0.00003  -0.00003  -4.85856
    Z7       -0.00000  -0.00000   0.00000  -0.00000  -0.00000  -0.00000
    X8       -1.48790  -0.00000   0.00000   0.00000   0.00000  -1.48790
    Y8       -4.85128  -0.00000   0.00000  -0.00003  -0.00003  -4.85131
    Z8        0.00000  -0.00000   0.00000  -0.00000  -0.00000  -0.00000
    X9       -0.07898  -0.00000   0.00000   0.00000   0.00000  -0.07898
    Y9        0.09431  -0.00000   0.00000   0.00003   0.00003   0.09434
    Z9        0.00000  -0.00000   0.00000  -0.00000  -0.00000   0.00000
   X10       -4.07087  -0.00000   0.00000  -0.00001  -0.00000  -4.07088
   Y10        2.65797   0.00001   0.00000   0.00002   0.00002   2.65799
   Z10        0.00000  -0.00000   0.00000  -0.00000  -0.00000  -0.00000
         Item               Value     Threshold  Converged?
 Maximum Force            0.000020     0.000450     YES
 RMS     Force            0.000009     0.000300     YES
 Maximum Displacement     0.000035     0.001800     YES
 RMS     Displacement     0.000016     0.001200     YES
 Predicted change in Energy=-1.333865D-09
 Optimization completed.
    -- Stationary point found.
 GradGradGradGradGradGradGradGradGradGradGradGradGradGradGradGradGradGrad

 Leave Link  103 at Fri Jun  2 10:56:05 2023, MaxMem=  7381975040 cpu:               1.3 elap:               1.9
 (Enter /software/commercial/gaussian/g16/AVX/g16/l9999.exe)

 ----------------------------------------------------------------------

 Electric dipole moment (input orientation):
 (Debye = 10**-18 statcoulomb cm , SI units = C m)
                  (au)            (Debye)         (10**-30 SI)
   Tot        0.971957D+00      0.247047D+01      0.824059D+01
   x         -0.135371D-02     -0.344080D-02     -0.114773D-01
   y          0.971956D+00      0.247046D+01      0.824058D+01
   z          0.000000D+00      0.000000D+00      0.000000D+00

 Dipole polarizability, Alpha (input orientation).
 (esu units = cm**3 , SI units = C**2 m**2 J**-1)
 Alpha(0;0):
               (au)            (10**-24 esu)      (10**-40 SI)
   iso        0.677191D+02      0.100349D+02      0.111654D+02
   aniso      0.289446D+02      0.428915D+01      0.477233D+01
   xx         0.784509D+02      0.116252D+02      0.129348D+02
   yx         0.326152D-02      0.483307D-03      0.537752D-03
   yy         0.762415D+02      0.112978D+02      0.125705D+02
   zx         0.000000D+00      0.000000D+00      0.000000D+00
   zy         0.000000D+00      0.000000D+00      0.000000D+00
   zz         0.484649D+02      0.718175D+01      0.799078D+01

 First dipole hyperpolarizability, Beta (input orientation).
 ||, _|_  parallel and perpendicular components, (z) with respect to z axis,
 vector components x,y,z.  Values do not include the 1/n! factor of 1/2.
 (esu units = statvolt**-1 cm**4 , SI units = C**3 m**3 J**-2)
 Beta(0;0,0):
               (au)            (10**-30 esu)      (10**-50 SI)
   || (z)     0.000000D+00      0.000000D+00      0.000000D+00
   _|_(z)     0.000000D+00      0.000000D+00      0.000000D+00
   x          0.551878D+00      0.476780D-02      0.176952D-02
   y         -0.434079D+03     -0.375011D+01     -0.139182D+01
   z          0.000000D+00      0.000000D+00      0.000000D+00
   ||         0.868160D+02      0.750022D+00      0.278363D+00
   xxx       -0.297277D+00     -0.256825D-02     -0.953179D-03
   xxy        0.674311D+02      0.582552D+00      0.216208D+00
   yxy        0.331307D+00      0.286223D-02      0.106229D-02
   yyy       -0.100012D+03     -0.864029D+00     -0.320676D+00
   xxz        0.000000D+00      0.000000D+00      0.000000D+00
   yxz        0.000000D+00      0.000000D+00      0.000000D+00
   yyz        0.000000D+00      0.000000D+00      0.000000D+00
   zxz        0.149930D+00      0.129528D-02      0.480730D-03
   zyz       -0.112112D+03     -0.968559D+00     -0.359471D+00
   zzz        0.000000D+00      0.000000D+00      0.000000D+00

 ----------------------------------------------------------------------

 Dipole orientation:
     6         -5.41543294         -0.00754247         -3.21832921
     6         -2.71875565         -0.00378661         -3.21828576
     6         -6.19310560         -0.00862559         -0.72954779
     6         -1.94116231         -0.00270360         -0.72948321
     7         -4.06715172         -0.00566462          0.75939715
     1         -8.05544772         -0.01121942          0.09429823
     1         -6.63947750         -0.00924729         -4.84928946
     1         -1.49465305         -0.00208171         -4.84920293
     1         -0.07884503         -0.00010981          0.09441693
     1         -4.06716311         -0.00566464          2.66363722

 Electric dipole moment (dipole orientation):
 (Debye = 10**-18 statcoulomb cm , SI units = C m)
                  (au)            (Debye)         (10**-30 SI)
   Tot        0.971957D+00      0.247047D+01      0.824059D+01
   x          0.000000D+00      0.000000D+00      0.000000D+00
   y          0.000000D+00      0.000000D+00      0.000000D+00
   z          0.971957D+00      0.247047D+01      0.824059D+01

 Dipole polarizability, Alpha (dipole orientation).
 (esu units = cm**3 , SI units = C**2 m**2 J**-1)
 Alpha(0;0):
               (au)            (10**-24 esu)      (10**-40 SI)
   iso        0.677191D+02      0.100349D+02      0.111654D+02
   aniso      0.289446D+02      0.428915D+01      0.477233D+01
   xx         0.784509D+02      0.116252D+02      0.129348D+02
   yx         0.417637D-01      0.618875D-02      0.688591D-02
   yy         0.484649D+02      0.718176D+01      0.799079D+01
   zx         0.184207D-03      0.272966D-04      0.303716D-04
   zy         0.000000D+00      0.000000D+00      0.000000D+00
   zz         0.762415D+02      0.112978D+02      0.125705D+02

 First dipole hyperpolarizability, Beta (dipole orientation).
 ||, _|_  parallel and perpendicular components, (z) with respect to z axis,
 vector components x,y,z.  Values do not include the 1/n! factor of 1/2.
 (esu units = statvolt**-1 cm**4 , SI units = C**3 m**3 J**-2)
 Beta(0;0,0):
               (au)            (10**-30 esu)      (10**-50 SI)
   || (z)    -0.868160D+02     -0.750022D+00     -0.278363D+00
   _|_(z)    -0.289387D+02     -0.250007D+00     -0.927878D-01
   x         -0.526961D-01     -0.455253D-03     -0.168963D-03
   y         -0.735795D-04     -0.635670D-06     -0.235923D-06
   z         -0.434080D+03     -0.375011D+01     -0.139182D+01
   ||         0.868160D+02      0.750022D+00      0.278363D+00
   xxx       -0.155271D-01     -0.134142D-03     -0.497856D-04
   xxy        0.000000D+00      0.000000D+00      0.000000D+00
   yxy       -0.621628D-02     -0.537038D-04     -0.199316D-04
   yyy       -0.260088D-04     -0.224696D-06     -0.833936D-07
   xxz        0.674314D+02      0.582555D+00      0.216209D+00
   yxz        0.250063D+00      0.216035D-02      0.801793D-03
   yyz       -0.112112D+03     -0.968557D+00     -0.359470D+00
   zxz        0.417805D-02      0.360951D-04      0.133963D-04
   zyz        0.000000D+00      0.000000D+00      0.000000D+00
   zzz       -0.100013D+03     -0.864035D+00     -0.320678D+00

 ----------------------------------------------------------------------
 Unable to Open any file for archive entry.
 1\1\GINC-NODE1763\Freq\RB3LYP\6-311+G(d,p)\C4H5N1\SVICCHI\02-Jun-2023\
 0\\#p freq=raman scale=0.967 pop=(nbo,full,hirshfeld) guess=read geom=
 allcheck b3lyp/6-311+G(d,p) int=grid=ultrafine EmpiricalDispersion=GD3
 BJ SCRF=(Solvent=ethanol) scf=(xqc,intrep,maxconventionalcycle=350) no
 symm\\pyrrolide-H_dissociation-site_index-4.gjf\\0,1\C,-2.8633517169,-
 1.7070561304,0.\C,-1.4363315811,-1.7050456191,0.\C,-3.2767126532,-0.39
 0624161,0.\C,-1.026681212,-0.3874561983,0.\N,-2.1528036959,0.398857684
 9,0.\H,-4.2628288584,0.0439633667,0.\H,-3.509886148,-2.5710244356,0.\H
 ,-0.7873623581,-2.5671867877,0.\H,-0.041792582,0.04990513,0.\H,-2.1542
 131943,1.4065371505,0.\\Version=ES64L-G16RevC.01\HF=-210.2498137\RMSD=
 9.046e-10\RMSF=8.843e-06\ZeroPoint=0.0795325\Thermal=0.0835744\ETot=-2
 10.1662393\HTot=-210.1652951\GTot=-210.1966959\Dipole=-0.0013537,0.971
 9556,0.\DipoleDeriv=0.0508066,-0.0311594,0.,-0.0292227,-0.1587521,0.,0
 .,0.,-0.3261568,0.0506595,0.0317051,0.,0.0297736,-0.1585757,0.,0.,0.,-
 0.326187,-0.185996,0.2710987,0.,0.1633442,0.4507216,0.,0.,0.,-0.195935
 7,-0.1848249,-0.2729212,0.,-0.1650652,0.4495495,0.,0.,0.,-0.1958857,0.
 0107846,0.0015236,0.,0.00144,-1.0288592,0.,0.,0.,-0.3124152,-0.0085471
 ,0.0465071,0.,0.0651587,0.0664219,0.,0.,0.,0.2493229,0.0228416,-0.1095
 978,0.,-0.1007585,0.000016,0.,0.,0.,0.2338414,0.0222368,0.1096841,0.,0
 .1008198,0.0006198,0.,0.,0.,0.2338308,-0.0082589,-0.0467517,0.,-0.0653
 686,0.0660861,0.,0.,0.,0.2493219,0.2302978,-0.0000885,0.,-0.0001212,0.
 3127722,0.,0.,0.,0.3902635\Polar=78.4509435,0.0032615,76.2414633,0.,0.
 ,48.4648717\PolarDeriv=16.0588626,0.0569595,-6.2854273,0.,0.,-2.429276
 7,-12.5889931,1.9365931,-2.1647062,0.,0.,-7.7418378,0.,0.,0.,-2.989058
 8,-6.1420142,0.,-16.024703,-0.0003889,6.2932715,0.,0.,2.4499727,-12.62
 53242,-1.9665333,-2.1452398,0.,0.,-7.7306336,0.,0.,0.,3.0049569,-6.131
 3685,0.,-5.3655534,2.3493936,-2.0284331,0.,0.,-2.9379762,14.3594637,0.
 7024874,0.3312432,0.,0.,7.5692882,0.,0.,0.,-8.362562,3.6191575,0.,5.30
 99147,2.3598413,2.0392981,0.,0.,2.9160989,14.3820649,-0.6543713,0.3377
 39,0.,0.,7.576958,0.,0.,0.,8.3527771,3.6424766,0.,0.0235176,-5.5871668
 ,-0.0162978,0.,0.,0.0020134,-4.6806815,-0.0187525,1.7617018,0.,0.,-0.4
 88988,0.,0.,0.,-0.0053468,4.2529788,0.,-12.3858308,4.1382381,-2.817435
 6,0.,0.,-0.6913791,3.8520868,-3.1505575,2.6895597,0.,0.,0.0356173,0.,0
 .,0.,1.4821831,-0.5461205,0.,-4.6454039,-4.4146507,-4.6894686,0.,0.,-0
 .263159,-4.2881396,-4.8105925,-8.9325485,0.,0.,-0.33658,0.,0.,0.,0.378
 4562,0.9713764,0.,4.6834517,-4.4286529,4.6881641,0.,0.,0.2644261,-4.30
 19576,4.812145,-8.8989405,0.,0.,-0.3360565,0.,0.,0.,-0.3803079,0.96918
 01,0.,12.3520021,4.1560172,2.8323034,0.,0.,0.6911172,3.8684212,3.16509
 91,2.7149567,0.,0.,0.0372405,0.,0.,0.,-1.4810456,-0.5506538,0.,-0.0062
 576,1.3704096,-0.0159747,0.,0.,-0.0018373,2.0230595,-0.0155175,14.3062
 345,0.,0.,1.4149919,0.,0.,0.,-0.0000521,-0.0850124,0.\HyperPolar=-0.29
 72775,67.4310661,0.3313068,-100.0123773,0.,0.,0.,0.1499301,-112.111833
 ,0.\Quadrupole=2.0032859,1.9173862,-3.920672,-3.9529461,0.,0.\PG=CS [S
 G(C4H5N1)]\NImag=0\\0.61364702,0.12122771,0.78339576,0.,0.,0.11679654,
 -0.27196883,-0.01432245,0.,0.61433010,0.01386884,-0.10844049,0.,-0.121
 70778,0.78271776,0.,0.,-0.05926468,0.,0.,0.11680179,-0.12411476,0.0838
 3474,0.,-0.03863339,0.02017198,0.,0.79093983,0.06735419,-0.34460437,0.
 ,0.07258734,-0.00348317,0.,-0.13383719,0.66192868,0.,0.,-0.06490430,0.
 ,0.,0.01199555,0.,0.,0.11480677,-0.03837337,-0.02026931,0.,-0.12369172
 ,-0.08321696,0.,-0.09463451,-0.01376235,0.,0.79019558,-0.07268688,-0.0
 0374360,0.,-0.06673323,-0.34503609,0.,0.01351864,-0.00782579,0.,0.1341
 8986,0.66271457,0.,0.,0.01199541,0.,0.,-0.06490817,0.,0.,0.01594013,0.
 ,0.,0.11481466,-0.00793797,-0.04516795,0.,-0.00807678,0.04538813,0.,-0
 .24414311,-0.08795423,0.,-0.24463892,0.08776029,0.,0.61662919,-0.00410
 445,-0.08584244,0.,0.00432382,-0.08570086,0.,-0.08764794,-0.17136636,0
 .,0.08744562,-0.17087625,0.,-0.00048147,0.96080065,0.,0.,0.01353369,0.
 ,0.,0.01353400,0.,0.,-0.05460371,0.,0.,-0.05460563,0.,0.,0.08258313,0.
 00140934,-0.00157708,0.,0.00072776,0.00064626,0.,-0.30399851,0.1086485
 3,0.,-0.00091327,-0.00443467,0.,-0.01849295,0.01276434,0.,0.32153918,0
 .02264235,0.00270808,0.,0.00151590,-0.00537646,0.,0.11855146,-0.111713
 44,0.,-0.00246792,-0.00413758,0.,-0.02373665,0.01276062,0.,-0.11726192
 ,0.10347108,0.,0.,0.00152630,0.,0.,0.00441898,0.,0.,-0.02188135,0.,0.,
 0.00203022,0.,0.,-0.00284645,0.,0.,0.01883712,-0.16166153,-0.14214232,
 0.,-0.00584918,-0.02320822,0.,0.01057619,0.00928835,0.,-0.00625696,0.0
 0072908,0.,-0.00026319,0.00350908,0.,-0.00013641,-0.00089612,0.,0.1617
 2684,-0.13960099,-0.24605426,0.,0.00406929,0.00678520,0.,-0.01926694,-
 0.01014725,0.,0.00162300,-0.00009825,0.,0.00161869,-0.00531236,0.,0.00
 050568,0.00044012,0.,0.15302032,0.25413039,0.,0.,-0.02567167,0.,0.,-0.
 00072674,0.,0.,-0.00068429,0.,0.,0.00348237,0.,0.,0.00458441,0.,0.,-0.
 00337663,0.,0.,0.02129648,-0.00590273,0.02317207,0.,-0.16245588,0.1423
 7731,0.,-0.00625018,-0.00074622,0.,0.01054795,-0.00923035,0.,-0.000249
 11,-0.00349444,0.,0.00012083,0.00142495,0.,0.00092278,-0.00079940,0.,0
 .16258957,-0.00410502,0.00683911,0.,0.13983537,-0.24525963,0.,-0.00164
 044,-0.00010506,0.,0.01932569,-0.01011932,0.,-0.00160435,-0.00532665,0
 .,0.00001488,0.00044101,0.,0.00080240,-0.00011320,0.,-0.15327763,0.253
 26757,0.,0.,-0.00072684,0.,0.,-0.02567349,0.,0.,0.00348245,0.,0.,-0.00
 068408,0.,0.,0.00458440,0.,0.,0.00123078,0.,0.,-0.00233578,0.,0.,0.021
 29803,0.00073349,-0.00062945,0.,0.00146860,0.00157367,0.,-0.00093241,0
 .00444391,0.,-0.30335944,-0.10919080,0.,-0.01852418,-0.01285427,0.,-0.
 00055574,-0.00073790,0.,0.00012486,-0.00001581,0.,-0.00013744,-0.00050
 730,0.,0.32087677,-0.00149873,-0.00538291,0.,-0.02264580,0.00264847,0.
 ,0.00247746,-0.00411783,0.,-0.11909271,-0.11236408,0.,0.02364435,0.012
 78888,0.,0.00073382,0.00087997,0.,-0.00142580,0.00043689,0.,0.00089450
 ,0.00044115,0.,0.11787840,0.10414608,0.,0.,0.00441909,0.,0.,0.00152644
 ,0.,0.,0.00203014,0.,0.,-0.02188025,0.,0.,-0.00284620,0.,0.,0.00213840
 ,0.,0.,0.00123072,0.,0.,-0.00337656,0.,0.,0.01883544,-0.00583066,-0.00
 412597,0.,-0.00585068,0.00410677,0.,0.01119084,-0.02602233,0.,0.011124
 66,0.02607806,0.,-0.07430298,0.00053969,0.,0.00029976,0.00096585,0.,0.
 00081661,-0.00115384,0.,0.00081419,0.00115640,0.,0.00030548,-0.0009654
 9,0.,0.06143278,-0.00309702,0.00112514,0.,0.00307755,0.00114529,0.,0.0
 0383822,-0.00856540,0.,-0.00377493,-0.00851361,0.,0.00053319,-0.461925
 23,0.,-0.00003985,0.00052662,0.,0.00032322,-0.00006728,0.,-0.00032079,
 -0.00006498,0.,0.00003955,0.00052338,0.,-0.00057915,0.47581608,0.,0.,0
 .00229645,0.,0.,0.00229632,0.,0.,-0.00618139,0.,0.,-0.00618467,0.,0.,-
 0.00391764,0.,0.,-0.00207736,0.,0.,0.00220113,0.,0.,0.00220107,0.,0.,-
 0.00207721,0.,0.,0.01144330\\0.00000175,0.00001975,0.,-0.00000147,0.00
 001993,0.,0.00001762,-0.00002009,0.,-0.00001848,-0.00001966,0.,-0.0000
 0022,0.00000428,0.,-0.00000390,0.00000079,0.,0.00000018,0.00000058,0.,
 0.00000005,0.00000071,0.,0.00000423,0.00000124,0.,0.00000023,-0.000007
 54,0.\\\@
 The archive entry for this job was punched.


 LAW OF COMPENSATION:
      NO CALCULATION IS EVER A COMPLETE FAILURE; IT 
      CAN ALWAYS SERVE AS A BAD EXAMPLE.

                                           -- ANON
 Job cpu time:       0 days  0 hours  9 minutes 35.2 seconds.
 Elapsed time:       0 days  0 hours  5 minutes 25.6 seconds.
 File lengths (MBytes):  RWF=     77 Int=      0 D2E=      0 Chk=      9 Scr=      1
 Normal termination of Gaussian 16 at Fri Jun  2 10:56:09 2023.
