 Entering Gaussian System, Link 0=g16
 Input=3ethylthiazolium-CO2_binding-site_index-1-freq.gjf
 Output=3ethylthiazolium-CO2_binding-site_index-1-freq.log
 Initial command:
 /software/commercial/gaussian/g16/AVX/g16/l1.exe "/scratch1/svicchi/G09-659730.pbs02/Gau-2024712.inp" -scrdir="/scratch1/svicchi/G09-659730.pbs02/"
 Entering Link 1 = /software/commercial/gaussian/g16/AVX/g16/l1.exe PID=   2024713.
  
 Copyright (c) 1988-2019, Gaussian, Inc.  All Rights Reserved.
  
 This is part of the Gaussian(R) 16 program.  It is based on
 the Gaussian(R) 09 system (copyright 2009, Gaussian, Inc.),
 the Gaussian(R) 03 system (copyright 2003, Gaussian, Inc.),
 the Gaussian(R) 98 system (copyright 1998, Gaussian, Inc.),
 the Gaussian(R) 94 system (copyright 1995, Gaussian, Inc.),
 the Gaussian 92(TM) system (copyright 1992, Gaussian, Inc.),
 the Gaussian 90(TM) system (copyright 1990, Gaussian, Inc.),
 the Gaussian 88(TM) system (copyright 1988, Gaussian, Inc.),
 the Gaussian 86(TM) system (copyright 1986, Carnegie Mellon
 University), and the Gaussian 82(TM) system (copyright 1983,
 Carnegie Mellon University). Gaussian is a federally registered
 trademark of Gaussian, Inc.
  
 This software contains proprietary and confidential information,
 including trade secrets, belonging to Gaussian, Inc.
  
 This software is provided under written license and may be
 used, copied, transmitted, or stored only in accord with that
 written license.
  
 The following legend is applicable only to US Government
 contracts under FAR:
  
                    RESTRICTED RIGHTS LEGEND
  
 Use, reproduction and disclosure by the US Government is
 subject to restrictions as set forth in subparagraphs (a)
 and (c) of the Commercial Computer Software - Restricted
 Rights clause in FAR 52.227-19.
  
 Gaussian, Inc.
 340 Quinnipiac St., Bldg. 40, Wallingford CT 06492
  
  
 ---------------------------------------------------------------
 Warning -- This program may not be used in any manner that
 competes with the business of Gaussian, Inc. or will provide
 assistance to any competitor of Gaussian, Inc.  The licensee
 of this program is prohibited from giving any competitor of
 Gaussian, Inc. access to this program.  By using this program,
 the user acknowledges that Gaussian, Inc. is engaged in the
 business of creating and licensing software in the field of
 computational chemistry and represents and warrants to the
 licensee that it is not a competitor of Gaussian, Inc. and that
 it will not use this program in any manner prohibited above.
 ---------------------------------------------------------------
  

 Cite this work as:
 Gaussian 16, Revision C.01,
 M. J. Frisch, G. W. Trucks, H. B. Schlegel, G. E. Scuseria, 
 M. A. Robb, J. R. Cheeseman, G. Scalmani, V. Barone, 
 G. A. Petersson, H. Nakatsuji, X. Li, M. Caricato, A. V. Marenich, 
 J. Bloino, B. G. Janesko, R. Gomperts, B. Mennucci, H. P. Hratchian, 
 J. V. Ortiz, A. F. Izmaylov, J. L. Sonnenberg, D. Williams-Young, 
 F. Ding, F. Lipparini, F. Egidi, J. Goings, B. Peng, A. Petrone, 
 T. Henderson, D. Ranasinghe, V. G. Zakrzewski, J. Gao, N. Rega, 
 G. Zheng, W. Liang, M. Hada, M. Ehara, K. Toyota, R. Fukuda, 
 J. Hasegawa, M. Ishida, T. Nakajima, Y. Honda, O. Kitao, H. Nakai, 
 T. Vreven, K. Throssell, J. A. Montgomery, Jr., J. E. Peralta, 
 F. Ogliaro, M. J. Bearpark, J. J. Heyd, E. N. Brothers, K. N. Kudin, 
 V. N. Staroverov, T. A. Keith, R. Kobayashi, J. Normand, 
 K. Raghavachari, A. P. Rendell, J. C. Burant, S. S. Iyengar, 
 J. Tomasi, M. Cossi, J. M. Millam, M. Klene, C. Adamo, R. Cammi, 
 J. W. Ochterski, R. L. Martin, K. Morokuma, O. Farkas, 
 J. B. Foresman, and D. J. Fox, Gaussian, Inc., Wallingford CT, 2019.
 
 ******************************************
 Gaussian 16:  ES64L-G16RevC.01  3-Jul-2019
                 2-Jun-2023 
 ******************************************
 %NProcShared=2
 Will use up to    2 processors via shared memory.
 %mem=55gb
 %chk=/scratch1/svicchi/G09-659730.pbs02/02-freq/3ethylthiazolium-CO2_binding-sit
 e_index-1-freq.chk
 ----------------------------------------------------------------------
 #p freq=raman scale=0.967 pop=(nbo,full,hirshfeld) guess=read geom=all
 check b3lyp/6-311+G(d,p) int=grid=ultrafine EmpiricalDispersion=GD3BJ 
 SCRF=(Solvent=ethanol) scf=(xqc,intrep,maxconventionalcycle=350) nosym
 m
 ----------------------------------------------------------------------
 1/10=4,29=7,30=1,38=1,114=967000/1,3;
 2/12=2,15=1,40=1/2;
 3/5=4,6=6,7=111,11=2,14=-4,25=1,30=1,70=2201,71=2,72=4,74=-5,75=-5,116=-2,124=41,140=1/1,2,3;
 4/5=1/1;
 5/5=2,8=3,13=1,17=20,38=6,53=4,85=350,98=1/2,8;
 8/6=4,10=90,11=11/1;
 10/13=10,15=4,31=1/2;
 11/6=3,8=1,9=11,15=111,16=1,31=1/1,2,10;
 10/6=1,31=1/2;
 6/7=3,28=1,40=1,79=1/1,7;
 7/8=1,10=1,25=1,30=1/1,2,3,16;
 1/10=4,30=1/3;
 99//99;
 Leave Link    1 at Fri Jun  2 13:59:08 2023, MaxMem=  7381975040 cpu:               4.4 elap:               4.6
 (Enter /software/commercial/gaussian/g16/AVX/g16/l101.exe)
 Structure from the checkpoint file:  "/scratch1/svicchi/G09-659730.pbs02/02-freq/3ethylthiazolium-CO2_binding-site_index-1-freq.chk"
 ---------------------------------------------
 3ethylthiazolium-CO2_binding-site_index-1.gjf
 ---------------------------------------------
 Charge =  0 Multiplicity = 1
 No Z-Matrix found in chk file; cartesian coordinates used.
  N                                                -0.066865914376      0.224203992082     -0.003113749545
  C                                                 1.056118014735     -0.491539720473      0.058377046188
  C                                                -0.412556183856      0.629050606247     -1.282157262509
  C                                                 0.474059740384      0.220099400343     -2.218809891892
  S                                                 1.750711524050     -0.688813969246     -1.491268116996
  C                                                -0.950303710387      0.538340698980      1.153242658276
  C                                                -1.983323646013     -0.560716504867      1.362482049681
  H                                                -2.631006007701     -0.283910292614      2.196672723861
  H                                                -2.605086803963     -0.698860985650      0.475505682541
  H                                                -1.492307634338     -1.503865473241      1.605584957893
  H                                                -1.417483629984      1.493758857308      0.919416004852
  H                                                -0.308162688017      0.643520581033      2.020623008868
  H                                                -1.309137370128      1.210309738173     -1.428568632758
  H                                                 0.443769606351      0.405725285549     -3.279811653246
  C                                                 1.757854662882     -1.114596393633      1.285278328180
  O                                                 1.241518769071     -0.897927098384      2.394576199186
  O                                                 2.775485271290     -1.761738721606      0.968120647419
 Recover connectivity data from disk.
 ITRead=  0  0  0  0  0  0  0  0  0  0  0  0  0  0  0  0  0
 MicOpt= -1 -1 -1 -1 -1 -1 -1 -1 -1 -1 -1 -1 -1 -1 -1 -1 -1
 NAtoms=     17 NQM=       17 NQMF=       0 NMMI=      0 NMMIF=      0
                NMic=       0 NMicF=      0.
                    Isotopes and Nuclear Properties:
 (Nuclear quadrupole moments (NQMom) in fm**2, nuclear magnetic moments (NMagM)
  in nuclear magnetons)

  Atom         1           2           3           4           5           6           7           8           9          10
 IAtWgt=          14          12          12          12          32          12          12           1           1           1
 AtmWgt=  14.0030740  12.0000000  12.0000000  12.0000000  31.9720718  12.0000000  12.0000000   1.0078250   1.0078250   1.0078250
 NucSpn=           2           0           0           0           0           0           0           1           1           1
 AtZEff=   4.5500000   3.6000000   3.6000000   3.6000000  13.6000000   3.6000000   3.6000000   1.0000000   1.0000000   1.0000000
 NQMom=    2.0440000   0.0000000   0.0000000   0.0000000   0.0000000   0.0000000   0.0000000   0.0000000   0.0000000   0.0000000
 NMagM=    0.4037610   0.0000000   0.0000000   0.0000000   0.0000000   0.0000000   0.0000000   2.7928460   2.7928460   2.7928460
 AtZNuc=   7.0000000   6.0000000   6.0000000   6.0000000  16.0000000   6.0000000   6.0000000   1.0000000   1.0000000   1.0000000

  Atom        11          12          13          14          15          16          17
 IAtWgt=           1           1           1           1          12          16          16
 AtmWgt=   1.0078250   1.0078250   1.0078250   1.0078250  12.0000000  15.9949146  15.9949146
 NucSpn=           1           1           1           1           0           0           0
 AtZEff=   1.0000000   1.0000000   1.0000000   1.0000000   3.6000000   5.6000000   5.6000000
 NQMom=    0.0000000   0.0000000   0.0000000   0.0000000   0.0000000   0.0000000   0.0000000
 NMagM=    2.7928460   2.7928460   2.7928460   2.7928460   0.0000000   0.0000000   0.0000000
 AtZNuc=   1.0000000   1.0000000   1.0000000   1.0000000   6.0000000   8.0000000   8.0000000
 Leave Link  101 at Fri Jun  2 13:59:11 2023, MaxMem=  7381975040 cpu:               0.6 elap:               1.1
 (Enter /software/commercial/gaussian/g16/AVX/g16/l103.exe)

 GradGradGradGradGradGradGradGradGradGradGradGradGradGradGradGradGradGrad
 Berny optimization.
 Initialization pass.
 Trust Radius=3.00D-01 FncErr=1.00D-07 GrdErr=1.00D-07 EigMax=2.50D+02 EigMin=1.00D-04
 Number of steps in this run=      2 maximum allowed number of steps=      2.
 GradGradGradGradGradGradGradGradGradGradGradGradGradGradGradGradGradGrad

 Leave Link  103 at Fri Jun  2 13:59:12 2023, MaxMem=  7381975040 cpu:               0.1 elap:               0.7
 (Enter /software/commercial/gaussian/g16/AVX/g16/l202.exe)
                          Input orientation:                          
 ---------------------------------------------------------------------
 Center     Atomic      Atomic             Coordinates (Angstroms)
 Number     Number       Type             X           Y           Z
 ---------------------------------------------------------------------
      1          7           0       -0.066866    0.224204   -0.003114
      2          6           0        1.056118   -0.491540    0.058377
      3          6           0       -0.412556    0.629051   -1.282157
      4          6           0        0.474060    0.220099   -2.218810
      5         16           0        1.750712   -0.688814   -1.491268
      6          6           0       -0.950304    0.538341    1.153243
      7          6           0       -1.983324   -0.560717    1.362482
      8          1           0       -2.631006   -0.283910    2.196673
      9          1           0       -2.605087   -0.698861    0.475506
     10          1           0       -1.492308   -1.503865    1.605585
     11          1           0       -1.417484    1.493759    0.919416
     12          1           0       -0.308163    0.643521    2.020623
     13          1           0       -1.309137    1.210310   -1.428569
     14          1           0        0.443770    0.405725   -3.279812
     15          6           0        1.757855   -1.114596    1.285278
     16          8           0        1.241519   -0.897927    2.394576
     17          8           0        2.775485   -1.761739    0.968121
 ---------------------------------------------------------------------
                    Distance matrix (angstroms):
                    1          2          3          4          5
     1  N    0.000000
     2  C    1.333103   0.000000
     3  C    1.385408   2.282490   0.000000
     4  C    2.280773   2.455769   1.353014   0.000000
     5  S    2.520276   1.709613   2.541697   1.727796   0.000000
     6  C    1.488726   2.507013   2.495711   3.674347   3.974271
     7  C    2.480678   3.308123   3.298026   4.412942   4.701417
     8  H    3.416439   4.267353   4.225787   5.421434   5.741455
     9  H    2.742935   3.690718   3.108041   4.193443   4.779255
    10  H    2.757901   3.148512   3.748900   4.632996   4.557629
    11  H    2.070507   3.286564   2.569927   3.879253   4.540097
    12  H    2.080760   2.645758   3.304461   4.331737   4.283393
    13  H    2.132502   3.271350   1.078497   2.187416   3.601844
    14  H    3.321212   3.510493   2.184901   1.077543   2.470830
    15  C    2.604217   1.544643   3.787178   3.963354   2.809013
    16  O    2.952959   2.378519   4.311148   4.808566   3.924639
    17  O    3.600864   2.323201   4.576378   4.402359   2.872268
                    6          7          8          9         10
     6  C    0.000000
     7  C    1.522773   0.000000
     8  H    2.142336   1.091782   0.000000
     9  H    2.174466   1.091971   1.770670   0.000000
    10  H    2.160784   1.090745   1.770398   1.778592   0.000000
    11  H    1.088924   2.176546   2.502824   2.532793   3.076065
    12  H    1.084323   2.165526   2.507334   3.076562   2.487111
    13  H    2.691849   3.373577   4.137923   2.991641   4.075093
    14  H    4.648978   5.326883   6.318364   4.961657   5.591246
    15  C    3.175493   3.782745   4.558813   4.456885   3.289024
    16  O    2.899631   3.402725   3.925892   4.303351   2.909205
    17  O    4.382481   4.923844   5.737897   5.506626   4.322837
                   11         12         13         14         15
    11  H    0.000000
    12  H    1.779369   0.000000
    13  H    2.367512   3.635949   0.000000
    14  H    4.720338   5.358783   2.673413   0.000000
    15  C    4.125548   2.810718   4.709203   4.987810   0.000000
    16  O    3.868663   2.217524   5.056377   5.876614   1.242614
    17  O    5.308637   4.049928   5.591184   5.308458   1.246978
                   16         17
    16  O    0.000000
    17  O    2.265833   0.000000
 Symmetry turned off by external request.
 Stoichiometry    C6H7NO2S
 Framework group  C1[X(C6H7NO2S)]
 Deg. of freedom    45
 Full point group                 C1      NOp   1
 Rotational constants (GHZ):           1.3845395           1.3086027           0.7175924
 Leave Link  202 at Fri Jun  2 13:59:14 2023, MaxMem=  7381975040 cpu:               0.0 elap:               0.7
 (Enter /software/commercial/gaussian/g16/AVX/g16/l301.exe)
 Standard basis: 6-311+G(d,p) (5D, 7F)
 Ernie: Thresh=  0.10000D-02 Tol=  0.10000D-05 Strict=F.
   270 basis functions,   430 primitive gaussians,   280 cartesian basis functions
    41 alpha electrons       41 beta electrons
       nuclear repulsion energy       614.9921861048 Hartrees.
 IExCor=  402 DFT=T Ex+Corr=B3LYP ExCW=0 ScaHFX=  0.200000
 ScaDFX=  0.800000  0.720000  1.000000  0.810000 ScalE2=  1.000000  1.000000
 IRadAn=      5 IRanWt=     -1 IRanGd=            0 ICorTp=0 IEmpDi=141
 NAtoms=   17 NActive=   17 NUniq=   17 SFac= 1.00D+00 NAtFMM=   60 NAOKFM=F Big=F
 Integral buffers will be    131072 words long.
 Raffenetti 2 integral format.
 Two-electron integral symmetry is turned off.
 R6Disp:  Grimme-D3(BJ) Dispersion energy=       -0.0333967945 Hartrees.
 Nuclear repulsion after empirical dispersion term =      614.9587893104 Hartrees.
 Force inversion solution in PCM.
 ------------------------------------------------------------------------------
 Polarizable Continuum Model (PCM)
 =================================
 Model                : PCM.
 Atomic radii         : UFF (Universal Force Field).
 Polarization charges : Total charges.
 Charge compensation  : None.
 Solution method      : Matrix inversion.
 Cavity type          : Scaled VdW (van der Waals Surface) (Alpha=1.100).
 Cavity algorithm     : GePol (No added spheres)
                        Default sphere list used, NSphG=   17.
                        Lebedev-Laikov grids with approx.  5.0 points / Ang**2.
                        Smoothing algorithm: York/Karplus (Gamma=1.0000).
                        Polarization charges: spherical gaussians, with
                                              point-specific exponents (IZeta= 3).
                        Self-potential: point-specific (ISelfS= 7).
                        Self-field    : sphere-specific E.n sum rule (ISelfD= 2).
 1st derivatives      : Analytical E(r).r(x)/FMM algorithm (CHGder, D1EAlg=3).
                        Cavity 1st derivative terms included.
 2nd derivatives      : Analytical E(r).r(xy)/FMM algorithm (CHGder, D2EAlg=3).
                        Cavity 2nd derivative terms included.
 Solvent              : Ethanol, Eps=  24.852000 Eps(inf)=   1.852593
 ------------------------------------------------------------------------------
 Spheres list:
 ISph  on   Nord     Re0    Alpha      Xe            Ye            Ze
    1   N      1    1.8300  1.100     -0.066866      0.224204     -0.003114
    2   C      2    1.9255  1.100      1.056118     -0.491540      0.058377
    3   C      3    1.9255  1.100     -0.412556      0.629051     -1.282157
    4   C      4    1.9255  1.100      0.474060      0.220099     -2.218810
    5   S      5    2.0175  1.100      1.750712     -0.688814     -1.491268
    6   C      6    1.9255  1.100     -0.950304      0.538341      1.153243
    7   C      7    1.9255  1.100     -1.983324     -0.560717      1.362482
    8   H      8    1.4430  1.100     -2.631006     -0.283910      2.196673
    9   H      9    1.4430  1.100     -2.605087     -0.698861      0.475506
   10   H     10    1.4430  1.100     -1.492308     -1.503865      1.605585
   11   H     11    1.4430  1.100     -1.417484      1.493759      0.919416
   12   H     12    1.4430  1.100     -0.308163      0.643521      2.020623
   13   H     13    1.4430  1.100     -1.309137      1.210310     -1.428569
   14   H     14    1.4430  1.100      0.443770      0.405725     -3.279812
   15   C     15    1.9255  1.100      1.757855     -1.114596      1.285278
   16   O     16    1.7500  1.100      1.241519     -0.897927      2.394576
   17   O     17    1.7500  1.100      2.775485     -1.761739      0.968121
 ------------------------------------------------------------------------------
 GePol: Number of generator spheres                  =      17
 GePol: Total number of spheres                      =      17
 GePol: Number of exposed spheres                    =      17 (100.00%)
 GePol: Number of points                             =    1528
 GePol: Average weight of points                     =       0.13
 GePol: Minimum weight of points                     =   0.14D-11
 GePol: Maximum weight of points                     =    0.20577
 GePol: Number of points with low weight             =      79
 GePol: Fraction of low-weight points (<1% of avg)   =       5.17%
 GePol: Cavity surface area                          =    202.588 Ang**2
 GePol: Cavity volume                                =    205.304 Ang**3
 Leave Link  301 at Fri Jun  2 13:59:17 2023, MaxMem=  7381975040 cpu:               0.7 elap:               1.1
 (Enter /software/commercial/gaussian/g16/AVX/g16/l302.exe)
 NPDir=0 NMtPBC=     1 NCelOv=     1 NCel=       1 NClECP=     1 NCelD=      1
         NCelK=      1 NCelE2=     1 NClLst=     1 CellRange=     0.0.
 One-electron integrals computed using PRISM.
 NBasis=   270 RedAO= T EigKep=  1.68D-05  NBF=   270
 NBsUse=   270 1.00D-06 EigRej= -1.00D+00 NBFU=   270
 Precomputing XC quadrature grid using
 IXCGrd= 4 IRadAn=           5 IRanWt=          -1 IRanGd=           0 AccXCQ= 0.00D+00.
 Generated NRdTot=       0 NPtTot=           0 NUsed=           0 NTot=          32
 NSgBfM=   280   280   280   280   280 MxSgAt=    17 MxSgA2=    17.
 Leave Link  302 at Fri Jun  2 13:59:19 2023, MaxMem=  7381975040 cpu:               1.1 elap:               1.5
 (Enter /software/commercial/gaussian/g16/AVX/g16/l303.exe)
 DipDrv:  MaxL=1.
 Leave Link  303 at Fri Jun  2 13:59:21 2023, MaxMem=  7381975040 cpu:               0.2 elap:               0.6
 (Enter /software/commercial/gaussian/g16/AVX/g16/l401.exe)
 Initial guess from the checkpoint file:  "/scratch1/svicchi/G09-659730.pbs02/02-freq/3ethylthiazolium-CO2_binding-site_index-1-freq.chk"
 B after Tr=     0.000000    0.000000    0.000000
         Rot=    1.000000    0.000000    0.000000    0.000000 Ang=   0.00 deg.
 Guess basis will be translated and rotated to current coordinates.
 JPrj=2 DoOrth=T DoCkMO=T.
 Leave Link  401 at Fri Jun  2 13:59:26 2023, MaxMem=  7381975040 cpu:               3.1 elap:               3.8
 (Enter /software/commercial/gaussian/g16/AVX/g16/l502.exe)
 Keep R1 ints in memory in canonical form, NReq=680344551.
 FoFCou: FMM=F IPFlag=           0 FMFlag=           0 FMFlg1=           0
         NFxFlg=           0 DoJE=F BraDBF=F KetDBF=F FulRan=T
         wScrn=  0.000000 ICntrl=       600 IOpCl=  0 I1Cent=           0 NGrid=           0
         NMat0=    1 NMatS0=  36585 NMatT0=    0 NMatD0=    1 NMtDS0=    0 NMtDT0=    0
 Symmetry not used in FoFCou.
 Two-electron integral symmetry not used.
 Closed shell SCF:
 Using DIIS extrapolation, IDIIS=  1040.
 NGot=  7381975040 LenX=  6712564671 LenY=  6712485830
 Requested convergence on RMS density matrix=1.00D-08 within 350 cycles.
 Requested convergence on MAX density matrix=1.00D-06.
 Requested convergence on             energy=1.00D-06.
 No special actions if energy rises.

 Cycle   1  Pass 1  IDiag  1:
 Inv3:  Mode=1 IEnd=     7004352.
 Iteration    1 A*A^-1 deviation from unit magnitude is 4.88D-15 for   1513.
 Iteration    1 A*A^-1 deviation from orthogonality  is 3.17D-15 for   1307   1231.
 Iteration    1 A^-1*A deviation from unit magnitude is 4.22D-15 for   1513.
 Iteration    1 A^-1*A deviation from orthogonality  is 6.92D-10 for   1427   1307.
 Iteration    2 A*A^-1 deviation from unit magnitude is 1.44D-15 for    474.
 Iteration    2 A*A^-1 deviation from orthogonality  is 1.06D-15 for    327    325.
 Iteration    2 A^-1*A deviation from unit magnitude is 9.99D-16 for    268.
 Iteration    2 A^-1*A deviation from orthogonality  is 7.65D-16 for    837    433.
 E= -836.433898013028    
 DIIS: error= 3.36D-08 at cycle   1 NSaved=   1.
 NSaved= 1 IEnMin= 1 EnMin= -836.433898013028     IErMin= 1 ErrMin= 3.36D-08
 ErrMax= 3.36D-08  0.00D+00 EMaxC= 1.00D-01 BMatC= 2.34D-13 BMatP= 2.34D-13
 IDIUse=1 WtCom= 1.00D+00 WtEn= 0.00D+00
 Coeff-Com:  0.100D+01
 Coeff:      0.100D+01
 Gap=     0.174 Goal=   None    Shift=    0.000
 RMSDP=6.68D-09 MaxDP=4.54D-07              OVMax= 4.01D-07

 Error on total polarization charges =  0.01528
 SCF Done:  E(RB3LYP) =  -836.433898013     A.U. after    1 cycles
            NFock=  1  Conv=0.67D-08     -V/T= 2.0028
 KE= 8.341125206389D+02 PE=-3.199788443580D+03 EE= 9.142832356175D+02
 Leave Link  502 at Fri Jun  2 14:00:01 2023, MaxMem=  7381975040 cpu:              59.2 elap:              33.8
 (Enter /software/commercial/gaussian/g16/AVX/g16/l508.exe)
 QCSCF skips out because SCF is already converged.
 Leave Link  508 at Fri Jun  2 14:00:03 2023, MaxMem=  7381975040 cpu:               0.0 elap:               0.3
 (Enter /software/commercial/gaussian/g16/AVX/g16/l801.exe)
 DoSCS=F DFT=T ScalE2(SS,OS)=  1.000000  1.000000
 Range of M.O.s used for correlation:     1   270
 NBasis=   270 NAE=    41 NBE=    41 NFC=     0 NFV=     0
 NROrb=    270 NOA=    41 NOB=    41 NVA=   229 NVB=   229

 **** Warning!!: The largest alpha MO coefficient is  0.65160053D+02

 Leave Link  801 at Fri Jun  2 14:00:05 2023, MaxMem=  7381975040 cpu:               0.2 elap:               0.7
 (Enter /software/commercial/gaussian/g16/AVX/g16/l1002.exe)
 Minotr:  Closed shell wavefunction.
 NEqPCM:  Using equilibrium solvation (IEInf=0, Eps=  24.8520, EpsInf=   1.8526)
          Direct CPHF calculation.
          Differentiating once with respect to electric field.
                with respect to dipole field.
          Electric field/nuclear overlap derivatives assumed to be zero.
          Requested convergence is 1.0D-08 RMS, and 1.0D-07 maximum.
          Secondary convergence is 1.0D-12 RMS, and 1.0D-12 maximum.
          NewPWx=F KeepS1=T KeepF1=T KeepIn=T MapXYZ=F SortEE=F KeepMc=T.
         5242 words used for storage of precomputed grid.
 Keep R1 ints in memory in canonical form, NReq=680351844.
 FoFCou: FMM=F IPFlag=           0 FMFlag=           0 FMFlg1=           0
         NFxFlg=           0 DoJE=F BraDBF=F KetDBF=F FulRan=T
         wScrn=  0.000000 ICntrl=       600 IOpCl=  0 I1Cent=           0 NGrid=           0
         NMat0=    1 NMatS0=  36585 NMatT0=    0 NMatD0=    1 NMtDS0=    0 NMtDT0=    0
 Symmetry not used in FoFCou.
 Two-electron integral symmetry not used.
          MDV=    7381975040 using IRadAn=       1.
          Solving linear equations simultaneously, MaxMat=       0.
          There are     3 degrees of freedom in the 1st order CPHF.  IDoFFX=0 NUNeed=     3.
      3 vectors produced by pass  0 Test12= 3.13D-13 3.33D-08 XBig12= 1.28D+02 7.11D+00.
 AX will form     3 AO Fock derivatives at one time.
      3 vectors produced by pass  1 Test12= 3.13D-13 3.33D-08 XBig12= 4.98D+01 1.75D+00.
      3 vectors produced by pass  2 Test12= 3.13D-13 3.33D-08 XBig12= 1.51D+01 1.67D+00.
      3 vectors produced by pass  3 Test12= 3.13D-13 3.33D-08 XBig12= 5.86D+00 5.11D-01.
      3 vectors produced by pass  4 Test12= 3.13D-13 3.33D-08 XBig12= 1.85D+00 3.25D-01.
      3 vectors produced by pass  5 Test12= 3.13D-13 3.33D-08 XBig12= 4.78D-01 1.41D-01.
      3 vectors produced by pass  6 Test12= 3.13D-13 3.33D-08 XBig12= 1.11D-01 1.02D-01.
      3 vectors produced by pass  7 Test12= 3.13D-13 3.33D-08 XBig12= 1.48D-02 3.48D-02.
      3 vectors produced by pass  8 Test12= 3.13D-13 3.33D-08 XBig12= 1.52D-03 7.32D-03.
      3 vectors produced by pass  9 Test12= 3.13D-13 3.33D-08 XBig12= 8.01D-05 1.57D-03.
      3 vectors produced by pass 10 Test12= 3.13D-13 3.33D-08 XBig12= 3.27D-06 3.11D-04.
      3 vectors produced by pass 11 Test12= 3.13D-13 3.33D-08 XBig12= 1.71D-07 9.03D-05.
      3 vectors produced by pass 12 Test12= 3.13D-13 3.33D-08 XBig12= 3.67D-09 2.09D-05.
      3 vectors produced by pass 13 Test12= 3.13D-13 3.33D-08 XBig12= 1.53D-10 4.37D-06.
      2 vectors produced by pass 14 Test12= 3.13D-13 3.33D-08 XBig12= 5.59D-12 7.08D-07.
      1 vectors produced by pass 15 Test12= 3.13D-13 3.33D-08 XBig12= 1.28D-13 5.81D-08.
 InvSVY:  IOpt=1 It=  1 EMax= 5.33D-15
 Solved reduced A of dimension    45 with     3 vectors.
 End of Minotr F.D. properties file   721 does not exist.
 End of Minotr F.D. properties file   722 does not exist.
 End of Minotr F.D. properties file   788 does not exist.
 Leave Link 1002 at Fri Jun  2 14:03:00 2023, MaxMem=  7381975040 cpu:             326.8 elap:             174.4
 (Enter /software/commercial/gaussian/g16/AVX/g16/l1101.exe)
 Using compressed storage, NAtomX=    17.
 Will process     18 centers per pass.
 R6Disp: Adding Grimme-D3(BJ) dispersion energy 1st derivatives to the gradient.
 Leave Link 1101 at Fri Jun  2 14:03:04 2023, MaxMem=  7381975040 cpu:               1.9 elap:               2.1
 (Enter /software/commercial/gaussian/g16/AVX/g16/l1102.exe)
 Symmetrizing basis deriv contribution to polar:
 IMax=3 JMax=2 DiffMx= 0.00D+00
 Leave Link 1102 at Fri Jun  2 14:03:06 2023, MaxMem=  7381975040 cpu:               0.2 elap:               0.7
 (Enter /software/commercial/gaussian/g16/AVX/g16/l1110.exe)
 Forming Gx(P) for the SCF density, NAtomX=    17.
 Integral derivatives from FoFJK, PRISM(SPDF).
 Do as many integral derivatives as possible in FoFJK.
 G2DrvN: MDV=    7381973153.
 G2DrvN: will do    18 centers at a time, making    1 passes.
 PxScal for G2LodP:  IOpCl= 0 ISclPx=1 IMOff=     1 NMtTot=     4 NTT=   36585 ScalPx= 1.66D+01
 Calling FoFCou, ICntrl=  3107 FMM=F I1Cent=   0 AccDes= 0.00D+00.
 FoFJK:  IHMeth= 1 ICntrl=    3107 DoSepK=F KAlg= 0 I1Cent=           0 FoldK=F
 IRaf=         0 NMat=       1 IRICut=       1 DoRegI=T DoRafI=F ISym2E= 0 IDoP0=0 IntGTp=1.
 FoFCou: FMM=F IPFlag=           0 FMFlag=      100000 FMFlg1=           0
         NFxFlg=           0 DoJE=F BraDBF=F KetDBF=F FulRan=T
         wScrn=  0.000000 ICntrl=      3107 IOpCl=  0 I1Cent=           0 NGrid=           0
         NMat0=    1 NMatS0=      1 NMatT0=    0 NMatD0=    4 NMtDS0=    3 NMtDT0=    0
 Symmetry not used in FoFCou.
 PxScal for G2LodP:  IOpCl= 0 ISclPx=0 IMOff=     1 NMtTot=     4 NTT=   36585 ScalPx= 1.00D+00
 NEqPCM:  Using equilibrium solvation (IEInf=0, Eps=  24.8520, EpsInf=   1.8526)
 G2PCM: DoFxE=T DoFxN=T DoGrad=T DoDP/DQ/DG/TGxP=TFFF NFrqRd=   0 IEInf=0 SqF1=F DoCFld=F IF1Alg=4.
 GePol: Maximum number of non-zero 1st derivatives   =     268
 End of G2Drv F.D. properties file   721 does not exist.
 End of G2Drv F.D. properties file   722 does not exist.
 End of G2Drv F.D. properties file   788 does not exist.
 Leave Link 1110 at Fri Jun  2 14:09:30 2023, MaxMem=  7381975040 cpu:             759.4 elap:             383.4
 (Enter /software/commercial/gaussian/g16/AVX/g16/l1002.exe)
 Minotr:  Closed shell wavefunction.
          IDoAtm=11111111111111111
 NEqPCM:  Using equilibrium solvation (IEInf=0, Eps=  24.8520, EpsInf=   1.8526)
          Direct CPHF calculation.
          Differentiating once with respect to electric field.
                with respect to dipole field.
          Differentiating once with respect to nuclear coordinates.
          Requested convergence is 1.0D-08 RMS, and 1.0D-07 maximum.
          Secondary convergence is 1.0D-12 RMS, and 1.0D-12 maximum.
          NewPWx=T KeepS1=F KeepF1=F KeepIn=T MapXYZ=F SortEE=F KeepMc=T.
         5242 words used for storage of precomputed grid.
 Keep R1 ints in memory in canonical form, NReq=680352235.
 FoFCou: FMM=F IPFlag=           0 FMFlag=           0 FMFlg1=           0
         NFxFlg=           0 DoJE=F BraDBF=F KetDBF=F FulRan=T
         wScrn=  0.000000 ICntrl=       600 IOpCl=  0 I1Cent=           0 NGrid=           0
         NMat0=    1 NMatS0=  36585 NMatT0=    0 NMatD0=    1 NMtDS0=    0 NMtDT0=    0
 Symmetry not used in FoFCou.
 Two-electron integral symmetry not used.
          MDV=    7381975040 using IRadAn=       1.
          Solving linear equations simultaneously, MaxMat=       0.
          There are    54 degrees of freedom in the 1st order CPHF.  IDoFFX=5 NUNeed=    54.
 Will reuse    3 saved solutions.
     48 vectors produced by pass  0 Test12= 1.74D-14 1.85D-09 XBig12= 1.80D-01 1.12D-01.
 AX will form    48 AO Fock derivatives at one time.
     48 vectors produced by pass  1 Test12= 1.74D-14 1.85D-09 XBig12= 4.01D-02 4.76D-02.
     48 vectors produced by pass  2 Test12= 1.74D-14 1.85D-09 XBig12= 5.30D-04 4.20D-03.
     48 vectors produced by pass  3 Test12= 1.74D-14 1.85D-09 XBig12= 4.39D-06 2.97D-04.
     48 vectors produced by pass  4 Test12= 1.74D-14 1.85D-09 XBig12= 1.81D-08 1.43D-05.
     47 vectors produced by pass  5 Test12= 1.74D-14 1.85D-09 XBig12= 3.95D-11 5.70D-07.
     19 vectors produced by pass  6 Test12= 1.74D-14 1.85D-09 XBig12= 5.50D-14 2.39D-08.
 InvSVY:  IOpt=1 It=  1 EMax= 4.16D-16
 Solved reduced A of dimension   306 with    54 vectors.
 FullF1:  Do perturbations      1 to       3.
 Isotropic polarizability for W=    0.000000      130.92 Bohr**3.
 FullF1:  Do perturbations      1 to       6.
 End of Minotr F.D. properties file   721 does not exist.
 End of Minotr F.D. properties file   722 does not exist.
 End of Minotr F.D. properties file   788 does not exist.
 Leave Link 1002 at Fri Jun  2 14:16:55 2023, MaxMem=  7381975040 cpu:             864.8 elap:             443.7
 (Enter /software/commercial/gaussian/g16/AVX/g16/l601.exe)
 Copying SCF densities to generalized density rwf, IOpCl= 0 IROHF=0.

 **********************************************************************

            Population analysis using the SCF Density.

 **********************************************************************

 Alpha  occ. eigenvalues --  -88.92903 -19.08920 -19.08788 -14.43626 -10.29417
 Alpha  occ. eigenvalues --  -10.28825 -10.25434 -10.24181 -10.23218 -10.17682
 Alpha  occ. eigenvalues --   -8.01458  -5.97721  -5.97318  -5.97126  -1.06668
 Alpha  occ. eigenvalues --   -1.04574  -0.97492  -0.87839  -0.80554  -0.78236
 Alpha  occ. eigenvalues --   -0.67732  -0.65536  -0.63555  -0.56597  -0.52411
 Alpha  occ. eigenvalues --   -0.50127  -0.48437  -0.47441  -0.46480  -0.44848
 Alpha  occ. eigenvalues --   -0.42703  -0.42533  -0.40884  -0.40036  -0.39017
 Alpha  occ. eigenvalues --   -0.37321  -0.32885  -0.29561  -0.27857  -0.27705
 Alpha  occ. eigenvalues --   -0.26578
 Alpha virt. eigenvalues --   -0.09222  -0.02525  -0.00934   0.00111   0.02056
 Alpha virt. eigenvalues --    0.02304   0.02741   0.03587   0.04094   0.05085
 Alpha virt. eigenvalues --    0.05249   0.06406   0.06901   0.07160   0.07371
 Alpha virt. eigenvalues --    0.08595   0.08639   0.09121   0.09911   0.10535
 Alpha virt. eigenvalues --    0.10773   0.11848   0.12091   0.12592   0.13485
 Alpha virt. eigenvalues --    0.14742   0.15570   0.15744   0.16001   0.16538
 Alpha virt. eigenvalues --    0.16714   0.17746   0.19049   0.19562   0.20584
 Alpha virt. eigenvalues --    0.21083   0.21604   0.21961   0.22848   0.23122
 Alpha virt. eigenvalues --    0.23899   0.24633   0.24895   0.25501   0.25896
 Alpha virt. eigenvalues --    0.27523   0.28331   0.28490   0.29534   0.29796
 Alpha virt. eigenvalues --    0.30287   0.31328   0.32211   0.32653   0.33750
 Alpha virt. eigenvalues --    0.34848   0.35732   0.37748   0.38530   0.39693
 Alpha virt. eigenvalues --    0.41545   0.42487   0.45394   0.46590   0.47931
 Alpha virt. eigenvalues --    0.49259   0.52466   0.53744   0.54550   0.56452
 Alpha virt. eigenvalues --    0.57051   0.58309   0.59251   0.60693   0.62282
 Alpha virt. eigenvalues --    0.63640   0.64722   0.66140   0.66527   0.67575
 Alpha virt. eigenvalues --    0.69921   0.71001   0.71588   0.72373   0.72968
 Alpha virt. eigenvalues --    0.74297   0.76003   0.78127   0.79232   0.79938
 Alpha virt. eigenvalues --    0.83251   0.84549   0.85733   0.87194   0.90353
 Alpha virt. eigenvalues --    0.92124   0.94053   0.95635   0.98001   0.99391
 Alpha virt. eigenvalues --    1.03303   1.03761   1.05655   1.07162   1.08881
 Alpha virt. eigenvalues --    1.09870   1.14742   1.15928   1.17281   1.18868
 Alpha virt. eigenvalues --    1.21598   1.22468   1.23862   1.30986   1.31947
 Alpha virt. eigenvalues --    1.33512   1.38581   1.40938   1.41784   1.45921
 Alpha virt. eigenvalues --    1.47691   1.50337   1.52871   1.53994   1.54706
 Alpha virt. eigenvalues --    1.56575   1.57409   1.59650   1.62391   1.63742
 Alpha virt. eigenvalues --    1.64538   1.65683   1.68205   1.69004   1.69781
 Alpha virt. eigenvalues --    1.71541   1.73721   1.76345   1.76467   1.76750
 Alpha virt. eigenvalues --    1.79832   1.80327   1.85708   1.87246   1.91471
 Alpha virt. eigenvalues --    1.95868   1.98620   2.02207   2.03732   2.07130
 Alpha virt. eigenvalues --    2.07460   2.09847   2.10946   2.13090   2.15002
 Alpha virt. eigenvalues --    2.21103   2.29022   2.30067   2.33765   2.41209
 Alpha virt. eigenvalues --    2.41999   2.43952   2.47414   2.48799   2.55937
 Alpha virt. eigenvalues --    2.57214   2.59309   2.61243   2.62252   2.66111
 Alpha virt. eigenvalues --    2.67897   2.68576   2.68739   2.72051   2.73957
 Alpha virt. eigenvalues --    2.77950   2.81368   2.82867   2.85067   2.86394
 Alpha virt. eigenvalues --    2.87293   2.90454   2.93838   2.96284   2.96298
 Alpha virt. eigenvalues --    3.04985   3.09156   3.18694   3.25033   3.27600
 Alpha virt. eigenvalues --    3.29036   3.33498   3.41250   3.44236   3.48448
 Alpha virt. eigenvalues --    3.55172   3.62244   3.62844   3.73313   3.78877
 Alpha virt. eigenvalues --    3.81640   3.85626   3.87071   4.05512   4.07154
 Alpha virt. eigenvalues --    4.08786   4.22069   4.85587   4.91344   5.04355
 Alpha virt. eigenvalues --    5.06834   5.17182   5.21334   5.62929   5.88953
 Alpha virt. eigenvalues --    7.95296  17.23996  17.42157  17.47588  23.66750
 Alpha virt. eigenvalues --   23.71577  23.84986  23.87763  23.96578  24.13500
 Alpha virt. eigenvalues --   35.50050  49.93792  50.04748 189.11310
     Molecular Orbital Coefficients:
                           1         2         3         4         5
                           O         O         O         O         O
     Eigenvalues --   -88.92903 -19.08920 -19.08788 -14.43626 -10.29417
   1 1   N  1S         -0.00000  -0.00000   0.00000   0.55737   0.00000
   2        2S          0.00001   0.00004  -0.00000   0.46567   0.00002
   3        2PX         0.00001   0.00005   0.00004   0.00002   0.00004
   4        2PY        -0.00001  -0.00003  -0.00003  -0.00002  -0.00003
   5        2PZ        -0.00001   0.00001   0.00003  -0.00006   0.00002
   6        3S         -0.00004  -0.00036   0.00020   0.01667  -0.00006
   7        3PX        -0.00005  -0.00024  -0.00017   0.00065  -0.00021
   8        3PY         0.00003   0.00013   0.00014  -0.00040   0.00016
   9        3PZ         0.00004  -0.00002  -0.00009  -0.00051  -0.00005
  10        4S          0.00002   0.00364  -0.00300  -0.01998   0.00069
  11        4PX         0.00021   0.00162  -0.00063  -0.00197   0.00109
  12        4PY        -0.00010  -0.00084   0.00033   0.00131  -0.00060
  13        4PZ        -0.00024  -0.00029  -0.00030   0.00092  -0.00110
  14        5S          0.00037   0.00748  -0.00242   0.00480   0.00176
  15        5PX         0.00048  -0.00156  -0.00138   0.00017   0.00395
  16        5PY        -0.00021   0.00041   0.00060  -0.00069  -0.00252
  17        5PZ        -0.00025  -0.00006  -0.00023   0.00235  -0.00160
  18        6D 0        0.00001   0.00005   0.00003   0.00007   0.00006
  19        6D+1       -0.00000   0.00000  -0.00006   0.00009  -0.00007
  20        6D-1       -0.00000  -0.00000   0.00004  -0.00015   0.00004
  21        6D+2       -0.00000  -0.00002  -0.00003   0.00018  -0.00002
  22        6D-2        0.00001   0.00003   0.00008  -0.00040   0.00007
  23 2   C  1S         -0.00000  -0.00001  -0.00001  -0.00001   0.00933
  24        2S          0.00000   0.00005   0.00005   0.00013   0.00766
  25        2PX         0.00002   0.00004   0.00009  -0.00041   0.00020
  26        2PY        -0.00001  -0.00004  -0.00006   0.00027  -0.00016
  27        2PZ        -0.00005   0.00010   0.00007  -0.00009   0.00027
  28        3S          0.00004  -0.00021  -0.00021   0.00015   0.00075
  29        3PX        -0.00005  -0.00023  -0.00046   0.00121  -0.00050
  30        3PY         0.00002   0.00021   0.00034  -0.00083   0.00037
  31        3PZ         0.00011  -0.00038  -0.00043   0.00036  -0.00049
  32        4S         -0.00010  -0.00098   0.00196   0.00365   0.00011
  33        4PX         0.00018   0.00511  -0.00258  -0.00687   0.00316
  34        4PY        -0.00015  -0.00313   0.00136   0.00441  -0.00233
  35        4PZ         0.00017  -0.00130   0.00297  -0.00044   0.00344
  36        5S          0.00021   0.01266   0.00945  -0.01063   0.00961
  37        5PX         0.00071   0.00181  -0.00207   0.00304   0.00593
  38        5PY         0.00016  -0.00081   0.00020  -0.00168  -0.00559
  39        5PZ        -0.00403   0.00229   0.00804   0.00143   0.01548
  40        6D 0       -0.00008  -0.00021  -0.00005   0.00061  -0.00022
  41        6D+1        0.00007  -0.00014  -0.00019  -0.00003  -0.00031
  42        6D-1       -0.00002   0.00012   0.00014  -0.00001   0.00028
  43        6D+2       -0.00000   0.00005   0.00005  -0.00031  -0.00003
  44        6D-2       -0.00001  -0.00007  -0.00007   0.00069   0.00017
  45 3   C  1S         -0.00000  -0.00000  -0.00000   0.00001  -0.00001
  46        2S          0.00001   0.00000   0.00001   0.00002   0.00000
  47        2PX         0.00000   0.00003  -0.00000   0.00007   0.00000
  48        2PY        -0.00000  -0.00002   0.00000  -0.00011  -0.00000
  49        2PZ        -0.00000   0.00002  -0.00001   0.00044   0.00002
  50        3S         -0.00006   0.00006  -0.00011   0.00020  -0.00018
  51        3PX        -0.00006  -0.00015   0.00002  -0.00005  -0.00007
  52        3PY         0.00004   0.00008  -0.00002   0.00021   0.00006
  53        3PZ         0.00003  -0.00008   0.00002  -0.00128  -0.00015
  54        4S          0.00003  -0.00168   0.00067   0.00737  -0.00106
  55        4PX        -0.00005  -0.00023   0.00071   0.00348  -0.00042
  56        4PY         0.00001   0.00024  -0.00040  -0.00252   0.00019
  57        4PZ        -0.00001  -0.00010   0.00027   0.00226   0.00105
  58        5S         -0.00291  -0.00838   0.00544   0.00854   0.00655
  59        5PX        -0.00048  -0.00166   0.00091   0.00233   0.00074
  60        5PY         0.00031   0.00086  -0.00052  -0.00088  -0.00065
  61        5PZ        -0.00007   0.00027  -0.00087  -0.00139   0.00292
  62        6D 0       -0.00001  -0.00002   0.00002  -0.00059  -0.00000
  63        6D+1        0.00003  -0.00006  -0.00000  -0.00065  -0.00002
  64        6D-1       -0.00002   0.00004   0.00000   0.00050   0.00001
  65        6D+2        0.00000   0.00000   0.00002   0.00024   0.00004
  66        6D-2       -0.00002   0.00002  -0.00003  -0.00027  -0.00006
  67 4   C  1S          0.00000  -0.00000  -0.00000  -0.00001  -0.00001
  68        2S         -0.00000   0.00001   0.00001   0.00004   0.00001
  69        2PX         0.00004   0.00000  -0.00001  -0.00008  -0.00001
  70        2PY        -0.00003   0.00000   0.00000   0.00003   0.00001
  71        2PZ         0.00002  -0.00001   0.00002   0.00007   0.00000
  72        3S          0.00007  -0.00006  -0.00002  -0.00012  -0.00010
  73        3PX        -0.00011   0.00001   0.00003   0.00064   0.00006
  74        3PY         0.00008  -0.00001  -0.00001  -0.00024  -0.00004
  75        3PZ        -0.00004   0.00003  -0.00012  -0.00093  -0.00003
  76        4S          0.00012   0.00076  -0.00090  -0.00343   0.00042
  77        4PX         0.00012  -0.00019  -0.00035   0.00002  -0.00096
  78        4PY        -0.00007   0.00001   0.00026   0.00058   0.00042
  79        4PZ        -0.00004   0.00061  -0.00021  -0.00389   0.00101
  80        5S          0.00197   0.00562  -0.00750  -0.00965  -0.00071
  81        5PX        -0.00013  -0.00114   0.00056   0.00016  -0.00102
  82        5PY         0.00003   0.00063  -0.00009  -0.00013   0.00062
  83        5PZ         0.00030   0.00141  -0.00138  -0.00103  -0.00063
  84        6D 0        0.00004   0.00003   0.00000   0.00014   0.00002
  85        6D+1       -0.00008   0.00000  -0.00001   0.00040   0.00000
  86        6D-1        0.00005  -0.00001   0.00000  -0.00027  -0.00001
  87        6D+2       -0.00001  -0.00000   0.00000  -0.00009   0.00001
  88        6D-2        0.00005   0.00001   0.00001   0.00004  -0.00001
  89 5   S  1S          0.41089  -0.00000  -0.00000  -0.00000  -0.00000
  90        2S          0.65436   0.00000   0.00000   0.00001   0.00000
  91        3S          0.01536  -0.00002  -0.00004  -0.00007  -0.00002
  92        4S         -0.00460   0.00005   0.00009   0.00017   0.00006
  93        5S          0.00191   0.00001  -0.00027  -0.00045  -0.00014
  94        6S         -0.00170  -0.00230   0.00290   0.00302   0.00091
  95        7S         -0.00449  -0.00116   0.01122   0.00650   0.01252
  96        7PX         0.00041  -0.00033  -0.00112  -0.00174  -0.00124
  97        7PY        -0.00014   0.00014   0.00035   0.00114   0.00033
  98        7PZ        -0.00071  -0.00091   0.00230  -0.00023   0.00270
  99        8PX        -0.00009  -0.00000   0.00000   0.00001   0.00000
 100        8PY         0.00005   0.00000  -0.00000  -0.00000   0.00000
 101        8PZ         0.00004   0.00000  -0.00001  -0.00001  -0.00000
 102        9PX         0.00003   0.00002  -0.00002  -0.00004  -0.00001
 103        9PY        -0.00002  -0.00000   0.00001   0.00002  -0.00000
 104        9PZ        -0.00001  -0.00002   0.00004   0.00006   0.00001
 105       10PX        -0.00001  -0.00007   0.00011   0.00011   0.00003
 106       10PY         0.00000   0.00001  -0.00004  -0.00004  -0.00001
 107       10PZ         0.00000   0.00015  -0.00013  -0.00023  -0.00002
 108       11PX        -0.00011   0.00025  -0.00044  -0.00013  -0.00025
 109       11PY         0.00006   0.00001   0.00017   0.00003   0.00013
 110       11PZ         0.00008  -0.00084   0.00054   0.00045  -0.00003
 111       12PX         0.00045  -0.00005  -0.00091  -0.00047  -0.00147
 112       12PY        -0.00025   0.00010   0.00050  -0.00003   0.00113
 113       12PZ        -0.00030  -0.00071   0.00028   0.00128  -0.00143
 114       13D 0        0.00002  -0.00012  -0.00001   0.00004  -0.00009
 115       13D+1       -0.00001   0.00002  -0.00003   0.00015  -0.00005
 116       13D-1       -0.00000   0.00002   0.00002  -0.00011   0.00004
 117       13D+2        0.00001   0.00001   0.00001  -0.00003   0.00003
 118       13D-2       -0.00003  -0.00003   0.00000   0.00001  -0.00004
 119 6   C  1S         -0.00000  -0.00000  -0.00000   0.00001  -0.00002
 120        2S          0.00000   0.00002   0.00000  -0.00003   0.00000
 121        2PX        -0.00000   0.00005   0.00000   0.00015   0.00004
 122        2PY         0.00000  -0.00004   0.00000  -0.00008  -0.00001
 123        2PZ         0.00000   0.00003   0.00000  -0.00023   0.00003
 124        3S         -0.00003  -0.00011  -0.00009   0.00012  -0.00023
 125        3PX         0.00001  -0.00018   0.00002  -0.00008  -0.00016
 126        3PY         0.00000   0.00013   0.00001   0.00026   0.00005
 127        3PZ        -0.00001  -0.00012  -0.00001   0.00040  -0.00017
 128        4S          0.00045   0.00071   0.00117   0.00309   0.00316
 129        4PX         0.00009   0.00007   0.00023   0.00069   0.00044
 130        4PY        -0.00001  -0.00068  -0.00014  -0.00028  -0.00005
 131        4PZ        -0.00014   0.00032   0.00023  -0.00083  -0.00004
 132        5S          0.00081  -0.01596  -0.00377  -0.00804   0.00346
 133        5PX         0.00062   0.00111  -0.00142   0.00077   0.00102
 134        5PY         0.00006   0.00380   0.00063   0.00207  -0.00135
 135        5PZ        -0.00031   0.00089   0.00079   0.00050   0.00056
 136        6D 0        0.00000   0.00000   0.00003  -0.00019  -0.00001
 137        6D+1       -0.00000  -0.00002   0.00002   0.00037  -0.00002
 138        6D-1       -0.00000  -0.00000   0.00000  -0.00009  -0.00001
 139        6D+2        0.00000  -0.00003   0.00002  -0.00010  -0.00000
 140        6D-2       -0.00000   0.00007   0.00000   0.00013   0.00002
 141 7   C  1S         -0.00000   0.00000   0.00000  -0.00000   0.00000
 142        2S          0.00000  -0.00000  -0.00000   0.00001  -0.00000
 143        2PX         0.00000  -0.00000   0.00000   0.00004  -0.00002
 144        2PY         0.00000   0.00002   0.00001   0.00006   0.00002
 145        2PZ        -0.00000  -0.00000   0.00000  -0.00001  -0.00001
 146        3S         -0.00000   0.00009   0.00008  -0.00004   0.00010
 147        3PX        -0.00001   0.00003  -0.00000  -0.00026   0.00012
 148        3PY        -0.00001  -0.00011  -0.00001  -0.00035  -0.00008
 149        3PZ         0.00001  -0.00000  -0.00001   0.00008   0.00003
 150        4S         -0.00007  -0.00073  -0.00067  -0.00017  -0.00037
 151        4PX         0.00003  -0.00056  -0.00032  -0.00012  -0.00079
 152        4PY         0.00002  -0.00006   0.00005  -0.00032  -0.00034
 153        4PZ        -0.00004  -0.00013  -0.00002  -0.00028  -0.00011
 154        5S          0.00095   0.01220  -0.00105   0.00813   0.00068
 155        5PX         0.00017   0.00248  -0.00013   0.00178   0.00032
 156        5PY         0.00017   0.00167  -0.00027   0.00108  -0.00001
 157        5PZ        -0.00007  -0.00082   0.00002  -0.00089  -0.00016
 158        6D 0        0.00000   0.00002   0.00002   0.00009   0.00004
 159        6D+1       -0.00000   0.00001  -0.00001   0.00000   0.00001
 160        6D-1        0.00000   0.00000   0.00000   0.00006   0.00001
 161        6D+2        0.00000  -0.00000  -0.00001  -0.00002  -0.00000
 162        6D-2        0.00000  -0.00005   0.00001  -0.00015  -0.00005
 163 8   H  1S         -0.00001  -0.00002  -0.00001  -0.00005  -0.00003
 164        2S          0.00003   0.00015   0.00005   0.00006   0.00017
 165        3S          0.00002  -0.00020   0.00017   0.00001  -0.00052
 166        4PX         0.00000   0.00006   0.00003   0.00000   0.00006
 167        4PY         0.00000  -0.00000  -0.00001   0.00004   0.00001
 168        4PZ        -0.00000   0.00000   0.00001   0.00004   0.00001
 169 9   H  1S         -0.00000  -0.00000  -0.00001   0.00004  -0.00002
 170        2S          0.00002   0.00001   0.00007  -0.00030   0.00008
 171        3S         -0.00001  -0.00067   0.00010  -0.00055  -0.00057
 172        4PX         0.00000  -0.00002   0.00002  -0.00013   0.00004
 173        4PY        -0.00000  -0.00000  -0.00000  -0.00001   0.00002
 174        4PZ         0.00000  -0.00000   0.00000  -0.00005  -0.00002
 175 10  H  1S         -0.00000   0.00000  -0.00001   0.00008   0.00002
 176        2S          0.00001   0.00014   0.00014  -0.00046   0.00005
 177        3S          0.00005  -0.00018   0.00021  -0.00049  -0.00117
 178        4PX        -0.00000  -0.00003  -0.00002  -0.00003  -0.00008
 179        4PY        -0.00000  -0.00004   0.00003  -0.00016  -0.00007
 180        4PZ        -0.00000   0.00001  -0.00001   0.00012   0.00003
 181 11  H  1S          0.00000  -0.00001   0.00002   0.00001   0.00004
 182        2S         -0.00006  -0.00001  -0.00012  -0.00087  -0.00046
 183        3S          0.00005   0.00031   0.00020   0.00019   0.00076
 184        4PX        -0.00000  -0.00001  -0.00001  -0.00012  -0.00002
 185        4PY         0.00001   0.00002   0.00001   0.00019   0.00006
 186        4PZ        -0.00000  -0.00001  -0.00001  -0.00004  -0.00004
 187 12  H  1S          0.00000   0.00001   0.00005   0.00002   0.00000
 188        2S         -0.00005  -0.00032  -0.00043  -0.00115  -0.00028
 189        3S          0.00004   0.00060  -0.00047  -0.00009  -0.00250
 190        4PX         0.00000  -0.00002   0.00002   0.00012  -0.00008
 191        4PY         0.00000   0.00000   0.00004   0.00002   0.00005
 192        4PZ         0.00001  -0.00007   0.00005   0.00027   0.00003
 193 13  H  1S         -0.00000  -0.00001  -0.00002  -0.00016  -0.00001
 194        2S         -0.00008   0.00001   0.00016  -0.00010  -0.00009
 195        3S          0.00017   0.00004   0.00022   0.00181   0.00031
 196        4PX        -0.00002   0.00000   0.00001  -0.00021  -0.00002
 197        4PY         0.00001  -0.00000  -0.00001   0.00018   0.00001
 198        4PZ         0.00000  -0.00001  -0.00002  -0.00032  -0.00005
 199 14  H  1S         -0.00001  -0.00002   0.00000   0.00005  -0.00005
 200        2S         -0.00006   0.00010  -0.00006  -0.00148   0.00033
 201        3S         -0.00006   0.00011   0.00030  -0.00054   0.00012
 202        4PX        -0.00002   0.00001   0.00002   0.00002   0.00004
 203        4PY         0.00002  -0.00001  -0.00001   0.00005  -0.00003
 204        4PZ        -0.00003  -0.00000  -0.00001  -0.00033   0.00002
 205 15  C  1S         -0.00000  -0.00002  -0.00002  -0.00000   0.56298
 206        2S          0.00000   0.00007   0.00007   0.00002   0.46326
 207        2PX         0.00000  -0.00014   0.00033  -0.00006  -0.00019
 208        2PY        -0.00000   0.00004  -0.00021   0.00005   0.00016
 209        2PZ        -0.00001   0.00036  -0.00006  -0.00007  -0.00034
 210        3S         -0.00001   0.00046   0.00044  -0.00011   0.01840
 211        3PX        -0.00001   0.00026  -0.00073   0.00021   0.00067
 212        3PY         0.00000  -0.00004   0.00048  -0.00018  -0.00058
 213        3PZ         0.00006  -0.00085   0.00003   0.00026   0.00121
 214        4S         -0.00031   0.00064   0.00029   0.00160  -0.01677
 215        4PX         0.00017  -0.00564   0.00668   0.00329   0.00139
 216        4PY        -0.00012   0.00268  -0.00401  -0.00161  -0.00131
 217        4PZ        -0.00010   0.00808  -0.00389  -0.00459   0.00232
 218        5S          0.00369  -0.01176  -0.01697   0.00031  -0.03624
 219        5PX        -0.00058   0.00227   0.00129  -0.00025   0.00466
 220        5PY         0.00041  -0.00172  -0.00138   0.00013  -0.00411
 221        5PZ        -0.00036   0.00135   0.00382  -0.00040   0.00666
 222        6D 0       -0.00001  -0.00048   0.00046   0.00006   0.00048
 223        6D+1       -0.00002   0.00064   0.00041  -0.00028  -0.00141
 224        6D-1        0.00001  -0.00033  -0.00032   0.00015   0.00068
 225        6D+2        0.00000  -0.00005  -0.00024   0.00001   0.00067
 226        6D-2       -0.00000  -0.00006   0.00045   0.00004  -0.00123
 227 16  O  1S         -0.00000   0.55128   0.00501   0.00000  -0.00007
 228        2S          0.00000   0.46969   0.00432   0.00003  -0.00006
 229        2PX         0.00000   0.00046   0.00005   0.00003   0.00019
 230        2PY        -0.00000  -0.00019  -0.00003  -0.00001  -0.00007
 231        2PZ        -0.00000  -0.00096  -0.00004  -0.00003  -0.00045
 232        3S         -0.00001   0.01401  -0.00030  -0.00031   0.00050
 233        3PX        -0.00001   0.00021  -0.00016  -0.00014  -0.00057
 234        3PY         0.00000  -0.00008   0.00008   0.00006   0.00020
 235        3PZ         0.00002  -0.00061   0.00018   0.00016   0.00135
 236        4S          0.00005  -0.01267   0.00269   0.00211  -0.00374
 237        4PX         0.00002  -0.00063  -0.00011   0.00046  -0.00053
 238        4PY        -0.00002   0.00017   0.00023  -0.00020   0.00026
 239        4PZ        -0.00005   0.00235  -0.00125  -0.00075   0.00140
 240        5S          0.00051   0.00137   0.00385   0.00316   0.00721
 241        5PX        -0.00001  -0.00105  -0.00014   0.00031   0.00028
 242        5PY         0.00006   0.00065   0.00025  -0.00005   0.00042
 243        5PZ        -0.00025   0.00073  -0.00118  -0.00077  -0.00351
 244        6D 0       -0.00000   0.00016   0.00012  -0.00002  -0.00077
 245        6D+1        0.00000  -0.00017   0.00011   0.00002   0.00056
 246        6D-1       -0.00000   0.00007  -0.00009  -0.00001  -0.00020
 247        6D+2       -0.00000   0.00004  -0.00005  -0.00002  -0.00012
 248        6D-2        0.00000  -0.00004   0.00008   0.00003   0.00013
 249 17  O  1S         -0.00000  -0.00500   0.55129   0.00000  -0.00007
 250        2S          0.00000  -0.00422   0.46971  -0.00000  -0.00006
 251        2PX        -0.00000  -0.00002  -0.00088  -0.00002  -0.00040
 252        2PY         0.00000   0.00002   0.00056   0.00002   0.00026
 253        2PZ        -0.00000   0.00004   0.00025  -0.00004   0.00010
 254        3S         -0.00002  -0.00055   0.01387   0.00009   0.00051
 255        3PX         0.00001   0.00016  -0.00051   0.00011   0.00116
 256        3PY        -0.00001  -0.00011   0.00033  -0.00009  -0.00075
 257        3PZ         0.00001  -0.00014   0.00013   0.00012  -0.00027
 258        4S          0.00003   0.00316  -0.01198  -0.00199  -0.00356
 259        4PX        -0.00001  -0.00089   0.00177   0.00038   0.00130
 260        4PY         0.00002   0.00072  -0.00117  -0.00020  -0.00082
 261        4PZ        -0.00002  -0.00051  -0.00027  -0.00025  -0.00033
 262        5S         -0.00045   0.00393   0.00332  -0.00237   0.00749
 263        5PX         0.00014  -0.00116   0.00010   0.00059  -0.00303
 264        5PY        -0.00011   0.00070   0.00003  -0.00051   0.00213
 265        5PZ         0.00005  -0.00006  -0.00075   0.00010  -0.00060
 266        6D 0        0.00000  -0.00008  -0.00009   0.00007   0.00039
 267        6D+1        0.00000   0.00017  -0.00009  -0.00001   0.00025
 268        6D-1       -0.00000  -0.00010   0.00006  -0.00001  -0.00014
 269        6D+2        0.00000  -0.00002   0.00009   0.00000  -0.00035
 270        6D-2       -0.00000  -0.00001  -0.00019   0.00000   0.00078
                           6         7         8         9        10
                           O         O         O         O         O
     Eigenvalues --   -10.28825 -10.25434 -10.24181 -10.23218 -10.17682
   1 1   N  1S         -0.00007  -0.00005   0.00000  -0.00002   0.00000
   2        2S         -0.00001  -0.00007   0.00003  -0.00007   0.00001
   3        2PX         0.00050  -0.00005  -0.00005  -0.00010  -0.00005
   4        2PY        -0.00032   0.00008   0.00004   0.00006   0.00001
   5        2PZ         0.00004  -0.00032  -0.00009   0.00015   0.00004
   6        3S          0.00073   0.00070   0.00000   0.00044  -0.00000
   7        3PX        -0.00158  -0.00005   0.00019  -0.00005   0.00027
   8        3PY         0.00104  -0.00002  -0.00020  -0.00005  -0.00005
   9        3PZ        -0.00024   0.00045   0.00061  -0.00000  -0.00021
  10        4S         -0.00610  -0.00095  -0.00280   0.00066  -0.00048
  11        4PX        -0.00171   0.00171   0.00075  -0.00040  -0.00125
  12        4PY         0.00102  -0.00118  -0.00034  -0.00008   0.00063
  13        4PZ         0.00203   0.00060  -0.00099   0.00042   0.00059
  14        5S          0.02619   0.02367   0.00212   0.00825   0.00309
  15        5PX         0.01288   0.00339   0.00353  -0.00774  -0.00775
  16        5PY        -0.00999   0.00040   0.00047   0.00139   0.00110
  17        5PZ         0.00532  -0.01856  -0.01357   0.01376   0.01167
  18        6D 0        0.00066  -0.00061  -0.00023  -0.00012  -0.00002
  19        6D+1       -0.00004  -0.00016  -0.00020   0.00023   0.00003
  20        6D-1        0.00006   0.00027   0.00017  -0.00015  -0.00001
  21        6D+2       -0.00055  -0.00004   0.00006  -0.00005  -0.00003
  22        6D-2        0.00116   0.00016  -0.00005   0.00009   0.00004
  23 2   C  1S          0.56284   0.00004   0.00003   0.00005  -0.00000
  24        2S          0.46340   0.00003   0.00003   0.00008  -0.00002
  25        2PX        -0.00024   0.00000  -0.00003  -0.00004   0.00001
  26        2PY         0.00029  -0.00001   0.00000   0.00001   0.00000
  27        2PZ        -0.00079   0.00003   0.00005   0.00002  -0.00001
  28        3S          0.01853   0.00004  -0.00006  -0.00039   0.00020
  29        3PX        -0.00170   0.00013   0.00026   0.00025  -0.00012
  30        3PY         0.00089  -0.00005  -0.00012  -0.00009   0.00000
  31        3PZ         0.00095   0.00002  -0.00008  -0.00018   0.00009
  32        4S         -0.01843  -0.00473  -0.00214   0.00203   0.00085
  33        4PX        -0.00011  -0.00018  -0.00219  -0.00075   0.00003
  34        4PY         0.00071   0.00037   0.00115   0.00031   0.00086
  35        4PZ        -0.00302  -0.00225   0.00032   0.00129  -0.00203
  36        5S         -0.03236   0.00256   0.00934   0.00237  -0.00658
  37        5PX         0.01842   0.00785   0.00415  -0.00147  -0.00256
  38        5PY        -0.01200  -0.01032  -0.00564   0.00588   0.00610
  39        5PZ         0.00913   0.03766   0.01816  -0.02472  -0.02246
  40        6D 0       -0.00043   0.00013   0.00011   0.00007   0.00002
  41        6D+1        0.00059   0.00016   0.00007   0.00003   0.00002
  42        6D-1       -0.00045  -0.00015  -0.00008  -0.00008   0.00002
  43        6D+2        0.00052  -0.00001   0.00000   0.00002  -0.00006
  44        6D-2       -0.00132  -0.00003  -0.00002  -0.00006  -0.00001
  45 3   C  1S         -0.00004   0.56266  -0.01665   0.00011   0.00001
  46        2S         -0.00003   0.46294  -0.01340   0.00011   0.00001
  47        2PX        -0.00011   0.00011   0.00059  -0.00001   0.00001
  48        2PY         0.00007  -0.00021  -0.00027  -0.00001   0.00001
  49        2PZ         0.00002   0.00084  -0.00072   0.00004  -0.00001
  50        3S         -0.00009   0.02039  -0.00104  -0.00035  -0.00003
  51        3PX         0.00043   0.00059  -0.00321  -0.00001  -0.00010
  52        3PY        -0.00027  -0.00006   0.00151   0.00008  -0.00004
  53        3PZ        -0.00010  -0.00178   0.00350  -0.00031   0.00012
  54        4S          0.00365  -0.01626  -0.00077   0.00013   0.00084
  55        4PX         0.00173  -0.00450   0.00171  -0.00190   0.00127
  56        4PY        -0.00109   0.00274  -0.00105   0.00088   0.00010
  57        4PZ         0.00093   0.00003  -0.00135   0.00225  -0.00158
  58        5S          0.01077  -0.00464  -0.01404   0.00164   0.00343
  59        5PX         0.00105   0.00142  -0.00111  -0.00051   0.00195
  60        5PY        -0.00171   0.00027   0.00105   0.00080   0.00014
  61        5PZ         0.00953  -0.00545  -0.00147  -0.00158  -0.00537
  62        6D 0       -0.00012  -0.00001  -0.00028  -0.00004  -0.00005
  63        6D+1        0.00007  -0.00091   0.00217  -0.00005   0.00005
  64        6D-1       -0.00005   0.00026  -0.00111   0.00000   0.00006
  65        6D+2        0.00010   0.00102  -0.00076   0.00013   0.00001
  66        6D-2       -0.00025  -0.00180   0.00083  -0.00018  -0.00003
  67 4   C  1S         -0.00003   0.01647   0.56266   0.00017   0.00001
  68        2S         -0.00002   0.01385   0.46300   0.00018   0.00003
  69        2PX        -0.00000  -0.00045   0.00074  -0.00001  -0.00001
  70        2PY         0.00001   0.00020  -0.00049   0.00001   0.00001
  71        2PZ        -0.00003   0.00057   0.00014   0.00003   0.00002
  72        3S         -0.00004   0.00011   0.01984  -0.00040  -0.00021
  73        3PX         0.00009   0.00223  -0.00290   0.00011   0.00004
  74        3PY        -0.00004  -0.00093   0.00173  -0.00006  -0.00003
  75        3PZ        -0.00015  -0.00299   0.00063  -0.00023  -0.00012
  76        4S         -0.00204   0.00132  -0.01259   0.00379  -0.00027
  77        4PX         0.00025  -0.00112   0.00059  -0.00128   0.00039
  78        4PY         0.00014   0.00052   0.00042   0.00055  -0.00042
  79        4PZ        -0.00182   0.00121  -0.00508   0.00212   0.00071
  80        5S          0.00219  -0.00357   0.01227   0.00475  -0.00481
  81        5PX        -0.00528   0.00127  -0.00064   0.00220   0.00288
  82        5PY         0.00303  -0.00115  -0.00040  -0.00151  -0.00190
  83        5PZ         0.00101   0.00125   0.00428   0.00110  -0.00028
  84        6D 0        0.00014  -0.00019   0.00213   0.00002  -0.00000
  85        6D+1        0.00015   0.00172  -0.00172   0.00002  -0.00002
  86        6D-1       -0.00013  -0.00088   0.00036  -0.00002   0.00001
  87        6D+2       -0.00001  -0.00063   0.00055   0.00001   0.00003
  88        6D-2       -0.00002   0.00070  -0.00064  -0.00002  -0.00000
  89 5   S  1S         -0.00000  -0.00000  -0.00000  -0.00000  -0.00000
  90        2S         -0.00000   0.00000  -0.00001   0.00000   0.00000
  91        3S         -0.00001  -0.00004   0.00004  -0.00002  -0.00001
  92        4S          0.00001   0.00011  -0.00011   0.00004   0.00002
  93        5S          0.00019  -0.00026   0.00039  -0.00010   0.00000
  94        6S          0.00080  -0.00043   0.00265   0.00061  -0.00120
  95        7S          0.01328   0.03205   0.00867  -0.02829  -0.01989
  96        7PX        -0.00415  -0.00546  -0.00019   0.00470   0.00310
  97        7PY         0.00282   0.00242  -0.00007  -0.00276  -0.00193
  98        7PZ        -0.00247   0.00611   0.00189  -0.00376  -0.00215
  99        8PX        -0.00000   0.00000  -0.00001   0.00000  -0.00000
 100        8PY         0.00000  -0.00000   0.00001  -0.00000   0.00000
 101        8PZ         0.00001   0.00000  -0.00001  -0.00000   0.00000
 102        9PX         0.00003  -0.00001   0.00008  -0.00001   0.00000
 103        9PY        -0.00001   0.00001  -0.00006   0.00000  -0.00001
 104        9PZ        -0.00008  -0.00000   0.00008   0.00001  -0.00001
 105       10PX        -0.00016   0.00000  -0.00033   0.00002  -0.00002
 106       10PY         0.00004  -0.00000   0.00025  -0.00000   0.00005
 107       10PZ         0.00038  -0.00004  -0.00035  -0.00007   0.00004
 108       11PX         0.00005   0.00029  -0.00027  -0.00001   0.00020
 109       11PY        -0.00002  -0.00017   0.00013  -0.00004  -0.00020
 110       11PZ        -0.00013   0.00007   0.00044   0.00028  -0.00024
 111       12PX        -0.00062   0.00015  -0.00138  -0.00078  -0.00012
 112       12PY         0.00014  -0.00006   0.00082   0.00042   0.00014
 113       12PZ         0.00093  -0.00049   0.00010   0.00008   0.00033
 114       13D 0       -0.00007   0.00005  -0.00001   0.00003  -0.00001
 115       13D+1        0.00010  -0.00013   0.00007  -0.00001  -0.00000
 116       13D-1       -0.00005   0.00007  -0.00003  -0.00000  -0.00002
 117       13D+2       -0.00003   0.00001  -0.00002  -0.00001  -0.00001
 118       13D-2        0.00004   0.00003   0.00002   0.00002   0.00002
 119 6   C  1S         -0.00005  -0.00011  -0.00017   0.56301  -0.00120
 120        2S         -0.00001  -0.00007  -0.00011   0.46321  -0.00103
 121        2PX         0.00000   0.00001   0.00001   0.00042  -0.00031
 122        2PY        -0.00003  -0.00003  -0.00001  -0.00041  -0.00037
 123        2PZ        -0.00007   0.00004  -0.00000  -0.00098   0.00004
 124        3S         -0.00042  -0.00039  -0.00057   0.01971   0.00047
 125        3PX        -0.00009  -0.00005   0.00002   0.00014   0.00060
 126        3PY         0.00023   0.00017   0.00009   0.00162   0.00091
 127        3PZ         0.00041  -0.00010   0.00004   0.00148   0.00011
 128        4S          0.00021   0.00327   0.00521  -0.01804  -0.00015
 129        4PX        -0.00107   0.00037   0.00107  -0.00060  -0.00247
 130        4PY        -0.00182  -0.00036  -0.00002   0.00196  -0.00203
 131        4PZ         0.00002  -0.00053  -0.00172   0.00210   0.00153
 132        5S         -0.01174  -0.00975   0.00455  -0.03428   0.02137
 133        5PX         0.00419   0.00257   0.00215   0.00020  -0.00354
 134        5PY         0.00240   0.00393   0.00011   0.00561  -0.00435
 135        5PZ         0.00039  -0.00187  -0.00241   0.00374  -0.00037
 136        6D 0       -0.00008   0.00011   0.00005  -0.00013   0.00029
 137        6D+1        0.00015   0.00004  -0.00000   0.00124   0.00028
 138        6D-1        0.00001  -0.00008  -0.00003  -0.00028   0.00010
 139        6D+2        0.00006  -0.00006  -0.00002  -0.00028   0.00002
 140        6D-2       -0.00001  -0.00003  -0.00005  -0.00028  -0.00056
 141 7   C  1S          0.00001  -0.00001  -0.00002   0.00119   0.56295
 142        2S         -0.00001   0.00000   0.00001   0.00094   0.46315
 143        2PX         0.00001   0.00003   0.00003   0.00030   0.00021
 144        2PY         0.00002  -0.00000   0.00001   0.00038   0.00029
 145        2PZ        -0.00002   0.00001  -0.00002  -0.00002  -0.00005
 146        3S          0.00034  -0.00005  -0.00014   0.00030   0.01985
 147        3PX         0.00006  -0.00015  -0.00016  -0.00076  -0.00096
 148        3PY        -0.00008   0.00005  -0.00005  -0.00098  -0.00118
 149        3PZ         0.00010  -0.00005   0.00009   0.00004   0.00025
 150        4S         -0.00307   0.00029   0.00037   0.00466  -0.01412
 151        4PX        -0.00164  -0.00000   0.00059   0.00087  -0.00283
 152        4PY        -0.00015  -0.00002   0.00000   0.00145  -0.00153
 153        4PZ         0.00065   0.00033  -0.00011  -0.00012   0.00129
 154        5S          0.01534   0.01496   0.00346   0.01812  -0.02129
 155        5PX         0.00309   0.00289   0.00070   0.00319  -0.00313
 156        5PY         0.00233   0.00242   0.00083   0.00257  -0.00309
 157        5PZ        -0.00103  -0.00122  -0.00030  -0.00136   0.00075
 158        6D 0        0.00000   0.00002   0.00000   0.00048   0.00037
 159        6D+1       -0.00002  -0.00000  -0.00001  -0.00001   0.00012
 160        6D-1        0.00002   0.00003   0.00003   0.00011   0.00016
 161        6D+2       -0.00006   0.00001   0.00001   0.00014   0.00002
 162        6D-2       -0.00003   0.00002   0.00000  -0.00078  -0.00073
 163 8   H  1S         -0.00001  -0.00001  -0.00003  -0.00002   0.00021
 164        2S          0.00008  -0.00002   0.00013  -0.00118  -0.00328
 165        3S         -0.00084  -0.00032   0.00029  -0.00034   0.00321
 166        4PX         0.00004  -0.00002  -0.00000  -0.00022  -0.00115
 167        4PY        -0.00001   0.00002   0.00003   0.00012   0.00066
 168        4PZ         0.00002   0.00000  -0.00001   0.00033   0.00162
 169 9   H  1S         -0.00008  -0.00000  -0.00002  -0.00007   0.00016
 170        2S          0.00073   0.00016   0.00015  -0.00080  -0.00267
 171        3S         -0.00058  -0.00065   0.00012  -0.00059   0.00293
 172        4PX         0.00013  -0.00007  -0.00002  -0.00015  -0.00102
 173        4PY         0.00003  -0.00005  -0.00001   0.00001  -0.00018
 174        4PZ         0.00002   0.00002   0.00001  -0.00027  -0.00170
 175 10  H  1S         -0.00001  -0.00007  -0.00003  -0.00005   0.00019
 176        2S          0.00042   0.00049   0.00016  -0.00086  -0.00288
 177        3S         -0.00079  -0.00062   0.00003   0.00024   0.00376
 178        4PX        -0.00012   0.00003   0.00003   0.00019   0.00103
 179        4PY        -0.00002   0.00006   0.00002  -0.00022  -0.00173
 180        4PZ         0.00002  -0.00005  -0.00004   0.00008   0.00041
 181 11  H  1S         -0.00000   0.00000   0.00003   0.00005  -0.00012
 182        2S         -0.00003  -0.00053  -0.00074  -0.00260  -0.00012
 183        3S          0.00283   0.00102   0.00112   0.00300  -0.00290
 184        4PX         0.00006  -0.00005  -0.00007  -0.00098  -0.00007
 185        4PY         0.00006   0.00008   0.00009   0.00180   0.00022
 186        4PZ        -0.00002   0.00009  -0.00002  -0.00060  -0.00003
 187 12  H  1S         -0.00002   0.00004   0.00003   0.00006  -0.00008
 188        2S         -0.00052  -0.00037  -0.00041  -0.00313  -0.00060
 189        3S          0.00006   0.00255   0.00192   0.00386  -0.00250
 190        4PX        -0.00001   0.00006   0.00005   0.00140   0.00016
 191        4PY         0.00012   0.00000  -0.00003   0.00008   0.00007
 192        4PZ         0.00012   0.00002   0.00007   0.00178   0.00022
 193 13  H  1S         -0.00006   0.00013  -0.00020   0.00007  -0.00001
 194        2S          0.00018  -0.00440  -0.00013  -0.00114   0.00018
 195        3S          0.00265   0.00068   0.00063   0.00011  -0.00049
 196        4PX        -0.00000  -0.00196  -0.00035  -0.00012  -0.00004
 197        4PY        -0.00002   0.00130   0.00019   0.00009   0.00002
 198        4PZ         0.00003  -0.00051   0.00021  -0.00023  -0.00001
 199 14  H  1S         -0.00000  -0.00016   0.00012  -0.00002  -0.00002
 200        2S         -0.00049  -0.00105  -0.00492   0.00006   0.00022
 201        3S         -0.00006   0.00098   0.00178   0.00045   0.00023
 202        4PX         0.00002   0.00017  -0.00025   0.00005  -0.00001
 203        4PY        -0.00000  -0.00000   0.00056  -0.00003   0.00001
 204        4PZ        -0.00009  -0.00066  -0.00254  -0.00005  -0.00000
 205 15  C  1S         -0.00936   0.00001   0.00000   0.00002  -0.00000
 206        2S         -0.00769   0.00003   0.00001   0.00003  -0.00001
 207        2PX        -0.00018  -0.00002  -0.00002  -0.00007   0.00002
 208        2PY         0.00018   0.00001   0.00002   0.00003  -0.00001
 209        2PZ        -0.00044  -0.00001  -0.00001   0.00000   0.00001
 210        3S         -0.00010  -0.00021  -0.00012   0.00001  -0.00000
 211        3PX         0.00043   0.00009   0.00008   0.00026  -0.00012
 212        3PY        -0.00044  -0.00006  -0.00007  -0.00011   0.00005
 213        3PZ         0.00122   0.00006   0.00009  -0.00004  -0.00006
 214        4S          0.00332   0.00132  -0.00006  -0.00146   0.00214
 215        4PX        -0.00047  -0.00190  -0.00062   0.00113   0.00034
 216        4PY         0.00059   0.00145   0.00069  -0.00085  -0.00022
 217        4PZ        -0.00292  -0.00130  -0.00162  -0.00017  -0.00044
 218        5S         -0.01273  -0.05096  -0.02923   0.03104   0.03060
 219        5PX        -0.00007   0.00594   0.00335  -0.00446  -0.00401
 220        5PY        -0.00037  -0.00470  -0.00264   0.00335   0.00285
 221        5PZ         0.00175   0.00731   0.00467  -0.00387  -0.00398
 222        6D 0       -0.00056   0.00004   0.00008  -0.00002  -0.00003
 223        6D+1       -0.00075  -0.00001  -0.00003   0.00001  -0.00001
 224        6D-1        0.00064   0.00000  -0.00000   0.00002   0.00002
 225        6D+2        0.00009   0.00002   0.00000  -0.00003  -0.00000
 226        6D-2        0.00002  -0.00005   0.00000   0.00007  -0.00004
 227 16  O  1S          0.00001   0.00000   0.00000   0.00000  -0.00000
 228        2S          0.00004   0.00000   0.00000   0.00001  -0.00000
 229        2PX         0.00002  -0.00000   0.00000  -0.00003   0.00002
 230        2PY         0.00000  -0.00000  -0.00001   0.00001  -0.00000
 231        2PZ        -0.00005  -0.00001  -0.00001  -0.00001   0.00000
 232        3S         -0.00026   0.00000  -0.00003  -0.00013   0.00004
 233        3PX        -0.00011  -0.00000  -0.00002   0.00013  -0.00008
 234        3PY         0.00001   0.00001   0.00003  -0.00006   0.00001
 235        3PZ         0.00033   0.00007   0.00003   0.00004  -0.00002
 236        4S          0.00030  -0.00041   0.00008   0.00065   0.00002
 237        4PX         0.00029   0.00006   0.00011  -0.00006   0.00029
 238        4PY        -0.00017  -0.00008  -0.00011   0.00005  -0.00007
 239        4PZ        -0.00001  -0.00005  -0.00006  -0.00042   0.00015
 240        5S         -0.00034   0.00201   0.00249   0.00065  -0.00162
 241        5PX         0.00092   0.00011   0.00027  -0.00019  -0.00029
 242        5PY        -0.00047  -0.00022  -0.00019  -0.00001   0.00035
 243        5PZ         0.00051  -0.00021  -0.00096  -0.00025   0.00030
 244        6D 0       -0.00012  -0.00001  -0.00001   0.00004  -0.00000
 245        6D+1        0.00004   0.00001   0.00001  -0.00001  -0.00001
 246        6D-1       -0.00001  -0.00000  -0.00000   0.00000  -0.00000
 247        6D+2        0.00001   0.00002   0.00001   0.00001  -0.00002
 248        6D-2       -0.00006  -0.00002  -0.00001   0.00000  -0.00000
 249 17  O  1S          0.00001   0.00000   0.00000   0.00000  -0.00000
 250        2S          0.00004   0.00000   0.00000   0.00000  -0.00000
 251        2PX        -0.00004  -0.00001  -0.00001  -0.00001   0.00000
 252        2PY         0.00003   0.00001   0.00001   0.00001  -0.00000
 253        2PZ         0.00001   0.00001  -0.00000  -0.00000  -0.00000
 254        3S         -0.00025  -0.00004  -0.00004  -0.00001   0.00005
 255        3PX         0.00028   0.00005   0.00005   0.00003  -0.00001
 256        3PY        -0.00019  -0.00004  -0.00003  -0.00005   0.00001
 257        3PZ        -0.00006  -0.00004  -0.00000   0.00001   0.00002
 258        4S         -0.00048   0.00018  -0.00002  -0.00021  -0.00040
 259        4PX         0.00008  -0.00016  -0.00018   0.00004   0.00020
 260        4PY         0.00000   0.00011   0.00011   0.00008  -0.00010
 261        4PZ         0.00002   0.00027   0.00015  -0.00011  -0.00008
 262        5S         -0.00118   0.00297   0.00190  -0.00139  -0.00111
 263        5PX         0.00022  -0.00080  -0.00038   0.00026   0.00003
 264        5PY        -0.00041   0.00044   0.00027  -0.00037  -0.00022
 265        5PZ         0.00074   0.00009  -0.00018  -0.00004   0.00019
 266        6D 0        0.00011   0.00002   0.00002   0.00000   0.00001
 267        6D+1        0.00006  -0.00001  -0.00001   0.00001   0.00000
 268        6D-1       -0.00006  -0.00000  -0.00000  -0.00001   0.00000
 269        6D+2       -0.00003   0.00000   0.00001  -0.00000  -0.00000
 270        6D-2        0.00005  -0.00000  -0.00001   0.00000   0.00000
                          11        12        13        14        15
                           O         O         O         O         O
     Eigenvalues --    -8.01458  -5.97721  -5.97318  -5.97126  -1.06668
   1 1   N  1S          0.00000   0.00000  -0.00000   0.00000  -0.06046
   2        2S          0.00005   0.00003  -0.00004   0.00000  -0.09501
   3        2PX         0.00006   0.00006  -0.00003  -0.00000   0.01417
   4        2PY        -0.00004  -0.00005   0.00001   0.00000  -0.00829
   5        2PZ        -0.00003   0.00004   0.00000   0.00000  -0.01018
   6        3S         -0.00032  -0.00037   0.00042  -0.00000   0.26125
   7        3PX        -0.00047  -0.00037   0.00021   0.00002   0.02067
   8        3PY         0.00026   0.00026  -0.00010  -0.00001  -0.01234
   9        3PZ         0.00035  -0.00022  -0.00004  -0.00001  -0.01359
  10        4S         -0.00003   0.00324  -0.00273  -0.00010   0.17746
  11        4PX         0.00260   0.00251  -0.00051  -0.00015   0.00572
  12        4PY        -0.00120  -0.00166   0.00026  -0.00003  -0.00429
  13        4PZ        -0.00337   0.00137  -0.00051   0.00002  -0.00481
  14        5S          0.00658   0.00579  -0.00296  -0.00144  -0.15346
  15        5PX         0.00773   0.00068   0.00066  -0.00103  -0.02235
  16        5PY        -0.00315  -0.00084   0.00048  -0.00050   0.01689
  17        5PZ        -0.00534   0.00158  -0.00547   0.00051   0.01398
  18        6D 0        0.00012   0.00008  -0.00005   0.00000   0.00207
  19        6D+1       -0.00007   0.00001  -0.00000  -0.00000  -0.00064
  20        6D-1        0.00001  -0.00002   0.00001   0.00001  -0.00152
  21        6D+2       -0.00001  -0.00001  -0.00000  -0.00001   0.00344
  22        6D-2        0.00005   0.00001   0.00001  -0.00001  -0.00691
  23 2   C  1S         -0.00006  -0.00008   0.00007   0.00000  -0.04167
  24        2S          0.00005  -0.00012   0.00010   0.00000  -0.06425
  25        2PX         0.00022   0.00016  -0.00010   0.00000  -0.02046
  26        2PY        -0.00008  -0.00005   0.00002   0.00000   0.01285
  27        2PZ        -0.00050  -0.00029   0.00024   0.00000  -0.00007
  28        3S          0.00044   0.00049  -0.00018   0.00001   0.16680
  29        3PX        -0.00065  -0.00012   0.00004   0.00006  -0.02439
  30        3PY         0.00026   0.00004  -0.00001   0.00011   0.01540
  31        3PZ         0.00143   0.00014  -0.00006   0.00003  -0.00084
  32        4S         -0.00116  -0.00253  -0.00145   0.00009   0.07507
  33        4PX         0.00190   0.00603  -0.00284   0.00007  -0.00541
  34        4PY        -0.00197  -0.00346   0.00085   0.00031   0.00426
  35        4PZ         0.00348  -0.00225   0.00648   0.00002  -0.00498
  36        5S          0.01081  -0.02719   0.00517  -0.00097  -0.01334
  37        5PX         0.01382  -0.01066  -0.00501  -0.00230  -0.07327
  38        5PY         0.00133   0.00736   0.00160   0.00043   0.04868
  39        5PZ        -0.06705  -0.00414   0.00757  -0.00043  -0.05495
  40        6D 0       -0.00107  -0.00017  -0.00009  -0.00004   0.00188
  41        6D+1        0.00087   0.00016  -0.00004  -0.00007   0.00403
  42        6D-1       -0.00024  -0.00007   0.00006  -0.00014  -0.00490
  43        6D+2       -0.00011   0.00002  -0.00003   0.00005   0.00452
  44        6D-2        0.00001  -0.00009   0.00008   0.00005  -0.01097
  45 3   C  1S         -0.00001   0.00000   0.00000   0.00000  -0.02603
  46        2S          0.00005  -0.00002  -0.00001   0.00000  -0.03986
  47        2PX        -0.00003  -0.00000  -0.00002   0.00000   0.01273
  48        2PY         0.00000  -0.00000   0.00000   0.00000  -0.01098
  49        2PZ        -0.00002   0.00003   0.00006  -0.00000   0.02007
  50        3S         -0.00058   0.00016  -0.00004  -0.00000   0.10038
  51        3PX        -0.00038   0.00014   0.00049  -0.00000   0.01867
  52        3PY         0.00029  -0.00006  -0.00023  -0.00002  -0.01649
  53        3PZ         0.00016  -0.00020  -0.00037   0.00001   0.03172
  54        4S          0.00020  -0.00026   0.00299   0.00015   0.04212
  55        4PX        -0.00045  -0.00057   0.00383   0.00027   0.00187
  56        4PY        -0.00004   0.00007  -0.00248  -0.00003  -0.00129
  57        4PZ        -0.00003   0.00188   0.00052  -0.00015   0.00119
[...]
 11,2.4367119,8.2381205,-4.9697748,12.0660849,-3.9119048,4.4696235,-5.0
 531212,-3.0356115,7.5653757,-11.6722827,10.0556114,-5.0580384,5.429092
 5,3.4314337,-5.3869486,26.373093,-7.0704133,-0.56104,-1.3045822,-2.799
 8969,2.3479118,-5.8007195,-2.2819431,-2.3314529,6.6252092,-0.2789357,0
 .3097515,1.3622055,-1.5535634,-1.129848,4.9756497,10.9520876,-9.028484
 3,17.1172785,-0.6290761,0.2157611,3.1923526,3.2123625,-7.6572869,7.853
 291,0.743537,0.7258496,0.8133805,-6.1579202,-2.7022357,-5.7255482,-3.3
 610119,0.4854285,-4.2160066,-2.5950431,1.633316,-10.105724,18.7837558,
 -3.7340349,4.4722,-6.346142,0.3123904,9.115018,-3.45116,6.0187134,-7.5
 052637,1.4826511,-4.9048116,-4.8254523,-6.7150559,2.6132587,-3.6672896
 ,5.4422261,-1.4842501,-16.4057881,4.4270591,-0.5846415,4.1540736,-3.86
 47764,-1.850766,-3.4943785,3.3420693,4.9385385,-6.6389283,-3.2359938,0
 .2396598,-0.0245245,-2.8670359,-1.7954261,1.1156259,-3.0151528,-1.2738
 698,-3.377927,-1.0905019,-0.6849584,-4.6966176,1.5393746,3.1118939,6.1
 478483,-6.4192204,-3.9232228,4.7050991,6.055389,-1.4862464,-2.830995,-
 1.7575071,3.6353894,-1.7135229,8.3791258,-0.4131167,-0.7470653,-6.8298
 216,0.933277,-0.398927,4.5226395,-0.8364625,-4.6954853,2.9706126,-1.11
 83616,1.0070616,-1.9729009,1.9220593,1.9611309,5.368739,-0.8366891,1.5
 994477,-6.1717356,1.0173992,8.4198231,-6.0142896,-0.8664196,-0.4820514
 ,-2.7639029,-0.7658506,-2.6369867,-0.4194754,-0.8218385,-1.1146255,-1.
 0631218,-1.1925997,-0.0267231,-4.2558317,-1.5301843,-1.422897,-3.77470
 9,-0.6790915,-5.5944502,3.2846565,-1.5501473,3.3760598,0.2327162,-0.84
 92014,0.2732193,-1.1777959,1.3827678,-8.6168091,-0.6474735,2.2022395,-
 1.8549626,0.6894163,-0.3800181,1.7477564,-0.306271,-1.8659178,1.418869
 2,-4.5536453,3.2909115,-3.9256854,0.9566613,-0.162064,-0.4065165,2.835
 9469,-4.1227104,10.6081621,-0.52309,0.4942512,1.5638384,-1.5470974,0.7
 411559,-1.6146613,0.6257328,1.7237222,-0.9288968,5.2895527,-0.4017097,
 1.7529343,2.0151196,0.999978,3.1642713,-2.2312559,0.837011,1.2706013,1
 .1380606,1.4568338,1.0613136,2.8386582,0.3806674,1.9615474,1.670915,2.
 1169662,7.6785278,-9.0999156,5.5204344,-4.5963935,-1.8999043,1.4657629
 ,-2.3979495,6.0332516,-3.5769727,3.0887035,1.5017148,-1.213008,1.65800
 5,-1.7633932,1.2943025,-1.472791,-2.2253926,1.4826282,-1.1527265,0.097
 7213,0.0206207,-0.2553747,-1.6121786,1.104767,-0.9453079,0.1119079,-0.
 2118084,0.6901885,1.1245996,-1.2421719,3.2849397,-1.6672908,0.5321787,
 -1.9523781,-1.2200006,3.365047,-16.5328712,-11.4125957,7.8446415,-4.27
 70128,-5.7712759,3.2279047,0.5347695,7.2847618,-5.7430088,4.296569,2.7
 162809,-3.9375849,2.5449404,-3.504601,1.7808035,-0.9450281,1.1531155,2
 .8789029,-26.1327753,-4.3350621,-0.1747977,-1.5348253,5.4990389,0.8976
 213,-6.8594114,0.4141853,-1.1874912,1.2926953,0.2754334,5.4106332,3.22
 14229,4.1294263,-0.9366539,2.913437,-1.6281348,-1.2012102,26.1943375,1
 8.1946474,-7.8211528,4.8171111,2.885125,-2.5802324,5.8213107,-5.730805
 3,8.0038377,-9.7603169,-1.5949541,1.695075,-3.8728162,-1.8848069,1.046
 0583,-2.1349012,1.2855718,-1.1372924,-0.0747304\HyperPolar=66.2742878,
 43.0476176,-9.1597762,12.3739504,-72.6861039,-37.0128387,5.9400479,191
 .0203657,-107.8680366,-79.2191278\Quadrupole=-4.7915521,0.9499162,3.84
 16358,8.2023501,-11.8627184,5.8739505\PG=C01 [X(C6H7N1O2S1)]\NImag=0\\
 0.56820203,-0.23603380,0.31331817,-0.06042825,-0.04062413,0.62572317,-
 0.27121125,0.12935668,0.00725385,0.47988613,0.13236638,-0.14146041,0.0
 0689424,-0.23717538,0.26267380,-0.00551982,0.01587171,-0.12862184,0.01
 070612,-0.06672762,0.50287978,-0.11836734,0.04084790,-0.04310352,-0.02
 782960,0.02689408,-0.02496424,0.67483431,0.03634500,-0.09170939,0.0529
 9408,0.03424777,-0.01385728,0.01981321,-0.33029534,0.33239308,-0.01049
 123,0.03159084,-0.22463385,-0.06970923,0.04790681,-0.01691460,-0.08271
 270,-0.02089632,0.59053786,0.01656389,-0.01116553,0.04326503,-0.008179
 04,0.01338664,-0.02223562,-0.23811973,0.09091554,0.14047460,0.39210233
 ,-0.00591753,0.01307232,-0.01421098,0.00947770,-0.00208836,0.02145654,
 0.08745644,-0.10187604,-0.05654653,-0.16780904,0.20061433,0.00267323,0
 .01200084,-0.07891920,0.00147222,0.00640783,-0.04224487,0.16538291,-0.
 07217697,-0.25453845,-0.12883943,-0.03001216,0.80130782,-0.04674145,0.
 03331020,0.00288668,-0.06040306,0.00802964,0.04287858,-0.04448307,0.03
 016147,0.03210434,-0.11390712,0.05416476,-0.02868862,0.25752560,0.0270
 4443,-0.00939030,0.00249434,0.00446605,-0.03854038,-0.00790248,0.03598
 477,-0.00900001,-0.01808775,0.05762397,-0.07344010,0.02422841,-0.12640
 948,0.12428782,0.04620309,-0.02566754,-0.02229369,0.06662777,-0.021977
 15,-0.15969808,-0.00926684,0.00759627,-0.00136906,-0.04994210,0.037104
 08,-0.07396575,-0.04381335,-0.00832826,0.28067256,-0.10459765,0.021802
 80,0.02416893,-0.01988696,0.00851020,0.02059339,0.01069462,-0.00630509
 ,0.00359610,0.00188008,0.00204591,-0.00696032,-0.00027130,0.00330026,-
 0.00178360,0.50297245,0.02477822,-0.07868720,-0.01240382,0.01128531,-0
 .00558278,-0.01619800,-0.00763875,0.00336690,0.00134024,-0.00010679,0.
 00092153,0.00349473,0.00453693,0.00356748,0.00286434,-0.04503807,0.556
 36233,0.01783154,-0.00064589,-0.13668956,0.01139834,-0.01065409,0.0079
 6338,0.01588044,-0.00574859,-0.03178952,-0.00189462,0.00265121,-0.0007
 0776,-0.00341961,0.00222097,0.00505620,0.12288186,-0.02948441,0.524316
 93,-0.02590789,-0.01178166,0.01692312,0.00067022,-0.00194242,0.0007732
 0,-0.00041179,-0.00022076,-0.00257265,-0.00066666,0.00031289,0.0005950
 1,0.00084140,0.00063658,0.00030804,-0.12256359,-0.05470834,0.00016075,
 0.52349650,0.00490896,0.00922206,0.00330607,0.00009451,0.00082909,-0.0
 0032607,0.00085238,-0.00014160,0.00036281,0.00073138,-0.00039935,-0.00
 044971,0.00007294,-0.00083993,-0.00173871,-0.05871034,-0.14680011,0.00
 857220,-0.05402954,0.52209553,0.03029078,0.01798301,-0.01386901,-0.002
 01531,0.00335422,-0.00002445,0.00229344,0.00008383,0.00064702,-0.00009
 385,-0.00069575,-0.00043053,0.00025603,-0.00125761,-0.00172436,-0.0029
 6273,0.00567423,-0.07509539,0.01324620,0.01455050,0.57132253,-0.003635
 29,-0.00344058,0.00125994,0.00088351,-0.00080609,-0.00016283,-0.000553
 23,0.00014404,-0.00071426,-0.00026481,0.00023181,0.00042384,-0.0000364
 1,0.00020310,0.00064362,-0.01269211,0.00730142,0.01601050,-0.13863178,
 0.03976607,0.11962762,0.14958579,-0.00567703,-0.00288188,0.00182647,0.
 00039687,-0.00069912,0.00028357,-0.00042720,0.00016888,-0.00031187,-0.
 00012991,0.00014183,0.00016389,-0.00018227,0.00043914,0.00075284,-0.01
 279886,0.00606723,0.01828855,0.04166930,-0.06468343,-0.05444221,-0.041
 82560,0.06737149,0.00077654,0.00049039,0.00104691,-0.00062520,0.000479
 40,0.00007770,-0.00001312,-0.00012563,0.00046794,-0.00000906,0.0000003
 6,0.00004914,0.00013809,-0.00013037,-0.00024694,0.00161554,-0.00118562
 ,-0.00407374,0.12088218,-0.05260264,-0.20210609,-0.13312551,0.05766328
 ,0.21634406,0.00160021,0.00053682,-0.00166300,-0.00022049,0.00033738,-
 0.00001102,-0.00023012,-0.00006084,0.00043063,-0.00018834,0.00010635,0
 .00022532,0.00010019,-0.00016427,0.00000974,-0.01522964,-0.00362075,-0
 .01800606,-0.13029298,-0.01640035,-0.12083662,0.01247489,0.00209928,0.
 01562636,0.14034535,0.00143769,0.00048438,-0.00042702,-0.00003287,0.00
 025701,0.00004284,-0.00017785,0.00016182,0.00000463,-0.00016445,0.0000
 5616,0.00022805,0.00005804,-0.00014878,0.00005785,-0.01530896,-0.00464
 653,-0.02217921,-0.01625395,-0.05161981,-0.02317178,-0.00481578,-0.001
 85780,-0.00618844,0.02279108,0.05365662,-0.00032034,0.00003883,0.00169
 616,0.00027794,-0.00035299,-0.00013562,-0.00015652,0.00020036,-0.00021
 458,-0.00001775,0.00001764,0.00005582,-0.00013894,0.00006402,0.0002162
 2,0.00540601,0.00112102,0.00457694,-0.12279275,-0.02529332,-0.22426526
 ,-0.01406784,-0.00208432,-0.01861545,0.13325868,0.02654572,0.24018335,
 0.00213353,-0.00006579,-0.00101010,-0.00007801,0.00021442,0.00005500,0
 .00005655,0.00011602,0.00031545,0.00011691,-0.00001472,-0.00016842,-0.
 00014633,-0.00002383,-0.00001065,0.00963504,-0.02330886,0.00623256,-0.
 10409549,0.10896424,-0.02801333,-0.00840528,0.01525041,-0.00530820,-0.
 00800486,0.01449382,-0.00231640,0.11069479,0.00065915,0.00111723,-0.00
 079708,-0.00008458,-0.00004691,0.00038621,-0.00001938,0.00011956,0.000
 11686,-0.00000257,0.00002566,-0.00013919,-0.00027107,0.00005574,0.0002
 7105,0.01023517,-0.02336204,0.00488231,0.10462660,-0.24366285,0.050830
 57,0.00271366,-0.00582114,0.00129991,-0.00244739,0.00518351,-0.0007373
 9,-0.11295942,0.26689759,-0.00128541,0.00044153,0.00056719,0.00031159,
 -0.00009830,-0.00013154,-0.00010515,0.00002430,-0.00030902,-0.00007817
 ,0.00006160,0.00011044,0.00000179,-0.00002622,0.00006966,-0.00017284,0
 .00462857,-0.00238712,-0.02836421,0.05099662,-0.06121441,0.01045409,-0
 .02208761,0.00663422,-0.01107120,0.02308020,-0.00503425,0.02928577,-0.
 05685695,0.06059719,-0.01722821,0.02035322,0.00035190,0.00108287,-0.00
 010547,0.00284615,0.00048094,0.00003754,-0.00187647,-0.00013224,-0.000
 13593,0.00009734,-0.00076538,0.00013836,0.00035328,-0.09678264,0.09908
 744,-0.02623491,0.01112154,-0.02241687,0.00562313,0.00081134,0.0010465
 7,-0.00017869,0.00093878,0.00082017,-0.00033131,-0.00301321,-0.0038890
 9,0.00054746,0.10999395,0.00555577,-0.00594315,0.00003421,-0.00098600,
 0.00048651,-0.00067507,-0.00008701,0.00095790,0.00175010,0.00024090,0.
 00007164,-0.00033865,-0.00012302,0.00016649,-0.00019710,0.10343326,-0.
 25413137,0.05041182,0.00834373,-0.02027679,0.00629959,0.00002455,0.000
 83484,0.00014492,0.00041690,0.00096447,-0.00063404,-0.00363125,-0.0018
 2202,0.00054791,-0.11077854,0.27304956,0.02128679,-0.02885464,-0.00083
 746,-0.00043423,-0.00016025,-0.00351943,0.00142078,-0.00133959,0.00103
 304,0.00010243,-0.00053691,0.00041930,0.00162080,0.00023838,-0.0011998
 7,-0.03398275,0.06007945,-0.06643234,-0.00260986,0.00308496,-0.0005433
 8,0.00005472,0.00012604,0.00012059,0.00066236,-0.00034393,0.00037130,0
 .00095995,0.00070063,0.00092946,0.02173940,-0.05712278,0.07238273,0.01
 210778,0.00213658,0.02559402,0.00152253,0.00033125,-0.00044572,-0.0025
 7774,0.00208619,0.00153551,-0.00034618,-0.00054625,0.00125684,-0.00012
 406,-0.00037762,0.00037502,-0.15003761,-0.01710997,-0.14156469,-0.0138
 0291,-0.00334592,-0.01703168,0.00045055,0.00050622,0.00015799,-0.00171
 873,-0.00308678,0.00137562,0.00115572,0.00055500,0.00025099,-0.0058015
 1,-0.00176882,-0.00837309,0.16300221,-0.00369943,-0.00125628,-0.008098
 95,-0.00058445,0.00024757,-0.00006280,0.00072065,-0.00058838,0.0004820
 5,0.00020501,0.00016631,-0.00008182,0.00021437,0.00005095,-0.00049928,
 -0.01259157,-0.05074312,-0.01827620,-0.01627820,-0.00337704,-0.0198425
 8,0.00069058,0.00097577,0.00026140,-0.00353498,-0.00306486,0.00096949,
 0.00085693,0.00077109,-0.00050014,0.01481934,0.00472802,0.02260957,0.0
 1894152,0.05192337,-0.01032777,-0.00189532,-0.03014005,-0.00121916,0.0
 0111549,0.00059820,0.00262086,-0.00291968,-0.00045856,0.00008045,0.000
 27420,-0.00135212,-0.00002590,0.00043369,-0.00041404,-0.12834025,-0.02
 437613,-0.22656917,0.00331235,0.00037768,0.00736749,-0.00047478,-0.000
 33940,0.00030625,0.00135785,0.00197132,0.00087357,-0.00010594,-0.00004
 152,0.00010033,-0.00212953,0.00055711,-0.00129037,0.13722522,0.0231751
 2,0.25247087,-0.00199671,0.00047608,0.00086254,0.00134034,0.00102353,0
 .00022992,-0.25808435,0.14681134,-0.03249580,-0.00629638,0.00773545,-0
 .00424760,0.00125523,0.00286051,0.00164775,-0.00049032,-0.00047527,0.0
 0080827,0.00018290,0.00000900,0.00001066,-0.00000318,0.00002144,-0.000
 01157,0.00069593,0.00001377,-0.00002360,-0.00003375,-0.00002322,-0.000
 03268,0.00021208,-0.00035835,-0.00027140,0.00005890,-0.00012489,0.0000
 0110,0.26363569,0.00492532,-0.00433039,-0.00054398,0.00093877,0.002178
 99,0.00133628,0.14560412,-0.12553113,0.02497371,0.00457188,0.00202890,
 0.00218515,0.00266194,0.00457383,0.00013519,-0.00075962,-0.00065287,-0
 .00064347,0.00005693,-0.00010072,0.00024994,-0.00008373,-0.00001656,-0
 .00010297,-0.00013957,0.00014438,0.00015498,-0.00001012,0.00002226,-0.
 00006966,0.00000797,0.00062874,-0.00007353,0.00004837,0.00014053,-0.00
 008890,-0.15629165,0.12309285,-0.02783163,0.01790542,-0.00520271,0.001
 21711,0.00064753,-0.00669659,-0.02372530,0.01903660,-0.05963665,0.0162
 0760,-0.01056854,0.00858088,0.00352945,-0.00114858,-0.00060632,-0.0015
 6694,0.00148638,0.00091305,0.00011318,-0.00004369,-0.00012840,0.000006
 64,-0.00000201,0.00003443,0.00002944,0.00025652,0.00030498,-0.00003747
 ,-0.00010486,0.00008976,-0.00018624,-0.00063312,-0.00041365,0.00007775
 ,-0.00025761,0.00005520,0.03378239,-0.02686680,0.06113411,-0.00028940,
 0.00380365,0.00424561,-0.00476598,0.00438855,-0.00117835,0.00661583,-0
 .00651125,0.01726191,-0.04336800,0.01251276,-0.00710758,0.00053963,0.0
 0041888,-0.01782230,0.00108801,0.00006423,0.00061667,-0.00002101,-0.00
 001034,-0.00004157,0.00000788,-0.00001431,0.00000914,0.00001332,-0.000
 01716,-0.00000207,-0.00001570,-0.00002655,0.00000402,0.00000999,-0.000
 03579,-0.00005004,-0.00034615,0.00010717,0.00029569,-0.00075118,-0.001
 79078,-0.00098014,0.04005020,0.00436597,0.00473895,-0.00174354,0.00413
 044,-0.00075710,0.00069813,-0.00284304,0.00387542,-0.00951762,0.011817
 00,-0.04149893,0.05638937,-0.00239163,-0.00342500,0.01092699,-0.000227
 53,0.00088863,-0.00001635,0.00005624,-0.00008205,-0.00017569,0.0000674
 1,0.00002145,0.00001592,0.00000763,-0.00000028,0.00002715,-0.00000854,
 -0.00000972,0.00001095,-0.00002205,-0.00004323,0.00010533,0.00005176,-
 0.00003001,-0.00001449,-0.00191113,-0.00269835,-0.00001936,-0.01315082
 ,0.03778442,0.00268514,-0.00040722,-0.00024544,0.00014383,0.00003720,0
 .00119151,-0.00502919,0.00446861,-0.00789891,-0.00339431,0.05394150,-0
 .35594124,0.00022087,-0.00035649,-0.00189366,-0.00047515,0.00027839,0.
 00001389,0.00002064,-0.00003729,-0.00007721,0.00001729,0.00002356,0.00
 000670,0.00000297,0.00000407,0.00001426,-0.00000067,0.00000844,0.00000
 448,-0.00000213,-0.00000013,0.00002019,0.00008190,0.00000123,-0.000093
 31,-0.00019052,-0.00051794,0.00018195,0.00588721,-0.05763649,0.3646726
 7,-0.01203571,0.00927404,-0.01478402,-0.06260761,-0.00185735,-0.016817
 44,-0.00118962,0.00271484,0.00639157,0.00260048,-0.00183897,0.00587703
 ,0.00807271,-0.00736404,0.01236218,-0.00155884,-0.00084513,-0.00073885
 ,-0.00040455,-0.00039030,0.00009387,0.00050094,-0.00003804,-0.00008122
 ,0.00053227,0.00002368,0.00025819,-0.00103956,-0.00068151,0.00026301,0
 .00100860,-0.00034558,0.00062941,-0.00205441,0.00253009,0.00042161,0.0
 0054129,0.00071788,0.00029503,0.00147631,0.00053528,0.00000898,0.57652
 977,0.00889166,-0.00723296,0.00689483,-0.00414895,-0.06741135,0.015913
 22,0.00306964,0.00350307,-0.00489512,-0.00240991,0.00285520,-0.0036245
 3,-0.00462334,0.00325865,-0.00446264,-0.00021363,-0.00327342,-0.000310
 90,-0.00027446,0.00086607,0.00048360,-0.00047026,-0.00030969,0.0001094
 3,-0.00028961,0.00001865,-0.00017135,0.00027111,0.00041495,-0.00008837
 ,-0.00045844,0.00023765,-0.00032870,0.00103501,-0.00108294,-0.00075754
 ,0.00062723,0.00132728,-0.00015424,0.00047518,0.00198173,0.00035444,-0
 .22087216,0.34355589,-0.00890903,0.00253261,0.01539048,-0.00744236,0.0
 0944593,-0.09326039,0.00518950,-0.00409555,0.01259733,0.00905586,-0.00
 543646,0.00095183,-0.00390972,0.00567532,-0.02368496,-0.00468308,0.004
 54506,0.00290386,0.00011540,-0.00200140,-0.00153396,0.00051677,0.00056
 944,-0.00010884,-0.00052427,0.00029255,-0.00003608,0.00066060,0.001061
 34,0.00032416,-0.00076761,-0.00027596,-0.00257988,0.00441664,-0.004848
 06,-0.00031893,0.00052165,-0.00041552,0.00159174,0.00072991,-0.0001366
 5,0.00006835,-0.22305366,0.09661051,0.63980377,-0.00032125,-0.00065658
 ,0.00240804,0.01256651,0.00392347,0.00101743,0.00104005,-0.00090979,0.
 00105591,0.00039063,-0.00026681,-0.00080130,0.00009770,0.00155043,-0.0
 0488051,-0.00329784,0.00588913,0.00075846,0.00048404,-0.00062432,-0.00
 033372,-0.00017746,0.00019971,0.00004529,-0.00052187,0.00028259,-0.000
 25720,0.00062020,0.00125391,0.00006922,-0.00135490,-0.00007063,-0.0023
 1497,-0.00256083,-0.00063469,-0.00276422,0.00004861,-0.00019585,0.0000
 7962,-0.00012636,-0.00041289,-0.00001879,-0.14882715,0.03407867,0.1489
 8329,0.17856872,-0.00037406,0.00014660,-0.00189756,0.00400114,0.015444
 69,0.00919200,-0.00097274,0.00000593,0.00007975,-0.00002880,-0.0003730
 0,0.00095683,0.00112830,-0.00016591,0.00330907,0.00332316,-0.00406162,
 -0.00014239,-0.00027738,-0.00068109,0.00023947,0.00001500,0.00016265,-
 0.00005776,0.00016149,0.00045291,0.00001934,0.00017835,0.00047054,-0.0
 0011266,0.00114641,0.00022797,0.00160477,0.00105616,0.00018979,0.00263
 635,-0.00013373,-0.00009741,-0.00006908,-0.00024653,-0.00053389,-0.000
 11344,0.03236913,-0.08662564,-0.05530604,-0.07727020,0.06862861,0.0047
 5315,-0.00275523,0.00087638,0.00533431,0.00646491,-0.06616703,-0.00096
 012,0.00128980,-0.00528937,-0.00185868,0.00186724,-0.00451331,-0.00455
 092,0.00312140,-0.00001268,0.00094643,-0.00058561,-0.00060837,0.000013
 82,0.00091405,0.00119237,-0.00035706,-0.00026254,0.00002339,0.00031009
 ,-0.00014576,-0.00000512,-0.00028854,-0.00056337,-0.00026275,-0.000024
 20,0.00006283,0.00076166,-0.00378833,0.00345354,-0.00127291,-0.0002309
 0,0.00018701,-0.00016698,-0.00134162,0.00079670,0.00000618,0.15848941,
 -0.06305571,-0.44241624,-0.21501048,0.08257991,0.54296189,0.00172470,0
 .00124599,-0.00823078,-0.04277012,0.04248116,-0.00776475,-0.00187570,0
 .00072333,-0.00259367,-0.00218583,0.00248519,-0.00119047,-0.00155428,0
 .00011189,-0.00101114,0.00113831,-0.00009074,-0.00072064,0.00000207,0.
 00052852,-0.00011293,-0.00031534,-0.00009657,0.00010145,-0.00029393,-0
 .00006304,-0.00015171,0.00041946,0.00036132,-0.00007829,-0.00058200,0.
 00016988,-0.00044027,0.00107243,-0.00163745,0.00007242,-0.00031509,-0.
 00026185,-0.00101049,-0.00011738,-0.00006411,0.00004194,-0.36154491,0.
 18531226,0.07910012,-0.03662879,0.03592431,0.05856366,0.44382640,0.000
 42332,0.00079225,0.00630283,0.04461700,-0.01167398,0.00689833,0.001031
 35,-0.00184872,0.00164741,0.00232469,-0.00027809,0.00076795,-0.0003377
 8,-0.00144969,-0.00014700,-0.00069709,0.00076694,0.00107444,0.00006445
 ,-0.00034799,-0.00016330,0.00028439,0.00008633,-0.00007158,0.00020084,
 -0.00004186,0.00011486,-0.00032278,-0.00035345,0.00004823,0.00034938,-
 0.00013722,0.00021119,-0.00051270,0.00094925,-0.00010800,-0.00026009,-
 0.00071033,0.00053542,0.00003311,-0.00021203,-0.00004843,0.18606813,-0
 .19208315,-0.04821713,0.03386386,0.00680886,-0.03336917,-0.26713009,0.
 19973288,-0.00138676,0.00199477,-0.00384750,-0.02329759,0.01721685,0.0
 0470387,-0.00275121,0.00179527,-0.00223060,-0.00082238,0.00063297,0.00
 113799,0.00091044,-0.00123878,0.00109478,0.00171942,-0.00127883,-0.001
 39125,-0.00012442,0.00032795,0.00048303,-0.00011274,-0.00016769,0.0000
 3974,0.00019873,-0.00002762,0.00001375,-0.00024962,-0.00031696,-0.0000
 8780,0.00017244,0.00006837,0.00077812,-0.00114400,0.00151504,0.0001375
 5,-0.00036021,0.00010052,-0.00003481,-0.00052649,0.00028965,-0.0000304
 0,0.07038488,-0.04251693,-0.10969224,0.07196393,-0.04291855,-0.0251071
 0,-0.11457442,0.06452397,0.13403286\\-0.00000017,-0.00000092,-0.000002
 11,0.00000017,0.00000118,0.00000175,0.00000267,-0.00000321,-0.00000310
 ,0.00000568,-0.00000305,-0.00000018,0.00000878,-0.00000004,0.00000760,
 -0.00000352,-0.00000050,-0.00000454,-0.00000299,-0.00000155,-0.0000056
 3,-0.00000234,-0.00000053,-0.00000308,-0.00000005,-0.00000198,-0.00000
 322,-0.00000046,-0.00000081,-0.00000093,-0.00000214,-0.00000051,-0.000
 00300,-0.00000244,0.00000071,-0.00000099,0.00000031,-0.00000174,-0.000
 00264,0.00000343,-0.00000187,-0.00000023,-0.00000361,0.00000551,0.0000
 0167,-0.00001040,0.00000742,0.00001157,0.00000709,0.00000189,0.0000070
 5\\\@
 The archive entry for this job was punched.


 GARBAGE IN, GARBAGE OUT
 Job cpu time:       0 days  0 hours 48 minutes 31.9 seconds.
 Elapsed time:       0 days  0 hours 25 minutes  5.1 seconds.
 File lengths (MBytes):  RWF=    203 Int=      0 D2E=      0 Chk=     23 Scr=      1
 Normal termination of Gaussian 16 at Fri Jun  2 14:24:36 2023.
