 Entering Gaussian System, Link 0=g16
 Input=choline-isolated-freq.gjf
 Output=choline-isolated-freq.log
 Initial command:
 /software/commercial/gaussian/g16/AVX/g16/l1.exe "/scratch1/svicchi/G09-659738.pbs02/Gau-236801.inp" -scrdir="/scratch1/svicchi/G09-659738.pbs02/"
 Entering Link 1 = /software/commercial/gaussian/g16/AVX/g16/l1.exe PID=    236802.
  
 Copyright (c) 1988-2019, Gaussian, Inc.  All Rights Reserved.
  
 This is part of the Gaussian(R) 16 program.  It is based on
 the Gaussian(R) 09 system (copyright 2009, Gaussian, Inc.),
 the Gaussian(R) 03 system (copyright 2003, Gaussian, Inc.),
 the Gaussian(R) 98 system (copyright 1998, Gaussian, Inc.),
 the Gaussian(R) 94 system (copyright 1995, Gaussian, Inc.),
 the Gaussian 92(TM) system (copyright 1992, Gaussian, Inc.),
 the Gaussian 90(TM) system (copyright 1990, Gaussian, Inc.),
 the Gaussian 88(TM) system (copyright 1988, Gaussian, Inc.),
 the Gaussian 86(TM) system (copyright 1986, Carnegie Mellon
 University), and the Gaussian 82(TM) system (copyright 1983,
 Carnegie Mellon University). Gaussian is a federally registered
 trademark of Gaussian, Inc.
  
 This software contains proprietary and confidential information,
 including trade secrets, belonging to Gaussian, Inc.
  
 This software is provided under written license and may be
 used, copied, transmitted, or stored only in accord with that
 written license.
  
 The following legend is applicable only to US Government
 contracts under FAR:
  
                    RESTRICTED RIGHTS LEGEND
  
 Use, reproduction and disclosure by the US Government is
 subject to restrictions as set forth in subparagraphs (a)
 and (c) of the Commercial Computer Software - Restricted
 Rights clause in FAR 52.227-19.
  
 Gaussian, Inc.
 340 Quinnipiac St., Bldg. 40, Wallingford CT 06492
  
  
 ---------------------------------------------------------------
 Warning -- This program may not be used in any manner that
 competes with the business of Gaussian, Inc. or will provide
 assistance to any competitor of Gaussian, Inc.  The licensee
 of this program is prohibited from giving any competitor of
 Gaussian, Inc. access to this program.  By using this program,
 the user acknowledges that Gaussian, Inc. is engaged in the
 business of creating and licensing software in the field of
 computational chemistry and represents and warrants to the
 licensee that it is not a competitor of Gaussian, Inc. and that
 it will not use this program in any manner prohibited above.
 ---------------------------------------------------------------
  

 Cite this work as:
 Gaussian 16, Revision C.01,
 M. J. Frisch, G. W. Trucks, H. B. Schlegel, G. E. Scuseria, 
 M. A. Robb, J. R. Cheeseman, G. Scalmani, V. Barone, 
 G. A. Petersson, H. Nakatsuji, X. Li, M. Caricato, A. V. Marenich, 
 J. Bloino, B. G. Janesko, R. Gomperts, B. Mennucci, H. P. Hratchian, 
 J. V. Ortiz, A. F. Izmaylov, J. L. Sonnenberg, D. Williams-Young, 
 F. Ding, F. Lipparini, F. Egidi, J. Goings, B. Peng, A. Petrone, 
 T. Henderson, D. Ranasinghe, V. G. Zakrzewski, J. Gao, N. Rega, 
 G. Zheng, W. Liang, M. Hada, M. Ehara, K. Toyota, R. Fukuda, 
 J. Hasegawa, M. Ishida, T. Nakajima, Y. Honda, O. Kitao, H. Nakai, 
 T. Vreven, K. Throssell, J. A. Montgomery, Jr., J. E. Peralta, 
 F. Ogliaro, M. J. Bearpark, J. J. Heyd, E. N. Brothers, K. N. Kudin, 
 V. N. Staroverov, T. A. Keith, R. Kobayashi, J. Normand, 
 K. Raghavachari, A. P. Rendell, J. C. Burant, S. S. Iyengar, 
 J. Tomasi, M. Cossi, J. M. Millam, M. Klene, C. Adamo, R. Cammi, 
 J. W. Ochterski, R. L. Martin, K. Morokuma, O. Farkas, 
 J. B. Foresman, and D. J. Fox, Gaussian, Inc., Wallingford CT, 2019.
 
 ******************************************
 Gaussian 16:  ES64L-G16RevC.01  3-Jul-2019
                 2-Jun-2023 
 ******************************************
 %NProcShared=2
 Will use up to    2 processors via shared memory.
 %mem=55gb
 %chk=/scratch1/svicchi/G09-659738.pbs02/02-freq/choline-isolated-freq.chk
 ----------------------------------------------------------------------
 #p freq=raman scale=0.967 pop=(nbo,full,hirshfeld) guess=read geom=all
 check b3lyp/6-311+G(d,p) int=grid=ultrafine EmpiricalDispersion=GD3BJ 
 SCRF=(Solvent=ethanol) scf=(xqc,intrep,maxconventionalcycle=350) nosym
 m
 ----------------------------------------------------------------------
 1/10=4,29=7,30=1,38=1,114=967000/1,3;
 2/12=2,15=1,40=1/2;
 3/5=4,6=6,7=111,11=2,14=-4,25=1,30=1,70=2201,71=2,72=4,74=-5,75=-5,116=-2,124=41,140=1/1,2,3;
 4/5=1/1;
 5/5=2,8=3,13=1,17=20,38=6,53=4,85=350,98=1/2,8;
 8/6=4,10=90,11=11/1;
 10/13=10,15=4,31=1/2;
 11/6=3,8=1,9=11,15=111,16=1,31=1/1,2,10;
 10/6=1,31=1/2;
 6/7=3,28=1,40=1,79=1/1,7;
 7/8=1,10=1,25=1,30=1/1,2,3,16;
 1/10=4,30=1/3;
 99//99;
 Leave Link    1 at Fri Jun  2 11:43:55 2023, MaxMem=  7381975040 cpu:               1.0 elap:               1.2
 (Enter /software/commercial/gaussian/g16/AVX/g16/l101.exe)
 Structure from the checkpoint file:  "/scratch1/svicchi/G09-659738.pbs02/02-freq/choline-isolated-freq.chk"
 --------------------
 choline-isolated.gjf
 --------------------
 Charge =  1 Multiplicity = 1
 No Z-Matrix found in chk file; cartesian coordinates used.
  N                                                -4.904436201563      1.792123180879      0.046832612415
  C                                                -6.146933095883      1.743570147497     -0.799837979669
  H                                                -6.282881005920      2.713521546522     -1.272797665390
  H                                                -6.994270520760      1.517875604539     -0.156703235050
  H                                                -6.028138926436      0.969199460196     -1.553964829937
  C                                                -5.121403600811      2.790251831639      1.155372504417
  H                                                -5.964226317873      2.451771636501      1.753634437894
  H                                                -5.344565694014      3.755551905031      0.706698221966
  H                                                -4.215973205766      2.851236793982      1.748811074377
  C                                                -4.663332838019      0.433653568099      0.638739010866
  H                                                -3.836741876599      0.493772823331      1.340739416561
  H                                                -4.436808710923     -0.265585298065     -0.163018031048
  H                                                -5.567169038130      0.124917542117      1.158416135484
  C                                                -3.750119120293      2.220395407383     -0.853126431440
  C                                                -2.352744931982      2.003379140827     -0.311168557061
  H                                                -3.919998023073      3.272732418879     -1.077671621695
  H                                                -3.851914255586      1.645943864796     -1.773293182236
  O                                                -2.151292970352      2.790977966766      0.858476904679
  H                                                -1.674066866769      2.308449755576     -1.115319915030
  H                                                -2.167299627122      0.944732567737     -0.109158087078
  H                                                -1.251182172128      2.652897135768      1.173318216972
 Recover connectivity data from disk.
 ITRead=  0  0  0  0  0  0  0  0  0  0  0  0  0  0  0  0  0  0  0  0
 ITRead=  0
 MicOpt= -1 -1 -1 -1 -1 -1 -1 -1 -1 -1 -1 -1 -1 -1 -1 -1 -1 -1 -1 -1
 MicOpt= -1
 NAtoms=     21 NQM=       21 NQMF=       0 NMMI=      0 NMMIF=      0
                NMic=       0 NMicF=      0.
                    Isotopes and Nuclear Properties:
 (Nuclear quadrupole moments (NQMom) in fm**2, nuclear magnetic moments (NMagM)
  in nuclear magnetons)

  Atom         1           2           3           4           5           6           7           8           9          10
 IAtWgt=          14          12           1           1           1          12           1           1           1          12
 AtmWgt=  14.0030740  12.0000000   1.0078250   1.0078250   1.0078250  12.0000000   1.0078250   1.0078250   1.0078250  12.0000000
 NucSpn=           2           0           1           1           1           0           1           1           1           0
 AtZEff=   4.5500000   3.6000000   1.0000000   1.0000000   1.0000000   3.6000000   1.0000000   1.0000000   1.0000000   3.6000000
 NQMom=    2.0440000   0.0000000   0.0000000   0.0000000   0.0000000   0.0000000   0.0000000   0.0000000   0.0000000   0.0000000
 NMagM=    0.4037610   0.0000000   2.7928460   2.7928460   2.7928460   0.0000000   2.7928460   2.7928460   2.7928460   0.0000000
 AtZNuc=   7.0000000   6.0000000   1.0000000   1.0000000   1.0000000   6.0000000   1.0000000   1.0000000   1.0000000   6.0000000

  Atom        11          12          13          14          15          16          17          18          19          20
 IAtWgt=           1           1           1          12          12           1           1          16           1           1
 AtmWgt=   1.0078250   1.0078250   1.0078250  12.0000000  12.0000000   1.0078250   1.0078250  15.9949146   1.0078250   1.0078250
 NucSpn=           1           1           1           0           0           1           1           0           1           1
 AtZEff=   1.0000000   1.0000000   1.0000000   3.6000000   3.6000000   1.0000000   1.0000000   5.6000000   1.0000000   1.0000000
 NQMom=    0.0000000   0.0000000   0.0000000   0.0000000   0.0000000   0.0000000   0.0000000   0.0000000   0.0000000   0.0000000
 NMagM=    2.7928460   2.7928460   2.7928460   0.0000000   0.0000000   2.7928460   2.7928460   0.0000000   2.7928460   2.7928460
 AtZNuc=   1.0000000   1.0000000   1.0000000   6.0000000   6.0000000   1.0000000   1.0000000   8.0000000   1.0000000   1.0000000

  Atom        21
 IAtWgt=           1
 AtmWgt=   1.0078250
 NucSpn=           1
 AtZEff=   1.0000000
 NQMom=    0.0000000
 NMagM=    2.7928460
 AtZNuc=   1.0000000
 Leave Link  101 at Fri Jun  2 11:43:57 2023, MaxMem=  7381975040 cpu:               0.3 elap:               1.4
 (Enter /software/commercial/gaussian/g16/AVX/g16/l103.exe)

 GradGradGradGradGradGradGradGradGradGradGradGradGradGradGradGradGradGrad
 Berny optimization.
 Initialization pass.
 Trust Radius=3.00D-01 FncErr=1.00D-07 GrdErr=1.00D-07 EigMax=2.50D+02 EigMin=1.00D-04
 Number of steps in this run=      2 maximum allowed number of steps=      2.
 GradGradGradGradGradGradGradGradGradGradGradGradGradGradGradGradGradGrad

 Leave Link  103 at Fri Jun  2 11:43:59 2023, MaxMem=  7381975040 cpu:               0.0 elap:               0.6
 (Enter /software/commercial/gaussian/g16/AVX/g16/l202.exe)
                          Input orientation:                          
 ---------------------------------------------------------------------
 Center     Atomic      Atomic             Coordinates (Angstroms)
 Number     Number       Type             X           Y           Z
 ---------------------------------------------------------------------
      1          7           0       -4.904436    1.792123    0.046833
      2          6           0       -6.146933    1.743570   -0.799838
      3          1           0       -6.282881    2.713522   -1.272798
      4          1           0       -6.994271    1.517876   -0.156703
      5          1           0       -6.028139    0.969199   -1.553965
      6          6           0       -5.121404    2.790252    1.155373
      7          1           0       -5.964226    2.451772    1.753634
      8          1           0       -5.344566    3.755552    0.706698
      9          1           0       -4.215973    2.851237    1.748811
     10          6           0       -4.663333    0.433654    0.638739
     11          1           0       -3.836742    0.493773    1.340739
     12          1           0       -4.436809   -0.265585   -0.163018
     13          1           0       -5.567169    0.124918    1.158416
     14          6           0       -3.750119    2.220395   -0.853126
     15          6           0       -2.352745    2.003379   -0.311169
     16          1           0       -3.919998    3.272732   -1.077672
     17          1           0       -3.851914    1.645944   -1.773293
     18          8           0       -2.151293    2.790978    0.858477
     19          1           0       -1.674067    2.308450   -1.115320
     20          1           0       -2.167300    0.944733   -0.109158
     21          1           0       -1.251182    2.652897    1.173318
 ---------------------------------------------------------------------
                    Distance matrix (angstroms):
                    1          2          3          4          5
     1  N    0.000000
     2  C    1.504329   0.000000
     3  H    2.119082   1.087648   0.000000
     4  H    2.117557   1.087447   1.783623   0.000000
     5  H    2.121901   1.087414   1.785107   1.785160   0.000000
     6  C    1.507381   2.443379   2.692755   2.616890   3.388054
     7  H    2.114584   2.656154   3.054398   2.362741   3.625234
     8  H    2.117590   2.638468   2.425833   2.911045   3.652620
     9  H    2.119536   3.383954   3.663495   3.623227   4.211216
    10  C    1.501307   2.446723   3.387434   2.691010   2.637699
    11  H    2.121292   3.388370   4.212061   3.641580   3.661634
    12  H    2.120584   2.714180   3.676231   3.117913   2.447807
    13  H    2.110547   2.605940   3.622694   2.388826   2.877901
    14  C    1.525055   2.444365   2.614226   3.391616   2.691847
    15  C    2.585328   3.834340   4.107919   4.669404   4.015295
    16  H    2.103766   2.715653   2.435982   3.657712   3.158699
    17  H    2.107612   2.494846   2.701817   3.536123   2.289551
    18  O    3.039124   4.451091   4.649554   5.109385   4.916166
    19  H    3.471668   4.519419   4.629260   5.463380   4.576455
    20  H    2.869551   4.117361   4.628248   4.861111   4.122396
    21  H    3.918695   5.356174   5.595101   6.003357   5.752584
                    6          7          8          9         10
     6  C    0.000000
     7  H    1.087583   0.000000
     8  H    1.087619   1.783227   0.000000
     9  H    1.084294   1.793317   1.782556   0.000000
    10  C    2.455666   2.647285   3.391711   2.697610   0.000000
    11  H    2.637903   2.920690   3.648937   2.422390   1.086127
    12  H    3.397788   3.659316   4.213072   3.663119   1.087687
    13  H    2.702355   2.434377   3.665393   3.099534   1.087337
    14  C    2.497844   3.427974   2.707770   2.717547   2.500414
    15  C    3.230384   4.184168   3.613468   2.904135   2.950454
    16  H    2.581211   3.587358   2.333770   2.873024   3.399850
    17  H    3.390889   4.189324   3.581733   3.740386   2.818856
    18  O    2.984913   3.931263   3.339226   2.249273   3.451899
    19  H    4.155997   5.163033   4.345850   3.867706   3.940469
    20  H    3.705632   4.489746   4.319878   3.359147   2.655322
    21  H    3.872700   4.752894   4.264900   3.026635   4.105312
                   11         12         13         14         15
    11  H    0.000000
    12  H    1.788293   0.000000
    13  H    1.778672   1.782244   0.000000
    14  C    2.793166   2.669811   3.426223   0.000000
    15  C    2.685137   3.084391   4.002602   1.514420   0.000000
    16  H    3.684869   3.690986   4.197857   1.089354   2.157560
    17  H    3.320381   2.566911   3.721631   1.089525   2.124400
    18  O    2.889717   3.950900   4.343507   2.410684   1.424418
    19  H    3.741984   3.894262   5.009385   2.094395   1.095596
    20  H    2.256680   2.572633   3.719940   2.164745   1.093586
    21  H    3.372679   4.522339   5.001864   3.246263   1.959340
                   16         17         18         19         20
    16  H    0.000000
    17  H    1.770583   0.000000
    18  O    2.666285   3.336080   0.000000
    19  H    2.444476   2.369570   2.087212   0.000000
    20  H    3.070758   2.469609   2.084513   1.765040   0.000000
    21  H    3.545945   4.057127   0.963530   2.352730   2.324186
                   21
    21  H    0.000000
 Symmetry turned off by external request.
 Stoichiometry    C5H14NO(1+)
 Framework group  C1[X(C5H14NO)]
 Deg. of freedom    57
 Full point group                 C1      NOp   1
 Rotational constants (GHZ):           3.9730480           1.7725204           1.6908959
 Leave Link  202 at Fri Jun  2 11:44:00 2023, MaxMem=  7381975040 cpu:               0.1 elap:               0.5
 (Enter /software/commercial/gaussian/g16/AVX/g16/l301.exe)
 Standard basis: 6-311+G(d,p) (5D, 7F)
 Ernie: Thresh=  0.10000D-02 Tol=  0.10000D-05 Strict=F.
   238 basis functions,   364 primitive gaussians,   245 cartesian basis functions
    29 alpha electrons       29 beta electrons
       nuclear repulsion energy       361.6486170937 Hartrees.
 IExCor=  402 DFT=T Ex+Corr=B3LYP ExCW=0 ScaHFX=  0.200000
 ScaDFX=  0.800000  0.720000  1.000000  0.810000 ScalE2=  1.000000  1.000000
 IRadAn=      5 IRanWt=     -1 IRanGd=            0 ICorTp=0 IEmpDi=141
 NAtoms=   21 NActive=   21 NUniq=   21 SFac= 1.00D+00 NAtFMM=   60 NAOKFM=F Big=F
 Integral buffers will be    131072 words long.
 Raffenetti 2 integral format.
 Two-electron integral symmetry is turned off.
 R6Disp:  Grimme-D3(BJ) Dispersion energy=       -0.0313024056 Hartrees.
 Nuclear repulsion after empirical dispersion term =      361.6173146881 Hartrees.
 Force inversion solution in PCM.
 ------------------------------------------------------------------------------
 Polarizable Continuum Model (PCM)
 =================================
 Model                : PCM.
 Atomic radii         : UFF (Universal Force Field).
 Polarization charges : Total charges.
 Charge compensation  : None.
 Solution method      : Matrix inversion.
 Cavity type          : Scaled VdW (van der Waals Surface) (Alpha=1.100).
 Cavity algorithm     : GePol (No added spheres)
                        Default sphere list used, NSphG=   21.
                        Lebedev-Laikov grids with approx.  5.0 points / Ang**2.
                        Smoothing algorithm: York/Karplus (Gamma=1.0000).
                        Polarization charges: spherical gaussians, with
                                              point-specific exponents (IZeta= 3).
                        Self-potential: point-specific (ISelfS= 7).
                        Self-field    : sphere-specific E.n sum rule (ISelfD= 2).
 1st derivatives      : Analytical E(r).r(x)/FMM algorithm (CHGder, D1EAlg=3).
                        Cavity 1st derivative terms included.
 2nd derivatives      : Analytical E(r).r(xy)/FMM algorithm (CHGder, D2EAlg=3).
                        Cavity 2nd derivative terms included.
 Solvent              : Ethanol, Eps=  24.852000 Eps(inf)=   1.852593
 ------------------------------------------------------------------------------
 GePol: Number of generator spheres                  =      21
 GePol: Total number of spheres                      =      21
 GePol: Number of exposed spheres                    =      20 ( 95.24%)
 GePol: Number of points                             =    1355
 GePol: Average weight of points                     =       0.14
 GePol: Minimum weight of points                     =   0.24D-09
 GePol: Maximum weight of points                     =    0.20577
 GePol: Number of points with low weight             =      76
 GePol: Fraction of low-weight points (<1% of avg)   =       5.61%
 GePol: Cavity surface area                          =    183.792 Ang**2
 GePol: Cavity volume                                =    185.133 Ang**3
 Leave Link  301 at Fri Jun  2 11:44:03 2023, MaxMem=  7381975040 cpu:               1.1 elap:               1.6
 (Enter /software/commercial/gaussian/g16/AVX/g16/l302.exe)
 NPDir=0 NMtPBC=     1 NCelOv=     1 NCel=       1 NClECP=     1 NCelD=      1
         NCelK=      1 NCelE2=     1 NClLst=     1 CellRange=     0.0.
 One-electron integrals computed using PRISM.
 NBasis=   238 RedAO= T EigKep=  2.97D-05  NBF=   238
 NBsUse=   238 1.00D-06 EigRej= -1.00D+00 NBFU=   238
 Precomputing XC quadrature grid using
 IXCGrd= 4 IRadAn=           5 IRanWt=          -1 IRanGd=           0 AccXCQ= 0.00D+00.
 Generated NRdTot=       0 NPtTot=           0 NUsed=           0 NTot=          32
 NSgBfM=   245   245   245   245   245 MxSgAt=    21 MxSgA2=    21.
 Leave Link  302 at Fri Jun  2 11:44:05 2023, MaxMem=  7381975040 cpu:               1.0 elap:               0.9
 (Enter /software/commercial/gaussian/g16/AVX/g16/l303.exe)
 DipDrv:  MaxL=1.
 Leave Link  303 at Fri Jun  2 11:44:07 2023, MaxMem=  7381975040 cpu:               0.2 elap:               0.6
 (Enter /software/commercial/gaussian/g16/AVX/g16/l401.exe)
 Initial guess from the checkpoint file:  "/scratch1/svicchi/G09-659738.pbs02/02-freq/choline-isolated-freq.chk"
 B after Tr=     0.000000    0.000000    0.000000
         Rot=    1.000000    0.000000    0.000000    0.000000 Ang=   0.00 deg.
 Guess basis will be translated and rotated to current coordinates.
 JPrj=2 DoOrth=T DoCkMO=T.
 Leave Link  401 at Fri Jun  2 11:44:09 2023, MaxMem=  7381975040 cpu:               0.7 elap:               1.1
 (Enter /software/commercial/gaussian/g16/AVX/g16/l502.exe)
 Keep R1 ints in memory in canonical form, NReq=411904245.
 FoFCou: FMM=F IPFlag=           0 FMFlag=           0 FMFlg1=           0
         NFxFlg=           0 DoJE=F BraDBF=F KetDBF=F FulRan=T
         wScrn=  0.000000 ICntrl=       600 IOpCl=  0 I1Cent=           0 NGrid=           0
         NMat0=    1 NMatS0=  28441 NMatT0=    0 NMatD0=    1 NMtDS0=    0 NMtDT0=    0
 Symmetry not used in FoFCou.
 Two-electron integral symmetry not used.
 Closed shell SCF:
 Using DIIS extrapolation, IDIIS=  1040.
 NGot=  7381975040 LenX=  6977391534 LenY=  6977331068
 Requested convergence on RMS density matrix=1.00D-08 within 350 cycles.
 Requested convergence on MAX density matrix=1.00D-06.
 Requested convergence on             energy=1.00D-06.
 No special actions if energy rises.

 Cycle   1  Pass 1  IDiag  1:
 Inv3:  Mode=1 IEnd=     5508075.
 Iteration    1 A*A^-1 deviation from unit magnitude is 5.11D-15 for   1334.
 Iteration    1 A*A^-1 deviation from orthogonality  is 1.79D-15 for   1348   1341.
 Iteration    1 A^-1*A deviation from unit magnitude is 4.88D-15 for   1334.
 Iteration    1 A^-1*A deviation from orthogonality  is 2.06D-15 for   1338    281.
 E= -328.896476019407    
 DIIS: error= 1.78D-08 at cycle   1 NSaved=   1.
 NSaved= 1 IEnMin= 1 EnMin= -328.896476019407     IErMin= 1 ErrMin= 1.78D-08
 ErrMax= 1.78D-08  0.00D+00 EMaxC= 1.00D-01 BMatC= 4.41D-14 BMatP= 4.41D-14
 IDIUse=1 WtCom= 1.00D+00 WtEn= 0.00D+00
 Coeff-Com:  0.100D+01
 Coeff:      0.100D+01
 Gap=     0.300 Goal=   None    Shift=    0.000
 RMSDP=2.01D-09 MaxDP=8.79D-08              OVMax= 7.98D-08

 Error on total polarization charges =  0.00887
 SCF Done:  E(RB3LYP) =  -328.896476019     A.U. after    1 cycles
            NFock=  1  Conv=0.20D-08     -V/T= 2.0047
 KE= 3.273697017256D+02 PE=-1.477284111346D+03 EE= 4.594006189129D+02
 Leave Link  502 at Fri Jun  2 11:44:36 2023, MaxMem=  7381975040 cpu:              45.0 elap:              25.5
 (Enter /software/commercial/gaussian/g16/AVX/g16/l508.exe)
 QCSCF skips out because SCF is already converged.
 Leave Link  508 at Fri Jun  2 11:44:38 2023, MaxMem=  7381975040 cpu:               0.0 elap:               0.5
 (Enter /software/commercial/gaussian/g16/AVX/g16/l801.exe)
 DoSCS=F DFT=T ScalE2(SS,OS)=  1.000000  1.000000
 Range of M.O.s used for correlation:     1   238
 NBasis=   238 NAE=    29 NBE=    29 NFC=     0 NFV=     0
 NROrb=    238 NOA=    29 NOB=    29 NVA=   209 NVB=   209

 **** Warning!!: The largest alpha MO coefficient is  0.42668928D+02

 Leave Link  801 at Fri Jun  2 11:44:39 2023, MaxMem=  7381975040 cpu:               0.2 elap:               0.6
 (Enter /software/commercial/gaussian/g16/AVX/g16/l1002.exe)
 Minotr:  Closed shell wavefunction.
 NEqPCM:  Using equilibrium solvation (IEInf=0, Eps=  24.8520, EpsInf=   1.8526)
          Direct CPHF calculation.
          Differentiating once with respect to electric field.
                with respect to dipole field.
          Electric field/nuclear overlap derivatives assumed to be zero.
          Requested convergence is 1.0D-08 RMS, and 1.0D-07 maximum.
          Secondary convergence is 1.0D-12 RMS, and 1.0D-12 maximum.
          NewPWx=F KeepS1=T KeepF1=T KeepIn=T MapXYZ=F SortEE=F KeepMc=T.
         6434 words used for storage of precomputed grid.
 Keep R1 ints in memory in canonical form, NReq=411912878.
 FoFCou: FMM=F IPFlag=           0 FMFlag=           0 FMFlg1=           0
         NFxFlg=           0 DoJE=F BraDBF=F KetDBF=F FulRan=T
         wScrn=  0.000000 ICntrl=       600 IOpCl=  0 I1Cent=           0 NGrid=           0
         NMat0=    1 NMatS0=  28441 NMatT0=    0 NMatD0=    1 NMtDS0=    0 NMtDT0=    0
 Symmetry not used in FoFCou.
 Two-electron integral symmetry not used.
          MDV=    7381975040 using IRadAn=       1.
          Solving linear equations simultaneously, MaxMat=       0.
          There are     3 degrees of freedom in the 1st order CPHF.  IDoFFX=0 NUNeed=     3.
      3 vectors produced by pass  0 Test12= 2.02D-13 3.33D-08 XBig12= 3.93D+01 1.02D+00.
 AX will form     3 AO Fock derivatives at one time.
      3 vectors produced by pass  1 Test12= 2.02D-13 3.33D-08 XBig12= 3.79D+00 2.65D-01.
      3 vectors produced by pass  2 Test12= 2.02D-13 3.33D-08 XBig12= 8.53D-01 8.64D-02.
      3 vectors produced by pass  3 Test12= 2.02D-13 3.33D-08 XBig12= 1.12D-01 4.62D-02.
      3 vectors produced by pass  4 Test12= 2.02D-13 3.33D-08 XBig12= 2.48D-02 1.78D-02.
      3 vectors produced by pass  5 Test12= 2.02D-13 3.33D-08 XBig12= 2.12D-03 5.91D-03.
      3 vectors produced by pass  6 Test12= 2.02D-13 3.33D-08 XBig12= 2.87D-04 1.94D-03.
      3 vectors produced by pass  7 Test12= 2.02D-13 3.33D-08 XBig12= 5.02D-05 7.25D-04.
      3 vectors produced by pass  8 Test12= 2.02D-13 3.33D-08 XBig12= 1.66D-06 1.16D-04.
      3 vectors produced by pass  9 Test12= 2.02D-13 3.33D-08 XBig12= 4.15D-08 2.52D-05.
      3 vectors produced by pass 10 Test12= 2.02D-13 3.33D-08 XBig12= 8.69D-10 3.11D-06.
      3 vectors produced by pass 11 Test12= 2.02D-13 3.33D-08 XBig12= 2.01D-11 4.52D-07.
      1 vectors produced by pass 12 Test12= 2.02D-13 3.33D-08 XBig12= 3.49D-13 6.34D-08.
 InvSVY:  IOpt=1 It=  1 EMax= 4.44D-15
 Solved reduced A of dimension    37 with     3 vectors.
 End of Minotr F.D. properties file   721 does not exist.
 End of Minotr F.D. properties file   722 does not exist.
 End of Minotr F.D. properties file   788 does not exist.
 Leave Link 1002 at Fri Jun  2 11:46:55 2023, MaxMem=  7381975040 cpu:             254.8 elap:             135.2
 (Enter /software/commercial/gaussian/g16/AVX/g16/l1101.exe)
 Using compressed storage, NAtomX=    21.
 Will process     22 centers per pass.
 R6Disp: Adding Grimme-D3(BJ) dispersion energy 1st derivatives to the gradient.
 Leave Link 1101 at Fri Jun  2 11:46:57 2023, MaxMem=  7381975040 cpu:               0.9 elap:               1.2
 (Enter /software/commercial/gaussian/g16/AVX/g16/l1102.exe)
 Symmetrizing basis deriv contribution to polar:
 IMax=3 JMax=2 DiffMx= 0.00D+00
 Leave Link 1102 at Fri Jun  2 11:47:01 2023, MaxMem=  7381975040 cpu:               0.3 elap:               2.0
 (Enter /software/commercial/gaussian/g16/AVX/g16/l1110.exe)
 Forming Gx(P) for the SCF density, NAtomX=    21.
 Integral derivatives from FoFJK, PRISM(SPDF).
 Do as many integral derivatives as possible in FoFJK.
 G2DrvN: MDV=    7381972741.
 G2DrvN: will do    22 centers at a time, making    1 passes.
 PxScal for G2LodP:  IOpCl= 0 ISclPx=1 IMOff=     1 NMtTot=     4 NTT=   28441 ScalPx= 2.84D+00
 Calling FoFCou, ICntrl=  3107 FMM=F I1Cent=   0 AccDes= 0.00D+00.
 FoFJK:  IHMeth= 1 ICntrl=    3107 DoSepK=F KAlg= 0 I1Cent=           0 FoldK=F
 IRaf=         0 NMat=       1 IRICut=       1 DoRegI=T DoRafI=F ISym2E= 0 IDoP0=0 IntGTp=1.
 FoFCou: FMM=F IPFlag=           0 FMFlag=      100000 FMFlg1=           0
         NFxFlg=           0 DoJE=F BraDBF=F KetDBF=F FulRan=T
         wScrn=  0.000000 ICntrl=      3107 IOpCl=  0 I1Cent=           0 NGrid=           0
         NMat0=    1 NMatS0=      1 NMatT0=    0 NMatD0=    4 NMtDS0=    3 NMtDT0=    0
 Symmetry not used in FoFCou.
 PxScal for G2LodP:  IOpCl= 0 ISclPx=0 IMOff=     1 NMtTot=     4 NTT=   28441 ScalPx= 1.00D+00
 NEqPCM:  Using equilibrium solvation (IEInf=0, Eps=  24.8520, EpsInf=   1.8526)
 G2PCM: DoFxE=T DoFxN=T DoGrad=T DoDP/DQ/DG/TGxP=TFFF NFrqRd=   0 IEInf=0 SqF1=F DoCFld=F IF1Alg=4.
 GePol: Maximum number of non-zero 1st derivatives   =     167
 End of G2Drv F.D. properties file   721 does not exist.
 End of G2Drv F.D. properties file   722 does not exist.
 End of G2Drv F.D. properties file   788 does not exist.
 Leave Link 1110 at Fri Jun  2 11:54:13 2023, MaxMem=  7381975040 cpu:             854.6 elap:             431.6
 (Enter /software/commercial/gaussian/g16/AVX/g16/l1002.exe)
 Minotr:  Closed shell wavefunction.
          IDoAtm=111111111111111111111
 NEqPCM:  Using equilibrium solvation (IEInf=0, Eps=  24.8520, EpsInf=   1.8526)
          Direct CPHF calculation.
          Differentiating once with respect to electric field.
                with respect to dipole field.
          Differentiating once with respect to nuclear coordinates.
          Requested convergence is 1.0D-08 RMS, and 1.0D-07 maximum.
          Secondary convergence is 1.0D-12 RMS, and 1.0D-12 maximum.
          NewPWx=T KeepS1=F KeepF1=F KeepIn=T MapXYZ=F SortEE=F KeepMc=T.
         6434 words used for storage of precomputed grid.
 Keep R1 ints in memory in canonical form, NReq=411913361.
 FoFCou: FMM=F IPFlag=           0 FMFlag=           0 FMFlg1=           0
         NFxFlg=           0 DoJE=F BraDBF=F KetDBF=F FulRan=T
         wScrn=  0.000000 ICntrl=       600 IOpCl=  0 I1Cent=           0 NGrid=           0
         NMat0=    1 NMatS0=  28441 NMatT0=    0 NMatD0=    1 NMtDS0=    0 NMtDT0=    0
 Symmetry not used in FoFCou.
 Two-electron integral symmetry not used.
          MDV=    7381975040 using IRadAn=       1.
          Solving linear equations simultaneously, MaxMat=       0.
          There are    66 degrees of freedom in the 1st order CPHF.  IDoFFX=5 NUNeed=    66.
 Will reuse    3 saved solutions.
     60 vectors produced by pass  0 Test12= 9.18D-15 1.52D-09 XBig12= 9.12D-02 4.60D-02.
 AX will form    60 AO Fock derivatives at one time.
     60 vectors produced by pass  1 Test12= 9.18D-15 1.52D-09 XBig12= 3.77D-03 8.06D-03.
     60 vectors produced by pass  2 Test12= 9.18D-15 1.52D-09 XBig12= 3.69D-05 7.82D-04.
     60 vectors produced by pass  3 Test12= 9.18D-15 1.52D-09 XBig12= 1.28D-07 3.31D-05.
     60 vectors produced by pass  4 Test12= 9.18D-15 1.52D-09 XBig12= 1.54D-10 1.18D-06.
     33 vectors produced by pass  5 Test12= 9.18D-15 1.52D-09 XBig12= 1.36D-13 4.36D-08.
      1 vectors produced by pass  6 Test12= 9.18D-15 1.52D-09 XBig12= 1.44D-16 3.22D-09.
 InvSVY:  IOpt=1 It=  1 EMax= 3.05D-16
 Solved reduced A of dimension   334 with    66 vectors.
 FullF1:  Do perturbations      1 to       3.
 Isotropic polarizability for W=    0.000000       84.85 Bohr**3.
 FullF1:  Do perturbations      1 to       6.
 End of Minotr F.D. properties file   721 does not exist.
 End of Minotr F.D. properties file   722 does not exist.
 End of Minotr F.D. properties file   788 does not exist.
 Leave Link 1002 at Fri Jun  2 12:00:49 2023, MaxMem=  7381975040 cpu:             768.2 elap:             394.3
 (Enter /software/commercial/gaussian/g16/AVX/g16/l601.exe)
 Copying SCF densities to generalized density rwf, IOpCl= 0 IROHF=0.

 **********************************************************************

            Population analysis using the SCF Density.

 **********************************************************************

 Alpha  occ. eigenvalues --  -19.15205 -14.46647 -10.25088 -10.25063 -10.23994
 Alpha  occ. eigenvalues --  -10.23967 -10.23316  -1.05780  -1.03777  -0.80556
 Alpha  occ. eigenvalues --   -0.77280  -0.76802  -0.69597  -0.63202  -0.56569
 Alpha  occ. eigenvalues --   -0.55353  -0.53838  -0.53183  -0.48043  -0.46610
 Alpha  occ. eigenvalues --   -0.45303  -0.44127  -0.42651  -0.42404  -0.42230
 Alpha  occ. eigenvalues --   -0.41900  -0.41756  -0.36816  -0.31059
 Alpha virt. eigenvalues --   -0.01067   0.00546   0.01494   0.01676   0.02424
 Alpha virt. eigenvalues --    0.02999   0.03622   0.04034   0.04756   0.05490
 Alpha virt. eigenvalues --    0.06781   0.07530   0.08566   0.08890   0.09604
 Alpha virt. eigenvalues --    0.09956   0.10770   0.11307   0.12529   0.13048
 Alpha virt. eigenvalues --    0.13771   0.14435   0.14521   0.15140   0.15445
 Alpha virt. eigenvalues --    0.15695   0.16880   0.17514   0.17908   0.18904
 Alpha virt. eigenvalues --    0.19245   0.19904   0.21503   0.21973   0.22456
 Alpha virt. eigenvalues --    0.23213   0.23954   0.24209   0.25493   0.26025
 Alpha virt. eigenvalues --    0.26879   0.27425   0.29209   0.29576   0.30493
 Alpha virt. eigenvalues --    0.32811   0.35982   0.36374   0.38616   0.40091
 Alpha virt. eigenvalues --    0.42844   0.45462   0.47443   0.48645   0.49131
 Alpha virt. eigenvalues --    0.49635   0.51747   0.52170   0.52912   0.53407
 Alpha virt. eigenvalues --    0.54877   0.57922   0.58856   0.59513   0.60296
 Alpha virt. eigenvalues --    0.61418   0.61974   0.63318   0.64081   0.65858
 Alpha virt. eigenvalues --    0.67173   0.67782   0.68765   0.72127   0.73240
 Alpha virt. eigenvalues --    0.73825   0.75812   0.76350   0.77228   0.79060
 Alpha virt. eigenvalues --    0.85215   0.90736   0.92983   0.95581   0.98517
 Alpha virt. eigenvalues --    0.99274   1.03457   1.07722   1.10305   1.12991
 Alpha virt. eigenvalues --    1.14875   1.17497   1.20611   1.25359   1.32754
 Alpha virt. eigenvalues --    1.38942   1.39181   1.40246   1.41538   1.43379
 Alpha virt. eigenvalues --    1.45605   1.45816   1.46580   1.47733   1.48161
 Alpha virt. eigenvalues --    1.49007   1.50074   1.51739   1.54000   1.55288
 Alpha virt. eigenvalues --    1.57222   1.58223   1.59007   1.62196   1.63228
 Alpha virt. eigenvalues --    1.64248   1.65184   1.66097   1.68994   1.70089
 Alpha virt. eigenvalues --    1.71494   1.73906   1.76479   1.80597   1.81397
 Alpha virt. eigenvalues --    1.81685   1.83245   1.84977   1.90202   1.93994
 Alpha virt. eigenvalues --    1.94725   1.99632   2.00470   2.02384   2.04631
 Alpha virt. eigenvalues --    2.07075   2.10647   2.10968   2.14193   2.17224
 Alpha virt. eigenvalues --    2.19239   2.20606   2.24691   2.25585   2.37585
 Alpha virt. eigenvalues --    2.39116   2.43159   2.44316   2.44784   2.45659
 Alpha virt. eigenvalues --    2.46558   2.47742   2.49022   2.49486   2.50772
 Alpha virt. eigenvalues --    2.51912   2.53455   2.56728   2.58614   2.59275
 Alpha virt. eigenvalues --    2.61301   2.62088   2.64780   2.65184   2.67896
 Alpha virt. eigenvalues --    2.69430   2.70705   2.72248   2.75118   2.78644
 Alpha virt. eigenvalues --    2.80821   2.82846   2.90995   2.92717   3.01611
 Alpha virt. eigenvalues --    3.09107   3.10117   3.12180   3.18886   3.24214
 Alpha virt. eigenvalues --    3.29975   3.51677   3.52589   3.54852   3.63128
 Alpha virt. eigenvalues --    3.73322   3.73579   3.74842   3.77517   3.78652
 Alpha virt. eigenvalues --    3.79016   3.80658   3.81714   3.89305   3.97715
 Alpha virt. eigenvalues --    4.14959   4.67050   4.68549   4.70180   5.02132
 Alpha virt. eigenvalues --    5.38169   5.63722  23.81257  23.86393  23.90240
 Alpha virt. eigenvalues --   23.92036  23.92764  35.38217  49.89118
     Molecular Orbital Coefficients:
                           1         2         3         4         5
                           O         O         O         O         O
     Eigenvalues --   -19.15205 -14.46647 -10.25088 -10.25063 -10.23994
   1 1   N  1S          0.00000   0.55746  -0.00001  -0.00002  -0.00002
   2        2S         -0.00001   0.46575  -0.00004  -0.00005  -0.00008
   3        2PX        -0.00003  -0.00003   0.00011   0.00002  -0.00011
   4        2PY         0.00001  -0.00002   0.00004   0.00002  -0.00000
   5        2PZ        -0.00001  -0.00000  -0.00006  -0.00007  -0.00008
   6        3S          0.00010   0.01638   0.00028   0.00026   0.00064
   7        3PX         0.00017   0.00002  -0.00009   0.00034  -0.00021
   8        3PY        -0.00003  -0.00001  -0.00000   0.00010   0.00001
   9        3PZ         0.00006  -0.00002  -0.00010  -0.00001  -0.00015
  10        4S          0.00020  -0.01886  -0.00047   0.00103  -0.00075
  11        4PX        -0.00072  -0.00031   0.00060  -0.00002   0.00015
  12        4PY        -0.00025  -0.00008   0.00014  -0.00080  -0.00025
  13        4PZ        -0.00058   0.00051   0.00092  -0.00104   0.00016
  14        5S          0.00124  -0.01007   0.02497   0.01049   0.02059
  15        5PX        -0.00012   0.00253   0.01182   0.00420  -0.00871
  16        5PY         0.00227   0.00039   0.00031   0.00049  -0.00050
  17        5PZ         0.00050   0.00088  -0.00155  -0.00398  -0.00552
  18        6D 0       -0.00001   0.00000  -0.00002  -0.00007   0.00001
  19        6D+1        0.00002   0.00003   0.00009   0.00008  -0.00014
  20        6D-1       -0.00000   0.00001   0.00005   0.00002  -0.00001
  21        6D+2        0.00001  -0.00003  -0.00007   0.00002  -0.00010
  22        6D-2       -0.00001  -0.00002  -0.00007  -0.00003  -0.00002
  23 2   C  1S         -0.00000   0.00002  -0.00007  -0.00007   0.56294
  24        2S          0.00000  -0.00005  -0.00006  -0.00006   0.46311
  25        2PX         0.00001   0.00017  -0.00003  -0.00001   0.00080
  26        2PY        -0.00000   0.00000  -0.00001  -0.00002   0.00003
  27        2PZ         0.00000   0.00013   0.00001   0.00002   0.00054
  28        3S          0.00007   0.00016  -0.00017   0.00007   0.02039
  29        3PX        -0.00007  -0.00006   0.00005  -0.00004  -0.00152
  30        3PY         0.00002   0.00002   0.00006   0.00005  -0.00003
  31        3PZ        -0.00000  -0.00009  -0.00006  -0.00007  -0.00104
  32        4S         -0.00129   0.00664   0.00089  -0.00164  -0.01549
  33        4PX        -0.00059   0.00249   0.00028  -0.00048  -0.00283
  34        4PY        -0.00023   0.00003   0.00016  -0.00011  -0.00015
  35        4PZ        -0.00027   0.00172  -0.00068  -0.00068  -0.00194
  36        5S          0.00414   0.00168   0.01282  -0.00096  -0.03389
  37        5PX         0.00094   0.00036   0.00364   0.00019  -0.00820
  38        5PY         0.00054   0.00012   0.00030   0.00012  -0.00039
  39        5PZ         0.00048   0.00002   0.00054  -0.00119  -0.00546
  40        6D 0        0.00000  -0.00002  -0.00008  -0.00004   0.00004
  41        6D+1       -0.00001  -0.00026  -0.00007  -0.00007  -0.00105
  42        6D-1       -0.00001  -0.00000  -0.00001  -0.00001  -0.00003
  43        6D+2       -0.00002  -0.00017   0.00005   0.00003  -0.00078
  44        6D-2       -0.00000  -0.00002   0.00003   0.00006  -0.00005
  45 3   H  1S         -0.00003  -0.00001   0.00007  -0.00001   0.00017
  46        2S          0.00026  -0.00084  -0.00064   0.00010  -0.00306
  47        3S         -0.00059   0.00117  -0.00119  -0.00032   0.00354
  48        4PX        -0.00000  -0.00007  -0.00015  -0.00007  -0.00016
  49        4PY        -0.00002   0.00019   0.00007  -0.00001   0.00192
  50        4PZ        -0.00000  -0.00010  -0.00003   0.00002  -0.00084
  51 4   H  1S         -0.00000  -0.00000  -0.00002  -0.00004   0.00016
  52        2S          0.00009  -0.00090  -0.00003   0.00024  -0.00306
  53        3S         -0.00045   0.00150   0.00061   0.00083   0.00352
  54        4PX         0.00000  -0.00018   0.00001   0.00006  -0.00152
  55        4PY         0.00001  -0.00005  -0.00001   0.00002  -0.00044
  56        4PZ        -0.00000   0.00010   0.00004   0.00003   0.00135
  57 5   H  1S         -0.00002  -0.00002   0.00004   0.00003   0.00017
  58        2S          0.00022  -0.00087  -0.00044  -0.00007  -0.00312
  59        3S         -0.00051   0.00125  -0.00209  -0.00078   0.00380
  60        4PX         0.00001  -0.00001  -0.00016  -0.00010   0.00038
  61        4PY         0.00002  -0.00014  -0.00007  -0.00002  -0.00150
  62        4PZ         0.00001  -0.00016  -0.00005  -0.00001  -0.00140
  63 6   C  1S          0.00000   0.00002  -0.00001  -0.00011  -0.00024
  64        2S          0.00000  -0.00006  -0.00002  -0.00007  -0.00019
  65        2PX         0.00004   0.00003  -0.00001  -0.00005   0.00003
  66        2PY         0.00001  -0.00014  -0.00001  -0.00001  -0.00000
  67        2PZ         0.00001  -0.00015  -0.00000  -0.00001   0.00003
  68        3S         -0.00005   0.00025   0.00016  -0.00051  -0.00024
  69        3PX        -0.00019  -0.00003   0.00005   0.00016  -0.00006
  70        3PY        -0.00002   0.00006   0.00007   0.00016   0.00008
  71        3PZ        -0.00006   0.00002   0.00005   0.00021  -0.00001
  72        4S          0.00029   0.00541  -0.00260   0.00290   0.00047
  73        4PX         0.00028   0.00038  -0.00056   0.00113  -0.00104
  74        4PY        -0.00028  -0.00143   0.00191   0.00017   0.00026
  75        4PZ         0.00022  -0.00210   0.00045  -0.00183  -0.00011
  76        5S         -0.00826  -0.00134   0.00726   0.00493   0.00996
  77        5PX        -0.00046  -0.00023   0.00159   0.00011  -0.00132
  78        5PY         0.00194   0.00042  -0.00051  -0.00013  -0.00131
  79        5PZ         0.00188   0.00041  -0.00144  -0.00185  -0.00240
  80        6D 0        0.00002  -0.00009   0.00004   0.00002   0.00005
  81        6D+1       -0.00007   0.00006  -0.00002  -0.00004   0.00012
  82        6D-1       -0.00001  -0.00028  -0.00009  -0.00004   0.00001
  83        6D+2       -0.00007   0.00009   0.00005   0.00006   0.00003
  84        6D-2       -0.00005   0.00002   0.00003  -0.00006   0.00008
  85 7   H  1S          0.00005  -0.00003  -0.00005  -0.00001   0.00006
  86        2S         -0.00037  -0.00065   0.00027   0.00004  -0.00054
  87        3S          0.00038   0.00131  -0.00009   0.00102  -0.00244
  88        4PX        -0.00007  -0.00013   0.00005  -0.00001   0.00003
  89        4PY         0.00001  -0.00005  -0.00007  -0.00001   0.00003
  90        4PZ         0.00002   0.00011  -0.00003   0.00003   0.00020
  91 8   H  1S          0.00002  -0.00001   0.00005   0.00012   0.00006
  92        2S         -0.00016  -0.00089  -0.00040  -0.00118  -0.00060
  93        3S          0.00031   0.00071  -0.00261  -0.00054  -0.00189
  94        4PX        -0.00002  -0.00007  -0.00010  -0.00016   0.00008
  95        4PY         0.00005   0.00020   0.00009   0.00016   0.00015
  96        4PZ        -0.00000  -0.00006   0.00006   0.00004   0.00008
  97 9   H  1S          0.00000  -0.00003   0.00005   0.00010  -0.00003
  98        2S         -0.00022  -0.00067  -0.00008  -0.00106   0.00009
  99        3S         -0.00026   0.00085  -0.00285   0.00037   0.00045
 100        4PX        -0.00008   0.00014  -0.00009   0.00009   0.00003
 101        4PY         0.00001   0.00003   0.00007  -0.00003  -0.00003
 102        4PZ        -0.00005   0.00012   0.00018   0.00023  -0.00001
 103 10  C  1S          0.00000   0.00002  -0.00013  -0.00001  -0.00589
 104        2S         -0.00002  -0.00006  -0.00010  -0.00001  -0.00483
 105        2PX        -0.00004  -0.00003   0.00002  -0.00007   0.00003
 106        2PY        -0.00006   0.00020   0.00004  -0.00002  -0.00001
 107        2PZ        -0.00001  -0.00008   0.00002  -0.00001   0.00002
 108        3S          0.00020   0.00023  -0.00014   0.00001  -0.00042
 109        3PX         0.00017   0.00003  -0.00006   0.00031  -0.00004
 110        3PY         0.00030  -0.00013  -0.00034   0.00006  -0.00008
 111        3PZ         0.00007  -0.00000  -0.00006   0.00013  -0.00001
 112        4S         -0.00004   0.00597  -0.00151  -0.00053   0.00013
 113        4PX        -0.00041  -0.00034   0.00140   0.00020  -0.00043
 114        4PY        -0.00071   0.00236  -0.00107  -0.00038  -0.00077
 115        4PZ         0.00026  -0.00113  -0.00018   0.00014  -0.00068
 116        5S          0.00856  -0.00166  -0.00223   0.00704   0.00662
 117        5PX         0.00085  -0.00030   0.00086  -0.00008  -0.00192
 118        5PY         0.00258  -0.00067  -0.00117   0.00192   0.00050
 119        5PZ        -0.00032   0.00028   0.00008  -0.00115  -0.00176
 120        6D 0       -0.00003   0.00012   0.00012  -0.00002   0.00004
 121        6D+1        0.00002  -0.00003  -0.00006  -0.00001   0.00008
 122        6D-1        0.00000   0.00023   0.00007  -0.00002  -0.00002
 123        6D+2        0.00002   0.00021   0.00005   0.00005   0.00008
 124        6D-2        0.00004   0.00009   0.00002   0.00010  -0.00007
 125 11  H  1S          0.00001  -0.00000   0.00013   0.00005  -0.00002
 126        2S          0.00016  -0.00094  -0.00094  -0.00021   0.00010
 127        3S         -0.00127   0.00076  -0.00280  -0.00132   0.00087
 128        4PX        -0.00002   0.00017  -0.00003   0.00004  -0.00001
 129        4PY        -0.00009  -0.00004  -0.00015  -0.00007   0.00004
 130        4PZ         0.00008   0.00014   0.00018   0.00017   0.00000
 131 12  H  1S         -0.00005  -0.00000   0.00014   0.00001   0.00008
 132        2S          0.00039  -0.00097  -0.00119  -0.00006  -0.00063
 133        3S         -0.00090   0.00087  -0.00203  -0.00071  -0.00201
 134        4PX         0.00003   0.00001  -0.00012   0.00001   0.00015
 135        4PY         0.00010  -0.00021  -0.00030   0.00001  -0.00014
 136        4PZ         0.00004  -0.00016  -0.00008   0.00005   0.00005
 137 13  H  1S          0.00001  -0.00001  -0.00003  -0.00003   0.00003
 138        2S         -0.00001  -0.00078   0.00014   0.00021  -0.00037
 139        3S         -0.00094   0.00121   0.00057  -0.00018  -0.00181
 140        4PX         0.00001  -0.00016  -0.00003   0.00001   0.00006
 141        4PY         0.00002  -0.00006   0.00004   0.00006  -0.00007
 142        4PZ        -0.00000   0.00010  -0.00001  -0.00002   0.00012
 143 14  C  1S         -0.00000   0.00001   0.37733   0.41782   0.00010
 144        2S          0.00001  -0.00004   0.31043   0.34377   0.00009
 145        2PX         0.00005  -0.00012  -0.00000  -0.00075   0.00003
 146        2PY        -0.00001  -0.00005  -0.00031  -0.00021   0.00000
 147        2PZ         0.00003   0.00013   0.00058   0.00038   0.00001
 148        3S          0.00008  -0.00010   0.01386   0.01469  -0.00009
 149        3PX        -0.00031  -0.00021  -0.00083   0.00092   0.00000
 150        3PY         0.00008   0.00002   0.00074   0.00042   0.00007
 151        3PZ        -0.00022  -0.00016  -0.00159  -0.00095  -0.00000
 152        4S         -0.00248   0.00720  -0.01182  -0.01672  -0.00080
 153        4PX        -0.00104  -0.00184   0.00251  -0.00135  -0.00137
 154        4PY        -0.00044  -0.00099   0.00202   0.00039   0.00074
 155        4PZ        -0.00077   0.00201  -0.00224  -0.00319  -0.00097
 156        5S          0.01700   0.00471  -0.00948  -0.03884   0.00165
 157        5PX         0.00554   0.00215   0.01073  -0.00090  -0.00396
 158        5PY         0.00050   0.00001   0.00135   0.00279  -0.00037
 159        5PZ         0.00272   0.00083  -0.00242  -0.00618  -0.00194
 160        6D 0        0.00007  -0.00001   0.00024  -0.00014  -0.00010
 161        6D+1       -0.00008   0.00018   0.00017   0.00064   0.00004
 162        6D-1        0.00008   0.00009   0.00046   0.00031  -0.00000
 163        6D+2       -0.00011  -0.00010  -0.00125  -0.00018   0.00007
 164        6D-2       -0.00001  -0.00009  -0.00008  -0.00042  -0.00000
 165 15  C  1S          0.00002   0.00000   0.41786  -0.37740   0.00001
 166        2S         -0.00006   0.00001   0.34377  -0.31051   0.00001
 167        2PX        -0.00005  -0.00008  -0.00043  -0.00019   0.00000
 168        2PY         0.00010   0.00002   0.00058  -0.00037   0.00001
 169        2PZ         0.00014  -0.00001   0.00044  -0.00070  -0.00000
 170        3S         -0.00004   0.00002   0.01437  -0.01272  -0.00013
 171        3PX         0.00045   0.00039   0.00137   0.00021   0.00003
 172        3PY        -0.00007  -0.00013  -0.00147   0.00074  -0.00003
 173        3PZ         0.00006   0.00005  -0.00083   0.00142  -0.00000
 174        4S          0.00503  -0.00060  -0.00865   0.01547   0.00194
 175        4PX        -0.00134   0.00058   0.00149  -0.00281  -0.00063
 176        4PY         0.00101   0.00039  -0.00076   0.00107   0.00031
 177        4PZ         0.00103   0.00018  -0.00211   0.00053  -0.00044
 178        5S         -0.02388  -0.00388  -0.01679   0.02331   0.00628
 179        5PX         0.00572   0.00055   0.00274  -0.00499  -0.00141
 180        5PY        -0.00149  -0.00059  -0.00139   0.00027   0.00039
 181        5PZ        -0.00043   0.00056   0.00149  -0.00086   0.00044
 182        6D 0       -0.00012   0.00010  -0.00007   0.00030   0.00002
 183        6D+1       -0.00003  -0.00008  -0.00096  -0.00005  -0.00004
 184        6D-1       -0.00022  -0.00006  -0.00064   0.00058   0.00001
 185        6D+2        0.00000  -0.00014  -0.00067  -0.00026   0.00003
 186        6D-2       -0.00007   0.00000   0.00014   0.00021   0.00003
 187 16  H  1S          0.00002  -0.00000   0.00001   0.00008   0.00009
 188        2S          0.00011  -0.00092  -0.00280  -0.00121  -0.00068
 189        3S         -0.00079   0.00051   0.00121   0.00378  -0.00180
 190        4PX        -0.00004  -0.00002  -0.00023  -0.00021   0.00020
 191        4PY         0.00007   0.00019   0.00167   0.00131   0.00015
 192        4PZ        -0.00009  -0.00009  -0.00024  -0.00010  -0.00001
 193 17  H  1S          0.00000  -0.00001  -0.00004   0.00014  -0.00000
 194        2S         -0.00027  -0.00095  -0.00212  -0.00190  -0.00021
 195        3S          0.00006   0.00051   0.00089   0.00318  -0.00153
 196        4PX         0.00003   0.00003  -0.00010  -0.00017   0.00012
 197        4PY        -0.00003  -0.00011  -0.00102  -0.00083  -0.00003
 198        4PZ        -0.00007  -0.00021  -0.00132  -0.00112   0.00003
 199 18  O  1S          0.55133  -0.00000  -0.00002   0.00002   0.00000
 200        2S          0.46972  -0.00001  -0.00004   0.00005   0.00000
 201        2PX         0.00086   0.00000  -0.00001  -0.00001   0.00000
 202        2PY        -0.00078  -0.00001  -0.00007   0.00005  -0.00000
 203        2PZ        -0.00056   0.00001  -0.00010   0.00006   0.00001
 204        3S          0.01369   0.00008   0.00038  -0.00023   0.00000
 205        3PX         0.00004  -0.00001  -0.00003   0.00010  -0.00001
 206        3PY         0.00000   0.00001   0.00003   0.00001   0.00002
 207        3PZ         0.00010  -0.00006   0.00002   0.00009  -0.00003
 208        4S         -0.00994   0.00007  -0.00064  -0.00122  -0.00012
 209        4PX         0.00076   0.00023  -0.00097  -0.00022   0.00000
 210        4PY         0.00087   0.00005   0.00008   0.00051  -0.00003
 211        4PZ         0.00123   0.00031  -0.00034   0.00043   0.00017
 212        5S          0.00827   0.00043   0.00636  -0.00566  -0.00058
 213        5PX        -0.00054   0.00133   0.00212  -0.00013  -0.00049
 214        5PY        -0.00046  -0.00020  -0.00094   0.00121  -0.00007
 215        5PZ        -0.00032   0.00046  -0.00098   0.00078  -0.00022
 216        6D 0       -0.00008  -0.00001  -0.00007   0.00005  -0.00001
 217        6D+1        0.00015   0.00000  -0.00004   0.00002   0.00000
 218        6D-1       -0.00004  -0.00002  -0.00016   0.00008  -0.00000
 219        6D+2        0.00020   0.00001  -0.00001  -0.00002  -0.00000
 220        6D-2       -0.00005  -0.00001   0.00002  -0.00000   0.00000
 221 19  H  1S          0.00005  -0.00002   0.00008  -0.00005   0.00004
 222        2S         -0.00110  -0.00011  -0.00337   0.00111  -0.00041
 223        3S          0.00083   0.00011   0.00215  -0.00226   0.00001
 224        4PX         0.00016  -0.00001   0.00112  -0.00077   0.00005
 225        4PY        -0.00006  -0.00001   0.00071  -0.00044   0.00000
 226        4PZ        -0.00030  -0.00008  -0.00139   0.00079  -0.00004
 227 20  H  1S          0.00010   0.00006   0.00001  -0.00006  -0.00000
 228        2S         -0.00153  -0.00014  -0.00280   0.00090   0.00000
 229        3S          0.00136  -0.00035   0.00213  -0.00261  -0.00014
 230        4PX         0.00007   0.00014   0.00022  -0.00012  -0.00001
 231        4PY        -0.00037  -0.00012  -0.00176   0.00109  -0.00000
 232        4PZ        -0.00011  -0.00001   0.00050  -0.00035   0.00003
 233 21  H  1S          0.00003   0.00002  -0.00006  -0.00004  -0.00001
 234        2S         -0.00017  -0.00024   0.00110   0.00056   0.00005
 235        3S         -0.00087  -0.00152  -0.00296   0.00103   0.00039
 236        4PX         0.00077   0.00008  -0.00031  -0.00006  -0.00001
 237        4PY        -0.00019  -0.00002  -0.00004  -0.00000   0.00001
 238        4PZ         0.00017   0.00002  -0.00015   0.00002  -0.00002
                           6         7         8         9        10
                           O         O         O         O         O
     Eigenvalues --   -10.23967 -10.23316  -1.05780  -1.03777  -0.80556
   1 1   N  1S         -0.00002  -0.00002  -0.04104  -0.09305   0.00965
   2        2S         -0.00009  -0.00009  -0.06455  -0.14653   0.01534
   3        2PX         0.00000  -0.00003   0.00242  -0.00394   0.06168
   4        2PY        -0.00013   0.00008   0.00049  -0.00144   0.01576
   5        2PZ         0.00006   0.00010  -0.00050  -0.00024  -0.04118
   6        3S          0.00065   0.00064   0.17853   0.40755  -0.04483
   7        3PX         0.00014   0.00001   0.00296  -0.00552   0.09412
   8        3PY        -0.00022   0.00022   0.00101  -0.00218   0.02403
   9        3PZ         0.00009   0.00016  -0.00147  -0.00014  -0.06289
  10        4S         -0.00041  -0.00077   0.13331   0.31379  -0.03898
  11        4PX        -0.00024  -0.00037   0.00623  -0.00449   0.06266
  12        4PY         0.00014  -0.00035   0.00135  -0.00064   0.01772
  13        4PZ         0.00005   0.00034   0.00349  -0.00378  -0.04163
  14        5S          0.02603   0.02812  -0.03613  -0.05896  -0.05228
  15        5PX         0.00448   0.00359  -0.00853  -0.01867  -0.04942
  16        5PY        -0.00811   0.00759  -0.00990   0.00487   0.00491
  17        5PZ         0.00468   0.00865   0.00172  -0.00510  -0.00159
  18        6D 0        0.00003  -0.00004  -0.00011   0.00023  -0.00045
  19        6D+1       -0.00002   0.00003  -0.00049   0.00011  -0.00709
  20        6D-1        0.00011  -0.00013  -0.00017  -0.00024  -0.00270
  21        6D+2        0.00013   0.00004   0.00030  -0.00026   0.00411
  22        6D-2        0.00004   0.00002   0.00033  -0.00025   0.00306
  23 2   C  1S          0.00589   0.00025  -0.01240  -0.03100   0.02381
  24        2S          0.00485   0.00021  -0.01898  -0.04748   0.03692
  25        2PX         0.00001  -0.00000   0.01034   0.02506  -0.00012
  26        2PY         0.00003  -0.00003   0.00047   0.00093   0.00239
  27        2PZ         0.00001  -0.00001   0.00688   0.01714  -0.01492
  28        3S          0.00002  -0.00023   0.04692   0.11970  -0.09761
  29        3PX        -0.00012  -0.00010   0.01837   0.04298  -0.00249
  30        3PY        -0.00009   0.00008   0.00071   0.00159   0.00315
  31        3PZ        -0.00011  -0.00005   0.01207   0.02970  -0.02361
  32        4S         -0.00031   0.00004   0.02113   0.02801  -0.05020
  33        4PX        -0.00058  -0.00076   0.00490  -0.00128   0.00345
  34        4PY        -0.00106   0.00098   0.00086  -0.00026   0.00152
  35        4PZ         0.00018   0.00016   0.00196  -0.00076  -0.00457
  36        5S          0.00733   0.01182  -0.03631   0.02688  -0.06753
  37        5PX         0.00140   0.00207  -0.00878   0.00686  -0.01993
  38        5PY        -0.00167   0.00141  -0.00315   0.00158  -0.00301
  39        5PZ         0.00136   0.00232  -0.00287   0.00423  -0.00508
  40        6D 0        0.00001   0.00005  -0.00023  -0.00021  -0.00315
  41        6D+1       -0.00001  -0.00002   0.00480   0.01128  -0.00422
  42        6D-1       -0.00008   0.00009   0.00021   0.00037   0.00007
  43        6D+2       -0.00007  -0.00006   0.00365   0.00822   0.00000
  44        6D-2       -0.00011   0.00007   0.00032   0.00062   0.00076
  45 3   H  1S         -0.00002   0.00008   0.00544   0.01346  -0.01214
  46        2S          0.00006  -0.00070   0.00584   0.01903  -0.01539
  47        3S          0.00088  -0.00246   0.00285  -0.00906   0.00240
  48        4PX         0.00002  -0.00010   0.00057   0.00141  -0.00006
  49        4PY         0.00005   0.00001  -0.00150  -0.00399   0.00257
  50        4PZ        -0.00001  -0.00022   0.00099   0.00249  -0.00199
  51 4   H  1S          0.00008   0.00006   0.00525   0.01359  -0.02281
  52        2S         -0.00064  -0.00057   0.00652   0.01894  -0.02505
  53        3S         -0.00171  -0.00148   0.00093  -0.00987  -0.00057
  54        4PX        -0.00019  -0.00012   0.00163   0.00426  -0.00348
  55        4PY         0.00010  -0.00012   0.00037   0.00096  -0.00088
  56        4PZ        -0.00003  -0.00007  -0.00085  -0.00208   0.00232
  57 5   H  1S          0.00008  -0.00003   0.00542   0.01344  -0.01207
  58        2S         -0.00069   0.00011   0.00578   0.01920  -0.01571
  59        3S         -0.00125   0.00049   0.00308  -0.00905   0.00676
  60        4PX        -0.00006   0.00003   0.00015   0.00037   0.00064
  61        4PY         0.00001  -0.00003   0.00119   0.00324  -0.00179
  62        4PZ        -0.00019   0.00001   0.00140   0.00368  -0.00271
  63 6   C  1S         -0.00017   0.56297  -0.01312  -0.02912   0.02387
  64        2S         -0.00014   0.46311  -0.02007  -0.04459   0.03698
  65        2PX        -0.00001   0.00004   0.00270   0.00325   0.00850
  66        2PY         0.00004  -0.00065  -0.00818  -0.01941   0.01143
  67        2PZ        -0.00001  -0.00078  -0.00921  -0.02157   0.00289
  68        3S         -0.00007   0.02075   0.05030   0.11160  -0.09705
  69        3PX         0.00004  -0.00010   0.00503   0.00534   0.01225
  70        3PY        -0.00003   0.00118  -0.01408  -0.03366   0.01895
  71        3PZ         0.00010   0.00134  -0.01573  -0.03725   0.00654
  72        4S         -0.00118  -0.01821   0.01108   0.03512  -0.04737
  73        4PX        -0.00010  -0.00147  -0.00060   0.00127   0.00565
  74        4PY         0.00002   0.00305   0.00048  -0.00361  -0.00052
  75        4PZ         0.00103   0.00306  -0.00180   0.00043   0.00130
  76        5S          0.00983  -0.03264   0.03628  -0.00805  -0.03350
  77        5PX         0.00058  -0.00172  -0.00044   0.00267  -0.00477
  78        5PY        -0.00270   0.00644  -0.00995   0.00133   0.00391
  79        5PZ        -0.00079   0.00685  -0.00985   0.00235   0.00768
  80        6D 0       -0.00010  -0.00042   0.00170   0.00432   0.00035
  81        6D+1       -0.00000   0.00031  -0.00090  -0.00238  -0.00192
  82        6D-1       -0.00004  -0.00112   0.00505   0.01160  -0.00344
  83        6D+2       -0.00009   0.00048  -0.00161  -0.00529   0.00307
  84        6D-2       -0.00004   0.00022  -0.00081  -0.00205  -0.00113
  85 7   H  1S          0.00004   0.00016   0.00522   0.01318  -0.02241
  86        2S         -0.00035  -0.00286   0.00892   0.01615  -0.02484
  87        3S         -0.00228   0.00301  -0.00367  -0.00431   0.00136
  88        4PX        -0.00008  -0.00157   0.00169   0.00320  -0.00322
  89        4PY         0.00013  -0.00077   0.00029   0.00080  -0.00111
  90        4PZ         0.00004   0.00102  -0.00132  -0.00296   0.00241
  91 8   H  1S         -0.00002   0.00015   0.00564   0.01269  -0.01313
  92        2S          0.00010  -0.00287   0.00835   0.01777  -0.01399
  93        3S         -0.00009   0.00241  -0.00150  -0.00251   0.00643
  94        4PX        -0.00001  -0.00040   0.00058   0.00104   0.00029
  95        4PY        -0.00000   0.00177  -0.00213  -0.00436   0.00295
  96        4PZ        -0.00003  -0.00097   0.00051   0.00101  -0.00129
  97 9   H  1S          0.00006   0.00014   0.00753   0.01147  -0.01213
  98        2S         -0.00046  -0.00293   0.01104   0.01452  -0.01645
  99        3S         -0.00245   0.00333   0.00319  -0.00452   0.01025
 100        4PX         0.00003   0.00180  -0.00071  -0.00374   0.00272
 101        4PY         0.00020   0.00005  -0.00047  -0.00081   0.00068
 102        4PZ         0.00006   0.00105  -0.00158  -0.00273   0.00158
 103 10  C  1S          0.56294   0.00017  -0.01310  -0.03030   0.01773
 104        2S          0.46309   0.00014  -0.02000  -0.04642   0.02753
 105        2PX        -0.00017  -0.00001  -0.00132  -0.00549   0.01374
 106        2PY         0.00088  -0.00003   0.01194   0.02691  -0.00694
 107        2PZ        -0.00040  -0.00003  -0.00503  -0.01188  -0.00319
 108        3S          0.02052  -0.00006   0.04948   0.11667  -0.07334
 109        3PX         0.00041   0.00005  -0.00329  -0.00905   0.02056
 110        3PY        -0.00163  -0.00004   0.01908   0.04689  -0.01281
 111        3PZ         0.00077   0.00013  -0.00881  -0.02023  -0.00332
 112        4S         -0.01611  -0.00150   0.01240   0.03757  -0.02661
 113        4PX         0.00021  -0.00056   0.00112  -0.00025   0.00556
 114        4PY        -0.00363  -0.00092   0.00369   0.00251   0.00485
 115        4PZ         0.00160   0.00120  -0.00145  -0.00046  -0.00245
 116        5S         -0.03163   0.00704  -0.03633   0.03978   0.00567
 117        5PX         0.00091  -0.00065  -0.00697   0.00600   0.00013
 118        5PY        -0.00857   0.00208  -0.01032   0.01303   0.00313
 119        5PZ         0.00331   0.00098   0.00041  -0.00269   0.00064
 120        6D 0        0.00037  -0.00002  -0.00158  -0.00383   0.00203
 121        6D+1       -0.00010  -0.00004   0.00070   0.00156  -0.00170
 122        6D-1        0.00083   0.00015  -0.00378  -0.00860   0.00015
 123        6D+2        0.00091  -0.00003  -0.00405  -0.00944   0.00174
 124        6D-2        0.00032  -0.00001  -0.00156  -0.00370   0.00411
 125 11  H  1S          0.00020   0.00007   0.00621   0.01272  -0.00770
 126        2S         -0.00328  -0.00055   0.00837   0.01735  -0.01083
 127        3S          0.00315  -0.00292   0.00623  -0.00507   0.01134
 128        4PX         0.00164   0.00011  -0.00114  -0.00354   0.00261
 129        4PY         0.00021  -0.00020   0.00082   0.00046  -0.00018
 130        4PZ         0.00135  -0.00001  -0.00177  -0.00292   0.00092
 131 12  H  1S          0.00017  -0.00002   0.00574   0.01306  -0.00704
 132        2S         -0.00305   0.00003   0.00689   0.01840  -0.00821
 133        3S          0.00345  -0.00023   0.00371  -0.00539   0.00786
 134        4PX         0.00042  -0.00000  -0.00042  -0.00101   0.00135
 135        4PY        -0.00123  -0.00000   0.00141   0.00376  -0.00122
 136        4PZ        -0.00164  -0.00004   0.00115   0.00285  -0.00158
 137 13  H  1S          0.00017   0.00009   0.00539   0.01358  -0.01922
 138        2S         -0.00308  -0.00067   0.00768   0.01773  -0.02147
 139        3S          0.00299  -0.00234   0.00198  -0.00619   0.00244
 140        4PX        -0.00180  -0.00006   0.00145   0.00347  -0.00287
 141        4PY        -0.00045  -0.00019   0.00081   0.00200  -0.00134
 142        4PZ         0.00095  -0.00001  -0.00102  -0.00246   0.00168
 143 14  C  1S          0.00010   0.00009  -0.02122  -0.02581  -0.08446
 144        2S          0.00008   0.00009  -0.03259  -0.03959  -0.13108
 145        2PX         0.00001   0.00000  -0.00212  -0.02467   0.02026
 146        2PY         0.00002  -0.00000  -0.00281  -0.00836  -0.00533
 147        2PZ         0.00001   0.00000   0.01185   0.01371   0.00429
 148        3S         -0.00001  -0.00020   0.08153   0.10064   0.34780
 149        3PX        -0.00004   0.00002   0.00024  -0.04189   0.03055
 150        3PY        -0.00006   0.00003  -0.00589  -0.01477  -0.01226
 151        3PZ        -0.00018  -0.00009   0.02344   0.02459   0.01415
 152        4S         -0.00180  -0.00006   0.05117   0.01890   0.21131
 153        4PX         0.00051   0.00158   0.00873  -0.00803   0.01061
 154        4PY        -0.00105   0.00170   0.00082  -0.00210  -0.00742
 155        4PZ        -0.00115   0.00083   0.00924  -0.00137   0.00442
 156        5S         -0.00610   0.00725  -0.09276   0.08981   0.10946
 157        5PX        -0.00189   0.00106  -0.04822   0.01951  -0.03514
 158        5PY        -0.00050   0.00114  -0.00567  -0.00132  -0.00583
 159        5PZ        -0.00162   0.00232  -0.01410   0.01629   0.01767
 160        6D 0        0.00003  -0.00007  -0.00087   0.00044  -0.00247
 161        6D+1       -0.00000  -0.00007  -0.00101  -0.01149   0.00115
 162        6D-1        0.00002  -0.00000  -0.00261  -0.00355  -0.00128
 163        6D+2       -0.00008  -0.00006   0.00609   0.00468   0.00583
 164        6D-2        0.00005  -0.00011   0.00221   0.00473  -0.00138
 165 15  C  1S          0.00009  -0.00006  -0.04053   0.01221  -0.05774
 166        2S          0.00009  -0.00007  -0.06236   0.01881  -0.08963
 167        2PX        -0.00003  -0.00000   0.00332  -0.01033  -0.03752
 168        2PY        -0.00004   0.00001   0.02205  -0.01124  -0.00360
 169        2PZ         0.00000   0.00003   0.03289  -0.01742  -0.02885
 170        3S         -0.00013   0.00046   0.16176  -0.04933   0.24075
 171        3PX         0.00016  -0.00009   0.00097  -0.01779  -0.06163
 172        3PY         0.00020   0.00002   0.03940  -0.01880   0.00046
 173        3PZ         0.00003  -0.00008   0.05635  -0.02962  -0.03866
 174        4S          0.00081  -0.00350   0.03595  -0.00373   0.13095
 175        4PX         0.00021   0.00217   0.00891  -0.01196  -0.01750
 176        4PY         0.00079  -0.00049  -0.00134  -0.00140  -0.00279
 177        4PZ         0.00125  -0.00018   0.00870  -0.00466  -0.00963
 178        5S          0.01038  -0.00008   0.17525  -0.11605  -0.00170
 179        5PX        -0.00251  -0.00038  -0.03741   0.02768   0.00696
 180        5PY        -0.00020  -0.00037   0.01201  -0.00397   0.00152
 181        5PZ         0.00048   0.00069   0.00362  -0.00453  -0.00888
 182        6D 0        0.00004   0.00004   0.01012  -0.00705  -0.00450
 183        6D+1        0.00006   0.00007   0.00730  -0.00219   0.00410
 184        6D-1        0.00006   0.00003   0.01718  -0.00800  -0.00247
 185        6D+2       -0.00003  -0.00004  -0.00198   0.00428   0.00739
 186        6D-2       -0.00007   0.00004   0.00327  -0.00225  -0.00396
 187 16  H  1S         -0.00001   0.00006   0.00992   0.01165   0.05604
 188        2S          0.00025  -0.00102   0.01114   0.01704   0.06660
 189        3S          0.00041  -0.00350   0.00127  -0.00425  -0.01234
 190        4PX        -0.00001   0.00002   0.00059  -0.00016   0.00305
 191        4PY        -0.00001   0.00010  -0.00336  -0.00407  -0.01218
 192        4PZ         0.00004  -0.00023   0.00142   0.00104   0.00257
 193 17  H  1S          0.00012  -0.00004   0.00843   0.01272   0.06006
 194        2S         -0.00095   0.00044   0.01271   0.01645   0.06800
 195        3S         -0.00156  -0.00035  -0.00303  -0.00200  -0.01161
 196        4PX         0.00005  -0.00003   0.00024  -0.00046   0.00235
 197        4PY         0.00009   0.00002   0.00182   0.00192   0.00677
 198        4PZ        -0.00025   0.00005   0.00341   0.00369   0.01090
 199 18  O  1S         -0.00000   0.00000  -0.10023   0.04904   0.02575
 200        2S         -0.00002   0.00001  -0.16031   0.07850   0.04146
 201        2PX         0.00003   0.00001   0.02522  -0.01567  -0.03226
 202        2PY         0.00002   0.00000  -0.02688   0.01219  -0.00676
 203        2PZ         0.00001  -0.00000  -0.02077   0.00816  -0.02828
 204        3S          0.00021  -0.00006   0.46293  -0.22755  -0.12325
 205        3PX        -0.00013  -0.00003   0.03928  -0.02427  -0.04807
 206        3PY        -0.00011  -0.00001  -0.04326   0.01960  -0.00988
 207        3PZ        -0.00006   0.00000  -0.03446   0.01394  -0.04168
 208        4S         -0.00086   0.00069   0.34141  -0.16822  -0.10440
 209        4PX         0.00043   0.00036   0.00643  -0.00592  -0.02154
 210        4PY         0.00068  -0.00010  -0.02066   0.00882  -0.00432
 211        4PZ         0.00053  -0.00020  -0.02012   0.00785  -0.02079
 212        5S         -0.00434  -0.00287  -0.05275   0.02969  -0.00168
 213        5PX        -0.00025   0.00094   0.00510  -0.00655  -0.00059
 214        5PY         0.00072   0.00066   0.00661  -0.00399  -0.00180
 215        5PZ         0.00039   0.00064   0.00787  -0.00549   0.00277
 216        6D 0        0.00000   0.00000   0.00093  -0.00028   0.00320
 217        6D+1       -0.00002   0.00000   0.00407  -0.00173  -0.00032
 218        6D-1       -0.00004   0.00001   0.00641  -0.00273   0.00231
 219        6D+2       -0.00000  -0.00001   0.00351  -0.00176  -0.00334
 220        6D-2       -0.00001   0.00000  -0.00189   0.00128   0.00210
 221 19  H  1S         -0.00001  -0.00001   0.01497  -0.00517   0.03918
 222        2S          0.00006   0.00018   0.02583  -0.00793   0.04758
 223        3S          0.00009  -0.00065  -0.00998   0.00510  -0.00712
 224        4PX        -0.00001  -0.00006  -0.00457   0.00101  -0.00780
 225        4PY        -0.00006   0.00003  -0.00110   0.00022  -0.00277
 226        4PZ        -0.00002   0.00004   0.00593  -0.00187   0.00524
 227 20  H  1S          0.00002  -0.00004   0.01565  -0.00383   0.03689
 228        2S         -0.00029   0.00044   0.02647  -0.00825   0.04274
 229        3S          0.00007  -0.00148  -0.01577   0.01084  -0.00317
 230        4PX         0.00007  -0.00003  -0.00157  -0.00026  -0.00338
 231        4PY         0.00004   0.00007   0.00734  -0.00230   0.00788
 232        4PZ        -0.00007   0.00003  -0.00027   0.00002  -0.00301
 233 21  H  1S         -0.00002  -0.00004   0.07972  -0.04132  -0.04502
 234        2S          0.00014  -0.00007   0.06532  -0.03478  -0.04314
 235        3S          0.00091  -0.00026  -0.00173   0.00516  -0.00358
 236        4PX        -0.00006   0.00000  -0.01919   0.00986   0.00892
 237        4PY        -0.00010  -0.00004   0.00122  -0.00057  -0.00190
 238        4PZ        -0.00003   0.00006  -0.00925   0.00467   0.00235
                          11        12        13        14        15
                           O         O         O         O         O
     Eigenvalues --    -0.77280  -0.76802  -0.69597  -0.63202  -0.56569
   1 1   N  1S          0.00008  -0.00179   0.03434  -0.04490  -0.00328
   2        2S          0.00012  -0.00285   0.05490  -0.07197  -0.00529
   3        2PX         0.05160   0.02680  -0.06455  -0.03085  -0.07403
   4        2PY        -0.07589   0.07404  -0.01504  -0.01526  -0.04324
   5        2PZ         0.05640   0.07395   0.04461   0.03007  -0.00432
   6        3S          0.00009   0.00832  -0.16358   0.21741   0.01661
   7        3PX         0.07849   0.04076  -0.09779  -0.04705  -0.10765
   8        3PY        -0.11519   0.11209  -0.02276  -0.02258  -0.06362
   9        3PZ         0.08562   0.11228   0.06658   0.04372  -0.00532
  10        4S         -0.00337   0.00669  -0.15770   0.22214   0.01909
  11        4PX         0.05247   0.02634  -0.07236  -0.03165  -0.11593
  12        4PY        -0.07894   0.08184  -0.01499  -0.01774  -0.06204
  13        4PZ         0.05930   0.07916   0.05743   0.04493  -0.01354
  14        5S         -0.00652   0.02581  -0.01041   0.00844   0.04622
  15        5PX        -0.01778  -0.00438  -0.00119   0.00415  -0.01840
  16        5PY         0.01559  -0.01347   0.01068   0.00375   0.01294
  17        5PZ        -0.01491  -0.02075  -0.00490   0.00846  -0.01355
  18        6D 0       -0.00261   0.00345  -0.00140  -0.00195   0.00205
  19        6D+1       -0.00301  -0.00652   0.00579   0.00291  -0.00255
  20        6D-1       -0.00608   0.00844   0.00333   0.00178   0.00151
  21        6D+2       -0.00921  -0.00439  -0.00024   0.00163  -0.00088
  22        6D-2       -0.00237  -0.00117  -0.00242  -0.00105  -0.00202
  23 2   C  1S          0.06130   0.05757  -0.04504   0.01940   0.01829
  24        2S          0.09518   0.08941  -0.07014   0.03013   0.02880
  25        2PX        -0.00850  -0.01068  -0.03325   0.02851   0.03690
  26        2PY        -0.01522   0.01379  -0.00456  -0.00366  -0.01655
  27        2PZ        -0.00161   0.00382   0.00117   0.03933   0.04178
  28        3S         -0.25227  -0.23714   0.18685  -0.07879  -0.07845
  29        3PX        -0.01793  -0.02078  -0.04594   0.04404   0.04941
  30        3PY        -0.02274   0.01982  -0.00683  -0.00545  -0.02438
  31        3PZ        -0.00598   0.00205   0.00349   0.05893   0.05772
  32        4S         -0.14701  -0.14165   0.14280  -0.06872  -0.11650
  33        4PX        -0.00005  -0.00199  -0.01236   0.01485   0.01355
  34        4PY        -0.00630   0.00638  -0.00152  -0.00136  -0.01049
  35        4PZ         0.00215   0.00379   0.00188   0.02359   0.01620
  36        5S         -0.10093  -0.09658   0.01997  -0.00975  -0.06457
  37        5PX        -0.02374  -0.02094   0.00471  -0.00221  -0.01533
  38        5PY         0.00416  -0.00701  -0.00022  -0.00014   0.00142
  39        5PZ        -0.01607  -0.01661   0.00131  -0.00029  -0.00549
  40        6D 0        0.00089   0.00235   0.00426   0.00244   0.00265
  41        6D+1       -0.00223  -0.00163  -0.00429   0.01163   0.00646
  42        6D-1       -0.00263   0.00250  -0.00042   0.00005   0.00026
  43        6D+2       -0.00257  -0.00309  -0.00602   0.00718   0.00646
  44        6D-2       -0.00414   0.00324  -0.00121  -0.00016  -0.00150
  45 3   H  1S         -0.05345  -0.03642   0.03752  -0.03597  -0.04459
  46        2S         -0.06123  -0.04474   0.04365  -0.04415  -0.05567
  47        3S          0.00862   0.01088  -0.00528   0.00152  -0.00988
  48        4PX        -0.00131  -0.00143  -0.00073  -0.00015   0.00064
  49        4PY         0.00896   0.00743  -0.00594   0.00409   0.00562
  50        4PZ        -0.00453  -0.00287   0.00320  -0.00070  -0.00120
  51 4   H  1S         -0.04095  -0.03893   0.05559  -0.01850  -0.01763
  52        2S         -0.04939  -0.04664   0.06427  -0.02375  -0.02012
  53        3S          0.01033   0.00956  -0.00064   0.00198   0.00265
  54        4PX        -0.00682  -0.00662   0.00620  -0.00085  -0.00058
  55        4PY        -0.00274  -0.00076   0.00179  -0.00061  -0.00150
  56        4PZ         0.00502   0.00520  -0.00551   0.00237   0.00431
  57 5   H  1S         -0.03968  -0.05201   0.03722  -0.03428  -0.02624
  58        2S         -0.04786  -0.05967   0.04364  -0.04163  -0.03254
  59        3S          0.01140   0.00751  -0.00292   0.00209   0.00055
  60        4PX         0.00063   0.00096  -0.00203   0.00094   0.00273
  61        4PY        -0.00677  -0.00686   0.00407  -0.00367  -0.00428
  62        4PZ        -0.00555  -0.00685   0.00478  -0.00170  -0.00120
  63 6   C  1S          0.01343  -0.08456  -0.03470   0.03170  -0.01049
  64        2S          0.02084  -0.13129  -0.05398   0.04940  -0.01654
  65        2PX         0.00905   0.00864  -0.01778   0.00085  -0.04995
  66        2PY        -0.01061  -0.00663   0.00534  -0.04389  -0.00479
  67        2PZ         0.01419  -0.00965   0.01930  -0.03447   0.01682
  68        3S         -0.05517   0.34821   0.14398  -0.13045   0.04629
  69        3PX         0.01328   0.01395  -0.02580   0.00092  -0.07305
  70        3PY        -0.01477  -0.01603   0.00710  -0.06350  -0.00890
  71        3PZ         0.02186  -0.02095   0.02751  -0.04997   0.02204
  72        4S         -0.03000   0.19639   0.09645  -0.13075   0.04622
  73        4PX         0.00497   0.00164  -0.01035  -0.00369  -0.03266
  74        4PY        -0.00511   0.00255   0.00403  -0.01845  -0.00569
  75        4PZ         0.00470   0.00398   0.01100  -0.01452   0.01243
  76        5S         -0.01216   0.13692   0.01239  -0.03562   0.00345
  77        5PX        -0.00386   0.00373   0.00049  -0.00486  -0.00264
  78        5PY         0.00755  -0.02498  -0.00050   0.00630   0.00394
  79        5PZ        -0.00280  -0.02819  -0.00330   0.00607   0.00010
  80        6D 0       -0.00528   0.00149  -0.00362   0.00331  -0.00144
  81        6D+1       -0.00169  -0.00272   0.00366  -0.00150   0.00020
  82        6D-1       -0.00060   0.00416  -0.00443   0.01314  -0.00153
  83        6D+2       -0.00192  -0.00137   0.00103  -0.00558  -0.00297
  84        6D-2       -0.00224  -0.00224   0.00364  -0.00075   0.00533
  85 7   H  1S         -0.00766   0.05787   0.04410  -0.03431   0.04521
  86        2S         -0.00919   0.06961   0.05140  -0.04127   0.05615
  87        3S          0.00294  -0.01516  -0.00040   0.00140   0.00900
  88        4PX        -0.00060   0.00978   0.00489  -0.00377   0.00345
  89        4PY        -0.00123   0.00366   0.00229  -0.00311   0.00207
  90        4PZ         0.00174  -0.00683  -0.00347   0.00166  -0.00365
  91 8   H  1S         -0.02056   0.06161   0.02946  -0.04724   0.00863
  92        2S         -0.02199   0.07430   0.03667  -0.05637   0.01044
  93        3S         -0.00010  -0.01388  -0.00415   0.00058  -0.00293
  94        4PX        -0.00028   0.00321   0.00015  -0.00156  -0.00253
  95        4PY         0.00285  -0.01143  -0.00469   0.00444  -0.00152
  96        4PZ        -0.00115   0.00510   0.00277  -0.00364   0.00178
  97 9   H  1S         -0.00129   0.06466   0.02645  -0.04376  -0.01775
  98        2S         -0.00340   0.07494   0.03182  -0.04987  -0.02315
  99        3S          0.00545  -0.01509  -0.00056   0.00353  -0.01486
 100        4PX         0.00068  -0.01116  -0.00479   0.00545  -0.00205
 101        4PY        -0.00056  -0.00063  -0.00060  -0.00152   0.00021
 102        4PZ         0.00111  -0.00709  -0.00178   0.00197   0.00251
 103 10  C  1S         -0.08471   0.02835  -0.02368   0.03752   0.00673
 104        2S         -0.13149   0.04401  -0.03676   0.05858   0.01055
 105        2PX         0.00518   0.00698  -0.00900  -0.01393  -0.03945
 106        2PY         0.01296   0.00582  -0.01837   0.05753   0.00905
 107        2PZ        -0.00117   0.01786   0.01640  -0.01878  -0.01926
 108        3S          0.34787  -0.11686   0.09614  -0.15716  -0.02842
 109        3PX         0.00588   0.01044  -0.01360  -0.02065  -0.05687
 110        3PY         0.02701   0.00573  -0.02766   0.08188   0.01301
 111        3PZ        -0.00543   0.02714   0.02403  -0.02698  -0.02731
 112        4S          0.20669  -0.06695   0.07894  -0.14403  -0.03486
 113        4PX         0.00724   0.00313   0.00029  -0.00346  -0.02104
 114        4PY         0.00195   0.00623  -0.00557   0.02764   0.00237
 115        4PZ        -0.00096   0.00594   0.00328  -0.01191  -0.00860
 116        5S          0.12497  -0.04154   0.04061   0.00614   0.04084
 117        5PX        -0.00687  -0.00220   0.00318   0.00052  -0.00168
 118        5PY         0.03038  -0.01471   0.01172   0.00516   0.01097
 119        5PZ        -0.01590  -0.00338  -0.00672  -0.00192  -0.00725
 120        6D 0       -0.00187  -0.00284  -0.00008  -0.00554  -0.00050
 121        6D+1       -0.00043  -0.00158   0.00043   0.00209  -0.00203
 122        6D-1       -0.00231   0.00464   0.00559  -0.00928  -0.00305
 123        6D+2       -0.00464  -0.00210   0.00631  -0.00933  -0.00121
 124        6D-2        0.00039   0.00164  -0.00134  -0.00499  -0.00577
 125 11  H  1S          0.06668  -0.01122   0.02349  -0.04702  -0.03766
 126        2S          0.07682  -0.01571   0.02807  -0.05542  -0.04958
 127        3S         -0.01008   0.00991  -0.00017  -0.00065  -0.01470
 128        4PX        -0.00986   0.00210  -0.00263   0.00553   0.00237
[...]
 78336,0.46047915,-0.00497498,0.02201203,-0.10059840,-0.01016593,0.0221
 1366,-0.01364314,-0.00265196,-0.00027349,-0.00178164,0.00161116,-0.000
 41813,0.00084085,0.00034919,0.00094086,0.00038517,0.00415489,-0.022488
 85,0.01245052,0.00000739,-0.00120837,0.00039447,0.00078028,-0.00447555
 ,-0.00406604,0.00063863,-0.00094310,0.00017185,-0.00932172,0.07552687,
 0.60102517,-0.00355834,0.00111880,-0.00203099,0.00064145,0.00127856,-0
 .00001567,0.00002975,-0.00011685,-0.00029843,0.00037469,-0.00012966,0.
 00003711,-0.00004202,-0.00013206,0.00006555,0.00001473,-0.00066487,-0.
 00028006,-0.00018328,0.00001848,-0.00005181,0.00019165,-0.00001500,0.0
 0020601,0.00030259,0.00024921,0.00018623,-0.21273926,-0.01345996,-0.13
 880069,0.22683517,0.02856034,-0.00391218,0.02379858,-0.00066281,-0.005
 88167,0.00159685,0.00162102,0.00033074,0.00115202,0.00003496,-0.000059
 09,-0.00016518,-0.00010372,0.00006318,0.00020884,0.00086204,0.00180352
 ,0.00164966,-0.00001768,-0.00013847,-0.00017440,-0.00020117,0.00018519
 ,-0.00003585,-0.00012193,-0.00057420,-0.00049368,-0.02331919,-0.052162
 08,-0.02008111,0.01533735,0.05848693,-0.00970612,0.00098671,-0.0101911
 7,0.00096142,0.00218018,-0.00022027,-0.00073621,0.00002878,0.00008483,
 -0.00020100,-0.00004037,0.00007330,0.00021972,0.00004557,0.00025973,0.
 00066871,-0.00130265,0.00016212,0.00007401,0.00012699,0.00004740,0.000
 19478,0.00004013,-0.00005482,-0.00000091,-0.00020802,0.00036253,-0.135
 60242,-0.01117190,-0.16418103,0.14900637,0.00986168,0.17445769,-0.0029
 7687,0.00348274,0.00330564,0.00011009,0.00063763,0.00103703,0.00000582
 ,-0.00020336,-0.00011752,-0.00000302,0.00002684,0.00003509,-0.00015232
 ,0.00030384,-0.00060481,-0.00013979,0.00045103,-0.00073071,0.00016922,
 -0.00014680,-0.00026533,0.00050855,0.00022177,0.00020298,0.00012341,0.
 00015957,0.00022030,-0.06132765,0.03628276,0.04177033,0.00723388,-0.01
 637050,-0.01698848,0.06081848,0.00750168,-0.02716105,-0.02210056,-0.00
 140563,0.00043144,-0.00165134,-0.00015522,0.00017437,0.00023238,0.0000
 7592,-0.00001253,0.00015022,0.00016605,0.00013017,0.00065486,0.0007542
 8,-0.00382910,0.00451530,0.00011313,0.00016206,0.00000750,0.00030541,-
 0.00100361,-0.00141333,0.00002635,0.00016501,0.00009758,0.03500429,-0.
 15535454,-0.12344258,-0.00048767,0.00077305,-0.00041385,-0.04063907,0.
 17710755,-0.00469691,0.01362115,0.01127895,0.00042188,0.00070771,0.001
 01162,0.00010368,-0.00004314,0.00011621,-0.00009990,-0.00002765,-0.000
 12132,0.00012387,0.00021926,-0.00011630,-0.00049359,0.00254545,-0.0010
 4133,-0.00024355,0.00011493,0.00003566,-0.00008766,0.00055938,0.000956
 83,0.00013542,0.00016213,0.00002543,0.04403182,-0.13572909,-0.20945959
 ,0.00624546,-0.01115571,-0.01225972,-0.04595179,0.13750811,0.21761205,
 0.00579181,0.00372328,-0.00474420,0.00104449,0.00105197,-0.00092077,0.
 00020306,-0.00002968,-0.00004392,0.00143459,0.00046779,-0.00006113,-0.
 00010373,-0.00009902,0.00005897,0.00009669,0.00018028,-0.00035974,-0.0
 0004114,-0.00025857,-0.00016615,0.00014899,-0.00004469,-0.00018436,-0.
 00011363,0.00003872,0.00012624,-0.24769823,-0.06583049,0.11315151,-0.0
 1688721,-0.00544640,0.01222532,-0.00356355,-0.00131692,0.00091754,0.25
 914045,-0.02717517,-0.01694235,0.01949682,-0.00201802,0.00077284,-0.00
 065573,0.00005114,0.00005988,-0.00032081,0.00057667,0.00011640,0.00024
 669,0.00027953,-0.00000808,0.00001384,-0.00143256,0.00113227,0.0015702
 6,0.00049706,-0.00040828,-0.00066400,0.00027206,0.00025522,-0.00014716
 ,0.00005108,-0.00009611,-0.00013275,-0.05517181,-0.06689714,0.03091656
 ,-0.00155654,0.00008025,-0.00003152,0.01755986,0.00811985,-0.00863260,
 0.06584130,0.07850822,0.01087991,0.00678032,-0.00999838,0.00143618,-0.
 00004109,0.00017223,-0.00018516,-0.00023824,0.00015255,-0.00043522,0.0
 0035958,0.00001022,0.00007337,-0.00000495,-0.00021072,-0.00026398,-0.0
 0117418,0.00008192,-0.00016453,-0.00022519,0.00075363,-0.00012970,0.00
 000607,-0.00003012,-0.00009323,0.00004899,0.00003118,0.10752458,0.0350
 9833,-0.10991344,-0.01700708,-0.00653756,0.01218143,0.01862416,0.00708
 115,-0.00921398,-0.11875325,-0.04323970,0.11561033,-0.10084838,-0.0026
 5834,0.00694824,-0.03916437,-0.00939915,0.01240637,0.00130858,-0.00086
 161,0.00155028,-0.00266167,-0.00014636,-0.00214780,0.00144861,0.000621
 58,0.00172015,-0.00404170,0.00564388,0.01022754,0.00162472,-0.00081646
 ,-0.00119067,-0.00008132,-0.00122085,-0.00072687,0.00127369,-0.0006250
 3,-0.00119245,0.00618856,-0.00903478,0.00155687,-0.00006234,0.00118646
 ,-0.00127585,0.00003441,0.00105510,-0.00004063,0.00000885,0.00295459,-
 0.00179423,0.45024261,-0.00655791,-0.09409312,0.00719133,-0.00380889,0
 .00034757,-0.00216414,0.00173238,0.00047838,0.00033014,0.00121169,0.00
 023019,0.00026235,-0.00072080,-0.00030123,0.00075211,0.01686635,0.0084
 3069,-0.00992649,0.00082989,-0.00341647,-0.00378840,0.00120696,0.00001
 324,-0.00142594,-0.00023328,0.00040862,0.00009373,-0.02574220,-0.01398
 753,0.02047166,0.00023489,0.00087449,-0.00027336,-0.00085897,0.0008002
 3,-0.00006512,0.00211663,-0.00478596,0.00234360,-0.04114841,0.62981137
 ,0.01675377,0.00727315,-0.10327649,-0.00751001,-0.00471679,0.01356904,
 -0.00128451,-0.00015221,-0.00002715,-0.00439925,-0.00067306,-0.0025104
 1,-0.00223230,-0.00031373,-0.00017611,0.02349137,0.00213531,-0.0224935
 7,-0.00071657,-0.00259388,-0.00245042,-0.00059842,0.00170938,0.0013957
 4,-0.00037832,0.00091045,0.00061604,0.00956783,0.01138418,-0.01007425,
 0.00041991,-0.00073912,-0.00016386,-0.00009923,-0.00199884,0.00127707,
 -0.00129164,0.00043009,0.00031727,0.06497826,0.05398983,0.53481954,-0.
 02857819,-0.00178202,-0.00214844,-0.00130697,-0.00049560,0.00242919,0.
 00000259,0.00022901,-0.00005744,-0.00010709,0.00010662,-0.00095213,-0.
 00006237,-0.00021575,-0.00016305,-0.00057197,0.00035836,-0.00019017,0.
 00005078,-0.00004700,-0.00024437,-0.00008495,0.00011223,0.00010673,0.0
 0066706,0.00040574,0.00044758,-0.00092938,-0.00055735,0.00088711,-0.00
 094498,-0.00106697,-0.00005251,0.00020252,-0.00030423,0.00043960,-0.00
 025303,0.00094523,-0.00053439,-0.17566430,0.03058806,-0.03154383,0.521
 25283,-0.01080979,0.00086331,-0.00552158,-0.00182440,-0.00092450,0.001
 91003,-0.00024196,0.00016074,-0.00016404,-0.00078903,0.00046022,-0.000
 44339,0.00012739,0.00018275,0.00014594,0.00045356,-0.00020135,0.000522
 26,-0.00037764,-0.00000088,-0.00022480,-0.00006059,0.00006963,0.000094
 26,0.00109276,0.00000614,-0.00079866,-0.00143557,0.00079389,-0.0009223
 2,-0.00081026,0.00024213,0.00104782,-0.00050981,-0.00039859,-0.0002836
 1,0.00053159,-0.00032206,0.00006756,0.02481916,-0.09062761,0.01190433,
 -0.01363703,0.56578676,0.02839914,-0.00435465,0.01020919,0.00226614,0.
 00118237,-0.00479304,0.00000087,-0.00017813,-0.00004641,0.00170401,0.0
 0029953,0.00116859,-0.00004747,0.00023671,0.00013863,0.00038935,0.0019
 7002,0.00296792,-0.00048777,-0.00043660,-0.00097250,-0.00009723,-0.000
 12397,-0.00026134,0.00165702,-0.00060302,-0.00166593,0.00175714,-0.001
 91204,0.00072852,0.00128364,0.00148778,0.00000045,-0.00054745,-0.00011
 066,-0.00031380,0.00026601,-0.00001541,-0.00010936,-0.05010034,0.01519
 165,-0.09280189,-0.03345684,-0.05654162,0.51283345,-0.00252105,-0.0278
 9989,0.00988037,0.00130153,-0.00117647,0.00119226,-0.00056112,0.000097
 28,-0.00019334,0.00000966,0.00029730,-0.00013543,-0.00012422,0.0000279
 4,-0.00000872,0.00087669,-0.00180709,-0.00073688,0.00001786,0.00001696
 ,-0.00016172,-0.00001949,0.00014851,-0.00011720,0.00001927,0.00026378,
 0.00005109,-0.00429483,-0.00014126,0.00208787,0.00000197,-0.00000135,0
 .00015351,-0.00009090,0.00012738,-0.00011496,0.00056653,-0.00128402,0.
 00072245,-0.05565923,0.04790580,-0.00980193,-0.00703531,0.03292653,-0.
 00589753,0.06824603,-0.00042407,-0.01025809,0.00346924,0.00069568,-0.0
 0018738,0.00011078,-0.00038678,0.00031886,-0.00010233,-0.00016232,0.00
 025272,-0.00012827,0.00001739,0.00002269,0.00004449,0.00107718,0.00046
 334,-0.00147366,-0.00004017,0.00030080,-0.00015886,-0.00020588,0.00089
 259,0.00057227,-0.00001003,-0.00007956,0.00011908,-0.00151040,0.001301
 98,0.00001665,0.00003299,-0.00001268,-0.00000063,0.00007660,0.00024194
 ,-0.00008813,0.00003493,-0.00018926,0.00028744,0.03975288,-0.30362557,
 0.05255497,0.00168795,-0.00343899,-0.00043207,-0.04399048,0.32459632,0
 .00275636,0.02463911,-0.01088372,-0.00114331,-0.00045778,-0.00033951,-
 0.00025301,0.00007413,0.00000382,0.00003112,-0.00006317,-0.00003657,0.
 00011810,-0.00006443,0.00009351,-0.00057280,0.00211931,0.00053757,-0.0
 0008693,-0.00022778,0.00020491,0.00033732,-0.00002433,-0.00037195,0.00
 000195,-0.00004310,-0.00019463,0.00394183,-0.00034769,-0.00150819,-0.0
 0014284,-0.00007942,0.00007331,-0.00002128,0.00013510,0.00003365,-0.00
 032289,0.00123671,-0.00034522,-0.00912820,0.04456218,-0.05784404,-0.00
 340104,0.01212186,-0.00265329,0.00339320,-0.05821833,0.06361904,-0.005
 26092,0.01318620,0.02599687,0.00039871,0.00108844,0.00308402,-0.000160
 23,0.00010577,-0.00007482,0.00012160,0.00002278,-0.00024405,-0.0012074
 8,-0.00077831,0.00013124,-0.00392793,-0.00268245,0.00233102,0.00000675
 ,0.00104680,0.00129164,0.00004618,-0.00012862,-0.00018278,-0.00011199,
 -0.00005683,0.00000607,-0.00003888,0.00119686,-0.00060329,-0.00001021,
 -0.00010014,0.00000784,0.00004549,-0.00013804,-0.00040240,-0.00003233,
 -0.00006540,-0.00010264,-0.05182998,-0.01816405,-0.02977131,0.00079377
 ,-0.01724673,-0.02319927,0.00076006,0.00292165,0.00433263,0.06680184,-
 0.00123369,0.00455250,0.01192746,-0.00007112,0.00077347,0.00058116,0.0
 0007451,-0.00028417,-0.00028038,0.00010688,-0.00000335,0.00029446,-0.0
 0015996,-0.00040304,0.00012323,-0.00106273,-0.00044899,0.00079564,-0.0
 0003350,0.00073803,0.00019867,-0.00022130,0.00031753,0.00001598,-0.000
 04933,-0.00012499,0.00008881,-0.00001693,0.00111024,0.00050965,-0.0000
 7775,-0.00005985,0.00003380,-0.00024211,-0.00086488,0.00003996,0.00002
 250,-0.00006545,-0.00019216,-0.01401722,-0.12978089,-0.12563135,0.0012
 9169,0.00253107,0.00609818,-0.00374902,-0.01339720,-0.02546033,0.01912
 925,0.13372598,0.00371556,-0.01036014,-0.02133252,-0.00249677,-0.00066
 218,0.00066787,0.00019143,-0.00004548,0.00005526,-0.00020257,0.0002863
 6,0.00025907,-0.00004473,0.00046095,0.00044384,0.00212417,0.00275304,-
 0.00028789,0.00014919,-0.00073506,-0.00058629,0.00000176,-0.00006954,0
 .00012907,-0.00006253,0.00006876,0.00010703,-0.00008676,-0.00133914,0.
 00006990,0.00004694,0.00004820,0.00002394,0.00007350,0.00061499,0.0000
 5325,0.00001279,0.00026584,0.00021404,-0.02226940,-0.11885378,-0.23688
 397,-0.00122239,-0.00696128,-0.01023745,0.00045590,0.00334999,0.007640
 80,0.02175800,0.13057433,0.25850871,0.00355761,-0.00018579,0.00098815,
 0.00053093,-0.00012213,0.00015345,0.00007076,-0.00004179,-0.00002077,-
 0.00006955,0.00012111,0.00021428,0.00006612,0.00013905,0.00003381,-0.0
 0429983,0.00035533,0.00439715,-0.00142227,-0.00020209,-0.00096391,-0.0
 0014336,-0.00002653,-0.00024774,-0.00470606,-0.00036732,-0.00117785,-0
 .00004631,0.00015220,-0.00011318,-0.00008221,0.00040983,-0.00021169,-0
 .00014255,0.00008286,-0.00013064,-0.00007085,-0.00004557,0.00007568,-0
 .00528611,-0.02516894,-0.03845732,-0.09087758,-0.00830509,-0.03173496,
 0.00239927,-0.00026275,0.00159853,-0.00758359,0.00116438,-0.00267995,0
 .55329506,-0.00003391,0.00010912,0.00020955,0.00007844,0.00009602,0.00
 034021,0.00000933,-0.00000278,-0.00000427,-0.00010825,-0.00003651,0.00
 002379,0.00006425,-0.00000929,0.00002304,0.00050313,0.00048793,-0.0004
 7384,0.00007044,0.00004896,0.00018111,-0.00017142,-0.00001600,-0.00008
 332,-0.00024918,-0.00023355,0.00000253,0.00031311,-0.00066996,0.000003
 30,0.00033040,0.00031007,-0.00030334,-0.00001888,0.00023210,0.00011495
 ,-0.00024787,0.00011719,-0.00002064,-0.00306360,0.00363593,-0.00109204
 ,0.01753766,-0.11716586,-0.06550052,-0.00137063,0.00102144,0.00052956,
 0.00139438,0.00059088,0.00072325,-0.07617252,0.15855305,-0.00078301,0.
 00067077,0.00100449,0.00003439,-0.00001280,0.00089500,0.00010262,-0.00
 004430,-0.00003851,-0.00034795,-0.00002084,0.00008050,0.00018299,0.000
 12297,0.00008325,-0.00029542,-0.00106050,-0.00054783,0.00004800,0.0001
 9552,0.00046892,0.00034974,0.00002445,0.00024563,0.00029790,0.00028096
 ,0.00002211,-0.00061202,0.00070179,-0.00045352,-0.00001553,-0.00045199
 ,-0.00007188,0.00027399,0.00024150,0.00016900,-0.00005246,-0.00002892,
 0.00025587,-0.00582945,-0.01372271,-0.02214272,0.00458908,-0.07869133,
 -0.16546657,0.00129756,0.00051823,0.00120518,-0.00333122,0.00043836,0.
 00043424,0.17684063,0.11265246,0.29665679,-0.00576349,0.00108665,-0.00
 326164,-0.00055826,-0.00039641,0.00162364,-0.00000892,0.00003455,-0.00
 001735,-0.00052248,-0.00003984,-0.00037080,-0.00001285,-0.00003440,-0.
 00004879,0.00026485,-0.00057475,-0.00063474,-0.00005441,0.00008869,0.0
 0014813,-0.00000245,0.00007121,0.00005600,-0.00001387,0.00002982,-0.00
 001856,0.00013840,0.00110431,-0.00065265,0.00005265,0.00003605,-0.0000
 0401,0.00002309,-0.00003539,-0.00001955,-0.00000071,-0.00010057,0.0000
 6054,-0.02096374,-0.01094703,0.02210599,-0.15363001,-0.04770844,0.1132
 5344,0.00120434,0.00051205,0.00045283,0.00046785,-0.00057193,0.0000452
 9,0.00927903,0.00185280,-0.00683576,0.16357397,0.00153919,0.00033155,0
 .00087699,0.00021715,0.00018836,-0.00015438,-0.00000853,0.00000139,-0.
 00002583,0.00008753,0.00000639,0.00000477,0.00001448,0.00000515,0.0000
 1478,-0.00015726,-0.00012112,-0.00004618,0.00007137,0.00003079,0.00004
 261,-0.00000306,0.00002570,0.00000325,-0.00016561,-0.00004215,0.000056
 27,-0.00019446,-0.00019226,0.00061681,-0.00010561,-0.00006799,-0.00050
 455,0.00017281,0.00016063,0.00010934,-0.00026789,0.00019924,-0.0001476
 8,0.00575728,0.00066190,-0.00314800,-0.05300018,-0.07628744,0.05895497
 ,-0.00021282,0.00046322,-0.00068708,-0.00060033,0.00012745,0.00013801,
 0.01293301,0.00467648,-0.02444150,0.05307030,0.07809433,-0.00495065,0.
 00030777,0.00099958,-0.00012758,-0.00011911,0.00059674,-0.00002018,0.0
 0003135,-0.00002878,-0.00022366,-0.00002678,-0.00016928,-0.00000141,-0
 .00001542,-0.00003597,-0.00009636,-0.00052978,-0.00049229,0.00008174,0
 .00012820,0.00020150,0.00001898,0.00005466,0.00004428,-0.00042341,0.00
 005779,0.00024415,-0.00011565,0.00057915,-0.00036647,-0.00002679,-0.00
 013364,0.00009636,0.00001527,-0.00005677,-0.00001655,0.00005516,-0.000
 07474,0.00006891,-0.00366188,-0.00271147,0.00715933,0.11088514,0.05819
 080,-0.17126580,0.00028730,-0.00006360,0.00031100,0.00026603,-0.000434
 77,0.00078209,0.01200596,-0.00564808,-0.03500977,-0.12127740,-0.053847
 83,0.19952957,0.00229842,0.00042743,0.00009003,0.00009076,-0.00008367,
 -0.00022085,0.00017929,-0.00008471,0.00009439,0.00004161,-0.00010469,0
 .00012663,-0.00000206,0.00001359,-0.00001995,-0.00012065,0.00005831,0.
 00011982,-0.00000406,-0.00001179,0.00004868,0.00007466,-0.00012504,-0.
 00006195,-0.00008509,0.00002934,0.00002414,-0.00104545,0.00022488,0.00
 036856,-0.00101875,-0.00053263,0.00118885,-0.00087284,-0.00068845,-0.0
 0012567,0.00026722,-0.00017072,0.00004635,-0.00681462,0.03174780,-0.00
 856041,-0.06013005,0.04076298,-0.00821065,-0.00538626,0.00030023,-0.00
 202405,0.00084556,-0.00050828,0.00035207,0.00341075,-0.00755316,-0.002
 34816,0.00545413,-0.01992755,0.00610109,0.06226481,0.00003922,-0.00054
 512,0.00041718,0.00003752,0.00002916,-0.00010889,0.00000450,0.00005432
 ,-0.00003315,0.00006409,0.00001863,-0.00000401,-0.00000253,-0.00000975
 ,0.00000480,0.00004105,0.00004647,-0.00009314,0.00007216,0.00000032,0.
 00001098,-0.00001795,0.00003072,-0.00000815,-0.00021172,-0.00004851,0.
 00013879,-0.00115812,-0.00047988,0.00119838,-0.00095427,-0.00025711,-0
 .00014252,-0.00037837,0.00011310,0.00034986,-0.00049885,0.00038942,-0.
 00027617,0.00120805,-0.00244015,0.00210638,0.04279573,-0.28202249,0.05
 603009,-0.00015404,0.00113754,0.00035901,0.00071973,0.00040001,0.00021
 697,-0.00134003,-0.02073535,-0.01217841,0.00185276,-0.00883664,0.00451
 673,-0.04298024,0.31271285,-0.00014822,-0.00056323,0.00000458,0.000083
 10,0.00013037,0.00016484,0.00002437,-0.00003667,0.00000426,-0.00005170
 ,-0.00003737,0.00001159,0.00000575,-0.00000237,0.00001004,0.00008390,-
 0.00010645,-0.00027256,0.00002454,0.00003529,0.00007769,0.00002350,-0.
 00002554,-0.00004082,-0.00021266,-0.00006617,0.00012387,0.00062015,0.0
 0032344,-0.00002689,0.00115808,0.00033816,-0.00074815,-0.00023897,-0.0
 0008237,-0.00002508,0.00004829,-0.00021026,-0.00005230,-0.00056504,0.0
 1190128,-0.00276612,-0.01109156,0.05980864,-0.06284830,-0.00281044,-0.
 00034339,0.00026882,0.00031678,0.00012530,0.00013092,0.00278824,-0.040
 10607,-0.00480545,-0.00418817,0.02106043,-0.00360013,0.01279364,-0.052
 25257,0.07291680,0.00033706,0.00008215,0.00016021,0.00006889,0.0000047
 4,-0.00013079,-0.00000417,0.00000233,0.00000496,0.00004759,0.00001852,
 0.00002964,0.00000472,-0.00000758,-0.00002110,0.00004555,0.00005317,0.
 00073714,-0.00012421,-0.00004014,-0.00017989,0.00001325,0.00000870,-0.
 00002196,-0.00067213,0.00012470,-0.00038528,0.00000773,0.00006739,-0.0
 0007939,-0.00014993,-0.00010357,0.00007868,-0.00000546,-0.00004182,-0.
 00001202,0.00006173,-0.00000815,0.00002019,0.00094774,-0.00108998,-0.0
 0067205,-0.00279337,0.00304238,0.00280274,0.00028921,-0.00011665,0.000
 13248,-0.00012430,0.00022564,0.00013849,-0.45787926,0.06683549,-0.1635
 6591,0.00107287,0.00078016,0.00120830,0.00055261,0.00086132,0.00133639
 ,0.45830388,0.00017551,0.00002047,0.00004429,-0.00005546,-0.00000478,0
 .00005225,0.00001696,-0.00002052,-0.00000389,-0.00002974,-0.00000068,0
 .00001569,0.00001000,0.00002726,0.00002015,-0.00011251,0.00005473,-0.0
 0024267,0.00010557,0.00009404,0.00009955,-0.00007058,0.00001858,-0.000
 02141,-0.00020420,-0.00012259,0.00023561,0.00000565,0.00008387,-0.0000
 7295,-0.00009020,-0.00002426,0.00004104,-0.00000759,0.00001281,-0.0000
 2719,0.00003138,-0.00003609,0.00002453,-0.00000717,-0.00263406,-0.0033
 3903,-0.02495214,0.00029313,-0.01124259,-0.00002440,0.00017528,-0.0001
 0354,-0.00085096,0.00056567,-0.00047411,0.09688278,-0.03100987,0.01480
 628,0.00066956,0.00057502,-0.00020447,-0.00079364,0.00044248,0.0001095
 5,-0.07069880,0.03148952,0.00007047,-0.00021359,-0.00015497,-0.0001204
 3,0.00003212,-0.00000494,0.00002066,-0.00000517,-0.00000386,-0.0000197
 4,0.00000711,0.00002588,0.00004194,0.00003782,0.00005702,0.00068730,-0
 .00003577,-0.00069806,0.00036129,0.00009041,0.00023743,-0.00001324,-0.
 00000508,0.00002684,-0.00053364,-0.00006096,0.00078405,-0.00007251,-0.
 00004593,0.00000614,0.00001456,-0.00009411,0.00006782,0.00000727,0.000
 03160,-0.00000203,0.00003867,-0.00002322,0.00002393,0.00053510,-0.0041
 5844,-0.00554304,-0.03472627,0.00473914,-0.01461106,0.00045664,-0.0000
 3385,0.00018550,-0.00161036,0.00015401,-0.00019192,-0.12335786,-0.0015
 7165,-0.07298475,-0.00041645,0.00112480,0.00095152,0.00021743,-0.00025
 215,0.00147238,0.15841918,0.00028290,0.09035611\\0.00000135,-0.0000004
 8,-0.00000588,0.00000637,-0.00000632,-0.00001545,0.00000032,-0.0000036
 8,-0.00000578,0.00000168,-0.00000563,-0.00000899,0.00000582,-0.0000019
 5,-0.00000572,-0.00000987,0.00000076,-0.00001116,-0.00000755,-0.000000
 71,-0.00000358,-0.00000560,0.00000557,-0.00000726,-0.00000062,0.000004
 68,0.00000072,-0.00000061,0.00000213,0.00000082,-0.00000153,0.00000314
 ,0.00000486,0.00000545,-0.00000038,0.00000177,-0.00000131,-0.00000124,
 -0.00000151,0.00000784,-0.00000093,0.00000170,0.00000789,0.00000481,0.
 00001244,0.00000235,0.00000101,-0.00000283,0.00000524,-0.00000107,-0.0
 0000103,-0.00006078,-0.00000668,0.00000596,0.00000462,-0.00000662,-0.0
 0000309,0.00000113,0.00000618,0.00001601,0.00003782,0.00000740,0.00002
 800\\\@
 The archive entry for this job was punched.


 IT IS A QUALITY OF REVOLUTIONS NOT TO GO BY OLD LINES OR OLD LAWS,
 BUT TO BREAK UP BOTH, AND MAKE NEW ONES.
                                              -- A. LINCOLN (1848)
 Job cpu time:       0 days  0 hours 47 minutes 14.3 seconds.
 Elapsed time:       0 days  0 hours 24 minutes 19.4 seconds.
 File lengths (MBytes):  RWF=    172 Int=      0 D2E=      0 Chk=     18 Scr=      1
 Normal termination of Gaussian 16 at Fri Jun  2 12:08:37 2023.
