 Entering Gaussian System, Link 0=g16
 Input=MEA-CO2_binding_direct-site_index-5-freq.gjf
 Output=MEA-CO2_binding_direct-site_index-5-freq.log
 Initial command:
 /software/commercial/gaussian/g16/AVX/g16/l1.exe "/scratch1/svicchi/G09-659875.pbs02/Gau-189409.inp" -scrdir="/scratch1/svicchi/G09-659875.pbs02/"
 Entering Link 1 = /software/commercial/gaussian/g16/AVX/g16/l1.exe PID=    189410.
  
 Copyright (c) 1988-2019, Gaussian, Inc.  All Rights Reserved.
  
 This is part of the Gaussian(R) 16 program.  It is based on
 the Gaussian(R) 09 system (copyright 2009, Gaussian, Inc.),
 the Gaussian(R) 03 system (copyright 2003, Gaussian, Inc.),
 the Gaussian(R) 98 system (copyright 1998, Gaussian, Inc.),
 the Gaussian(R) 94 system (copyright 1995, Gaussian, Inc.),
 the Gaussian 92(TM) system (copyright 1992, Gaussian, Inc.),
 the Gaussian 90(TM) system (copyright 1990, Gaussian, Inc.),
 the Gaussian 88(TM) system (copyright 1988, Gaussian, Inc.),
 the Gaussian 86(TM) system (copyright 1986, Carnegie Mellon
 University), and the Gaussian 82(TM) system (copyright 1983,
 Carnegie Mellon University). Gaussian is a federally registered
 trademark of Gaussian, Inc.
  
 This software contains proprietary and confidential information,
 including trade secrets, belonging to Gaussian, Inc.
  
 This software is provided under written license and may be
 used, copied, transmitted, or stored only in accord with that
 written license.
  
 The following legend is applicable only to US Government
 contracts under FAR:
  
                    RESTRICTED RIGHTS LEGEND
  
 Use, reproduction and disclosure by the US Government is
 subject to restrictions as set forth in subparagraphs (a)
 and (c) of the Commercial Computer Software - Restricted
 Rights clause in FAR 52.227-19.
  
 Gaussian, Inc.
 340 Quinnipiac St., Bldg. 40, Wallingford CT 06492
  
  
 ---------------------------------------------------------------
 Warning -- This program may not be used in any manner that
 competes with the business of Gaussian, Inc. or will provide
 assistance to any competitor of Gaussian, Inc.  The licensee
 of this program is prohibited from giving any competitor of
 Gaussian, Inc. access to this program.  By using this program,
 the user acknowledges that Gaussian, Inc. is engaged in the
 business of creating and licensing software in the field of
 computational chemistry and represents and warrants to the
 licensee that it is not a competitor of Gaussian, Inc. and that
 it will not use this program in any manner prohibited above.
 ---------------------------------------------------------------
  

 Cite this work as:
 Gaussian 16, Revision C.01,
 M. J. Frisch, G. W. Trucks, H. B. Schlegel, G. E. Scuseria, 
 M. A. Robb, J. R. Cheeseman, G. Scalmani, V. Barone, 
 G. A. Petersson, H. Nakatsuji, X. Li, M. Caricato, A. V. Marenich, 
 J. Bloino, B. G. Janesko, R. Gomperts, B. Mennucci, H. P. Hratchian, 
 J. V. Ortiz, A. F. Izmaylov, J. L. Sonnenberg, D. Williams-Young, 
 F. Ding, F. Lipparini, F. Egidi, J. Goings, B. Peng, A. Petrone, 
 T. Henderson, D. Ranasinghe, V. G. Zakrzewski, J. Gao, N. Rega, 
 G. Zheng, W. Liang, M. Hada, M. Ehara, K. Toyota, R. Fukuda, 
 J. Hasegawa, M. Ishida, T. Nakajima, Y. Honda, O. Kitao, H. Nakai, 
 T. Vreven, K. Throssell, J. A. Montgomery, Jr., J. E. Peralta, 
 F. Ogliaro, M. J. Bearpark, J. J. Heyd, E. N. Brothers, K. N. Kudin, 
 V. N. Staroverov, T. A. Keith, R. Kobayashi, J. Normand, 
 K. Raghavachari, A. P. Rendell, J. C. Burant, S. S. Iyengar, 
 J. Tomasi, M. Cossi, J. M. Millam, M. Klene, C. Adamo, R. Cammi, 
 J. W. Ochterski, R. L. Martin, K. Morokuma, O. Farkas, 
 J. B. Foresman, and D. J. Fox, Gaussian, Inc., Wallingford CT, 2019.
 
 ******************************************
 Gaussian 16:  ES64L-G16RevC.01  3-Jul-2019
                 2-Jun-2023 
 ******************************************
 %NProcShared=2
 Will use up to    2 processors via shared memory.
 %mem=55gb
 %chk=/scratch1/svicchi/G09-659875.pbs02/02-freq/MEA-CO2_binding_direct-site_inde
 x-5-freq.chk
 ----------------------------------------------------------------------
 #p freq=raman scale=0.967 pop=(nbo,full,hirshfeld) guess=read geom=all
 check b3lyp/6-311+G(d,p) int=grid=ultrafine EmpiricalDispersion=GD3BJ 
 SCRF=(Solvent=ethanol) scf=(xqc,intrep,maxconventionalcycle=350) nosym
 m
 ----------------------------------------------------------------------
 1/10=4,29=7,30=1,38=1,114=967000/1,3;
 2/12=2,15=1,40=1/2;
 3/5=4,6=6,7=111,11=2,14=-4,25=1,30=1,70=2201,71=2,72=4,74=-5,75=-5,116=-2,124=41,140=1/1,2,3;
 4/5=1/1;
 5/5=2,8=3,13=1,17=20,38=6,53=4,85=350,98=1/2,8;
 8/6=4,10=90,11=11/1;
 10/13=10,15=4,31=1/2;
 11/6=3,8=1,9=11,15=111,16=1,31=1/1,2,10;
 10/6=1,31=1/2;
 6/7=3,28=1,40=1,79=1/1,7;
 7/8=1,10=1,25=1,30=1/1,2,3,16;
 1/10=4,30=1/3;
 99//99;
 Leave Link    1 at Fri Jun  2 13:18:36 2023, MaxMem=  7381975040 cpu:               1.1 elap:               1.6
 (Enter /software/commercial/gaussian/g16/AVX/g16/l101.exe)
 Structure from the checkpoint file:  "/scratch1/svicchi/G09-659875.pbs02/02-freq/MEA-CO2_binding_direct-site_index-5-freq.chk"
 ---------------------------------------
 MEA-CO2_binding_direct-site_index-5.gjf
 ---------------------------------------
 Charge =  0 Multiplicity = 1
 No Z-Matrix found in chk file; cartesian coordinates used.
  O                                                 1.808479433967     -0.539336895060      0.281529054686
  C                                                 2.919295743860      0.329678341088      0.524326336064
  C                                                 4.251868080697     -0.322104199730      0.167521026635
  H                                                 2.887989989717      0.559304673283      1.592423193572
  H                                                 2.805098856743      1.269896072460     -0.025894911591
  N                                                 5.354867448910      0.599226502707      0.469400908943
  H                                                 4.271982762452     -0.530689328939     -0.906614453631
  H                                                 4.324783212479     -1.284725681475      0.692019238527
  H                                                 1.743015825015     -0.689531093345     -0.668163686151
  H                                                 6.236723124718      0.203843317547      0.159027779240
  H                                                 5.439887841622      0.732684257874      1.473199603824
  C                                                 5.162893729171      2.815411622013     -1.271674997974
  O                                                 4.708073781331      2.121649094477     -2.085208441697
  O                                                 5.611554169318      3.575681317100     -0.516788650447
 Recover connectivity data from disk.
 ITRead=  0  0  0  0  0  0  0  0  0  0  0  0  0  0
 MicOpt= -1 -1 -1 -1 -1 -1 -1 -1 -1 -1 -1 -1 -1 -1
 NAtoms=     14 NQM=       14 NQMF=       0 NMMI=      0 NMMIF=      0
                NMic=       0 NMicF=      0.
                    Isotopes and Nuclear Properties:
 (Nuclear quadrupole moments (NQMom) in fm**2, nuclear magnetic moments (NMagM)
  in nuclear magnetons)

  Atom         1           2           3           4           5           6           7           8           9          10
 IAtWgt=          16          12          12           1           1          14           1           1           1           1
 AtmWgt=  15.9949146  12.0000000  12.0000000   1.0078250   1.0078250  14.0030740   1.0078250   1.0078250   1.0078250   1.0078250
 NucSpn=           0           0           0           1           1           2           1           1           1           1
 AtZEff=   5.6000000   3.6000000   3.6000000   1.0000000   1.0000000   4.5500000   1.0000000   1.0000000   1.0000000   1.0000000
 NQMom=    0.0000000   0.0000000   0.0000000   0.0000000   0.0000000   2.0440000   0.0000000   0.0000000   0.0000000   0.0000000
 NMagM=    0.0000000   0.0000000   0.0000000   2.7928460   2.7928460   0.4037610   2.7928460   2.7928460   2.7928460   2.7928460
 AtZNuc=   8.0000000   6.0000000   6.0000000   1.0000000   1.0000000   7.0000000   1.0000000   1.0000000   1.0000000   1.0000000

  Atom        11          12          13          14
 IAtWgt=           1          12          16          16
 AtmWgt=   1.0078250  12.0000000  15.9949146  15.9949146
 NucSpn=           1           0           0           0
 AtZEff=   1.0000000   3.6000000   5.6000000   5.6000000
 NQMom=    0.0000000   0.0000000   0.0000000   0.0000000
 NMagM=    2.7928460   0.0000000   0.0000000   0.0000000
 AtZNuc=   1.0000000   6.0000000   8.0000000   8.0000000
 Leave Link  101 at Fri Jun  2 13:18:39 2023, MaxMem=  7381975040 cpu:               0.6 elap:               1.8
 (Enter /software/commercial/gaussian/g16/AVX/g16/l103.exe)

 GradGradGradGradGradGradGradGradGradGradGradGradGradGradGradGradGradGrad
 Berny optimization.
 Initialization pass.
 Trust Radius=3.00D-01 FncErr=1.00D-07 GrdErr=1.00D-07 EigMax=2.50D+02 EigMin=1.00D-04
 Number of steps in this run=      2 maximum allowed number of steps=      2.
 GradGradGradGradGradGradGradGradGradGradGradGradGradGradGradGradGradGrad

 Leave Link  103 at Fri Jun  2 13:18:41 2023, MaxMem=  7381975040 cpu:               0.1 elap:               0.4
 (Enter /software/commercial/gaussian/g16/AVX/g16/l202.exe)
                          Input orientation:                          
 ---------------------------------------------------------------------
 Center     Atomic      Atomic             Coordinates (Angstroms)
 Number     Number       Type             X           Y           Z
 ---------------------------------------------------------------------
      1          8           0        1.808479   -0.539337    0.281529
      2          6           0        2.919296    0.329678    0.524326
      3          6           0        4.251868   -0.322104    0.167521
      4          1           0        2.887990    0.559305    1.592423
      5          1           0        2.805099    1.269896   -0.025895
      6          7           0        5.354867    0.599227    0.469401
      7          1           0        4.271983   -0.530689   -0.906614
      8          1           0        4.324783   -1.284726    0.692019
      9          1           0        1.743016   -0.689531   -0.668164
     10          1           0        6.236723    0.203843    0.159028
     11          1           0        5.439888    0.732684    1.473200
     12          6           0        5.162894    2.815412   -1.271675
     13          8           0        4.708074    2.121649   -2.085208
     14          8           0        5.611554    3.575681   -0.516789
 ---------------------------------------------------------------------
                    Distance matrix (angstroms):
                    1          2          3          4          5
     1  O    0.000000
     2  C    1.431101   0.000000
     3  C    2.455674   1.525739   0.000000
     4  H    2.022573   1.092950   2.160415   0.000000
     5  H    2.088321   1.095351   2.159865   1.769397   0.000000
     6  N    3.729409   2.451057   1.468533   2.710767   2.682617
     7  H    2.735070   2.148857   1.094385   3.057566   2.483852
     8  H    2.656293   2.147048   1.098661   2.505105   3.057930
     9  H    0.963722   1.960728   2.669777   2.825033   2.319458
    10  H    4.491844   3.339851   2.053373   3.659917   3.598154
    11  H    4.028057   2.723263   2.056396   2.560558   3.078635
    12  C    4.991881   3.799766   3.570050   4.297472   3.082172
    13  O    4.592378   3.636008   3.354824   4.390740   2.930455
    14  O    5.659864   4.343813   4.184466   4.578767   3.665217
                    6          7          8          9         10
     6  N    0.000000
     7  H    2.083931   0.000000
     8  H    2.158682   1.768329   0.000000
     9  H    4.000053   2.545145   2.978234   0.000000
    10  H    1.015051   2.352730   2.481014   4.655724   0.000000
    11  H    1.016194   2.936602   2.433854   4.502776   1.625321
    12  C    2.824832   3.481865   4.622732   4.934006   3.165487
    13  O    3.043377   2.934989   4.411722   4.324618   3.324356
    14  O    3.146068   4.336899   5.171127   5.760255   3.495262
                   11         12         13         14
    11  H    0.000000
    12  C    3.456706   0.000000
    13  O    3.889350   1.161897   0.000000
    14  O    3.474501   1.161533   2.321729   0.000000
 Symmetry turned off by external request.
 Stoichiometry    C3H7NO3
 Framework group  C1[X(C3H7NO3)]
 Deg. of freedom    36
 Full point group                 C1      NOp   1
 Rotational constants (GHZ):           4.1431781           1.1357643           1.0319365
 Leave Link  202 at Fri Jun  2 13:18:43 2023, MaxMem=  7381975040 cpu:               0.1 elap:               1.1
 (Enter /software/commercial/gaussian/g16/AVX/g16/l301.exe)
 Standard basis: 6-311+G(d,p) (5D, 7F)
 Ernie: Thresh=  0.10000D-02 Tol=  0.10000D-05 Strict=F.
   196 basis functions,   308 primitive gaussians,   203 cartesian basis functions
    28 alpha electrons       28 beta electrons
       nuclear repulsion energy       292.3106601576 Hartrees.
 IExCor=  402 DFT=T Ex+Corr=B3LYP ExCW=0 ScaHFX=  0.200000
 ScaDFX=  0.800000  0.720000  1.000000  0.810000 ScalE2=  1.000000  1.000000
 IRadAn=      5 IRanWt=     -1 IRanGd=            0 ICorTp=0 IEmpDi=141
 NAtoms=   14 NActive=   14 NUniq=   14 SFac= 1.00D+00 NAtFMM=   60 NAOKFM=F Big=F
 Integral buffers will be    131072 words long.
 Raffenetti 2 integral format.
 Two-electron integral symmetry is turned off.
 R6Disp:  Grimme-D3(BJ) Dispersion energy=       -0.0159712514 Hartrees.
 Nuclear repulsion after empirical dispersion term =      292.2946889062 Hartrees.
 Force inversion solution in PCM.
 ------------------------------------------------------------------------------
 Polarizable Continuum Model (PCM)
 =================================
 Model                : PCM.
 Atomic radii         : UFF (Universal Force Field).
 Polarization charges : Total charges.
 Charge compensation  : None.
 Solution method      : Matrix inversion.
 Cavity type          : Scaled VdW (van der Waals Surface) (Alpha=1.100).
 Cavity algorithm     : GePol (No added spheres)
                        Default sphere list used, NSphG=   14.
                        Lebedev-Laikov grids with approx.  5.0 points / Ang**2.
                        Smoothing algorithm: York/Karplus (Gamma=1.0000).
                        Polarization charges: spherical gaussians, with
                                              point-specific exponents (IZeta= 3).
                        Self-potential: point-specific (ISelfS= 7).
                        Self-field    : sphere-specific E.n sum rule (ISelfD= 2).
 1st derivatives      : Analytical E(r).r(x)/FMM algorithm (CHGder, D1EAlg=3).
                        Cavity 1st derivative terms included.
 2nd derivatives      : Analytical E(r).r(xy)/FMM algorithm (CHGder, D2EAlg=3).
                        Cavity 2nd derivative terms included.
 Solvent              : Ethanol, Eps=  24.852000 Eps(inf)=   1.852593
 ------------------------------------------------------------------------------
 Spheres list:
 ISph  on   Nord     Re0    Alpha      Xe            Ye            Ze
    1   O      1    1.7500  1.100      1.808479     -0.539337      0.281529
    2   C      2    1.9255  1.100      2.919296      0.329678      0.524326
    3   C      3    1.9255  1.100      4.251868     -0.322104      0.167521
    4   H      4    1.4430  1.100      2.887990      0.559305      1.592423
    5   H      5    1.4430  1.100      2.805099      1.269896     -0.025895
    6   N      6    1.8300  1.100      5.354867      0.599227      0.469401
    7   H      7    1.4430  1.100      4.271983     -0.530689     -0.906614
    8   H      8    1.4430  1.100      4.324783     -1.284726      0.692019
    9   H      9    1.4430  1.100      1.743016     -0.689531     -0.668164
   10   H     10    1.4430  1.100      6.236723      0.203843      0.159028
   11   H     11    1.4430  1.100      5.439888      0.732684      1.473200
   12   C     12    1.9255  1.100      5.162894      2.815412     -1.271675
   13   O     13    1.7500  1.100      4.708074      2.121649     -2.085208
   14   O     14    1.7500  1.100      5.611554      3.575681     -0.516789
 ------------------------------------------------------------------------------
 GePol: Number of generator spheres                  =      14
 GePol: Total number of spheres                      =      14
 GePol: Number of exposed spheres                    =      14 (100.00%)
 GePol: Number of points                             =    1297
 GePol: Average weight of points                     =       0.14
 GePol: Minimum weight of points                     =   0.34D-09
 GePol: Maximum weight of points                     =    0.20577
 GePol: Number of points with low weight             =      61
 GePol: Fraction of low-weight points (<1% of avg)   =       4.70%
 GePol: Cavity surface area                          =    177.829 Ang**2
 GePol: Cavity volume                                =    163.434 Ang**3
 Leave Link  301 at Fri Jun  2 13:18:45 2023, MaxMem=  7381975040 cpu:               0.3 elap:               0.7
 (Enter /software/commercial/gaussian/g16/AVX/g16/l302.exe)
 NPDir=0 NMtPBC=     1 NCelOv=     1 NCel=       1 NClECP=     1 NCelD=      1
         NCelK=      1 NCelE2=     1 NClLst=     1 CellRange=     0.0.
 One-electron integrals computed using PRISM.
 NBasis=   196 RedAO= T EigKep=  7.16D-05  NBF=   196
 NBsUse=   196 1.00D-06 EigRej= -1.00D+00 NBFU=   196
 Precomputing XC quadrature grid using
 IXCGrd= 4 IRadAn=           5 IRanWt=          -1 IRanGd=           0 AccXCQ= 0.00D+00.
 Generated NRdTot=       0 NPtTot=           0 NUsed=           0 NTot=          32
 NSgBfM=   203   203   203   203   203 MxSgAt=    14 MxSgA2=    14.
 Leave Link  302 at Fri Jun  2 13:18:47 2023, MaxMem=  7381975040 cpu:               0.6 elap:               1.1
 (Enter /software/commercial/gaussian/g16/AVX/g16/l303.exe)
 DipDrv:  MaxL=1.
 Leave Link  303 at Fri Jun  2 13:18:49 2023, MaxMem=  7381975040 cpu:               0.3 elap:               1.4
 (Enter /software/commercial/gaussian/g16/AVX/g16/l401.exe)
 Initial guess from the checkpoint file:  "/scratch1/svicchi/G09-659875.pbs02/02-freq/MEA-CO2_binding_direct-site_index-5-freq.chk"
 B after Tr=     0.000000    0.000000    0.000000
         Rot=    1.000000    0.000000    0.000000    0.000000 Ang=   0.00 deg.
 Guess basis will be translated and rotated to current coordinates.
 JPrj=2 DoOrth=T DoCkMO=T.
 Leave Link  401 at Fri Jun  2 13:18:51 2023, MaxMem=  7381975040 cpu:               0.5 elap:               1.0
 (Enter /software/commercial/gaussian/g16/AVX/g16/l502.exe)
 Keep R1 ints in memory in canonical form, NReq=190616234.
 FoFCou: FMM=F IPFlag=           0 FMFlag=           0 FMFlg1=           0
         NFxFlg=           0 DoJE=F BraDBF=F KetDBF=F FulRan=T
         wScrn=  0.000000 ICntrl=       600 IOpCl=  0 I1Cent=           0 NGrid=           0
         NMat0=    1 NMatS0=  19306 NMatT0=    0 NMatD0=    1 NMtDS0=    0 NMtDT0=    0
 Symmetry not used in FoFCou.
 Two-electron integral symmetry not used.
 Closed shell SCF:
 Using DIIS extrapolation, IDIIS=  1040.
 NGot=  7381975040 LenX=  7195518996 LenY=  7195477346
 Requested convergence on RMS density matrix=1.00D-08 within 350 cycles.
 Requested convergence on MAX density matrix=1.00D-06.
 Requested convergence on             energy=1.00D-06.
 No special actions if energy rises.

 Cycle   1  Pass 1  IDiag  1:
 Inv3:  Mode=1 IEnd=     5046627.
 Iteration    1 A*A^-1 deviation from unit magnitude is 5.77D-15 for   1285.
 Iteration    1 A*A^-1 deviation from orthogonality  is 2.47D-15 for   1257    249.
 Iteration    1 A^-1*A deviation from unit magnitude is 5.77D-15 for   1285.
 Iteration    1 A^-1*A deviation from orthogonality  is 3.56D-15 for   1294    239.
 E= -399.134000061973    
 DIIS: error= 2.34D-08 at cycle   1 NSaved=   1.
 NSaved= 1 IEnMin= 1 EnMin= -399.134000061973     IErMin= 1 ErrMin= 2.34D-08
 ErrMax= 2.34D-08  0.00D+00 EMaxC= 1.00D-01 BMatC= 1.90D-13 BMatP= 1.90D-13
 IDIUse=1 WtCom= 1.00D+00 WtEn= 0.00D+00
 Coeff-Com:  0.100D+01
 Coeff:      0.100D+01
 Gap=     0.250 Goal=   None    Shift=    0.000
 RMSDP=3.78D-09 MaxDP=1.71D-07              OVMax= 2.85D-07

 Error on total polarization charges =  0.01049
 SCF Done:  E(RB3LYP) =  -399.134000062     A.U. after    1 cycles
            NFock=  1  Conv=0.38D-08     -V/T= 2.0037
 KE= 3.976744154525D+02 PE=-1.521179206500D+03 EE= 4.320761020790D+02
 Leave Link  502 at Fri Jun  2 13:19:08 2023, MaxMem=  7381975040 cpu:              24.7 elap:              15.5
 (Enter /software/commercial/gaussian/g16/AVX/g16/l508.exe)
 QCSCF skips out because SCF is already converged.
 Leave Link  508 at Fri Jun  2 13:19:10 2023, MaxMem=  7381975040 cpu:               0.0 elap:               1.0
 (Enter /software/commercial/gaussian/g16/AVX/g16/l801.exe)
 DoSCS=F DFT=T ScalE2(SS,OS)=  1.000000  1.000000
 Range of M.O.s used for correlation:     1   196
 NBasis=   196 NAE=    28 NBE=    28 NFC=     0 NFV=     0
 NROrb=    196 NOA=    28 NOB=    28 NVA=   168 NVB=   168

 **** Warning!!: The largest alpha MO coefficient is  0.32538980D+02

 Leave Link  801 at Fri Jun  2 13:19:12 2023, MaxMem=  7381975040 cpu:               0.1 elap:               1.4
 (Enter /software/commercial/gaussian/g16/AVX/g16/l1002.exe)
 Minotr:  Closed shell wavefunction.
 NEqPCM:  Using equilibrium solvation (IEInf=0, Eps=  24.8520, EpsInf=   1.8526)
          Direct CPHF calculation.
          Differentiating once with respect to electric field.
                with respect to dipole field.
          Electric field/nuclear overlap derivatives assumed to be zero.
          Requested convergence is 1.0D-08 RMS, and 1.0D-07 maximum.
          Secondary convergence is 1.0D-12 RMS, and 1.0D-12 maximum.
          NewPWx=F KeepS1=T KeepF1=T KeepIn=T MapXYZ=F SortEE=F KeepMc=T.
         4306 words used for storage of precomputed grid.
 Keep R1 ints in memory in canonical form, NReq=191633214.
 FoFCou: FMM=F IPFlag=           0 FMFlag=           0 FMFlg1=           0
         NFxFlg=           0 DoJE=F BraDBF=F KetDBF=F FulRan=T
         wScrn=  0.000000 ICntrl=       600 IOpCl=  0 I1Cent=           0 NGrid=           0
         NMat0=    1 NMatS0=  19306 NMatT0=    0 NMatD0=    1 NMtDS0=    0 NMtDT0=    0
 Symmetry not used in FoFCou.
 Two-electron integral symmetry not used.
          MDV=    7381975040 using IRadAn=       1.
          Solving linear equations simultaneously, MaxMat=       0.
          There are     3 degrees of freedom in the 1st order CPHF.  IDoFFX=0 NUNeed=     3.
      3 vectors produced by pass  0 Test12= 1.57D-13 3.33D-08 XBig12= 3.85D+01 1.76D+00.
 AX will form     3 AO Fock derivatives at one time.
      3 vectors produced by pass  1 Test12= 1.57D-13 3.33D-08 XBig12= 8.12D+00 9.02D-01.
      3 vectors produced by pass  2 Test12= 1.57D-13 3.33D-08 XBig12= 1.44D+00 1.95D-01.
      3 vectors produced by pass  3 Test12= 1.57D-13 3.33D-08 XBig12= 1.21D-01 9.35D-02.
      3 vectors produced by pass  4 Test12= 1.57D-13 3.33D-08 XBig12= 4.44D-02 4.59D-02.
      3 vectors produced by pass  5 Test12= 1.57D-13 3.33D-08 XBig12= 2.59D-03 1.02D-02.
      3 vectors produced by pass  6 Test12= 1.57D-13 3.33D-08 XBig12= 2.39D-04 3.74D-03.
      3 vectors produced by pass  7 Test12= 1.57D-13 3.33D-08 XBig12= 1.42D-05 9.88D-04.
      3 vectors produced by pass  8 Test12= 1.57D-13 3.33D-08 XBig12= 8.17D-07 2.65D-04.
      3 vectors produced by pass  9 Test12= 1.57D-13 3.33D-08 XBig12= 1.74D-08 3.53D-05.
      3 vectors produced by pass 10 Test12= 1.57D-13 3.33D-08 XBig12= 4.97D-10 4.37D-06.
      3 vectors produced by pass 11 Test12= 1.57D-13 3.33D-08 XBig12= 1.07D-11 6.08D-07.
      1 vectors produced by pass 12 Test12= 1.57D-13 3.33D-08 XBig12= 1.86D-13 7.47D-08.
 InvSVY:  IOpt=1 It=  1 EMax= 1.78D-15
 Solved reduced A of dimension    37 with     3 vectors.
 End of Minotr F.D. properties file   721 does not exist.
 End of Minotr F.D. properties file   722 does not exist.
 End of Minotr F.D. properties file   788 does not exist.
 Leave Link 1002 at Fri Jun  2 13:20:22 2023, MaxMem=  7381975040 cpu:             122.9 elap:              68.7
 (Enter /software/commercial/gaussian/g16/AVX/g16/l1101.exe)
 Using compressed storage, NAtomX=    14.
 Will process     15 centers per pass.
 R6Disp: Adding Grimme-D3(BJ) dispersion energy 1st derivatives to the gradient.
 Leave Link 1101 at Fri Jun  2 13:20:26 2023, MaxMem=  7381975040 cpu:               1.8 elap:               3.0
 (Enter /software/commercial/gaussian/g16/AVX/g16/l1102.exe)
 Symmetrizing basis deriv contribution to polar:
 IMax=3 JMax=2 DiffMx= 0.00D+00
 Leave Link 1102 at Fri Jun  2 13:20:29 2023, MaxMem=  7381975040 cpu:               0.2 elap:               0.9
 (Enter /software/commercial/gaussian/g16/AVX/g16/l1110.exe)
 Forming Gx(P) for the SCF density, NAtomX=    14.
 Integral derivatives from FoFJK, PRISM(SPDF).
 Do as many integral derivatives as possible in FoFJK.
 G2DrvN: MDV=    7381973462.
 G2DrvN: will do    15 centers at a time, making    1 passes.
 PxScal for G2LodP:  IOpCl= 0 ISclPx=1 IMOff=     1 NMtTot=     4 NTT=   19306 ScalPx= 6.45D+00
 Calling FoFCou, ICntrl=  3107 FMM=F I1Cent=   0 AccDes= 0.00D+00.
 FoFJK:  IHMeth= 1 ICntrl=    3107 DoSepK=F KAlg= 0 I1Cent=           0 FoldK=F
 IRaf=         0 NMat=       1 IRICut=       1 DoRegI=T DoRafI=F ISym2E= 0 IDoP0=0 IntGTp=1.
 FoFCou: FMM=F IPFlag=           0 FMFlag=      100000 FMFlg1=           0
         NFxFlg=           0 DoJE=F BraDBF=F KetDBF=F FulRan=T
         wScrn=  0.000000 ICntrl=      3107 IOpCl=  0 I1Cent=           0 NGrid=           0
         NMat0=    1 NMatS0=      1 NMatT0=    0 NMatD0=    4 NMtDS0=    3 NMtDT0=    0
 Symmetry not used in FoFCou.
 PxScal for G2LodP:  IOpCl= 0 ISclPx=0 IMOff=     1 NMtTot=     4 NTT=   19306 ScalPx= 1.00D+00
 NEqPCM:  Using equilibrium solvation (IEInf=0, Eps=  24.8520, EpsInf=   1.8526)
 G2PCM: DoFxE=T DoFxN=T DoGrad=T DoDP/DQ/DG/TGxP=TFFF NFrqRd=   0 IEInf=0 SqF1=F DoCFld=F IF1Alg=4.
 GePol: Maximum number of non-zero 1st derivatives   =     217
 End of G2Drv F.D. properties file   721 does not exist.
 End of G2Drv F.D. properties file   722 does not exist.
 End of G2Drv F.D. properties file   788 does not exist.
 Leave Link 1110 at Fri Jun  2 13:23:32 2023, MaxMem=  7381975040 cpu:             357.4 elap:             182.3
 (Enter /software/commercial/gaussian/g16/AVX/g16/l1002.exe)
 Minotr:  Closed shell wavefunction.
          IDoAtm=11111111111111
 NEqPCM:  Using equilibrium solvation (IEInf=0, Eps=  24.8520, EpsInf=   1.8526)
          Direct CPHF calculation.
          Differentiating once with respect to electric field.
                with respect to dipole field.
          Differentiating once with respect to nuclear coordinates.
          Requested convergence is 1.0D-08 RMS, and 1.0D-07 maximum.
          Secondary convergence is 1.0D-12 RMS, and 1.0D-12 maximum.
          NewPWx=T KeepS1=F KeepF1=F KeepIn=T MapXYZ=F SortEE=F KeepMc=T.
         4306 words used for storage of precomputed grid.
 Keep R1 ints in memory in canonical form, NReq=191633536.
 FoFCou: FMM=F IPFlag=           0 FMFlag=           0 FMFlg1=           0
         NFxFlg=           0 DoJE=F BraDBF=F KetDBF=F FulRan=T
         wScrn=  0.000000 ICntrl=       600 IOpCl=  0 I1Cent=           0 NGrid=           0
         NMat0=    1 NMatS0=  19306 NMatT0=    0 NMatD0=    1 NMtDS0=    0 NMtDT0=    0
 Symmetry not used in FoFCou.
 Two-electron integral symmetry not used.
          MDV=    7381975040 using IRadAn=       1.
          Solving linear equations simultaneously, MaxMat=       0.
          There are    45 degrees of freedom in the 1st order CPHF.  IDoFFX=5 NUNeed=    45.
 Will reuse    3 saved solutions.
     39 vectors produced by pass  0 Test12= 1.05D-14 2.22D-09 XBig12= 1.81D-01 1.22D-01.
 AX will form    39 AO Fock derivatives at one time.
     39 vectors produced by pass  1 Test12= 1.05D-14 2.22D-09 XBig12= 6.33D-03 1.41D-02.
     39 vectors produced by pass  2 Test12= 1.05D-14 2.22D-09 XBig12= 2.04D-04 3.58D-03.
     39 vectors produced by pass  3 Test12= 1.05D-14 2.22D-09 XBig12= 6.79D-07 1.26D-04.
     39 vectors produced by pass  4 Test12= 1.05D-14 2.22D-09 XBig12= 1.36D-09 6.11D-06.
     29 vectors produced by pass  5 Test12= 1.05D-14 2.22D-09 XBig12= 1.82D-12 1.93D-07.
      8 vectors produced by pass  6 Test12= 1.05D-14 2.22D-09 XBig12= 2.23D-15 6.36D-09.
 InvSVY:  IOpt=1 It=  1 EMax= 1.33D-15
 Solved reduced A of dimension   232 with    39 vectors.
 FullF1:  Do perturbations      1 to       3.
 Isotropic polarizability for W=    0.000000       68.52 Bohr**3.
 FullF1:  Do perturbations      1 to       6.
 End of Minotr F.D. properties file   721 does not exist.
 End of Minotr F.D. properties file   722 does not exist.
 End of Minotr F.D. properties file   788 does not exist.
 Leave Link 1002 at Fri Jun  2 13:27:07 2023, MaxMem=  7381975040 cpu:             396.4 elap:             213.4
 (Enter /software/commercial/gaussian/g16/AVX/g16/l601.exe)
 Copying SCF densities to generalized density rwf, IOpCl= 0 IROHF=0.

 **********************************************************************

            Population analysis using the SCF Density.

 **********************************************************************

 Alpha  occ. eigenvalues --  -19.19803 -19.19794 -19.13223 -14.30268 -10.35743
 Alpha  occ. eigenvalues --  -10.21818 -10.19548  -1.15955  -1.12062  -1.03067
 Alpha  occ. eigenvalues --   -0.89071  -0.72585  -0.62136  -0.56334  -0.52295
 Alpha  occ. eigenvalues --   -0.52142  -0.51482  -0.51182  -0.49852  -0.45854
 Alpha  occ. eigenvalues --   -0.43726  -0.40789  -0.38424  -0.37179  -0.37005
 Alpha  occ. eigenvalues --   -0.33737  -0.29065  -0.25731
 Alpha virt. eigenvalues --   -0.00704   0.00626   0.01816   0.02810   0.03127
 Alpha virt. eigenvalues --    0.03524   0.05502   0.05714   0.06237   0.06852
 Alpha virt. eigenvalues --    0.08025   0.09966   0.10586   0.11916   0.12274
 Alpha virt. eigenvalues --    0.13591   0.14782   0.16133   0.16443   0.17280
 Alpha virt. eigenvalues --    0.19253   0.19385   0.20289   0.20832   0.21839
 Alpha virt. eigenvalues --    0.22295   0.22494   0.23595   0.24678   0.24927
 Alpha virt. eigenvalues --    0.26709   0.27308   0.27883   0.28051   0.29154
 Alpha virt. eigenvalues --    0.29274   0.30158   0.31242   0.32726   0.34560
 Alpha virt. eigenvalues --    0.38615   0.43187   0.45854   0.49772   0.52479
 Alpha virt. eigenvalues --    0.53820   0.56355   0.57576   0.58617   0.61657
 Alpha virt. eigenvalues --    0.62289   0.64844   0.65800   0.68121   0.70083
 Alpha virt. eigenvalues --    0.70664   0.73132   0.78867   0.80916   0.82738
 Alpha virt. eigenvalues --    0.85672   0.89995   0.90900   0.91723   0.99599
 Alpha virt. eigenvalues --    1.00963   1.03037   1.06077   1.06338   1.08758
 Alpha virt. eigenvalues --    1.11659   1.13522   1.14341   1.17949   1.19399
 Alpha virt. eigenvalues --    1.21522   1.23341   1.26404   1.28261   1.31349
 Alpha virt. eigenvalues --    1.38728   1.40153   1.41545   1.42198   1.43627
 Alpha virt. eigenvalues --    1.49437   1.50521   1.54027   1.55325   1.58281
 Alpha virt. eigenvalues --    1.62303   1.65631   1.67342   1.72334   1.73462
 Alpha virt. eigenvalues --    1.76283   1.80452   1.82571   1.84188   1.89477
 Alpha virt. eigenvalues --    1.95079   2.01957   2.05904   2.06962   2.11125
 Alpha virt. eigenvalues --    2.18568   2.22852   2.29519   2.41800   2.44472
 Alpha virt. eigenvalues --    2.48256   2.51158   2.53955   2.57107   2.57914
 Alpha virt. eigenvalues --    2.60693   2.63506   2.64476   2.65343   2.69290
 Alpha virt. eigenvalues --    2.72540   2.74227   2.74727   2.76237   2.77159
 Alpha virt. eigenvalues --    2.80864   2.85069   2.87051   2.88520   2.94364
 Alpha virt. eigenvalues --    2.97919   3.10248   3.10676   3.11692   3.13688
 Alpha virt. eigenvalues --    3.14764   3.21034   3.23505   3.31561   3.53146
 Alpha virt. eigenvalues --    3.67218   3.68519   3.75489   3.80495   3.80839
 Alpha virt. eigenvalues --    3.85247   3.88826   3.97554   4.11594   4.24895
 Alpha virt. eigenvalues --    4.71605   4.82648   4.96579   5.00716   5.03225
 Alpha virt. eigenvalues --    5.04230   5.07100   5.35827   5.62541   5.65009
 Alpha virt. eigenvalues --    5.69730  23.82821  23.85844  24.38983  35.58493
 Alpha virt. eigenvalues --   49.89205  49.92655  50.06783
     Molecular Orbital Coefficients:
                           1         2         3         4         5
                           O         O         O         O         O
     Eigenvalues --   -19.19803 -19.19794 -19.13223 -14.30268 -10.35743
   1 1   O  1S          0.00000  -0.00001   0.55133   0.00000   0.00000
   2        2S          0.00000  -0.00000   0.46974   0.00001  -0.00000
   3        2PX        -0.00000   0.00000   0.00076   0.00002  -0.00000
   4        2PY         0.00000   0.00001   0.00048   0.00000   0.00000
   5        2PZ        -0.00000  -0.00000  -0.00088   0.00000  -0.00001
   6        3S          0.00003  -0.00004   0.01348  -0.00007   0.00001
   7        3PX         0.00000  -0.00002  -0.00001  -0.00007   0.00000
   8        3PY         0.00000  -0.00002  -0.00005  -0.00001   0.00000
   9        3PZ         0.00002   0.00001  -0.00018  -0.00001   0.00003
  10        4S         -0.00017   0.00022  -0.00910   0.00028  -0.00009
  11        4PX        -0.00006   0.00011  -0.00131   0.00025  -0.00005
  12        4PY        -0.00003   0.00010  -0.00092   0.00001  -0.00005
  13        4PZ        -0.00004  -0.00005  -0.00054  -0.00011  -0.00008
  14        5S         -0.00010   0.00004   0.00647   0.00112  -0.00026
  15        5PX        -0.00000  -0.00009   0.00056   0.00061  -0.00008
  16        5PY        -0.00013  -0.00005   0.00036   0.00041  -0.00016
  17        5PZ        -0.00010   0.00011  -0.00042  -0.00020  -0.00009
  18        6D 0       -0.00000   0.00000   0.00028   0.00002   0.00000
  19        6D+1       -0.00000   0.00000   0.00004  -0.00001  -0.00000
  20        6D-1       -0.00000  -0.00000   0.00008  -0.00000  -0.00000
  21        6D+2        0.00000  -0.00000  -0.00001   0.00001   0.00000
  22        6D-2        0.00000   0.00000  -0.00002  -0.00000  -0.00000
  23 2   C  1S          0.00000  -0.00000   0.00002   0.00000  -0.00000
  24        2S         -0.00001   0.00001  -0.00006   0.00000  -0.00000
  25        2PX        -0.00002   0.00001  -0.00012   0.00005  -0.00001
  26        2PY        -0.00002   0.00001  -0.00013  -0.00004  -0.00001
  27        2PZ         0.00003  -0.00001  -0.00002  -0.00001   0.00001
  28        3S         -0.00002  -0.00004   0.00002   0.00011  -0.00004
  29        3PX         0.00008  -0.00005  -0.00015  -0.00031   0.00005
  30        3PY         0.00008  -0.00006   0.00016   0.00019   0.00003
  31        3PZ        -0.00011   0.00003   0.00004   0.00008  -0.00008
  32        4S          0.00084  -0.00011   0.00501  -0.00241   0.00065
  33        4PX        -0.00010   0.00020  -0.00050  -0.00051  -0.00027
  34        4PY        -0.00002   0.00025  -0.00162   0.00058   0.00013
  35        4PZ         0.00001   0.00024  -0.00033   0.00066   0.00008
  36        5S          0.00370   0.00178  -0.00850   0.00461   0.00376
  37        5PX         0.00085   0.00066  -0.00027   0.00083   0.00083
  38        5PY         0.00010   0.00036   0.00205  -0.00044   0.00010
  39        5PZ        -0.00040  -0.00014   0.00099  -0.00009  -0.00048
  40        6D 0        0.00000   0.00002   0.00011   0.00002  -0.00000
  41        6D+1       -0.00001   0.00001  -0.00004   0.00008   0.00000
  42        6D-1       -0.00003   0.00002  -0.00004   0.00000  -0.00001
  43        6D+2       -0.00002   0.00001  -0.00004  -0.00009  -0.00002
  44        6D-2        0.00003  -0.00001  -0.00016   0.00014   0.00004
  45 3   C  1S          0.00000  -0.00000   0.00000   0.00001   0.00000
  46        2S         -0.00001   0.00001  -0.00001  -0.00003  -0.00000
  47        2PX        -0.00002   0.00002  -0.00005   0.00022   0.00000
  48        2PY        -0.00002   0.00002   0.00001   0.00024   0.00001
  49        2PZ         0.00001  -0.00000   0.00001   0.00009  -0.00000
  50        3S          0.00010  -0.00011   0.00024   0.00007   0.00001
  51        3PX         0.00007  -0.00008   0.00024  -0.00025  -0.00001
  52        3PY         0.00012  -0.00012  -0.00009  -0.00063  -0.00001
  53        3PZ        -0.00006  -0.00003  -0.00006  -0.00029  -0.00002
  54        4S          0.00014   0.00033  -0.00270   0.00513   0.00044
  55        4PX         0.00032  -0.00013   0.00099   0.00070   0.00017
  56        4PY        -0.00026   0.00013  -0.00058   0.00197  -0.00002
  57        4PZ         0.00007  -0.00013  -0.00043   0.00019   0.00001
  58        5S         -0.00255  -0.00017   0.00585  -0.01069  -0.00047
  59        5PX         0.00071   0.00015  -0.00186  -0.00023   0.00061
  60        5PY        -0.00043   0.00006   0.00009  -0.00276   0.00036
  61        5PZ         0.00017  -0.00028   0.00025  -0.00058  -0.00040
  62        6D 0       -0.00002   0.00004   0.00004   0.00030   0.00001
  63        6D+1       -0.00003   0.00002   0.00004  -0.00014  -0.00000
  64        6D-1       -0.00001   0.00001  -0.00000  -0.00016   0.00001
  65        6D+2        0.00003  -0.00000  -0.00015  -0.00013   0.00001
  66        6D-2        0.00003  -0.00002   0.00007  -0.00041   0.00000
  67 4   H  1S          0.00000  -0.00000   0.00002   0.00005  -0.00001
  68        2S         -0.00002  -0.00005  -0.00102  -0.00025   0.00001
  69        3S         -0.00029  -0.00023  -0.00005  -0.00057  -0.00042
  70        4PX         0.00002  -0.00000   0.00006  -0.00012   0.00003
  71        4PY         0.00001  -0.00000   0.00014  -0.00002   0.00000
  72        4PZ        -0.00001   0.00002   0.00021   0.00009  -0.00001
  73 5   H  1S          0.00005  -0.00003   0.00001   0.00004   0.00002
  74        2S         -0.00017   0.00017  -0.00083  -0.00010  -0.00007
  75        3S         -0.00047  -0.00043  -0.00022  -0.00050  -0.00107
  76        4PX        -0.00006  -0.00000   0.00011  -0.00015  -0.00007
  77        4PY         0.00005  -0.00003   0.00030   0.00004   0.00003
  78        4PZ         0.00000   0.00001  -0.00006  -0.00008   0.00001
  79 6   N  1S          0.00000  -0.00000  -0.00000   0.55739   0.00000
  80        2S         -0.00001   0.00001   0.00001   0.46574  -0.00001
  81        2PX         0.00000  -0.00001  -0.00003   0.00011  -0.00000
  82        2PY         0.00000  -0.00001   0.00000  -0.00110   0.00001
  83        2PZ         0.00000   0.00000   0.00001   0.00051  -0.00001
  84        3S          0.00012  -0.00002  -0.00009   0.01568   0.00012
  85        3PX        -0.00003   0.00003   0.00011   0.00063   0.00001
  86        3PY        -0.00001   0.00007  -0.00000  -0.00021  -0.00001
  87        3PZ        -0.00001  -0.00004  -0.00002   0.00049  -0.00002
  88        4S         -0.00023  -0.00020   0.00051  -0.00902  -0.00059
  89        4PX        -0.00005  -0.00025  -0.00049   0.00249  -0.00016
  90        4PY         0.00025  -0.00037  -0.00012   0.00070  -0.00011
  91        4PZ         0.00062  -0.00041   0.00026   0.00121   0.00006
  92        5S         -0.00038  -0.00106   0.00141   0.00973  -0.00083
  93        5PX         0.00036   0.00072  -0.00021  -0.00201   0.00077
  94        5PY        -0.00003   0.00018  -0.00006  -0.00046   0.00011
  95        5PZ        -0.00062   0.00004   0.00027  -0.00033  -0.00005
  96        6D 0        0.00005  -0.00006   0.00003   0.00037  -0.00003
  97        6D+1        0.00001  -0.00000  -0.00000  -0.00016  -0.00001
  98        6D-1        0.00002  -0.00002   0.00001   0.00033   0.00002
  99        6D+2       -0.00001   0.00000   0.00001   0.00042   0.00002
 100        6D-2        0.00001   0.00001   0.00000  -0.00032   0.00001
 101 7   H  1S          0.00001   0.00002   0.00002   0.00004   0.00002
 102        2S          0.00001  -0.00016   0.00005  -0.00150  -0.00006
 103        3S          0.00015  -0.00027  -0.00049   0.00048  -0.00049
 104        4PX        -0.00001  -0.00001   0.00006  -0.00001  -0.00001
 105        4PY         0.00001  -0.00006   0.00001  -0.00015  -0.00004
 106        4PZ         0.00001  -0.00004  -0.00006  -0.00032  -0.00002
 107 8   H  1S          0.00002   0.00000   0.00001   0.00000   0.00002
 108        2S         -0.00004  -0.00004   0.00008  -0.00097  -0.00011
 109        3S         -0.00024   0.00030  -0.00064   0.00006   0.00004
 110        4PX        -0.00001   0.00001   0.00009  -0.00009  -0.00001
 111        4PY         0.00001  -0.00000  -0.00006  -0.00038  -0.00001
 112        4PZ         0.00001   0.00001   0.00006   0.00011   0.00001
 113 9   H  1S         -0.00000  -0.00002   0.00006  -0.00000  -0.00002
 114        2S          0.00000   0.00002  -0.00046  -0.00015   0.00007
 115        3S         -0.00019   0.00003  -0.00111  -0.00022  -0.00049
 116        4PX         0.00000   0.00001   0.00000  -0.00000   0.00001
 117        4PY         0.00000   0.00001  -0.00009   0.00002   0.00001
 118        4PZ         0.00000  -0.00000  -0.00089  -0.00003  -0.00000
 119 10  H  1S         -0.00002  -0.00001  -0.00000  -0.00004  -0.00002
 120        2S          0.00036   0.00007   0.00003  -0.00171   0.00033
 121        3S         -0.00026   0.00002  -0.00016   0.00007  -0.00045
 122        4PX        -0.00008   0.00003   0.00005   0.00134  -0.00000
 123        4PY        -0.00000   0.00005   0.00004  -0.00072   0.00001
 124        4PZ        -0.00005   0.00006  -0.00001  -0.00062   0.00003
 125 11  H  1S          0.00004  -0.00005  -0.00001  -0.00001  -0.00003
 126        2S         -0.00047   0.00055  -0.00014  -0.00178   0.00030
 127        3S          0.00060   0.00026  -0.00076  -0.00042   0.00002
 128        4PX         0.00000   0.00001   0.00003   0.00000   0.00001
 129        4PY        -0.00003   0.00004  -0.00001   0.00019   0.00001
 130        4PZ         0.00009  -0.00014   0.00004   0.00164  -0.00007
 131 12  C  1S         -0.00009  -0.00010   0.00000   0.00000   0.56286
 132        2S          0.00038   0.00041  -0.00000  -0.00001   0.46273
 133        2PX        -0.00003   0.00002  -0.00000   0.00001  -0.00000
 134        2PY        -0.00005   0.00004  -0.00001  -0.00002  -0.00007
 135        2PZ        -0.00004   0.00005   0.00001   0.00003   0.00006
 136        3S         -0.00014  -0.00017   0.00001  -0.00001   0.02091
 137        3PX        -0.00020   0.00021  -0.00001  -0.00006  -0.00001
 138        3PY        -0.00034   0.00029  -0.00001   0.00005   0.00040
 139        3PZ        -0.00038   0.00037  -0.00006  -0.00018  -0.00037
 140        4S         -0.00262  -0.00279   0.00017   0.00208  -0.00409
 141        4PX        -0.00533   0.00505  -0.00024  -0.00026   0.00012
 142        4PY        -0.00860   0.00811  -0.00039  -0.00078   0.00003
 143        4PZ        -0.00907   0.00888  -0.00045  -0.00030   0.00059
 144        5S         -0.00353  -0.00379   0.00068   0.00131  -0.00591
 145        5PX         0.00024   0.00025  -0.00027  -0.00028   0.00037
 146        5PY         0.00054   0.00067  -0.00052  -0.00057   0.00100
 147        5PZ        -0.00049  -0.00044  -0.00019  -0.00012  -0.00050
 148        6D 0       -0.00039  -0.00042   0.00000   0.00002   0.00137
 149        6D+1       -0.00097  -0.00105   0.00001   0.00010   0.00338
 150        6D-1       -0.00157  -0.00170   0.00001   0.00015   0.00543
 151        6D+2        0.00044   0.00048   0.00000  -0.00007  -0.00155
 152        6D-2       -0.00090  -0.00097   0.00001   0.00010   0.00313
 153 13  O  1S          0.55101   0.01757  -0.00000  -0.00000  -0.00012
 154        2S          0.46941   0.01494  -0.00001  -0.00001   0.00013
 155        2PX         0.00052  -0.00005   0.00000   0.00001   0.00035
 156        2PY         0.00083  -0.00006  -0.00000   0.00002   0.00052
 157        2PZ         0.00091  -0.00009  -0.00000  -0.00000   0.00062
 158        3S          0.01467   0.00036   0.00005   0.00013  -0.00151
 159        3PX         0.00044   0.00041  -0.00001  -0.00005  -0.00169
 160        3PY         0.00061   0.00059   0.00000  -0.00012  -0.00254
 161        3PZ         0.00086   0.00077   0.00001  -0.00000  -0.00302
 162        4S         -0.01404   0.00717  -0.00040  -0.00103  -0.00689
 163        4PX        -0.00117   0.00095  -0.00003  -0.00017  -0.00087
 164        4PY        -0.00161   0.00137  -0.00009  -0.00004  -0.00117
 165        4PZ        -0.00230   0.00168  -0.00018  -0.00061  -0.00177
 166        5S         -0.00230   0.01007  -0.00085  -0.00175   0.00697
 167        5PX        -0.00068   0.00119  -0.00021  -0.00026   0.00089
 168        5PY        -0.00117   0.00158  -0.00013  -0.00022   0.00109
 169        5PZ        -0.00091   0.00238   0.00011  -0.00030   0.00181
 170        6D 0        0.00011   0.00015  -0.00000  -0.00003  -0.00047
 171        6D+1        0.00020   0.00023  -0.00001  -0.00004  -0.00085
 172        6D-1        0.00030   0.00032  -0.00001  -0.00003  -0.00125
 173        6D+2       -0.00007  -0.00006   0.00000   0.00002   0.00027
 174        6D-2        0.00016   0.00017  -0.00000  -0.00002  -0.00069
 175 14  O  1S         -0.01756   0.55101   0.00001   0.00000  -0.00012
 176        2S         -0.01499   0.46941   0.00001   0.00000   0.00013
 177        2PX         0.00008  -0.00051  -0.00000  -0.00000  -0.00033
 178        2PY         0.00014  -0.00083  -0.00000   0.00001  -0.00058
 179        2PZ         0.00012  -0.00089   0.00000  -0.00001  -0.00057
 180        3S         -0.00057   0.01465  -0.00005  -0.00003  -0.00152
 181        3PX        -0.00039  -0.00048   0.00001   0.00003   0.00163
 182        3PY        -0.00067  -0.00088   0.00001  -0.00000   0.00281
 183        3PZ        -0.00059  -0.00073  -0.00001   0.00006   0.00278
 184        4S          0.00793  -0.01352   0.00037   0.00001  -0.00703
 185        4PX        -0.00090   0.00115  -0.00008   0.00004   0.00098
 186        4PY        -0.00165   0.00209  -0.00010   0.00021   0.00181
 187        4PZ        -0.00162   0.00172  -0.00001   0.00006   0.00133
 188        5S          0.00976  -0.00229   0.00016  -0.00056   0.00536
 189        5PX        -0.00126   0.00052   0.00016   0.00016  -0.00074
 190        5PY        -0.00220   0.00080   0.00021   0.00049  -0.00144
 191        5PZ        -0.00169   0.00126  -0.00018  -0.00015  -0.00075
 192        6D 0        0.00002   0.00005  -0.00000  -0.00001  -0.00017
 193        6D+1        0.00017   0.00019   0.00000  -0.00002  -0.00073
 194        6D-1        0.00031   0.00033   0.00000  -0.00002  -0.00129
 195        6D+2       -0.00013  -0.00012   0.00000   0.00002   0.00047
 196        6D-2        0.00020   0.00020   0.00000  -0.00002  -0.00079
                           6         7         8         9        10
                           O         O         O         O         O
     Eigenvalues --   -10.21818 -10.19548  -1.15955  -1.12062  -1.03067
   1 1   O  1S         -0.00002   0.00000  -0.00006   0.00008  -0.11163
   2        2S         -0.00007  -0.00000  -0.00010   0.00011  -0.17860
   3        2PX         0.00010   0.00002   0.00002  -0.00004   0.02989
   4        2PY         0.00008   0.00001   0.00001  -0.00003   0.01857
   5        2PZ        -0.00000   0.00001  -0.00001   0.00002  -0.03287
   6        3S          0.00056   0.00011   0.00033  -0.00022   0.51691
   7        3PX         0.00008  -0.00009   0.00009  -0.00000   0.04856
   8        3PY         0.00008  -0.00004   0.00009   0.00001   0.03073
   9        3PZ         0.00015  -0.00004  -0.00008   0.00005  -0.05028
  10        4S         -0.00086  -0.00080  -0.00013  -0.00118   0.37884
  11        4PX        -0.00006  -0.00034  -0.00021  -0.00054   0.02690
  12        4PY        -0.00025  -0.00023  -0.00022  -0.00045   0.01681
  13        4PZ         0.00037  -0.00006   0.00029  -0.00006  -0.01543
  14        5S          0.00518   0.00123   0.00044  -0.00090  -0.04603
  15        5PX         0.00169   0.00046   0.00030   0.00073  -0.01119
  16        5PY         0.00094   0.00041   0.00053  -0.00006  -0.00580
  17        5PZ        -0.00062  -0.00076  -0.00032  -0.00084   0.00429
  18        6D 0       -0.00002   0.00003  -0.00000  -0.00000   0.00425
  19        6D+1       -0.00004  -0.00004  -0.00000  -0.00000   0.00073
  20        6D-1       -0.00006  -0.00000   0.00000  -0.00000   0.00227
  21        6D+2       -0.00002  -0.00000   0.00000   0.00000   0.00214
  22        6D-2       -0.00020  -0.00007   0.00000  -0.00001   0.00756
  23 2   C  1S          0.56304  -0.00283  -0.00014   0.00011  -0.04064
  24        2S          0.46329  -0.00233  -0.00021   0.00014  -0.06253
  25        2PX        -0.00070   0.00042   0.00007  -0.00010  -0.03280
  26        2PY        -0.00078  -0.00028   0.00005  -0.00007  -0.02718
  27        2PZ        -0.00023  -0.00014  -0.00010   0.00013  -0.01002
  28        3S          0.01870   0.00003   0.00055  -0.00032   0.16187
  29        3PX         0.00046  -0.00096   0.00003   0.00030  -0.05356
  30        3PY         0.00220   0.00088   0.00002   0.00030  -0.05015
  31        3PZ         0.00084   0.00040   0.00005  -0.00026  -0.01952
  32        4S         -0.01416   0.00393  -0.00130   0.00266   0.03128
  33        4PX        -0.00132   0.00159  -0.00007  -0.00116  -0.00709
  34        4PY         0.00105  -0.00086  -0.00091  -0.00051   0.00197
  35        4PZ         0.00089  -0.00032  -0.00087  -0.00025  -0.00526
  36        5S         -0.01224   0.01107  -0.01703   0.01249   0.09977
  37        5PX        -0.00273   0.00230  -0.00488   0.00090   0.01152
  38        5PY        -0.00081  -0.00146  -0.00215  -0.00215  -0.01463
  39        5PZ         0.00044  -0.00008   0.00147  -0.00165  -0.01275
  40        6D 0        0.00083   0.00040  -0.00010  -0.00001  -0.01026
  41        6D+1       -0.00003   0.00028  -0.00001  -0.00002   0.00703
  42        6D-1       -0.00037  -0.00020  -0.00002  -0.00010   0.00654
  43        6D+2       -0.00065  -0.00040   0.00002  -0.00006   0.00494
  44        6D-2       -0.00042   0.00057  -0.00005   0.00013   0.01861
  45 3   C  1S          0.00281   0.56300  -0.00027   0.00017  -0.00978
  46        2S          0.00231   0.46328  -0.00041   0.00021  -0.01505
  47        2PX        -0.00043   0.00039   0.00012  -0.00009  -0.00791
  48        2PY         0.00027   0.00054   0.00020  -0.00021   0.00160
  49        2PZ         0.00014   0.00019  -0.00008   0.00013   0.00095
  50        3S          0.00021   0.01878   0.00096   0.00007   0.03706
  51        3PX         0.00103  -0.00026   0.00023   0.00027  -0.01630
  52        3PY        -0.00083  -0.00187   0.00043   0.00048   0.00591
  53        3PZ        -0.00045  -0.00096   0.00011  -0.00009   0.00357
  54        4S          0.00398  -0.01430  -0.00119   0.00012   0.03219
  55        4PX        -0.00182   0.00039  -0.00008   0.00139  -0.01145
  56        4PY         0.00103  -0.00176   0.00086  -0.00172   0.00108
  57        4PZ         0.00003  -0.00046  -0.00016   0.00072   0.00378
  58        5S          0.00720  -0.02232   0.00936  -0.01459  -0.06251
  59        5PX        -0.00095   0.00040  -0.00191   0.00422   0.01520
  60        5PY         0.00164  -0.00323   0.00194  -0.00300  -0.00489
  61        5PZ         0.00018  -0.00122   0.00062   0.00121  -0.00265
  62        6D 0        0.00040   0.00076  -0.00013  -0.00009  -0.00241
  63        6D+1        0.00028  -0.00006   0.00001  -0.00010  -0.00139
  64        6D-1       -0.00017  -0.00033  -0.00008  -0.00002   0.00051
  65        6D+2       -0.00040  -0.00063  -0.00012   0.00011   0.00392
  66        6D-2        0.00059  -0.00027   0.00009   0.00008  -0.00211
  67 4   H  1S          0.00007  -0.00009   0.00006  -0.00001   0.01542
  68        2S         -0.00307  -0.00079   0.00021  -0.00014   0.02729
  69        3S          0.00389  -0.00014   0.00188  -0.00035  -0.00512
  70        4PX        -0.00004   0.00004  -0.00003   0.00006  -0.00071
  71        4PY         0.00031   0.00003   0.00000   0.00002  -0.00237
  72        4PZ         0.00218   0.00031  -0.00005  -0.00002  -0.00697
  73 5   H  1S          0.00008  -0.00007   0.00021  -0.00002   0.01564
  74        2S         -0.00306  -0.00082   0.00058  -0.00117   0.02452
  75        3S          0.00438   0.00007   0.00270  -0.00079  -0.00919
  76        4PX        -0.00024   0.00001   0.00030  -0.00025  -0.00031
  77        4PY         0.00179   0.00026   0.00003   0.00015  -0.00670
  78        4PZ        -0.00125  -0.00019  -0.00016   0.00009   0.00326
  79 6   N  1S          0.00000  -0.00003  -0.00080   0.00014  -0.00332
  80        2S          0.00000  -0.00006  -0.00124   0.00020  -0.00520
  81        2PX        -0.00002  -0.00018  -0.00004   0.00012  -0.00153
  82        2PY        -0.00004  -0.00016   0.00034   0.00014  -0.00143
  83        2PZ        -0.00001  -0.00005  -0.00035   0.00020   0.00016
  84        3S          0.00012   0.00051   0.00290  -0.00024   0.01391
  85        3PX         0.00009   0.00015  -0.00019   0.00002  -0.00329
  86        3PY         0.00016   0.00016   0.00067  -0.00011  -0.00261
  87        3PZ         0.00004   0.00000  -0.00069   0.00028   0.00032
  88        4S         -0.00141  -0.00016   0.00365  -0.00065   0.00908
  89        4PX         0.00020  -0.00041   0.00074   0.00088   0.00002
  90        4PY         0.00015  -0.00023   0.00061   0.00212  -0.00079
  91        4PZ         0.00046  -0.00031  -0.00055   0.00350  -0.00143
  92        5S          0.00405   0.01680   0.00015   0.00306  -0.00959
  93        5PX        -0.00158  -0.00150  -0.00308  -0.00263   0.00471
  94        5PY        -0.00004  -0.00277  -0.00011  -0.00039  -0.00056
  95        5PZ         0.00061   0.00017   0.00171  -0.00173  -0.00450
  96        6D 0        0.00005   0.00010   0.00008   0.00012  -0.00033
  97        6D+1       -0.00006  -0.00011   0.00003  -0.00002   0.00012
  98        6D-1       -0.00003  -0.00011  -0.00015   0.00011   0.00016
  99        6D+2        0.00002  -0.00002  -0.00009  -0.00008   0.00037
 100        6D-2       -0.00008  -0.00034  -0.00003   0.00002   0.00064
 101 7   H  1S         -0.00006   0.00009   0.00012  -0.00016   0.00482
 102        2S         -0.00102  -0.00301   0.00095  -0.00039   0.00583
 103        3S         -0.00032   0.00421   0.00062   0.00169   0.00019
 104        4PX        -0.00006   0.00004   0.00008  -0.00006  -0.00084
 105        4PY        -0.00005  -0.00025   0.00030  -0.00006   0.00026
 106        4PZ        -0.00035  -0.00218   0.00010   0.00009   0.00197
 107 8   H  1S         -0.00008   0.00009   0.00000   0.00002   0.00491
 108        2S         -0.00067  -0.00289   0.00046  -0.00027   0.00393
 109        3S          0.00003   0.00321   0.00032  -0.00212   0.00070
 110        4PX        -0.00003   0.00018   0.00001  -0.00007  -0.00091
 111        4PY        -0.00023  -0.00179   0.00002   0.00003   0.00149
 112        4PZ         0.00019   0.00116  -0.00004   0.00001  -0.00104
 113 9   H  1S         -0.00008   0.00004   0.00007  -0.00004   0.09165
 114        2S          0.00088  -0.00018   0.00009  -0.00013   0.07483
 115        3S         -0.00133  -0.00101  -0.00017  -0.00062   0.00373
 116        4PX         0.00021  -0.00003  -0.00002   0.00001   0.00444
 117        4PY         0.00024  -0.00003  -0.00002   0.00001   0.00568
 118        4PZ         0.00032  -0.00001   0.00003  -0.00001   0.02296
 119 10  H  1S         -0.00004  -0.00011   0.00049  -0.00011   0.00169
 120        2S          0.00036   0.00036  -0.00044   0.00057   0.00174
 121        3S         -0.00032  -0.00318   0.00108   0.00013  -0.00108
 122        4PX        -0.00009  -0.00002  -0.00009  -0.00021  -0.00071
 123        4PY        -0.00000  -0.00006   0.00006  -0.00014  -0.00006
 124        4PZ         0.00001   0.00001  -0.00007  -0.00026   0.00017
 125 11  H  1S         -0.00000  -0.00015   0.00035   0.00020   0.00218
 126        2S         -0.00005   0.00071  -0.00016  -0.00281   0.00179
 127        3S         -0.00186  -0.00255  -0.00168   0.00051   0.00689
 128        4PX         0.00008  -0.00013  -0.00004  -0.00002  -0.00019
 129        4PY        -0.00001  -0.00013  -0.00000  -0.00016  -0.00005
 130        4PZ         0.00003  -0.00013  -0.00001   0.00046  -0.00059
 131 12  C  1S          0.00000  -0.00000  -0.08687  -0.00036   0.00014
 132        2S         -0.00000  -0.00000  -0.13170  -0.00054   0.00023
 133        2PX         0.00002   0.00000  -0.00061   0.06542   0.00007
 134        2PY         0.00001   0.00001   0.00406   0.10531   0.00012
 135        2PZ        -0.00001   0.00001  -0.00422   0.11351   0.00021
 136        3S          0.00002   0.00007   0.34831   0.00159  -0.00078
 137        3PX        -0.00010  -0.00006  -0.00083   0.06685   0.00030
 138        3PY        -0.00007  -0.00013   0.00575   0.10765   0.00021
 139        3PZ         0.00001  -0.00010  -0.00577   0.11595   0.00063
 140        4S          0.00081  -0.00029   0.10807  -0.00016  -0.00064
 141        4PX         0.00009  -0.00030  -0.00082  -0.02735   0.00070
 142        4PY        -0.00011  -0.00025  -0.00015  -0.04397   0.00219
 143        4PZ        -0.00049  -0.00080  -0.00246  -0.04756   0.00299
 144        5S          0.00161   0.00155   0.03314   0.00103  -0.00904
 145        5PX        -0.00022   0.00001  -0.00187   0.00331   0.00267
 146        5PY        -0.00023  -0.00069  -0.00369   0.00493   0.00476
 147        5PZ         0.00059   0.00007   0.00295   0.00569   0.00103
 148        6D 0       -0.00003  -0.00002   0.01037  -0.00190  -0.00001
 149        6D+1        0.00001  -0.00003   0.02581  -0.00067  -0.00013
 150        6D-1        0.00001   0.00001   0.04216   0.00041  -0.00015
 151        6D+2        0.00001   0.00004  -0.01154  -0.00129   0.00001
 152        6D-2       -0.00003  -0.00002   0.02405   0.00070  -0.00005
 153 13  O  1S         -0.00000  -0.00000  -0.07403   0.08021   0.00024
 154        2S         -0.00000  -0.00001  -0.11774   0.12852   0.00039
 155        2PX         0.00000   0.00000   0.02358  -0.02407  -0.00014
 156        2PY         0.00001   0.00000   0.03655  -0.03658  -0.00021
 157        2PZ        -0.00001   0.00000   0.04191  -0.04324  -0.00008
 158        3S          0.00005   0.00013   0.33283  -0.36939  -0.00146
 159        3PX        -0.00001  -0.00001   0.02967  -0.03703  -0.00009
 160        3PY        -0.00003  -0.00001   0.04668  -0.05618  -0.00023
 161        3PZ         0.00003  -0.00000   0.05214  -0.06648  -0.00018
 162        4S         -0.00012  -0.00061   0.20242  -0.28290   0.00193
 163        4PX        -0.00006  -0.00001   0.00887  -0.01523  -0.00020
 164        4PY        -0.00002  -0.00002   0.01432  -0.02284   0.00003
 165        4PZ        -0.00018  -0.00020   0.01623  -0.02795   0.00127
 166        5S         -0.00168  -0.00048  -0.03988  -0.02792   0.00548
 167        5PX        -0.00021  -0.00032  -0.00346  -0.00624   0.00251
 168        5PY        -0.00005  -0.00015  -0.00483  -0.00932   0.00162
 169        5PZ        -0.00059   0.00014  -0.00805  -0.01056  -0.00171
 170        6D 0       -0.00001   0.00000   0.00188  -0.00430   0.00001
 171        6D+1       -0.00000  -0.00001   0.00458  -0.00824  -0.00001
 172        6D-1        0.00000  -0.00000   0.00750  -0.01251  -0.00001
 173        6D+2        0.00000   0.00001  -0.00201   0.00278  -0.00001
 174        6D-2       -0.00001  -0.00001   0.00426  -0.00687   0.00000
 175 14  O  1S          0.00000   0.00000  -0.07345  -0.08075   0.00001
 176        2S          0.00001   0.00001  -0.11681  -0.12939   0.00001
 177        2PX         0.00000   0.00000  -0.02324  -0.02395   0.00001
 178        2PY         0.00001   0.00000  -0.03875  -0.04069  -0.00001
 179        2PZ         0.00001   0.00000  -0.03949  -0.04026   0.00002
 180        3S         -0.00008  -0.00013   0.33012   0.37199   0.00024
 181        3PX        -0.00000  -0.00002  -0.02918  -0.03675  -0.00007
 182        3PY        -0.00003  -0.00001  -0.04801  -0.06250  -0.00005
 183        3PZ        -0.00004  -0.00002  -0.05020  -0.06171   0.00008
 184        4S          0.00047   0.00092   0.20173   0.28379  -0.00252
 185        4PX        -0.00005  -0.00010  -0.00949  -0.01508   0.00064
 186        4PY        -0.00000  -0.00025  -0.01502  -0.02589   0.00063
 187        4PZ         0.00011  -0.00012  -0.01592  -0.02538   0.00010
 188        5S         -0.00113  -0.00034  -0.03500   0.02806   0.00038
 189        5PX         0.00006   0.00005   0.00394  -0.00599  -0.00119
 190        5PY         0.00026   0.00037   0.00642  -0.01024  -0.00180
 191        5PZ        -0.00018   0.00000   0.00424  -0.00982   0.00106
 192        6D 0       -0.00000  -0.00000   0.00181   0.00203   0.00000
 193        6D+1       -0.00000   0.00001   0.00453   0.00739  -0.00001
 194        6D-1        0.00001   0.00002   0.00745   0.01287  -0.00001
 195        6D+2        0.00000  -0.00000  -0.00201  -0.00425  -0.00001
 196        6D-2        0.00000   0.00001   0.00423   0.00764  -0.00001
                          11        12        13        14        15
                           O         O         O         O         O
     Eigenvalues --    -0.89071  -0.72585  -0.62136  -0.56334  -0.52295
   1 1   O  1S          0.01227   0.03080  -0.00888  -0.00012  -0.01036
   2        2S          0.01972   0.04969  -0.01428  -0.00018  -0.01691
   3        2PX         0.00254   0.04039  -0.03943  -0.00043   0.03968
   4        2PY         0.00065   0.02835  -0.05983  -0.00164   0.01743
   5        2PZ         0.00624   0.04286  -0.07365  -0.00108   0.09288
   6        3S         -0.05824  -0.14914   0.04214   0.00042   0.05239
   7        3PX         0.00346   0.05899  -0.05830  -0.00078   0.05867
   8        3PY         0.00076   0.04165  -0.08798  -0.00258   0.02563
   9        3PZ         0.00945   0.06347  -0.10712  -0.00153   0.13383
  10        4S         -0.04457  -0.12625   0.03288   0.00160   0.06514
  11        4PX         0.00203   0.03375  -0.03317   0.00054   0.03867
  12        4PY         0.00044   0.02179  -0.05616  -0.00077   0.01201
  13        4PZ         0.00316   0.02773  -0.06252  -0.00125   0.08771
  14        5S         -0.00105  -0.03142   0.00918   0.00186  -0.00226
  15        5PX        -0.00307  -0.00722  -0.00342  -0.00062  -0.00042
  16        5PY        -0.00100  -0.00106   0.00062  -0.00046   0.00076
  17        5PZ         0.00241   0.01062   0.00153   0.00139   0.00288
  18        6D 0       -0.00124  -0.00765   0.00875   0.00014  -0.00740
  19        6D+1       -0.00010  -0.00001  -0.00229  -0.00000   0.00314
  20        6D-1       -0.00026  -0.00072   0.00005   0.00005   0.00192
  21        6D+2        0.00048   0.00220   0.00142   0.00010   0.00253
  22        6D-2       -0.00005   0.00379  -0.00608  -0.00012   0.00191
  23 2   C  1S         -0.01548  -0.07785   0.05483   0.00058   0.01089
  24        2S         -0.02389  -0.12119   0.08602   0.00092   0.01674
  25        2PX         0.02115   0.03564   0.05091   0.00203  -0.03503
  26        2PY         0.00032   0.00053  -0.03366  -0.00155  -0.06632
  27        2PZ        -0.00048   0.00242  -0.03520   0.00034   0.03904
  28        3S          0.06169   0.32724  -0.23817  -0.00305  -0.04302
  29        3PX         0.03500   0.05005   0.08445   0.00323  -0.05282
  30        3PY        -0.00273  -0.00974  -0.04187  -0.00201  -0.09934
  31        3PZ        -0.00230   0.00015  -0.05002   0.00003   0.05784
  32        4S          0.04496   0.20088  -0.15190   0.00418  -0.04694
  33        4PX         0.01301   0.01829   0.02531   0.00617  -0.02835
  34        4PY        -0.00079  -0.00074  -0.02907   0.00088  -0.05134
  35        4PZ        -0.00436  -0.00448  -0.02706   0.00221   0.04625
  36        5S         -0.04475  -0.00738  -0.10106   0.03796  -0.00974
  37        5PX        -0.00505   0.00446  -0.01915   0.01345  -0.00497
  38        5PY         0.01024   0.01498   0.00867   0.00495  -0.00140
  39        5PZ         0.00260   0.00075  -0.00015  -0.00209   0.01083
  40        6D 0       -0.00175  -0.00145  -0.00210   0.00002  -0.00639
  41        6D+1       -0.00266  -0.00486  -0.00327  -0.00018  -0.00255
  42        6D-1        0.00003   0.00061   0.00475   0.00007   0.00271
  43        6D+2        0.00376   0.00147   0.00041   0.00005   0.00279
  44        6D-2       -0.00479  -0.00626  -0.01315  -0.00039   0.00965
  45 3   C  1S         -0.05538  -0.05950  -0.06809  -0.00184  -0.00883
  46        2S         -0.08539  -0.09238  -0.10628  -0.00290  -0.01394
  47        2PX         0.03002  -0.05134   0.01699  -0.00055   0.01114
  48        2PY         0.02646   0.00099  -0.03464  -0.00103  -0.05134
  49        2PZ         0.01037   0.00088  -0.02949   0.00137   0.01550
  50        3S          0.22335   0.24708   0.28984   0.00838   0.03820
  51        3PX         0.04869  -0.07917   0.03097  -0.00071   0.01644
  52        3PY         0.04753   0.00787  -0.04582  -0.00081  -0.07430
  53        3PZ         0.01973   0.00406  -0.04154   0.00106   0.02225
  54        4S          0.08439   0.15325   0.19344   0.00431   0.04153
  55        4PX         0.01160  -0.01905   0.00755   0.00030   0.00173
  56        4PY        -0.00020   0.00089  -0.03414  -0.00537  -0.04420
  57        4PZ         0.00599   0.00474  -0.02312   0.00081   0.00916
  58        5S          0.09361   0.03955   0.11819  -0.03894  -0.00790
  59        5PX        -0.00445  -0.00550  -0.02013   0.00553  -0.00590
  60        5PY         0.01544  -0.00347   0.00997  -0.01158  -0.00969
  61        5PZ         0.00525   0.00704   0.00694   0.00297  -0.00147
  62        6D 0       -0.00783  -0.00055   0.00478  -0.00015   0.00241
  63        6D+1        0.00478  -0.00638   0.00183  -0.00020  -0.00160
  64        6D-1        0.00552   0.00092  -0.00356  -0.00025  -0.00379
  65        6D+2        0.00450   0.00076  -0.00404  -0.00021   0.00243
  66        6D-2        0.01246  -0.01153   0.00472   0.00011   0.00251
  67 4   H  1S          0.00962   0.05961  -0.07363  -0.00053   0.00584
  68        2S          0.01138   0.07112  -0.09156  -0.00218   0.00418
  69        3S         -0.00010  -0.00055  -0.00185  -0.00307  -0.00731
  70        4PX         0.00141   0.00233   0.00102  -0.00002  -0.00105
  71        4PY        -0.00038  -0.00232   0.00057  -0.00013  -0.00334
  72        4PZ        -0.00245  -0.01176   0.01167   0.00028   0.00065
  73 5   H  1S          0.00929   0.05643  -0.05695  -0.00183  -0.06449
  74        2S          0.00896   0.06559  -0.07262  -0.00237  -0.07710
  75        3S         -0.00234  -0.00276  -0.00326  -0.00132  -0.01426
  76        4PX         0.00135   0.00294   0.00106   0.00000  -0.00352
  77        4PY        -0.00175  -0.00978   0.00751   0.00043   0.00429
  78        4PZ         0.00127   0.00619  -0.00745  -0.00004  -0.00210
  79 6   N  1S         -0.10076   0.04293   0.02213   0.00065   0.00284
  80        2S         -0.15824   0.06783   0.03507   0.00102   0.00453
  81        2PX        -0.00320  -0.04656  -0.04713  -0.00234   0.02475
  82        2PY        -0.03622   0.00051  -0.03080   0.00112  -0.01951
  83        2PZ         0.01350  -0.01874  -0.04133  -0.00236   0.00226
  84        3S          0.43304  -0.19061  -0.09930  -0.00266  -0.01256
  85        3PX        -0.00840  -0.06874  -0.06970  -0.00362   0.03573
  86        3PY        -0.05800   0.00077  -0.04576   0.00254  -0.02893
  87        3PZ         0.01961  -0.02765  -0.06077  -0.00390   0.00348
  88        4S          0.30394  -0.14702  -0.07750  -0.00047  -0.01407
  89        4PX        -0.01154  -0.03152  -0.03585  -0.00526   0.02407
  90        4PY        -0.02353   0.00215  -0.03101   0.00048  -0.02418
  91        4PZ         0.00367  -0.01096  -0.03269  -0.00090   0.00692
  92        5S         -0.04831  -0.06624  -0.02604  -0.00548   0.05276
  93        5PX         0.02058   0.00744  -0.00290   0.00603  -0.00394
  94        5PY         0.00659   0.00611   0.00535   0.00166  -0.00535
  95        5PZ         0.00144  -0.01169  -0.00627  -0.00766  -0.00116
  96        6D 0       -0.00038  -0.00404  -0.00630  -0.00025  -0.00123
  97        6D+1       -0.00011   0.00105   0.00160   0.00005  -0.00117
  98        6D-1        0.00398  -0.00100   0.00169  -0.00030  -0.00039
  99        6D+2        0.00387  -0.00077  -0.00439  -0.00029  -0.00263
 100        6D-2        0.00367   0.00651   0.00766   0.00040  -0.00100
 101 7   H  1S          0.02729   0.04374   0.08134   0.00007   0.00331
 102        2S          0.03756   0.05126   0.09921  -0.00130  -0.00035
 103        3S         -0.00851   0.00213  -0.00088   0.00280  -0.00507
 104        4PX         0.00074  -0.00273  -0.00034  -0.00013   0.00114
 105        4PY         0.00263   0.00182   0.00088  -0.00052  -0.00366
 106        4PZ         0.00816   0.00868   0.01254   0.00040   0.00137
 107 8   H  1S          0.02677   0.04247   0.06885   0.00270   0.04632
 108        2S          0.03229   0.04842   0.08292   0.00299   0.05772
 109        3S         -0.00998  -0.00327  -0.00156  -0.00023   0.00642
 110        4PX         0.00033  -0.00296  -0.00001  -0.00003  -0.00047
 111        4PY         0.00755   0.00748   0.00877   0.00045   0.00440
 112        4PZ        -0.00342  -0.00405  -0.00701  -0.00006  -0.00287
 113 9   H  1S         -0.01295  -0.05863   0.07037   0.00112  -0.06639
 114        2S         -0.01244  -0.06461   0.08187   0.00066  -0.08885
 115        3S          0.00267   0.01180   0.01625   0.00411  -0.01862
 116        4PX        -0.00015   0.00184  -0.00010   0.00002   0.00010
 117        4PY        -0.00070  -0.00058  -0.00145  -0.00013  -0.00319
 118        4PZ        -0.00325  -0.01285   0.01226   0.00018  -0.01018
 119 10  H  1S          0.07735  -0.05778  -0.03191  -0.00211   0.01835
 120        2S          0.07368  -0.06090  -0.04109   0.00043   0.02291
 121        3S         -0.00579   0.00738  -0.00241   0.00027  -0.00577
 122        4PX        -0.01588   0.00791   0.00232  -0.00023  -0.00224
 123        4PY         0.00469  -0.00451  -0.00481   0.00051  -0.00029
 124        4PZ         0.00640  -0.00522  -0.00512  -0.00044   0.00126
 125 11  H  1S          0.07785  -0.04928  -0.05503  -0.00247  -0.00216
 126        2S          0.07330  -0.05556  -0.06570  -0.00393  -0.00390
 127        3S          0.00038   0.01931  -0.00389   0.00897  -0.01245
 128        4PX        -0.00177  -0.00208  -0.00180  -0.00005   0.00152
 129        4PY        -0.00476   0.00170   0.00008   0.00028  -0.00151
 130        4PZ        -0.01705   0.00961   0.00843   0.00018   0.00059
 131 12  C  1S          0.00085   0.00041   0.00124  -0.07595   0.00115
 132        2S          0.00131   0.00067   0.00195  -0.12050   0.00188
 133        2PX         0.00041  -0.00065   0.00110  -0.00058  -0.01099
 134        2PY        -0.00128   0.00163   0.00263   0.00208  -0.04093
 135        2PZ         0.00198   0.00046  -0.00055  -0.00303  -0.12647
 136        3S         -0.00411  -0.00240  -0.00537   0.37455  -0.00535
 137        3PX         0.00060  -0.00097   0.00168  -0.00094  -0.00711
 138        3PY        -0.00248   0.00252   0.00387   0.00429  -0.04605
 139        3PZ         0.00340   0.00086  -0.00096  -0.00552  -0.17338
 140        4S         -0.00523  -0.00153  -0.00594   0.25883  -0.00670
 141        4PX         0.00112  -0.00100   0.00115  -0.00197   0.00890
 142        4PY         0.00016   0.00151   0.00394  -0.00081  -0.00540
 143        4PZ         0.00316   0.00058  -0.00074  -0.00406  -0.06846
 144        5S         -0.01189  -0.00799  -0.00222  -0.01212  -0.00283
 145        5PX         0.00058   0.00042   0.00059   0.00214   0.00778
 146        5PY         0.00337   0.00246   0.00229   0.00645   0.00949
 147        5PZ        -0.00165  -0.00242   0.00118  -0.00869  -0.00803
 148        6D 0       -0.00021  -0.00016  -0.00040   0.00365   0.00115
 149        6D+1       -0.00059  -0.00030  -0.00019   0.00915  -0.00023
 150        6D-1       -0.00157   0.00010   0.00014   0.01539  -0.00117
 151        6D+2       -0.00014   0.00011  -0.00020  -0.00394  -0.00009
 152        6D-2       -0.00056   0.00046  -0.00004   0.00865  -0.00074
 153 13  O  1S          0.00136  -0.00019  -0.00116   0.05064   0.02479
 154        2S          0.00221  -0.00028  -0.00187   0.08249   0.04004
 155        2PX        -0.00047  -0.00170  -0.00086   0.06164   0.08089
 156        2PY        -0.00208  -0.00091  -0.00251   0.09503   0.10243
 157        2PZ         0.00025  -0.00030  -0.00297   0.10923   0.04732
 158        3S         -0.00697   0.00039   0.00536  -0.25188  -0.11885
 159        3PX        -0.00048  -0.00232  -0.00115   0.08395   0.11650
 160        3PY        -0.00269  -0.00114  -0.00330   0.12944   0.14675
 161        3PZ         0.00055  -0.00055  -0.00405   0.14880   0.06457
 162        4S         -0.00164   0.00347   0.01006  -0.32318  -0.18019
 163        4PX         0.00010  -0.00182  -0.00014   0.05000   0.07665
 164        4PY        -0.00178  -0.00105  -0.00277   0.07754   0.09305
 165        4PZ         0.00248   0.00152  -0.00160   0.08749   0.02610
 166        5S          0.00785   0.00229  -0.00096  -0.05555  -0.03928
 167        5PX         0.00148  -0.00005  -0.00003  -0.00035  -0.00361
 168        5PY         0.00145  -0.00113   0.00041  -0.00374  -0.00272
 169        5PZ         0.00150  -0.00083  -0.00234   0.00452   0.00928
 170        6D 0        0.00025   0.00001  -0.00027   0.00257  -0.00398
 171        6D+1        0.00005  -0.00026  -0.00013   0.00578   0.00730
 172        6D-1       -0.00030  -0.00010  -0.00034   0.00900   0.00898
 173        6D+2        0.00004  -0.00009  -0.00010  -0.00245  -0.00297
 174        6D-2       -0.00012  -0.00001  -0.00004   0.00514   0.00949
 175 14  O  1S          0.00088  -0.00048  -0.00102   0.05025  -0.02644
 176        2S          0.00141  -0.00079  -0.00167   0.08188  -0.04281
 177        2PX         0.00031  -0.00068   0.00044  -0.06007   0.07634
 178        2PY        -0.00047   0.00072   0.00229  -0.10078   0.11014
 179        2PZ         0.00112  -0.00060  -0.00139  -0.10177   0.03884
 180        3S         -0.00404   0.00275   0.00536  -0.25033   0.12878
 181        3PX         0.00033  -0.00088   0.00055  -0.08188   0.10970
 182        3PY        -0.00078   0.00116   0.00321  -0.13724   0.15734
 183        3PZ         0.00138  -0.00081  -0.00214  -0.13850   0.05134
 184        4S         -0.00424  -0.00061   0.00394  -0.31718   0.18542
 185        4PX         0.00005  -0.00075   0.00067  -0.04851   0.07050
 186        4PY        -0.00122   0.00107   0.00292  -0.08151   0.09874
 187        4PZ         0.00066  -0.00069  -0.00136  -0.08332   0.01997
 188        5S          0.00496   0.00695  -0.00084  -0.04793   0.04556
 189        5PX        -0.00106  -0.00005  -0.00041  -0.00276  -0.00152
 190        5PY        -0.00159  -0.00297  -0.00117  -0.00570   0.00112
 191        5PZ         0.00016   0.00082  -0.00017   0.00105   0.00642
 192        6D 0       -0.00017   0.00006   0.00026   0.00203   0.00547
 193        6D+1       -0.00006   0.00010   0.00006   0.00547  -0.00586
 194        6D-1       -0.00006   0.00005   0.00010   0.00891  -0.00796
 195        6D+2       -0.00019   0.00016   0.00018  -0.00276   0.00417
 196        6D-2        0.00007   0.00007  -0.00010   0.00523  -0.00991
                          16        17        18        19        20
                           O         O         O         O         O
     Eigenvalues --    -0.52142  -0.51482  -0.51182  -0.49852  -0.45854
   1 1   O  1S          0.00936   0.00011   0.00713  -0.00994   0.02219
   2        2S          0.01530   0.00023   0.01167  -0.01614   0.03614
   3        2PX        -0.04072  -0.01692  -0.03372  -0.00733   0.09059
   4        2PY        -0.02438  -0.02145  -0.02702  -0.04424   0.01009
   5        2PZ        -0.09171  -0.02313  -0.07334   0.02925  -0.06963
   6        3S         -0.04756  -0.00134  -0.03669   0.04860  -0.11042
   7        3PX        -0.06013  -0.02491  -0.04997  -0.01035   0.13090
   8        3PY        -0.03584  -0.03151  -0.03997  -0.06496   0.01438
   9        3PZ        -0.13212  -0.03331  -0.10540   0.04187  -0.09980
  10        4S         -0.05943  -0.00048  -0.04435   0.06224  -0.13379
  11        4PX        -0.03942  -0.01468  -0.03077  -0.00371   0.10515
  12        4PY        -0.01974  -0.02096  -0.02311  -0.04903   0.00666
  13        4PZ        -0.08617  -0.02004  -0.06983   0.03408  -0.08043
  14        5S          0.00354   0.00703   0.00872   0.02095  -0.06256
  15        5PX         0.00117  -0.00252  -0.00036  -0.00350   0.00100
  16        5PY        -0.00050   0.00055  -0.00162  -0.00140   0.00436
  17        5PZ        -0.00451  -0.00493  -0.00506  -0.00603   0.01675
  18        6D 0        0.00767   0.00289   0.00654   0.00056  -0.00067
  19        6D+1       -0.00276   0.00018  -0.00169   0.00315  -0.00749
  20        6D-1       -0.00148   0.00054  -0.00061   0.00321  -0.00355
  21        6D+2       -0.00204   0.00014  -0.00107   0.00286   0.00546
  22        6D-2       -0.00244  -0.00188  -0.00246  -0.00331   0.00290
  23 2   C  1S         -0.00943   0.00082  -0.00824   0.01299  -0.01193
  24        2S         -0.01447   0.00142  -0.01268   0.02053  -0.01893
  25        2PX         0.04229   0.02555   0.04295   0.03746   0.01227
  26        2PY         0.05781   0.00298   0.03731  -0.05290  -0.05313
  27        2PZ        -0.02989   0.01278  -0.00907   0.06057  -0.08376
  28        3S          0.03706  -0.00380   0.03396  -0.05539   0.05391
  29        3PX         0.06445   0.03886   0.06547   0.05610   0.01505
  30        3PY         0.08733   0.00534   0.05717  -0.07697  -0.08231
  31        3PZ        -0.04503   0.01863  -0.01514   0.09062  -0.12574
  32        4S          0.04234  -0.01275   0.02848  -0.08224   0.04350
  33        4PX         0.03295   0.01648   0.02926   0.02192   0.01232
  34        4PY         0.04683   0.00743   0.03523  -0.03671  -0.04103
  35        4PZ        -0.03760   0.01114  -0.01246   0.06266  -0.09830
  36        5S          0.01963   0.07068  -0.01944  -0.00306   0.00709
  37        5PX         0.00486   0.02258  -0.00092   0.00247   0.02249
  38        5PY        -0.00036  -0.00332   0.01473  -0.00384   0.01692
  39        5PZ        -0.01089  -0.00440  -0.00041   0.00937  -0.01340
  40        6D 0        0.00605   0.00151   0.00545  -0.00201  -0.00552
  41        6D+1        0.00258   0.00143   0.00257  -0.00124   0.00648
  42        6D-1       -0.00218   0.00010  -0.00074   0.00288   0.00754
  43        6D+2       -0.00248  -0.00004  -0.00162   0.00192  -0.01040
  44        6D-2       -0.01047  -0.00489  -0.00975  -0.00295  -0.00374
  45 3   C  1S          0.00558  -0.00165   0.00281  -0.00763   0.00419
  46        2S          0.00880  -0.00260   0.00442  -0.01187   0.00682
  47        2PX        -0.01448  -0.00751  -0.01702  -0.02123  -0.10922
  48        2PY         0.04658   0.00625   0.03328  -0.01732  -0.08340
  49        2PZ         0.00089   0.03986   0.02327   0.08837  -0.01728
  50        3S         -0.02331   0.00714  -0.01140   0.03040  -0.02286
  51        3PX        -0.02103  -0.01027  -0.02470  -0.03116  -0.16250
  52        3PY         0.06876   0.00977   0.04946  -0.02568  -0.12399
  53        3PZ         0.00118   0.05868   0.03442   0.13109  -0.02559
  54        4S         -0.02703   0.01093  -0.01076   0.04664  -0.02577
  55        4PX        -0.00544  -0.01296  -0.01574  -0.03310  -0.09915
  56        4PY         0.03408   0.00060   0.02322  -0.00650  -0.07776
[...]
     8          1.41353822         -8.22606372          6.41030111
     8          5.56030745         -9.59922324          6.00005399

 Electric dipole moment (dipole orientation):
 (Debye = 10**-18 statcoulomb cm , SI units = C m)
                  (au)            (Debye)         (10**-30 SI)
   Tot        0.850871D+00      0.216270D+01      0.721398D+01
   x          0.000000D+00      0.000000D+00      0.000000D+00
   y          0.000000D+00      0.000000D+00      0.000000D+00
   z          0.850871D+00      0.216270D+01      0.721398D+01

 Dipole polarizability, Alpha (dipole orientation).
 (esu units = cm**3 , SI units = C**2 m**2 J**-1)
 Alpha(0;0):
               (au)            (10**-24 esu)      (10**-40 SI)
   iso        0.685223D+02      0.101540D+02      0.112978D+02
   aniso      0.213759D+02      0.316758D+01      0.352441D+01
   xx         0.778185D+02      0.115315D+02      0.128305D+02
   yx        -0.854553D+01     -0.126632D+01     -0.140897D+01
   yy         0.676233D+02      0.100207D+02      0.111496D+02
   zx         0.154123D+00      0.228387D-01      0.254115D-01
   zy         0.625380D+00      0.926717D-01      0.103111D+00
   zz         0.601253D+02      0.890964D+01      0.991332D+01

 First dipole hyperpolarizability, Beta (dipole orientation).
 ||, _|_  parallel and perpendicular components, (z) with respect to z axis,
 vector components x,y,z.  Values do not include the 1/n! factor of 1/2.
 (esu units = statvolt**-1 cm**4 , SI units = C**3 m**3 J**-2)
 Beta(0;0,0):
               (au)            (10**-30 esu)      (10**-50 SI)
   || (z)    -0.154706D+02     -0.133654D+00     -0.496044D-01
   _|_(z)    -0.515687D+01     -0.445514D-01     -0.165348D-01
   x         -0.125010D+03     -0.107999D+01     -0.400829D+00
   y         -0.895187D+03     -0.773372D+01     -0.287029D+01
   z         -0.773531D+02     -0.668271D+00     -0.248022D+00
   ||         0.181435D+03      0.156746D+01      0.581748D+00
   xxx        0.503064D+01      0.434608D-01      0.161301D-01
   xxy       -0.105207D+02     -0.908904D-01     -0.337331D-01
   yxy       -0.548910D+02     -0.474215D+00     -0.176000D+00
   yyy       -0.253823D+03     -0.219283D+01     -0.813847D+00
   xxz        0.601141D+01      0.519339D-01      0.192748D-01
   yxz       -0.907797D+01     -0.784266D-01     -0.291073D-01
   yyz       -0.482630D+02     -0.416955D+00     -0.154749D+00
   zxz        0.819020D+01      0.707570D-01      0.262608D-01
   zyz       -0.340523D+02     -0.294185D+00     -0.109184D+00
   zzz        0.164672D+02      0.142264D+00      0.527999D-01

 ----------------------------------------------------------------------
 Unable to Open any file for archive entry.
 1\1\GINC-NODE1916\Freq\RB3LYP\6-311+G(d,p)\C3H7N1O3\SVICCHI\02-Jun-202
 3\0\\#p freq=raman scale=0.967 pop=(nbo,full,hirshfeld) guess=read geo
 m=allcheck b3lyp/6-311+G(d,p) int=grid=ultrafine EmpiricalDispersion=G
 D3BJ SCRF=(Solvent=ethanol) scf=(xqc,intrep,maxconventionalcycle=350) 
 nosymm\\MEA-CO2_binding_direct-site_index-5.gjf\\0,1\O,1.808479434,-0.
 5393368951,0.2815290547\C,2.9192957439,0.3296783411,0.5243263361\C,4.2
 518680807,-0.3221041997,0.1675210266\H,2.8879899897,0.5593046733,1.592
 4231936\H,2.8050988567,1.2698960725,-0.0258949116\N,5.3548674489,0.599
 2265027,0.4694009089\H,4.2719827625,-0.5306893289,-0.9066144536\H,4.32
 47832125,-1.2847256815,0.6920192385\H,1.743015825,-0.6895310933,-0.668
 1636862\H,6.2367231247,0.2038433175,0.1590277792\H,5.4398878416,0.7326
 842579,1.4731996038\C,5.1628937292,2.815411622,-1.271674998\O,4.708073
 7813,2.1216490945,-2.0852084417\O,5.6115541693,3.5756813171,-0.5167886
 504\\Version=ES64L-G16RevC.01\HF=-399.1340001\RMSD=3.781e-09\RMSF=3.38
 0e-05\ZeroPoint=0.1065645\Thermal=0.1162843\ETot=-399.0177158\HTot=-39
 9.0167716\GTot=-399.064522\Dipole=0.7285815,-0.4105376,-0.156873\Dipol
 eDeriv=-1.0983655,-0.1882779,-0.1356481,-0.2421942,-0.8077468,-0.06458
 5,-0.2064093,-0.1156522,-0.4140357,0.8245863,0.2619538,0.0748369,0.312
 8331,0.6075952,0.023212,0.1595134,0.07906,0.4145788,0.4072018,0.232214
 2,0.0424467,0.1999452,0.4094863,-0.060813,0.1445224,0.0142504,0.281376
 4,0.0084983,-0.0132716,0.0069306,-0.0157785,0.0430727,-0.0372525,0.002
 7221,-0.086444,-0.1754331,-0.015697,-0.0047751,-0.0256663,-0.0123978,-
 0.2060105,0.0750128,-0.019058,0.1329978,-0.0010573,-0.649718,-0.151926
 6,-0.0402395,-0.1552829,-0.7230001,0.143005,-0.0355965,0.1184646,-0.39
 28749,0.0089921,-0.0108169,-0.0049468,-0.0167842,0.0495449,-0.0336852,
 -0.0105499,-0.0880439,-0.1793645,-0.0337765,-0.0514063,-0.0053687,-0.0
 502995,-0.2707333,0.0951311,-0.0000313,0.1434333,0.0059362,0.3624942,-
 0.048716,0.0910731,-0.0681299,0.3618961,0.0083107,0.0450073,-0.0055184
 ,0.1888762,0.0536324,0.031294,-0.0027067,0.1034878,0.210043,-0.0975809
 ,-0.0407453,-0.0825143,0.2387597,0.1733324,-0.0468417,0.0040089,-0.045
 0934,0.2810362,0.0428906,-0.0304159,-0.0286605,0.0236089,0.991086,0.62
 42438,0.6372108,0.6364877,1.9420009,0.7799884,0.6385252,0.8031326,1.90
 06212,-0.5185818,-0.2814605,-0.3512056,-0.2973534,-0.8386389,-0.442202
 8,-0.3428671,-0.3956321,-1.0449023,-0.5136846,-0.3522133,-0.2907252,-0
 .3494401,-1.0585457,-0.4314313,-0.304617,-0.4888731,-0.8460896\Polar=6
 5.6030247,7.8004732,72.3414003,5.8918599,6.692527,67.6226235\PolarDeri
 v=-9.4304308,-2.9189298,0.7481364,0.3069768,0.4796429,1.1931159,-3.528
 8819,-2.7006487,-1.0465897,0.5775136,0.2125401,1.7445194,1.7549373,1.1
 79297,1.7576302,-0.470905,1.0004828,8.5311731,-0.1790166,3.6246105,-1.
 3620135,1.4913782,-0.1011496,-0.8916951,4.4883583,2.0149255,-10.057203
 3,-0.2128569,3.0255564,-4.1667443,1.5914904,-0.3809153,5.5066488,0.983
 2193,-5.825776,-9.7308716,0.9084053,-3.0738499,-0.1246747,-1.9846481,0
 .9347539,-0.7087446,-3.8656906,0.2828611,14.2803855,-0.8165034,-4.8367
 7,3.3056502,-1.6288037,-0.2059059,-7.6861492,0.0704958,6.9771524,9.352
 4785,-0.0523897,0.0987122,-0.2327559,1.9104546,0.3515886,-0.1170113,-0
 .7955794,-0.5998836,1.742855,-0.1336723,1.7990009,1.4489124,2.253624,-
 0.033509,1.6182476,-1.1412783,3.0806258,11.8001177,0.0165763,1.8985434
 ,0.3769908,-1.4016869,-0.2397238,-0.1057989,1.5966488,-0.8437925,11.01
 231,0.2905564,-3.0026422,2.1846445,-2.151593,0.2429131,-5.1499542,-0.3
 230059,3.4938744,-1.8077117,-2.2587874,3.9576636,-1.3118774,1.5599385,
 -1.0353215,-0.9857973,6.1655421,0.9392722,-1.5128115,-0.9809033,2.1049
 92,-0.4842904,1.053386,-1.6988012,-0.0198102,-1.0650836,-0.1008071,-8.
 8922388,-0.0135124,0.0637433,0.7620734,-1.7970788,-0.558688,0.0060395,
 0.839036,0.4577316,-2.0440562,0.0173323,-1.789508,-1.6042812,-2.131375
 7,-0.1321411,-1.5491645,0.4937551,-3.3069704,-11.3516936,-0.6597529,-1
 .8515682,-0.0340285,1.2619988,-0.2491297,0.3623565,-1.2482039,-0.66986
 64,-13.7638299,-0.016231,3.2832337,-1.6573949,2.0832127,0.4683114,6.08
 25388,-0.0882285,-4.0514005,1.6775541,-0.3850982,-0.5237754,-0.345198,
 -1.2600728,-0.6150778,-0.8541414,-0.5947042,-0.7202966,-1.2103442,-0.6
 362324,-0.9435053,-1.3330323,-2.418249,-1.241594,-2.0131045,-2.2480678
 ,-2.3550495,-8.9570825,11.7978242,-2.2653784,1.6410249,-1.3058513,0.46
 30821,1.5436654,-3.1613843,1.3068391,0.4748161,0.8003683,-1.0844272,-0
 .6613278,-3.1079537,1.0313687,-2.2380912,1.4934738,0.1133535,-0.933231
 ,0.3479599,0.2121656,-0.2703085,1.555679,0.4237191,0.6436394,0.1597798
 ,0.2769314,2.3042622,0.7198052,-0.6663786,2.3682122,2.5246922,0.614765
 3,1.5327157,2.5322314,1.904738,10.686857,-0.2426519,-0.1826455,-0.3214
 111,-0.1604295,-0.4348252,1.280804,0.5976763,-1.1902256,-9.7830647,0.6
 319756,6.3365456,-3.1697284,0.0314172,-0.0109598,6.7103906,0.0106502,-
 6.1715,5.2641085,-4.8590997,-2.8076408,-3.668869,-3.2201963,1.2453246,
 -3.4251457,-2.7261434,-2.0452746,-7.7128001,-0.3790604,-3.6248401,-3.1
 996388,-2.3397982,-0.5780602,-8.3198152,-2.2965275,1.502765,-13.760070
 7,5.0099739,3.7683494,4.1429111,3.0435378,-0.6641955,2.0587137,2.07354
 63,3.491427,17.3160709,0.1379084,-0.8137974,5.2244994,2.4850137,0.7452
 31,3.7679174,2.049271,3.7385114,8.120611\HyperPolar=41.6982408,3.25902
 42,4.4994547,153.7843718,-5.6341199,-12.8487966,-106.7853393,19.940675
 4,80.6048713,-62.4811857\Quadrupole=7.3230646,-6.4682789,-0.8547857,-6
 .8169606,2.0359227,0.9521607\PG=C01 [X(C3H7N1O3)]\NImag=0\\0.23045569,
 0.14061165,0.16538942,0.04612481,0.09116307,0.59247438,-0.14631342,-0.
 07341770,-0.02949553,0.43296064,-0.06542185,-0.11818159,-0.02457251,-0
 .02191188,0.53231085,0.00752327,0.00275469,-0.09555462,0.00113451,-0.0
 2178343,0.62075825,-0.03204594,-0.00009361,0.00267834,-0.14311560,0.05
 639531,0.02630315,0.45874174,-0.03453984,0.00446687,0.00323900,0.05804
 852,-0.11081393,-0.01630917,-0.01279922,0.53265148,-0.01078066,0.00040
 807,0.00195177,0.02634021,-0.01577635,-0.09216576,-0.00472860,-0.01163
 480,0.60008154,-0.00694028,-0.01228419,-0.03376201,-0.04794454,0.00570
 909,0.01887690,-0.00236382,0.00610714,0.03040877,0.06100120,-0.0068481
 0,-0.00774109,-0.02561090,0.00421338,-0.05941470,-0.03825864,0.0026449
 2,-0.00291058,-0.01648856,0.00253091,0.06518338,-0.00556798,-0.0050343
 0,-0.00540234,0.01041514,-0.04590014,-0.29841910,0.00052180,-0.0012607
 0,-0.00799594,-0.00898321,0.05563629,0.32138231,-0.00698485,-0.0348409
 1,0.01228074,-0.05292388,0.03192019,-0.02006979,-0.00455655,0.02590770
 ,-0.01528888,0.00163522,-0.00056731,0.00130942,0.06365967,-0.01216049,
 -0.02307830,0.00512588,0.03170572,-0.22215262,0.10765863,0.00344512,-0
 .01422463,0.00914104,0.00015685,0.00683829,-0.00233552,-0.02396566,0.2
 5073831,-0.00040862,-0.00888188,0.00816790,-0.01764600,0.11190688,-0.1
 2527304,0.00360266,-0.00744079,0.00469713,-0.00451352,0.02599176,-0.01
 518334,0.01774918,-0.11944091,0.12457181,-0.01200092,0.00039790,0.0008
 9501,-0.02877551,-0.02571060,-0.00969938,-0.15049649,-0.07786360,-0.00
 005478,0.00237472,-0.00064385,0.00029499,0.00232207,-0.00045848,-0.000
 61983,0.58801572,0.00460493,0.00161689,-0.00013811,0.00190979,0.008109
 14,0.00220029,-0.04157097,-0.12491240,-0.01662260,0.00026023,0.0003166
 9,0.00042628,-0.00036635,0.00164268,-0.00014401,-0.02839747,0.26171840
 ,0.00459931,0.00019885,0.00129713,0.00424193,0.00652602,0.00220153,-0.
 01484097,-0.03869878,-0.09411549,-0.00017258,0.00058730,0.00100179,0.0
 0010449,-0.00013485,0.00005710,-0.04942755,0.15004013,0.58713026,0.002
 90535,0.00032304,-0.00071498,-0.00257802,0.00619842,0.03179934,-0.0485
 7714,0.00318652,0.01161106,-0.00520320,0.00234110,0.00109211,0.0013817
 4,-0.00072393,-0.00073109,-0.00311527,-0.01055376,-0.03075746,0.058533
 88,-0.00091780,0.00028946,0.00126704,0.00125066,-0.00402211,-0.0166532
 4,0.00129131,-0.05684240,-0.03592234,0.00248260,-0.00044477,-0.0008568
 2,-0.00067129,0.00054650,-0.00017850,-0.00222324,-0.00706845,-0.023810
 91,0.00226950,0.06268046,0.00068395,0.00107368,0.00197982,0.00012055,-
 0.00196030,-0.00859201,0.00619682,-0.04251885,-0.29511418,0.00104011,-
 0.00094091,0.00123439,0.00029857,-0.00017229,0.00104878,-0.00272793,-0
 .00409416,-0.00642146,-0.00619217,0.04996141,0.32028944,0.00263803,-0.
 00110292,0.00026072,-0.00494662,0.02695514,-0.01518504,-0.05107135,0.0
 2123119,-0.01121895,0.00140191,-0.00080530,0.00021103,-0.00514544,0.00
 241131,0.00139673,-0.00509171,-0.03203711,0.01103712,0.00101753,-0.000
 70359,0.00104454,0.05916859,-0.00034492,0.00278056,-0.00042686,0.00223
 330,-0.01591863,0.00904369,0.02401074,-0.22302867,0.10239106,-0.000477
 38,0.00060182,-0.00032339,0.00222405,-0.00095064,-0.00118700,-0.010445
 13,-0.02229234,0.00519387,0.00020179,0.00545563,-0.00159992,-0.0175495
 6,0.25137675,-0.00115088,-0.00035774,-0.00019010,0.00291918,-0.0075052
 2,0.00399262,-0.01205317,0.10332904,-0.11526437,-0.00077589,-0.0001122
 0,0.00101701,0.00151243,-0.00096914,0.00102754,-0.00019647,-0.00913806
 ,0.00765582,-0.00383646,0.02697369,-0.01560417,0.01184946,-0.11208004,
 0.11598803,-0.02934511,-0.02018852,0.00061399,-0.00628230,-0.00783597,
 -0.03595859,0.00013276,-0.00008937,-0.00281014,-0.00370775,-0.00305105
 ,-0.00041992,0.00115393,-0.00000241,0.00079414,0.00035722,0.00024886,0
 .00075470,-0.00099618,0.00021373,0.00108441,-0.00010468,0.00005205,0.0
 0019736,0.03839558,-0.02392216,-0.02603084,-0.04984701,-0.00395694,-0.
 00746329,-0.02878748,0.00015102,0.00106783,0.00112999,-0.00425885,-0.0
 0267694,-0.00058566,0.00111727,0.00051736,-0.00082185,0.00044666,-0.00
 012619,-0.00003685,-0.00044083,0.00035988,0.00019662,0.00017201,-0.000
 09769,0.00013853,0.03051101,0.03450397,-0.03907782,-0.08087969,-0.5054
 3730,0.00286467,0.00073114,-0.00679407,-0.00013436,0.00184329,0.001660
 83,-0.00134438,-0.00126284,0.00233459,0.00149467,0.00075416,0.00135180
 ,0.00111800,-0.00005412,-0.00015865,-0.00056225,0.00029640,-0.00071045
 ,-0.00002389,-0.00002338,-0.00007199,0.03541063,0.07861495,0.50773318,
 -0.00252732,0.00011332,0.00018944,-0.00065480,-0.00541456,-0.00245494,
 -0.02453113,0.01447010,0.00757423,0.00033542,-0.00007054,0.00015147,0.
 00030879,0.00010731,-0.00013925,-0.33012966,0.11754779,0.10532361,0.00
 102475,0.00047408,-0.00037219,0.00135866,0.00009274,0.00078722,0.00004
 406,0.00008040,0.00020844,0.35180179,-0.00172005,0.00025967,-0.0002665
 5,-0.00049043,-0.00310079,-0.00094616,-0.02836366,0.00541909,0.0098263
 0,0.00000614,-0.00008194,0.00014333,-0.00033140,0.00033845,-0.00009846
 ,0.15305238,-0.09145915,-0.07930358,0.00073013,0.00082797,-0.00007961,
 -0.00011819,0.00081453,0.00039939,0.00000458,0.00002279,0.00006458,-0.
 12774682,0.09219852,-0.00188091,-0.00051815,0.00050151,-0.00093377,-0.
 00138190,-0.00061563,-0.00817761,0.00622342,0.00246945,-0.00018764,0.0
 0019216,0.00033982,0.00026810,-0.00015646,-0.00007940,0.08157481,-0.05
 554076,-0.07851187,-0.00020693,0.00024631,0.00033578,0.00008780,-0.000
 71696,-0.00019671,0.00018158,0.00004207,0.00013192,-0.10741817,0.06760
 357,0.08899529,0.00003525,0.00024651,0.00096728,0.00067676,-0.00064960
 ,-0.00252956,-0.00220730,-0.00282774,-0.03145436,-0.00059854,0.0002662
 5,0.00100482,-0.00005642,-0.00001134,0.00012230,-0.06267372,-0.0110393
 1,-0.02909012,-0.00428675,-0.00344456,-0.00128437,0.00095937,0.0000313
 8,0.00072364,0.00034279,0.00009904,0.00008621,0.00302398,0.00460643,0.
 03690727,0.06487145,0.00029826,-0.00006313,0.00012838,0.00046568,0.000
 88224,0.00072361,-0.00491518,-0.00866262,-0.02699496,-0.00021414,0.000
 26784,0.00016028,0.00008774,-0.00002979,0.00013781,-0.00689940,-0.0226
 8684,-0.02067896,-0.00366542,-0.00197635,-0.00024683,0.00151809,0.0010
 2297,-0.00064547,0.00014012,-0.00006084,-0.00003262,0.00002234,-0.0045
 5423,-0.01634092,0.01272432,0.03477957,0.00004623,0.00001075,0.0001978
 8,-0.00010908,0.00026748,0.00070073,0.00032586,0.00330964,-0.00663541,
 -0.00057144,0.00014040,-0.00024003,0.00003845,-0.00001337,-0.00008380,
 -0.02027543,-0.06803158,-0.41545093,-0.00141533,-0.00111616,0.00166485
 ,0.00085948,0.00001311,0.00156323,0.00014538,-0.00001003,-0.00005923,-
 0.00364478,0.00247334,-0.01337768,0.02474158,0.06316046,0.43206706,0.0
 0053493,0.00101172,-0.00006801,-0.00025545,-0.00184749,0.00059180,0.00
 085883,-0.00137024,0.00150517,0.00002417,0.00030157,-0.00033951,-0.001
 36426,0.00034963,0.00040199,-0.00372392,-0.00165124,-0.00096118,-0.000
 06158,-0.00061876,-0.00027787,-0.00053804,-0.00014738,-0.00037347,-0.0
 0005415,-0.00016435,-0.00006118,0.00001762,0.00106244,-0.00062720,-0.0
 0021148,0.00048638,-0.00037131,0.40830519,0.00179842,0.00110428,-0.000
 03014,-0.00147597,-0.00124985,0.00084926,-0.00198811,-0.00248653,0.000
 11597,0.00008464,0.00033025,-0.00048663,-0.00116416,0.00047280,0.00038
 889,-0.00101225,-0.00037238,-0.00731780,0.00019207,-0.00093459,-0.0002
 2357,0.00093599,0.00105447,-0.00056269,-0.00026636,-0.00013811,-0.0001
 5527,0.00069562,-0.00068863,0.00047784,-0.00019209,0.00380663,-0.00102
 128,0.42134749,0.80544423,-0.00054165,0.00009180,-0.00013110,0.0005053
 9,-0.00074902,-0.00042042,0.00253162,-0.00038789,0.00298432,0.00008486
 ,0.00024242,-0.00025842,-0.00032837,0.00058699,0.00030394,-0.00125551,
 -0.00617657,-0.00099163,-0.00033123,-0.00107607,-0.00064065,-0.0014376
 8,-0.00119717,-0.00049600,0.00001433,-0.00012374,0.00009921,-0.0002080
 3,-0.00042640,0.00063882,-0.00019419,0.00010838,-0.00082912,0.45108425
 ,0.74312086,0.91848083,-0.00019884,-0.00056996,0.00002170,-0.00008912,
 0.00130624,-0.00016059,-0.00070073,0.00032192,-0.00076391,0.00000411,-
 0.00027020,0.00023315,0.00039181,-0.00077792,0.00011379,0.00119884,0.0
 0058542,-0.00132363,-0.00003932,0.00036445,0.00024908,0.00035442,0.000
 15202,0.00023584,0.00002431,0.00012892,0.00000492,0.00004148,-0.000231
 71,0.00019027,0.00009197,0.00040548,0.00008566,-0.20295501,-0.20416325
 ,-0.23157946,0.18727708,-0.00059564,-0.00046326,-0.00000864,0.00057248
 ,0.00074120,-0.00015754,0.00032831,0.00079231,-0.00065061,-0.00007436,
 -0.00017341,0.00023835,0.00038938,-0.00051995,-0.00003217,0.00095752,-
 0.00038774,0.00557654,0.00004666,0.00078034,0.00048868,0.00001324,-0.0
 0007730,0.00035822,0.00012325,0.00007802,0.00003870,-0.00016642,0.0002
 6847,-0.00027428,0.00012270,-0.00154604,0.00061467,-0.20206828,-0.3795
 5371,-0.36165230,0.23441197,0.40088383,0.00047098,0.00016436,0.0000847
 6,-0.00037666,-0.00022752,0.00021523,-0.00131171,-0.00017981,-0.001304
 40,-0.00005769,0.00001385,0.00003396,0.00028501,0.00018995,-0.00041490
 ,-0.00084065,0.00282552,-0.00514718,0.00019626,0.00037904,0.00021036,0
 .00065639,0.00054626,0.00030129,-0.00003905,0.00002396,-0.00006545,0.0
 0002384,0.00040341,-0.00044498,-0.00015901,0.00146810,0.00005299,-0.23
 308590,-0.36762858,-0.48055271,0.26924067,0.41373937,0.51568553,-0.000
 21257,-0.00020632,0.00000849,0.00024185,0.00030756,-0.00017108,-0.0000
 6728,0.00021690,-0.00033916,-0.00001860,-0.00004179,0.00007667,0.00017
 816,-0.00007570,-0.00012249,0.00173864,0.00045918,0.00051232,-0.000005
 77,0.00023291,0.00013650,-0.00000065,-0.00003370,0.00016123,0.00003951
 ,0.00003679,0.00001635,-0.00011365,-0.00045984,0.00022240,0.00003264,-
 0.00045426,0.00014473,-0.20057683,-0.21479203,-0.21834433,0.01459900,-
 0.03406081,-0.03500248,0.18416555,-0.00084241,-0.00034893,-0.00002265,
 0.00085339,0.00027409,-0.00033451,0.00146403,-0.00051581,0.00107780,-0
 .00002867,-0.00009484,0.00017862,0.00026074,-0.00013846,-0.00019977,-0
 .00120046,-0.00409832,0.00185902,-0.00010528,0.00034843,0.00011605,-0.
 00092029,-0.00074146,0.00017169,0.00014007,0.00004404,0.00006470,-0.00
 020537,-0.00026475,0.00014406,0.00006800,-0.00117939,0.00020257,-0.216
 69148,-0.42678885,-0.37236127,-0.03166339,-0.02082277,-0.05171791,0.24
 887112,0.45432702,-0.00004004,-0.00019351,0.00006032,0.00001946,0.0004
 2487,-0.00003370,-0.00091384,0.00048641,-0.00124950,-0.00004230,-0.000
 13010,0.00015529,0.00034597,-0.00023413,-0.00019153,0.00121472,0.00444
 776,0.00145356,0.00004912,0.00049014,0.00031949,0.00046229,0.00036674,
 0.00027779,0.00003118,0.00006650,-0.00001438,-0.00002089,0.00020683,-0
 .00018633,0.00015852,-0.00094725,0.00042946,-0.21741758,-0.36752687,-0
 .43818708,-0.03654748,-0.05827899,-0.02865450,0.25270086,0.42082160,0.
 46582110\\0.00000162,-0.00001521,-0.00000828,0.00000185,-0.00000709,-0
 .00000120,0.00000297,-0.00000177,0.00000029,-0.00000176,-0.00000686,0.
 00000320,-0.00000031,-0.00000223,0.00000294,0.00000075,0.00000405,0.00
 000325,0.00000093,-0.00000251,0.00000056,0.00000345,-0.00000146,0.0000
 0133,-0.00000062,0.00000068,-0.00000251,-0.00000172,0.00000511,-0.0000
 0044,-0.00000027,0.00000140,-0.00000336,-0.00000288,0.00000106,0.00000
 289,-0.00005923,-0.00008350,-0.00010456,0.00005523,0.00010834,0.000105
 87\\\@
 The archive entry for this job was punched.


 THOSE WHO TRY TO PASS CHEMISTRY OFF AS A NEW SCIENCE
 SHOW HOW LITTLE KNOWLEDGE THEY HAVE OF THE CHARACTER
 AND LITERATURE OF THE ANCIENTS.
   -- NICOLAS LEFEVRE
 "COURS DE CHYMIE" J.-N.LELOUP, PARIS, 1751
 Job cpu time:       0 days  0 hours 21 minutes 33.0 seconds.
 Elapsed time:       0 days  0 hours 11 minutes 42.7 seconds.
 File lengths (MBytes):  RWF=    123 Int=      0 D2E=      0 Chk=     15 Scr=      1
 Normal termination of Gaussian 16 at Fri Jun  2 13:30:46 2023.
