 Entering Gaussian System, Link 0=g16
 Input=124triz-isolated-freq.gjf
 Output=124triz-isolated-freq.log
 Initial command:
 /software/commercial/gaussian/g16/AVX/g16/l1.exe "/scratch1/svicchi/G09-659776.pbs02/Gau-3013929.inp" -scrdir="/scratch1/svicchi/G09-659776.pbs02/"
 Entering Link 1 = /software/commercial/gaussian/g16/AVX/g16/l1.exe PID=   3013930.
  
 Copyright (c) 1988-2019, Gaussian, Inc.  All Rights Reserved.
  
 This is part of the Gaussian(R) 16 program.  It is based on
 the Gaussian(R) 09 system (copyright 2009, Gaussian, Inc.),
 the Gaussian(R) 03 system (copyright 2003, Gaussian, Inc.),
 the Gaussian(R) 98 system (copyright 1998, Gaussian, Inc.),
 the Gaussian(R) 94 system (copyright 1995, Gaussian, Inc.),
 the Gaussian 92(TM) system (copyright 1992, Gaussian, Inc.),
 the Gaussian 90(TM) system (copyright 1990, Gaussian, Inc.),
 the Gaussian 88(TM) system (copyright 1988, Gaussian, Inc.),
 the Gaussian 86(TM) system (copyright 1986, Carnegie Mellon
 University), and the Gaussian 82(TM) system (copyright 1983,
 Carnegie Mellon University). Gaussian is a federally registered
 trademark of Gaussian, Inc.
  
 This software contains proprietary and confidential information,
 including trade secrets, belonging to Gaussian, Inc.
  
 This software is provided under written license and may be
 used, copied, transmitted, or stored only in accord with that
 written license.
  
 The following legend is applicable only to US Government
 contracts under FAR:
  
                    RESTRICTED RIGHTS LEGEND
  
 Use, reproduction and disclosure by the US Government is
 subject to restrictions as set forth in subparagraphs (a)
 and (c) of the Commercial Computer Software - Restricted
 Rights clause in FAR 52.227-19.
  
 Gaussian, Inc.
 340 Quinnipiac St., Bldg. 40, Wallingford CT 06492
  
  
 ---------------------------------------------------------------
 Warning -- This program may not be used in any manner that
 competes with the business of Gaussian, Inc. or will provide
 assistance to any competitor of Gaussian, Inc.  The licensee
 of this program is prohibited from giving any competitor of
 Gaussian, Inc. access to this program.  By using this program,
 the user acknowledges that Gaussian, Inc. is engaged in the
 business of creating and licensing software in the field of
 computational chemistry and represents and warrants to the
 licensee that it is not a competitor of Gaussian, Inc. and that
 it will not use this program in any manner prohibited above.
 ---------------------------------------------------------------
  

 Cite this work as:
 Gaussian 16, Revision C.01,
 M. J. Frisch, G. W. Trucks, H. B. Schlegel, G. E. Scuseria, 
 M. A. Robb, J. R. Cheeseman, G. Scalmani, V. Barone, 
 G. A. Petersson, H. Nakatsuji, X. Li, M. Caricato, A. V. Marenich, 
 J. Bloino, B. G. Janesko, R. Gomperts, B. Mennucci, H. P. Hratchian, 
 J. V. Ortiz, A. F. Izmaylov, J. L. Sonnenberg, D. Williams-Young, 
 F. Ding, F. Lipparini, F. Egidi, J. Goings, B. Peng, A. Petrone, 
 T. Henderson, D. Ranasinghe, V. G. Zakrzewski, J. Gao, N. Rega, 
 G. Zheng, W. Liang, M. Hada, M. Ehara, K. Toyota, R. Fukuda, 
 J. Hasegawa, M. Ishida, T. Nakajima, Y. Honda, O. Kitao, H. Nakai, 
 T. Vreven, K. Throssell, J. A. Montgomery, Jr., J. E. Peralta, 
 F. Ogliaro, M. J. Bearpark, J. J. Heyd, E. N. Brothers, K. N. Kudin, 
 V. N. Staroverov, T. A. Keith, R. Kobayashi, J. Normand, 
 K. Raghavachari, A. P. Rendell, J. C. Burant, S. S. Iyengar, 
 J. Tomasi, M. Cossi, J. M. Millam, M. Klene, C. Adamo, R. Cammi, 
 J. W. Ochterski, R. L. Martin, K. Morokuma, O. Farkas, 
 J. B. Foresman, and D. J. Fox, Gaussian, Inc., Wallingford CT, 2019.
 
 ******************************************
 Gaussian 16:  ES64L-G16RevC.01  3-Jul-2019
                 2-Jun-2023 
 ******************************************
 %NProcShared=2
 Will use up to    2 processors via shared memory.
 %mem=55gb
 %chk=/scratch1/svicchi/G09-659776.pbs02/02-freq/124triz-isolated-freq.chk
 ----------------------------------------------------------------------
 #p freq=raman scale=0.967 pop=(nbo,full,hirshfeld) guess=read geom=all
 check b3lyp/6-311+G(d,p) int=grid=ultrafine EmpiricalDispersion=GD3BJ 
 SCRF=(Solvent=ethanol) scf=(xqc,intrep,maxconventionalcycle=350) nosym
 m
 ----------------------------------------------------------------------
 1/10=4,29=7,30=1,38=1,114=967000/1,3;
 2/12=2,15=1,40=1/2;
 3/5=4,6=6,7=111,11=2,14=-4,25=1,30=1,70=2201,71=2,72=4,74=-5,75=-5,116=-2,124=41,140=1/1,2,3;
 4/5=1/1;
 5/5=2,8=3,13=1,17=20,38=6,53=4,85=350,98=1/2,8;
 8/6=4,10=90,11=11/1;
 10/13=10,15=4,31=1/2;
 11/6=3,8=1,9=11,15=111,16=1,31=1/1,2,10;
 10/6=1,31=1/2;
 6/7=3,28=1,40=1,79=1/1,7;
 7/8=1,10=1,25=1,30=1/1,2,3,16;
 1/10=4,30=1/3;
 99//99;
 Leave Link    1 at Fri Jun  2 11:06:31 2023, MaxMem=  7381975040 cpu:               1.1 elap:               1.1
 (Enter /software/commercial/gaussian/g16/AVX/g16/l101.exe)
 Structure from the checkpoint file:  "/scratch1/svicchi/G09-659776.pbs02/02-freq/124triz-isolated-freq.chk"
 --------------------
 124triz-isolated.gjf
 --------------------
 Charge = -1 Multiplicity = 1
 No Z-Matrix found in chk file; cartesian coordinates used.
  C                                                -1.713639888047      1.399285220941     -0.000000000002
  N                                                -1.777412476414      0.046664412196     -0.000000000001
  C                                                -0.461560486967     -0.272860978194      0.000000000000
  N                                                 0.355397560806      0.782147159632      0.000000000000
  N                                                -0.471423693013      1.886010992259     -0.000000000000
  H                                                -0.095781032459     -1.291741898483      0.000000000000
  H                                                -2.588049983906      2.037486091649      0.000000000002
 Recover connectivity data from disk.
 ITRead=  0  0  0  0  0  0  0
 MicOpt= -1 -1 -1 -1 -1 -1 -1
 NAtoms=      7 NQM=        7 NQMF=       0 NMMI=      0 NMMIF=      0
                NMic=       0 NMicF=      0.
                    Isotopes and Nuclear Properties:
 (Nuclear quadrupole moments (NQMom) in fm**2, nuclear magnetic moments (NMagM)
  in nuclear magnetons)

  Atom         1           2           3           4           5           6           7
 IAtWgt=          12          14          12          14          14           1           1
 AtmWgt=  12.0000000  14.0030740  12.0000000  14.0030740  14.0030740   1.0078250   1.0078250
 NucSpn=           0           2           0           2           2           1           1
 AtZEff=   3.6000000   4.5500000   3.6000000   4.5500000   4.5500000   1.0000000   1.0000000
 NQMom=    0.0000000   2.0440000   0.0000000   2.0440000   2.0440000   0.0000000   0.0000000
 NMagM=    0.0000000   0.4037610   0.0000000   0.4037610   0.4037610   2.7928460   2.7928460
 AtZNuc=   6.0000000   7.0000000   6.0000000   7.0000000   7.0000000   1.0000000   1.0000000
 Leave Link  101 at Fri Jun  2 11:06:34 2023, MaxMem=  7381975040 cpu:               0.4 elap:               0.9
 (Enter /software/commercial/gaussian/g16/AVX/g16/l103.exe)

 GradGradGradGradGradGradGradGradGradGradGradGradGradGradGradGradGradGrad
 Berny optimization.
 Initialization pass.
 Trust Radius=3.00D-01 FncErr=1.00D-07 GrdErr=1.00D-07 EigMax=2.50D+02 EigMin=1.00D-04
 Number of steps in this run=      2 maximum allowed number of steps=      2.
 GradGradGradGradGradGradGradGradGradGradGradGradGradGradGradGradGradGrad

 Leave Link  103 at Fri Jun  2 11:06:35 2023, MaxMem=  7381975040 cpu:               0.1 elap:               0.6
 (Enter /software/commercial/gaussian/g16/AVX/g16/l202.exe)
                          Input orientation:                          
 ---------------------------------------------------------------------
 Center     Atomic      Atomic             Coordinates (Angstroms)
 Number     Number       Type             X           Y           Z
 ---------------------------------------------------------------------
      1          6           0       -1.713640    1.399285   -0.000000
      2          7           0       -1.777412    0.046664   -0.000000
      3          6           0       -0.461560   -0.272861    0.000000
      4          7           0        0.355398    0.782147    0.000000
      5          7           0       -0.471424    1.886011   -0.000000
      6          1           0       -0.095781   -1.291742    0.000000
      7          1           0       -2.588050    2.037486    0.000000
 ---------------------------------------------------------------------
                    Distance matrix (angstroms):
                    1          2          3          4          5
     1  C    0.000000
     2  N    1.354123   0.000000
     3  C    2.088965   1.354091   0.000000
     4  N    2.159114   2.256062   1.334340   0.000000
     5  N    1.334168   2.255837   2.158895   1.379184   0.000000
     6  H    3.139919   2.149236   1.082549   2.122399   3.199878
     7  H    1.082540   2.149536   3.140010   3.199962   2.122039
                    6          7
     6  H    0.000000
     7  H    4.158745   0.000000
 Symmetry turned off by external request.
 Stoichiometry    C2H2N3(1-)
 Framework group  CS[SG(C2H2N3)]
 Deg. of freedom    11
 Full point group                 CS      NOp   2
 Rotational constants (GHZ):          10.4815925          10.3258309           5.2015644
 Leave Link  202 at Fri Jun  2 11:06:38 2023, MaxMem=  7381975040 cpu:               0.0 elap:               1.0
 (Enter /software/commercial/gaussian/g16/AVX/g16/l301.exe)
 Standard basis: 6-311+G(d,p) (5D, 7F)
 Ernie: Thresh=  0.10000D-02 Tol=  0.10000D-05 Strict=F.
   122 basis functions,   196 primitive gaussians,   127 cartesian basis functions
    18 alpha electrons       18 beta electrons
       nuclear repulsion energy       154.9070099278 Hartrees.
 IExCor=  402 DFT=T Ex+Corr=B3LYP ExCW=0 ScaHFX=  0.200000
 ScaDFX=  0.800000  0.720000  1.000000  0.810000 ScalE2=  1.000000  1.000000
 IRadAn=      5 IRanWt=     -1 IRanGd=            0 ICorTp=0 IEmpDi=141
 NAtoms=    7 NActive=    7 NUniq=    7 SFac= 1.00D+00 NAtFMM=   60 NAOKFM=F Big=F
 Integral buffers will be    131072 words long.
 Raffenetti 2 integral format.
 Two-electron integral symmetry is turned off.
 R6Disp:  Grimme-D3(BJ) Dispersion energy=       -0.0086901319 Hartrees.
 Nuclear repulsion after empirical dispersion term =      154.8983197959 Hartrees.
 Force inversion solution in PCM.
 ------------------------------------------------------------------------------
 Polarizable Continuum Model (PCM)
 =================================
 Model                : PCM.
 Atomic radii         : UFF (Universal Force Field).
 Polarization charges : Total charges.
 Charge compensation  : None.
 Solution method      : Matrix inversion.
 Cavity type          : Scaled VdW (van der Waals Surface) (Alpha=1.100).
 Cavity algorithm     : GePol (No added spheres)
                        Default sphere list used, NSphG=    7.
                        Lebedev-Laikov grids with approx.  5.0 points / Ang**2.
                        Smoothing algorithm: York/Karplus (Gamma=1.0000).
                        Polarization charges: spherical gaussians, with
                                              point-specific exponents (IZeta= 3).
                        Self-potential: point-specific (ISelfS= 7).
                        Self-field    : sphere-specific E.n sum rule (ISelfD= 2).
 1st derivatives      : Analytical E(r).r(x)/FMM algorithm (CHGder, D1EAlg=3).
                        Cavity 1st derivative terms included.
 2nd derivatives      : Analytical E(r).r(xy)/FMM algorithm (CHGder, D2EAlg=3).
                        Cavity 2nd derivative terms included.
 Solvent              : Ethanol, Eps=  24.852000 Eps(inf)=   1.852593
 ------------------------------------------------------------------------------
 Spheres list:
 ISph  on   Nord     Re0    Alpha      Xe            Ye            Ze
    1   C      1    1.9255  1.100     -1.713640      1.399285     -0.000000
    2   N      2    1.8300  1.100     -1.777412      0.046664     -0.000000
    3   C      3    1.9255  1.100     -0.461560     -0.272861      0.000000
    4   N      4    1.8300  1.100      0.355398      0.782147      0.000000
    5   N      5    1.8300  1.100     -0.471424      1.886011     -0.000000
    6   H      6    1.4430  1.100     -0.095781     -1.291742      0.000000
    7   H      7    1.4430  1.100     -2.588050      2.037486      0.000000
 ------------------------------------------------------------------------------
 GePol: Number of generator spheres                  =       7
 GePol: Total number of spheres                      =       7
 GePol: Number of exposed spheres                    =       7 (100.00%)
 GePol: Number of points                             =     794
 GePol: Average weight of points                     =       0.14
 GePol: Minimum weight of points                     =   0.45D-08
 GePol: Maximum weight of points                     =    0.20577
 GePol: Number of points with low weight             =      24
 GePol: Fraction of low-weight points (<1% of avg)   =       3.02%
 GePol: Cavity surface area                          =    109.830 Ang**2
 GePol: Cavity volume                                =     97.768 Ang**3
 Leave Link  301 at Fri Jun  2 11:06:39 2023, MaxMem=  7381975040 cpu:               0.3 elap:               0.6
 (Enter /software/commercial/gaussian/g16/AVX/g16/l302.exe)
 NPDir=0 NMtPBC=     1 NCelOv=     1 NCel=       1 NClECP=     1 NCelD=      1
         NCelK=      1 NCelE2=     1 NClLst=     1 CellRange=     0.0.
 One-electron integrals computed using PRISM.
 NBasis=   122 RedAO= T EigKep=  1.42D-04  NBF=   122
 NBsUse=   122 1.00D-06 EigRej= -1.00D+00 NBFU=   122
 Precomputing XC quadrature grid using
 IXCGrd= 4 IRadAn=           5 IRanWt=          -1 IRanGd=           0 AccXCQ= 0.00D+00.
 Generated NRdTot=       0 NPtTot=           0 NUsed=           0 NTot=          32
 NSgBfM=   127   127   127   127   127 MxSgAt=     7 MxSgA2=     7.
 Leave Link  302 at Fri Jun  2 11:06:40 2023, MaxMem=  7381975040 cpu:               0.5 elap:               0.9
 (Enter /software/commercial/gaussian/g16/AVX/g16/l303.exe)
 DipDrv:  MaxL=1.
 Leave Link  303 at Fri Jun  2 11:06:42 2023, MaxMem=  7381975040 cpu:               0.1 elap:               1.1
 (Enter /software/commercial/gaussian/g16/AVX/g16/l401.exe)
 Initial guess from the checkpoint file:  "/scratch1/svicchi/G09-659776.pbs02/02-freq/124triz-isolated-freq.chk"
 B after Tr=     0.000000    0.000000    0.000000
         Rot=    1.000000    0.000000    0.000000    0.000000 Ang=   0.00 deg.
 Guess basis will be translated and rotated to current coordinates.
 JPrj=2 DoOrth=T DoCkMO=T.
 Leave Link  401 at Fri Jun  2 11:06:44 2023, MaxMem=  7381975040 cpu:               0.5 elap:               1.0
 (Enter /software/commercial/gaussian/g16/AVX/g16/l502.exe)
 Keep R1 ints in memory in canonical form, NReq=30055015.
 FoFCou: FMM=F IPFlag=           0 FMFlag=           0 FMFlg1=           0
         NFxFlg=           0 DoJE=F BraDBF=F KetDBF=F FulRan=T
         wScrn=  0.000000 ICntrl=       600 IOpCl=  0 I1Cent=           0 NGrid=           0
         NMat0=    1 NMatS0=   7503 NMatT0=    0 NMatD0=    1 NMtDS0=    0 NMtDT0=    0
 Symmetry not used in FoFCou.
 Two-electron integral symmetry not used.
 Closed shell SCF:
 Using DIIS extrapolation, IDIIS=  1040.
 NGot=  7381975040 LenX=  7353789599 LenY=  7353773029
 Requested convergence on RMS density matrix=1.00D-08 within 350 cycles.
 Requested convergence on MAX density matrix=1.00D-06.
 Requested convergence on             energy=1.00D-06.
 No special actions if energy rises.

 Cycle   1  Pass 1  IDiag  1:
 Inv3:  Mode=1 IEnd=     1891308.
 Iteration    1 A*A^-1 deviation from unit magnitude is 2.66D-15 for    789.
 Iteration    1 A*A^-1 deviation from orthogonality  is 1.64D-15 for    766    316.
 Iteration    1 A^-1*A deviation from unit magnitude is 2.55D-15 for    766.
 Iteration    1 A^-1*A deviation from orthogonality  is 1.52D-15 for    715    117.
 E= -241.863101681987    
 DIIS: error= 3.25D-08 at cycle   1 NSaved=   1.
 NSaved= 1 IEnMin= 1 EnMin= -241.863101681987     IErMin= 1 ErrMin= 3.25D-08
 ErrMax= 3.25D-08  0.00D+00 EMaxC= 1.00D-01 BMatC= 9.51D-14 BMatP= 9.51D-14
 IDIUse=1 WtCom= 1.00D+00 WtEn= 0.00D+00
 Coeff-Com:  0.100D+01
 Coeff:      0.100D+01
 Gap=     0.247 Goal=   None    Shift=    0.000
 RMSDP=4.57D-09 MaxDP=9.01D-08              OVMax= 2.20D-07

 Error on total polarization charges =  0.02187
 SCF Done:  E(RB3LYP) =  -241.863101682     A.U. after    1 cycles
            NFock=  1  Conv=0.46D-08     -V/T= 2.0040
 KE= 2.408932785191D+02 PE=-8.827522303229D+02 EE= 2.450975303259D+02
 Leave Link  502 at Fri Jun  2 11:06:50 2023, MaxMem=  7381975040 cpu:               7.5 elap:               4.9
 (Enter /software/commercial/gaussian/g16/AVX/g16/l508.exe)
 QCSCF skips out because SCF is already converged.
 Leave Link  508 at Fri Jun  2 11:06:51 2023, MaxMem=  7381975040 cpu:               0.0 elap:               0.5
 (Enter /software/commercial/gaussian/g16/AVX/g16/l801.exe)
 DoSCS=F DFT=T ScalE2(SS,OS)=  1.000000  1.000000
 Range of M.O.s used for correlation:     1   122
 NBasis=   122 NAE=    18 NBE=    18 NFC=     0 NFV=     0
 NROrb=    122 NOA=    18 NOB=    18 NVA=   104 NVB=   104

 **** Warning!!: The largest alpha MO coefficient is  0.33273347D+02

 Leave Link  801 at Fri Jun  2 11:06:53 2023, MaxMem=  7381975040 cpu:               0.2 elap:               0.7
 (Enter /software/commercial/gaussian/g16/AVX/g16/l1002.exe)
 Minotr:  Closed shell wavefunction.
 NEqPCM:  Using equilibrium solvation (IEInf=0, Eps=  24.8520, EpsInf=   1.8526)
          Direct CPHF calculation.
          Differentiating once with respect to electric field.
                with respect to dipole field.
          Electric field/nuclear overlap derivatives assumed to be zero.
          Requested convergence is 1.0D-08 RMS, and 1.0D-07 maximum.
          Secondary convergence is 1.0D-12 RMS, and 1.0D-12 maximum.
          NewPWx=F KeepS1=T KeepF1=T KeepIn=T MapXYZ=F SortEE=F KeepMc=T.
         2122 words used for storage of precomputed grid.
 Keep R1 ints in memory in canonical form, NReq=31074676.
 FoFCou: FMM=F IPFlag=           0 FMFlag=           0 FMFlg1=           0
         NFxFlg=           0 DoJE=F BraDBF=F KetDBF=F FulRan=T
         wScrn=  0.000000 ICntrl=       600 IOpCl=  0 I1Cent=           0 NGrid=           0
         NMat0=    1 NMatS0=   7503 NMatT0=    0 NMatD0=    1 NMtDS0=    0 NMtDT0=    0
 Symmetry not used in FoFCou.
 Two-electron integral symmetry not used.
          MDV=    7381975040 using IRadAn=       1.
          Solving linear equations simultaneously, MaxMat=       0.
          There are     3 degrees of freedom in the 1st order CPHF.  IDoFFX=0 NUNeed=     3.
      3 vectors produced by pass  0 Test12= 6.24D-14 3.33D-08 XBig12= 5.65D+01 3.61D+00.
 AX will form     3 AO Fock derivatives at one time.
      3 vectors produced by pass  1 Test12= 6.24D-14 3.33D-08 XBig12= 3.97D+01 1.79D+00.
      3 vectors produced by pass  2 Test12= 6.24D-14 3.33D-08 XBig12= 2.33D+00 3.82D-01.
      3 vectors produced by pass  3 Test12= 6.24D-14 3.33D-08 XBig12= 7.05D-01 2.09D-01.
      3 vectors produced by pass  4 Test12= 6.24D-14 3.33D-08 XBig12= 5.68D-02 4.72D-02.
      3 vectors produced by pass  5 Test12= 6.24D-14 3.33D-08 XBig12= 1.76D-03 1.00D-02.
      3 vectors produced by pass  6 Test12= 6.24D-14 3.33D-08 XBig12= 2.92D-04 4.70D-03.
      3 vectors produced by pass  7 Test12= 6.24D-14 3.33D-08 XBig12= 1.93D-05 7.97D-04.
      3 vectors produced by pass  8 Test12= 6.24D-14 3.33D-08 XBig12= 5.51D-07 1.48D-04.
      2 vectors produced by pass  9 Test12= 6.24D-14 3.33D-08 XBig12= 2.35D-08 3.81D-05.
      2 vectors produced by pass 10 Test12= 6.24D-14 3.33D-08 XBig12= 4.32D-10 6.02D-06.
      2 vectors produced by pass 11 Test12= 6.24D-14 3.33D-08 XBig12= 9.09D-12 6.21D-07.
      1 vectors produced by pass 12 Test12= 6.24D-14 3.33D-08 XBig12= 3.74D-13 1.57D-07.
 InvSVY:  IOpt=1 It=  1 EMax= 2.36D-15
 Solved reduced A of dimension    34 with     3 vectors.
 End of Minotr F.D. properties file   721 does not exist.
 End of Minotr F.D. properties file   722 does not exist.
 End of Minotr F.D. properties file   788 does not exist.
 Leave Link 1002 at Fri Jun  2 11:07:15 2023, MaxMem=  7381975040 cpu:              36.0 elap:              20.4
 (Enter /software/commercial/gaussian/g16/AVX/g16/l1101.exe)
 Using compressed storage, NAtomX=     7.
 Will process      8 centers per pass.
 R6Disp: Adding Grimme-D3(BJ) dispersion energy 1st derivatives to the gradient.
 Leave Link 1101 at Fri Jun  2 11:07:16 2023, MaxMem=  7381975040 cpu:               0.4 elap:               0.7
 (Enter /software/commercial/gaussian/g16/AVX/g16/l1102.exe)
 Symmetrizing basis deriv contribution to polar:
 IMax=3 JMax=2 DiffMx= 0.00D+00
 Leave Link 1102 at Fri Jun  2 11:07:18 2023, MaxMem=  7381975040 cpu:               0.1 elap:               1.1
 (Enter /software/commercial/gaussian/g16/AVX/g16/l1110.exe)
 Forming Gx(P) for the SCF density, NAtomX=     7.
 Integral derivatives from FoFJK, PRISM(SPDF).
 Do as many integral derivatives as possible in FoFJK.
 G2DrvN: MDV=    7381974197.
 G2DrvN: will do     8 centers at a time, making    1 passes.
 PxScal for G2LodP:  IOpCl= 0 ISclPx=1 IMOff=     1 NMtTot=     4 NTT=    7503 ScalPx= 4.97D+00
 Calling FoFCou, ICntrl=  3107 FMM=F I1Cent=   0 AccDes= 0.00D+00.
 FoFJK:  IHMeth= 1 ICntrl=    3107 DoSepK=F KAlg= 0 I1Cent=           0 FoldK=F
 IRaf=         0 NMat=       1 IRICut=       1 DoRegI=T DoRafI=F ISym2E= 0 IDoP0=0 IntGTp=1.
 FoFCou: FMM=F IPFlag=           0 FMFlag=      100000 FMFlg1=           0
         NFxFlg=           0 DoJE=F BraDBF=F KetDBF=F FulRan=T
         wScrn=  0.000000 ICntrl=      3107 IOpCl=  0 I1Cent=           0 NGrid=           0
         NMat0=    1 NMatS0=      1 NMatT0=    0 NMatD0=    4 NMtDS0=    3 NMtDT0=    0
 Symmetry not used in FoFCou.
 PxScal for G2LodP:  IOpCl= 0 ISclPx=0 IMOff=     1 NMtTot=     4 NTT=    7503 ScalPx= 1.00D+00
 NEqPCM:  Using equilibrium solvation (IEInf=0, Eps=  24.8520, EpsInf=   1.8526)
 G2PCM: DoFxE=T DoFxN=T DoGrad=T DoDP/DQ/DG/TGxP=TFFF NFrqRd=   0 IEInf=0 SqF1=F DoCFld=F IF1Alg=4.
 GePol: Maximum number of non-zero 1st derivatives   =     203
 End of G2Drv F.D. properties file   721 does not exist.
 End of G2Drv F.D. properties file   722 does not exist.
 End of G2Drv F.D. properties file   788 does not exist.
 Leave Link 1110 at Fri Jun  2 11:08:06 2023, MaxMem=  7381975040 cpu:              89.4 elap:              46.6
 (Enter /software/commercial/gaussian/g16/AVX/g16/l1002.exe)
 Minotr:  Closed shell wavefunction.
          IDoAtm=1111111
 NEqPCM:  Using equilibrium solvation (IEInf=0, Eps=  24.8520, EpsInf=   1.8526)
          Direct CPHF calculation.
          Differentiating once with respect to electric field.
                with respect to dipole field.
          Differentiating once with respect to nuclear coordinates.
          Requested convergence is 1.0D-08 RMS, and 1.0D-07 maximum.
          Secondary convergence is 1.0D-12 RMS, and 1.0D-12 maximum.
          NewPWx=T KeepS1=F KeepF1=F KeepIn=T MapXYZ=F SortEE=F KeepMc=T.
         2122 words used for storage of precomputed grid.
 Keep R1 ints in memory in canonical form, NReq=31074837.
 FoFCou: FMM=F IPFlag=           0 FMFlag=           0 FMFlg1=           0
         NFxFlg=           0 DoJE=F BraDBF=F KetDBF=F FulRan=T
         wScrn=  0.000000 ICntrl=       600 IOpCl=  0 I1Cent=           0 NGrid=           0
         NMat0=    1 NMatS0=   7503 NMatT0=    0 NMatD0=    1 NMtDS0=    0 NMtDT0=    0
 Symmetry not used in FoFCou.
 Two-electron integral symmetry not used.
          MDV=    7381975040 using IRadAn=       1.
          Solving linear equations simultaneously, MaxMat=       0.
          There are    24 degrees of freedom in the 1st order CPHF.  IDoFFX=5 NUNeed=    24.
 Will reuse    3 saved solutions.
     18 vectors produced by pass  0 Test12= 7.80D-15 4.17D-09 XBig12= 1.46D-01 1.20D-01.
 AX will form    18 AO Fock derivatives at one time.
     18 vectors produced by pass  1 Test12= 7.80D-15 4.17D-09 XBig12= 4.64D-02 9.13D-02.
     18 vectors produced by pass  2 Test12= 7.80D-15 4.17D-09 XBig12= 9.34D-04 7.53D-03.
     18 vectors produced by pass  3 Test12= 7.80D-15 4.17D-09 XBig12= 1.41D-05 1.12D-03.
     18 vectors produced by pass  4 Test12= 7.80D-15 4.17D-09 XBig12= 7.11D-08 7.80D-05.
     18 vectors produced by pass  5 Test12= 7.80D-15 4.17D-09 XBig12= 2.69D-10 3.46D-06.
     10 vectors produced by pass  6 Test12= 7.80D-15 4.17D-09 XBig12= 5.18D-13 1.42D-07.
      2 vectors produced by pass  7 Test12= 7.80D-15 4.17D-09 XBig12= 8.04D-16 5.80D-09.
 InvSVY:  IOpt=1 It=  1 EMax= 8.88D-16
 Solved reduced A of dimension   120 with    18 vectors.
 FullF1:  Do perturbations      1 to       3.
 Isotropic polarizability for W=    0.000000       65.23 Bohr**3.
 FullF1:  Do perturbations      1 to       6.
 End of Minotr F.D. properties file   721 does not exist.
 End of Minotr F.D. properties file   722 does not exist.
 End of Minotr F.D. properties file   788 does not exist.
 Leave Link 1002 at Fri Jun  2 11:08:43 2023, MaxMem=  7381975040 cpu:              68.3 elap:              36.7
 (Enter /software/commercial/gaussian/g16/AVX/g16/l601.exe)
 Copying SCF densities to generalized density rwf, IOpCl= 0 IROHF=0.

 **********************************************************************

            Population analysis using the SCF Density.

 **********************************************************************

 Alpha  occ. eigenvalues --  -14.28929 -14.28910 -14.27160 -10.17909 -10.17908
 Alpha  occ. eigenvalues --   -1.00482  -0.83248  -0.75629  -0.56171  -0.55686
 Alpha  occ. eigenvalues --   -0.46779  -0.40386  -0.38451  -0.31903  -0.25203
 Alpha  occ. eigenvalues --   -0.24911  -0.24285  -0.22509
 Alpha virt. eigenvalues --    0.02182   0.04041   0.04562   0.04943   0.05177
 Alpha virt. eigenvalues --    0.06715   0.06746   0.08283   0.10429   0.11802
 Alpha virt. eigenvalues --    0.12952   0.14278   0.17267   0.17468   0.20331
 Alpha virt. eigenvalues --    0.21217   0.21344   0.21810   0.21939   0.22701
 Alpha virt. eigenvalues --    0.24635   0.25108   0.26921   0.30278   0.32193
 Alpha virt. eigenvalues --    0.33428   0.44493   0.47041   0.48435   0.53353
 Alpha virt. eigenvalues --    0.56845   0.58179   0.60709   0.65625   0.72610
 Alpha virt. eigenvalues --    0.72887   0.80116   0.81942   0.83810   0.85233
 Alpha virt. eigenvalues --    0.86732   0.89616   0.89929   0.91137   0.91441
 Alpha virt. eigenvalues --    0.92720   1.00856   1.03083   1.09957   1.19043
 Alpha virt. eigenvalues --    1.22009   1.26751   1.31851   1.35660   1.35687
 Alpha virt. eigenvalues --    1.36102   1.62458   1.68619   1.69001   1.74382
 Alpha virt. eigenvalues --    1.77300   1.81805   1.88200   1.90025   1.90824
 Alpha virt. eigenvalues --    2.13640   2.22216   2.30957   2.33930   2.35614
 Alpha virt. eigenvalues --    2.45414   2.45762   2.54567   2.57910   2.59585
 Alpha virt. eigenvalues --    2.65886   2.72049   2.72662   2.80325   2.82467
 Alpha virt. eigenvalues --    2.88254   2.90237   2.90486   3.04110   3.09695
 Alpha virt. eigenvalues --    3.23402   3.48639   3.58196   3.65530   3.70409
 Alpha virt. eigenvalues --    3.81207   3.93010   3.96003   4.00827   4.42230
 Alpha virt. eigenvalues --    4.57867   4.59060   4.94149   5.43445  23.92611
 Alpha virt. eigenvalues --   23.96125  35.47482  35.57526  35.67799
     Molecular Orbital Coefficients:
                           1         2         3         4         5
                           O         O         O         O         O
     Eigenvalues --   -14.28929 -14.28910 -14.27160 -10.17909 -10.17908
   1 1   C  1S         -0.00000   0.00000   0.00000  -0.09282   0.55518
   2        2S          0.00005   0.00005   0.00005  -0.07638   0.45694
   3        2PX         0.00029   0.00036  -0.00007  -0.00001  -0.00003
   4        2PY         0.00023   0.00014  -0.00049   0.00006  -0.00009
   5        2PZ         0.00000   0.00000   0.00000  -0.00000   0.00000
   6        3S          0.00013   0.00043   0.00034  -0.00336   0.01873
   7        3PX        -0.00119  -0.00088   0.00015   0.00016   0.00006
   8        3PY        -0.00076  -0.00045   0.00144  -0.00042   0.00017
   9        3PZ         0.00000  -0.00000   0.00000   0.00000   0.00000
  10        4S          0.00331   0.00216   0.00381   0.00356  -0.00894
  11        4PX         0.00158   0.00388   0.00096   0.00280  -0.00184
  12        4PY        -0.00037  -0.00013  -0.00267  -0.00184   0.00118
  13        4PZ        -0.00000  -0.00000  -0.00000  -0.00000  -0.00000
  14        5S         -0.00160  -0.01390  -0.00134   0.01051  -0.01350
  15        5PX        -0.00112  -0.00219   0.00045   0.00088  -0.00156
  16        5PY        -0.00066   0.00385   0.00072  -0.00365   0.00257
  17        5PZ        -0.00000  -0.00000  -0.00000  -0.00000  -0.00000
  18        6D 0        0.00002   0.00028   0.00014   0.00022  -0.00179
  19        6D+1       -0.00000  -0.00000  -0.00000   0.00000  -0.00000
  20        6D-1       -0.00000  -0.00000   0.00000  -0.00000  -0.00000
  21        6D+2       -0.00073  -0.00072   0.00124  -0.00012   0.00031
  22        6D-2       -0.00098  -0.00047  -0.00016  -0.00005  -0.00060
  23 2   N  1S         -0.00047  -0.00004   0.55736  -0.00005  -0.00007
  24        2S         -0.00031  -0.00003   0.46582  -0.00003  -0.00005
  25        2PX         0.00010  -0.00006   0.00100   0.00045   0.00016
  26        2PY         0.00006   0.00009   0.00075  -0.00012   0.00045
  27        2PZ         0.00000  -0.00000   0.00000   0.00000   0.00000
  28        3S         -0.00017  -0.00001   0.01561   0.00066   0.00093
  29        3PX        -0.00055   0.00031   0.00099  -0.00114  -0.00050
  30        3PY        -0.00035  -0.00050   0.00074   0.00022  -0.00114
  31        3PZ        -0.00000   0.00000  -0.00000   0.00000  -0.00000
  32        4S         -0.00301  -0.00024  -0.01310  -0.00305  -0.00427
  33        4PX        -0.00125  -0.00039  -0.00217  -0.00141  -0.00068
  34        4PY        -0.00098   0.00031  -0.00162   0.00021  -0.00142
  35        4PZ         0.00000   0.00000   0.00000  -0.00000   0.00000
  36        5S         -0.00195  -0.00016   0.00453   0.00518   0.00726
  37        5PX        -0.00037  -0.00215   0.00008   0.00370   0.00033
  38        5PY        -0.00063   0.00278   0.00006  -0.00201   0.00366
  39        5PZ         0.00000   0.00000   0.00000   0.00000   0.00000
  40        6D 0        0.00018   0.00001  -0.00042   0.00060   0.00085
  41        6D+1        0.00000   0.00000  -0.00000  -0.00000   0.00000
  42        6D-1        0.00000   0.00000   0.00000  -0.00000   0.00000
  43        6D+2       -0.00006   0.00030  -0.00006  -0.00087   0.00064
  44        6D-2       -0.00012  -0.00010  -0.00020   0.00028  -0.00015
  45 3   C  1S         -0.00000  -0.00000   0.00000   0.55518   0.09281
  46        2S          0.00006  -0.00004   0.00005   0.45693   0.07640
  47        2PX         0.00033  -0.00019  -0.00049  -0.00011   0.00002
  48        2PY         0.00026  -0.00026   0.00007   0.00001  -0.00003
  49        2PZ        -0.00000   0.00000  -0.00000   0.00000   0.00000
  50        3S          0.00020  -0.00041   0.00034   0.01880   0.00292
  51        3PX        -0.00116   0.00050   0.00142   0.00029  -0.00028
  52        3PY        -0.00103   0.00056  -0.00027  -0.00008   0.00026
  53        3PZ         0.00000  -0.00000   0.00000   0.00000  -0.00000
  54        4S          0.00361  -0.00160   0.00380  -0.00962   0.00046
  55        4PX         0.00024  -0.00095  -0.00229   0.00090  -0.00073
  56        4PY         0.00220  -0.00345   0.00167  -0.00302   0.00234
  57        4PZ        -0.00000   0.00000   0.00000   0.00000  -0.00000
  58        5S         -0.00379   0.01347  -0.00134  -0.01619   0.00555
  59        5PX        -0.00044  -0.00319   0.00082   0.00297  -0.00242
  60        5PY        -0.00138   0.00300   0.00023  -0.00271   0.00104
  61        5PZ         0.00000  -0.00000   0.00000   0.00000   0.00000
  62        6D 0        0.00006  -0.00028   0.00014  -0.00176  -0.00037
  63        6D+1       -0.00000   0.00000  -0.00000  -0.00000   0.00000
  64        6D-1       -0.00000   0.00000   0.00000   0.00000   0.00000
  65        6D+2        0.00014  -0.00033  -0.00113  -0.00058  -0.00012
  66        6D-2       -0.00133   0.00058   0.00054  -0.00029  -0.00021
  67 4   N  1S          0.42436  -0.36137   0.00033  -0.00007  -0.00001
  68        2S          0.35471  -0.30203   0.00033  -0.00003  -0.00001
  69        2PX        -0.00120   0.00087  -0.00003  -0.00036  -0.00001
  70        2PY         0.00033   0.00002  -0.00006  -0.00040  -0.00007
  71        2PZ         0.00000  -0.00000  -0.00000  -0.00000   0.00000
  72        3S          0.01171  -0.01012  -0.00020   0.00068   0.00014
  73        3PX        -0.00051   0.00053   0.00028   0.00107  -0.00001
  74        3PY        -0.00099   0.00031   0.00041   0.00117   0.00025
  75        3PZ        -0.00000   0.00000   0.00000  -0.00000   0.00000
  76        4S         -0.00866   0.01226  -0.00093  -0.00270  -0.00101
  77        4PX         0.00127  -0.00306   0.00076   0.00037   0.00019
  78        4PY         0.00087   0.00062   0.00009   0.00068   0.00009
  79        4PZ         0.00000  -0.00000  -0.00000   0.00000  -0.00000
  80        5S          0.00702  -0.02258  -0.00072   0.02370  -0.01211
  81        5PX        -0.00116   0.00484   0.00032  -0.00581   0.00383
  82        5PY        -0.00010  -0.00487  -0.00016   0.00181  -0.00257
  83        5PZ        -0.00000   0.00000  -0.00000  -0.00000  -0.00000
  84        6D 0       -0.00013   0.00026   0.00007   0.00075   0.00007
  85        6D+1       -0.00000  -0.00000   0.00000  -0.00000   0.00000
  86        6D-1        0.00000   0.00000  -0.00000  -0.00000  -0.00000
  87        6D+2       -0.00014   0.00016   0.00000   0.00012   0.00015
  88        6D-2        0.00056   0.00002  -0.00025  -0.00091  -0.00015
  89 5   N  1S          0.36136   0.42437   0.00033   0.00001  -0.00007
  90        2S          0.30205   0.35468   0.00033  -0.00000  -0.00004
  91        2PX         0.00003  -0.00027  -0.00007   0.00010  -0.00048
  92        2PY        -0.00110  -0.00102  -0.00002   0.00009  -0.00022
  93        2PZ        -0.00000   0.00000  -0.00000  -0.00000   0.00000
  94        3S          0.00995   0.01186  -0.00020  -0.00009   0.00069
  95        3PX        -0.00101  -0.00061   0.00047  -0.00024   0.00143
  96        3PY        -0.00014  -0.00045   0.00015  -0.00030   0.00063
  97        3PZ         0.00000  -0.00000   0.00000   0.00000  -0.00000
  98        4S         -0.00659  -0.01348  -0.00093  -0.00008  -0.00289
  99        4PX         0.00113   0.00045   0.00030  -0.00012   0.00077
 100        4PY         0.00046   0.00323   0.00071   0.00010   0.00021
 101        4PZ        -0.00000   0.00000  -0.00000  -0.00000   0.00000
 102        5S          0.00333   0.02341  -0.00073  -0.01916   0.01848
 103        5PX        -0.00094   0.00320  -0.00006  -0.00135  -0.00036
 104        5PY        -0.00012  -0.00611   0.00036   0.00614  -0.00432
 105        5PZ         0.00000   0.00000   0.00000   0.00000   0.00000
 106        6D 0       -0.00008  -0.00027   0.00007  -0.00017   0.00073
 107        6D+1       -0.00000  -0.00000  -0.00000   0.00000  -0.00000
 108        6D-1       -0.00000  -0.00000  -0.00000   0.00000  -0.00000
 109        6D+2        0.00039   0.00019  -0.00014  -0.00000  -0.00063
 110        6D-2        0.00041  -0.00004  -0.00021   0.00018  -0.00068
 111 6   H  1S         -0.00021   0.00012  -0.00016   0.00014  -0.00010
 112        2S         -0.00047  -0.00052  -0.00047  -0.00438   0.00017
 113        3S          0.00052  -0.00068   0.00086   0.00106   0.00144
 114        4PX        -0.00007   0.00020   0.00043   0.00085   0.00009
 115        4PY        -0.00046   0.00014  -0.00027  -0.00229  -0.00028
 116        4PZ         0.00000   0.00000   0.00000   0.00000   0.00000
 117 7   H  1S         -0.00019  -0.00015  -0.00016  -0.00014   0.00010
 118        2S         -0.00055   0.00043  -0.00047   0.00158  -0.00409
 119        3S          0.00041   0.00076   0.00086   0.00102   0.00147
 120        4PX        -0.00043  -0.00026  -0.00014   0.00040  -0.00193
 121        4PY         0.00009  -0.00014   0.00049  -0.00032   0.00144
 122        4PZ         0.00000  -0.00000   0.00000  -0.00000   0.00000
                           6         7         8         9        10
                           O         O         O         O         O
     Eigenvalues --    -1.00482  -0.83248  -0.75629  -0.56171  -0.55686
   1 1   C  1S         -0.04747  -0.02643  -0.06595  -0.04861   0.04114
   2        2S         -0.07258  -0.04088  -0.10188  -0.07597   0.06438
   3        2PX         0.03791  -0.03066   0.03715  -0.00802   0.09930
   4        2PY        -0.02001  -0.06648   0.02508   0.09196   0.05884
   5        2PZ         0.00000   0.00000   0.00000   0.00000  -0.00000
   6        3S          0.18477   0.10951   0.27345   0.20923  -0.17676
   7        3PX         0.05416  -0.04062   0.05226  -0.00835   0.13475
   8        3PY        -0.03040  -0.09625   0.03224   0.12731   0.08272
   9        3PZ         0.00000  -0.00000  -0.00000  -0.00000   0.00000
  10        4S          0.06043   0.05816   0.14649   0.17101  -0.14826
  11        4PX         0.00115  -0.00092   0.01533  -0.00466   0.04019
  12        4PY        -0.00274  -0.01162   0.00104   0.04620   0.03278
  13        4PZ        -0.00000  -0.00000  -0.00000  -0.00000   0.00000
  14        5S          0.03260   0.00423   0.08151   0.01255  -0.04972
  15        5PX         0.00981  -0.00556   0.01358  -0.00177   0.00778
  16        5PY        -0.00461  -0.00423  -0.01657   0.01154   0.02252
  17        5PZ        -0.00000  -0.00000  -0.00000  -0.00000   0.00000
  18        6D 0       -0.01338  -0.00509  -0.00957  -0.00299   0.00335
  19        6D+1       -0.00000   0.00000  -0.00000   0.00000  -0.00000
  20        6D-1        0.00000   0.00000  -0.00000  -0.00000  -0.00000
  21        6D+2        0.00293  -0.02361   0.00687   0.00748   0.01077
  22        6D-2       -0.00276  -0.00618   0.01085   0.00373   0.00417
  23 2   N  1S         -0.04729  -0.08949   0.00001   0.03625  -0.00010
  24        2S         -0.07386  -0.14075   0.00002   0.05779  -0.00017
  25        2PX         0.03329   0.03922  -0.02754  -0.00902   0.08329
  26        2PY         0.02493   0.02936   0.03677  -0.00732  -0.11116
  27        2PZ        -0.00000  -0.00000   0.00000   0.00000  -0.00000
  28        3S          0.19859   0.38870  -0.00006  -0.16463   0.00048
  29        3PX         0.04916   0.05841  -0.04128  -0.01397   0.12172
  30        3PY         0.03681   0.04373   0.05512  -0.01129  -0.16245
  31        3PZ         0.00000  -0.00000  -0.00000  -0.00000   0.00000
  32        4S          0.12295   0.26429  -0.00005  -0.15927   0.00047
  33        4PX         0.01883   0.01893  -0.01377  -0.00901   0.06360
  34        4PY         0.01411   0.01418   0.01838  -0.00718  -0.08487
  35        4PZ        -0.00000   0.00000   0.00000   0.00000  -0.00000
  36        5S         -0.03952  -0.04247   0.00002  -0.00700   0.00003
  37        5PX        -0.00650  -0.00876   0.00910  -0.00280  -0.01771
  38        5PY        -0.00487  -0.00656  -0.01214  -0.00198   0.02368
  39        5PZ         0.00000  -0.00000   0.00000   0.00000   0.00000
  40        6D 0       -0.00712  -0.00781   0.00000   0.00156  -0.00000
  41        6D+1       -0.00000  -0.00000   0.00000  -0.00000  -0.00000
  42        6D-1        0.00000   0.00000   0.00000  -0.00000  -0.00000
  43        6D+2        0.00084  -0.00068  -0.01104  -0.00040   0.01876
  44        6D-2        0.00286  -0.00231   0.00324  -0.00159  -0.00550
  45 3   C  1S         -0.04746  -0.02644   0.06594  -0.04888  -0.04083
  46        2S         -0.07257  -0.04088   0.10187  -0.07640  -0.06389
  47        2PX        -0.00854  -0.07243  -0.03448   0.08544  -0.08495
  48        2PY         0.04200  -0.01071  -0.02856  -0.03408  -0.07849
  49        2PZ        -0.00000   0.00000  -0.00000   0.00000  -0.00000
  50        3S          0.18474   0.10952  -0.27342   0.21042   0.17543
  51        3PX        -0.01393  -0.10380  -0.04560   0.11907  -0.11806
  52        3PY         0.06051  -0.01189  -0.04105  -0.04451  -0.10572
  53        3PZ         0.00000  -0.00000  -0.00000   0.00000  -0.00000
  54        4S          0.06045   0.05816  -0.14650   0.17202   0.14715
  55        4PX        -0.00231  -0.01142  -0.00532   0.04279  -0.04302
  56        4PY         0.00188   0.00240  -0.01441  -0.01765  -0.02921
  57        4PZ         0.00000   0.00000  -0.00000  -0.00000  -0.00000
  58        5S          0.03259   0.00426  -0.08152   0.01290   0.04965
  59        5PX        -0.00166  -0.00563   0.01208   0.01043  -0.02386
  60        5PY         0.01071  -0.00413  -0.01769  -0.00494  -0.00108
  61        5PZ        -0.00000   0.00000  -0.00000   0.00000  -0.00000
  62        6D 0       -0.01338  -0.00508   0.00957  -0.00301  -0.00333
  63        6D+1       -0.00000  -0.00000   0.00000  -0.00000  -0.00000
  64        6D-1       -0.00000   0.00000   0.00000   0.00000   0.00000
  65        6D+2       -0.00395   0.01653  -0.00009  -0.00424   0.00683
  66        6D-2       -0.00074  -0.01796  -0.01284   0.00713  -0.00937
  67 4   N  1S         -0.06208   0.05193   0.05836   0.00995   0.04356
  68        2S         -0.09723   0.08187   0.09209   0.01596   0.06938
  69        2PX        -0.05127   0.02539   0.02070   0.00931  -0.00230
  70        2PY         0.00656  -0.02797   0.06388  -0.12001   0.03692
  71        2PZ         0.00000  -0.00000  -0.00000   0.00000  -0.00000
  72        3S          0.26478  -0.22867  -0.25923  -0.04836  -0.19930
  73        3PX        -0.08166   0.04100   0.03144   0.01712  -0.00183
  74        3PY         0.01392  -0.04773   0.09251  -0.17858   0.05367
  75        3PZ         0.00000  -0.00000  -0.00000   0.00000  -0.00000
  76        4S          0.16225  -0.16366  -0.19732  -0.05395  -0.19843
  77        4PX        -0.02740   0.01693   0.01508   0.01394   0.00308
  78        4PY        -0.00188  -0.00800   0.03156  -0.08286   0.02574
  79        4PZ         0.00000  -0.00000  -0.00000   0.00000   0.00000
  80        5S         -0.03730   0.01292   0.10842  -0.01729  -0.04469
  81        5PX         0.01025  -0.00565  -0.02770  -0.00635   0.00798
  82        5PY         0.00296   0.00048   0.00890   0.00915  -0.01217
  83        5PZ        -0.00000  -0.00000   0.00000  -0.00000   0.00000
  84        6D 0       -0.01075   0.00558   0.00298   0.00162   0.00029
  85        6D+1       -0.00000   0.00000   0.00000  -0.00000   0.00000
  86        6D-1       -0.00000   0.00000   0.00000  -0.00000   0.00000
  87        6D+2        0.00311   0.00330   0.00394  -0.00197   0.00236
  88        6D-2       -0.00388   0.00997  -0.01548   0.01703  -0.00782
  89 5   N  1S         -0.06209   0.05192  -0.05836   0.00970  -0.04362
  90        2S         -0.09725   0.08186  -0.09208   0.01556  -0.06949
  91        2PX        -0.00814  -0.01971  -0.06718  -0.11275  -0.03407
  92        2PY        -0.05104   0.03223  -0.00186   0.04278   0.01232
  93        2PZ         0.00000  -0.00000   0.00000  -0.00000  -0.00000
  94        3S          0.26484  -0.22863   0.25920  -0.04720   0.19960
  95        3PX        -0.00964  -0.03429  -0.09769  -0.16684  -0.04992
  96        3PY        -0.08228   0.05276  -0.00409   0.06678   0.01643
  97        3PZ         0.00000  -0.00000   0.00000  -0.00000   0.00000
  98        4S          0.16228  -0.16360   0.19730  -0.05282   0.19876
  99        4PX        -0.00952  -0.00292  -0.03456  -0.07575  -0.02506
 100        4PY        -0.02576   0.01848  -0.00557   0.03674   0.00405
 101        4PZ         0.00000   0.00000   0.00000   0.00000   0.00000
 102        5S         -0.03733   0.01296  -0.10842  -0.01705   0.04477
 103        5PX         0.00571  -0.00112  -0.00075   0.00703   0.00940
 104        5PY         0.00901  -0.00557   0.02908  -0.00873  -0.01101
 105        5PZ         0.00000   0.00000   0.00000   0.00000  -0.00000
 106        6D 0       -0.01075   0.00558  -0.00298   0.00162  -0.00030
 107        6D+1       -0.00000   0.00000  -0.00000  -0.00000  -0.00000
 108        6D-1       -0.00000   0.00000  -0.00000  -0.00000  -0.00000
 109        6D+2       -0.00470   0.00260   0.01168   0.01089   0.00614
 110        6D-2       -0.00158   0.01018   0.01091   0.01329   0.00522
 111 6   H  1S          0.01040   0.01143  -0.04127   0.08664   0.06951
 112        2S          0.00864   0.01322  -0.04861   0.10972   0.09151
 113        3S         -0.00126  -0.00170  -0.00462   0.01866   0.02283
 114        4PX        -0.00004  -0.00491   0.00104  -0.00178  -0.00794
 115        4PY         0.00126   0.00114  -0.00885   0.01330   0.00847
 116        4PZ        -0.00000   0.00000  -0.00000   0.00000   0.00000
 117 7   H  1S          0.01040   0.01142   0.04128   0.08621  -0.07005
 118        2S          0.00864   0.01320   0.04863   0.10916  -0.09219
 119        3S         -0.00126  -0.00171   0.00463   0.01852  -0.02294
 120        4PX         0.00120  -0.00030   0.00820   0.01222  -0.00597
 121        4PY        -0.00039  -0.00502  -0.00349  -0.00539   0.01004
 122        4PZ         0.00000   0.00000   0.00000   0.00000  -0.00000
                          11        12        13        14        15
                           O         O         O         O         O
     Eigenvalues --    -0.46779  -0.40386  -0.38451  -0.31903  -0.25203
   1 1   C  1S          0.00101   0.00000   0.00474   0.01894  -0.01190
   2        2S          0.00157   0.00000   0.00743   0.03052  -0.01935
   3        2PX         0.12351  -0.00000  -0.07412   0.04957  -0.01866
   4        2PY        -0.03051   0.00000   0.13612   0.01950  -0.05936
   5        2PZ         0.00000   0.10687  -0.00000  -0.00000  -0.00000
   6        3S         -0.00090  -0.00000  -0.03182  -0.08402   0.06161
   7        3PX         0.17472  -0.00000  -0.10153   0.06533  -0.02382
   8        3PY        -0.04495   0.00000   0.19180   0.03663  -0.09140
   9        3PZ         0.00000   0.16521  -0.00000  -0.00000  -0.00000
  10        4S          0.00627   0.00000  -0.00470  -0.13591   0.08031
  11        4PX         0.10309   0.00000  -0.06278   0.03072   0.01526
  12        4PY        -0.03884   0.00000   0.12036   0.04538  -0.01812
  13        4PZ         0.00000   0.11269  -0.00000  -0.00000  -0.00000
  14        5S          0.01535   0.00000  -0.02075  -0.05189   0.01731
  15        5PX         0.01560   0.00000  -0.00247  -0.00361   0.00804
  16        5PY        -0.00826  -0.00000   0.03052   0.01984   0.00613
  17        5PZ         0.00000   0.01725  -0.00000  -0.00000  -0.00000
  18        6D 0       -0.00566  -0.00000   0.00087   0.00452   0.00006
  19        6D+1       -0.00000   0.01868   0.00000  -0.00000   0.00000
  20        6D-1        0.00000  -0.01253  -0.00000   0.00000   0.00000
  21        6D+2        0.00407   0.00000   0.00744  -0.01270  -0.02598
  22        6D-2       -0.00553  -0.00000  -0.02197   0.03664  -0.01629
  23 2   N  1S          0.02008  -0.00000  -0.00000  -0.04208   0.02714
  24        2S          0.03212  -0.00000  -0.00000  -0.06744   0.04350
  25        2PX         0.05977   0.00000   0.09358  -0.07797   0.16993
  26        2PY         0.04478  -0.00000  -0.12492  -0.05841   0.12711
  27        2PZ         0.00000   0.11191  -0.00000  -0.00000  -0.00000
  28        3S         -0.09107   0.00000   0.00001   0.19217  -0.11766
  29        3PX         0.08573   0.00000   0.13624  -0.10693   0.24704
  30        3PY         0.06423  -0.00000  -0.18188  -0.08012   0.18481
  31        3PZ         0.00000   0.16817  -0.00000  -0.00000  -0.00000
  32        4S         -0.12777  -0.00000  -0.00001   0.31704  -0.20078
  33        4PX         0.04745  -0.00000   0.08340  -0.07570   0.21071
  34        4PY         0.03553   0.00000  -0.11134  -0.05669   0.15755
  35        4PZ         0.00000   0.12834  -0.00000  -0.00000  -0.00000
  36        5S         -0.05874   0.00000  -0.00001   0.19757  -0.09456
  37        5PX        -0.00777   0.00000  -0.00258  -0.00664   0.06302
  38        5PY        -0.00585  -0.00000   0.00345  -0.00495   0.04707
  39        5PZ        -0.00000  -0.00812   0.00000  -0.00000  -0.00000
  40        6D 0       -0.00336   0.00000   0.00000   0.00682  -0.00935
  41        6D+1        0.00000   0.01478  -0.00000  -0.00000  -0.00000
  42        6D-1        0.00000   0.01106  -0.00000  -0.00000  -0.00000
  43        6D+2        0.00527  -0.00000   0.02534  -0.00000   0.00345
  44        6D-2        0.01799  -0.00000  -0.00743  -0.00001   0.01178
  45 3   C  1S          0.00100  -0.00000  -0.00473   0.01895  -0.01178
  46        2S          0.00156  -0.00000  -0.00743   0.03053  -0.01916
  47        2PX         0.00555   0.00000  -0.10976   0.03262  -0.06248
  48        2PY         0.12708  -0.00000   0.10949   0.04201  -0.00154
  49        2PZ        -0.00000   0.10686  -0.00000   0.00000  -0.00000
  50        3S         -0.00086   0.00000   0.03181  -0.08407   0.06100
  51        3PX         0.00613  -0.00000  -0.15547   0.05346  -0.09481
  52        3PY         0.18029   0.00000   0.15149   0.05227   0.00236
  53        3PZ         0.00000   0.16520   0.00000   0.00000  -0.00000
  54        4S          0.00635  -0.00000   0.00468  -0.13600   0.07936
  55        4PX        -0.00820   0.00000  -0.09784   0.05211  -0.01327
  56        4PY         0.10987  -0.00000   0.09418   0.01660   0.01934
  57        4PZ         0.00000   0.11269   0.00000   0.00000  -0.00000
  58        5S          0.01531  -0.00000   0.02074  -0.05195   0.01657
  59        5PX        -0.00349   0.00000  -0.02860   0.01799   0.00822
  60        5PY         0.01730  -0.00000   0.01097  -0.00910   0.00577
  61        5PZ        -0.00000   0.01724  -0.00000   0.00000  -0.00000
  62        6D 0       -0.00566  -0.00000  -0.00087   0.00452   0.00006
  63        6D+1       -0.00000  -0.00676  -0.00000  -0.00000   0.00000
  64        6D-1       -0.00000   0.02145  -0.00000  -0.00000   0.00000
  65        6D+2       -0.00640   0.00000   0.01814   0.03050   0.01313
  66        6D-2       -0.00246   0.00000   0.01446   0.02396  -0.02776
  67 4   N  1S          0.01740  -0.00000  -0.01304  -0.02435  -0.00500
  68        2S          0.02787  -0.00000  -0.02093  -0.03901  -0.00793
  69        2PX        -0.06423   0.00000  -0.02257   0.11830   0.12724
  70        2PY        -0.09925   0.00000  -0.00616  -0.10087   0.00805
  71        2PZ         0.00000   0.12105  -0.00000   0.00000   0.00000
  72        3S         -0.08307  -0.00000   0.06269   0.10952   0.01754
  73        3PX        -0.09298   0.00000  -0.03633   0.17596   0.19015
  74        3PY        -0.14649  -0.00000  -0.00651  -0.15048   0.00497
  75        3PZ         0.00000   0.18283  -0.00000   0.00000   0.00000
  76        4S         -0.10246   0.00000   0.08105   0.15174   0.02397
  77        4PX        -0.05482  -0.00000  -0.02578   0.13737   0.16480
  78        4PY        -0.07825   0.00000   0.00288  -0.10123   0.02488
  79        4PZ        -0.00000   0.14099  -0.00000  -0.00000   0.00000
  80        5S         -0.04790   0.00000   0.00466   0.08330   0.01994
  81        5PX         0.00580   0.00000   0.00251   0.01286   0.03995
  82        5PY        -0.00182  -0.00000  -0.02166  -0.00988   0.01193
  83        5PZ         0.00000   0.00416  -0.00000  -0.00000   0.00000
  84        6D 0       -0.00390  -0.00000   0.00047   0.00846   0.00620
  85        6D+1       -0.00000  -0.02126   0.00000   0.00000  -0.00000
  86        6D-1       -0.00000   0.00103  -0.00000  -0.00000   0.00000
  87        6D+2        0.01734   0.00000   0.00834  -0.01153  -0.01241
  88        6D-2        0.01450  -0.00000   0.00688   0.01412   0.00715
  89 5   N  1S          0.01740  -0.00000   0.01304  -0.02432  -0.00480
  90        2S          0.02787  -0.00000   0.02094  -0.03896  -0.00760
  91        2PX        -0.11332  -0.00000   0.01225  -0.06358   0.04301
  92        2PY        -0.03374   0.00000   0.01992   0.14183   0.11919
  93        2PZ         0.00000   0.12107  -0.00000  -0.00000   0.00000
  94        3S         -0.08308   0.00000  -0.06273   0.10938   0.01661
  95        3PX        -0.16673   0.00000   0.01645  -0.09498   0.05752
  96        3PY        -0.04805  -0.00000   0.03303   0.21109   0.18016
  97        3PZ        -0.00000   0.18286  -0.00000  -0.00000   0.00000
  98        4S         -0.10242  -0.00000  -0.08107   0.15142   0.02236
  99        4PX        -0.09051  -0.00000   0.00446  -0.05852   0.06973
 100        4PY        -0.03063   0.00000   0.02554   0.16027   0.15038
 101        4PZ         0.00000   0.14100  -0.00000  -0.00000   0.00000
 102        5S         -0.04781  -0.00000  -0.00467   0.08291   0.01836
 103        5PX        -0.00013   0.00000   0.02008  -0.00588   0.02251
 104        5PY         0.00606  -0.00000  -0.00849   0.01516   0.03489
 105        5PZ        -0.00000   0.00413   0.00000   0.00000   0.00000
 106        6D 0       -0.00391   0.00000  -0.00048   0.00845   0.00616
 107        6D+1       -0.00000  -0.00500   0.00000   0.00000   0.00000
 108        6D-1       -0.00000  -0.02069   0.00000   0.00000  -0.00000
 109        6D+2       -0.00677  -0.00000   0.00330   0.01733   0.01435
 110        6D-2        0.02157  -0.00000  -0.01029   0.00566  -0.00064
 111 6   H  1S         -0.08888  -0.00000  -0.11987  -0.06617   0.00003
 112        2S         -0.11879   0.00000  -0.17303  -0.10498   0.00011
 113        3S         -0.01491  -0.00000  -0.07502  -0.08533   0.00272
 114        4PX         0.00641  -0.00000   0.00074   0.00267  -0.00377
 115        4PY        -0.01172  -0.00000  -0.01088  -0.00089  -0.00137
 116        4PZ        -0.00000   0.00810  -0.00000  -0.00000  -0.00000
 117 7   H  1S         -0.08891   0.00000   0.11984  -0.06618  -0.00003
 118        2S         -0.11884  -0.00000   0.17300  -0.10499   0.00000
 119        3S         -0.01492   0.00000   0.07501  -0.08532   0.00273
 120        4PX        -0.00944  -0.00000   0.01023  -0.00010  -0.00238
 121        4PY         0.00946   0.00000  -0.00378   0.00282  -0.00320
 122        4PZ        -0.00000   0.00810   0.00000  -0.00000  -0.00000
                          16        17        18        19        20
                           O         O         O         V         V
     Eigenvalues --    -0.24911  -0.24285  -0.22509   0.02182   0.04041
   1 1   C  1S         -0.00000   0.02557   0.00000   0.01392   0.01285
   2        2S         -0.00000   0.04120   0.00000   0.02426   0.02164
   3        2PX         0.00000  -0.08343  -0.00000   0.03268   0.04438
   4        2PY        -0.00000  -0.03709  -0.00000  -0.02168  -0.02831
   5        2PZ         0.04862  -0.00000   0.15284   0.00000   0.00000
   6        3S         -0.00000  -0.12904  -0.00000  -0.11122  -0.07948
   7        3PX         0.00000  -0.12665  -0.00000   0.04792   0.07820
   8        3PY         0.00000  -0.05462   0.00000  -0.03727  -0.06115
   9        3PZ         0.07692   0.00000   0.23682   0.00000   0.00000
  10        4S          0.00000  -0.16922   0.00000   0.19266  -0.05614
  11        4PX         0.00000  -0.09330   0.00000   0.13892  -0.04441
  12        4PY        -0.00000  -0.02430   0.00000  -0.10574   0.08079
  13        4PZ         0.06809  -0.00000   0.23006   0.00000   0.00000
  14        5S          0.00000  -0.08865   0.00000   2.19511  -1.92540
  15        5PX         0.00000  -0.03500   0.00000   0.00992  -1.21746
  16        5PY        -0.00000   0.00614  -0.00000   0.16163   1.72683
  17        5PZ         0.01038  -0.00000   0.05433   0.00000   0.00000
  18        6D 0       -0.00000  -0.00012  -0.00000   0.00796   0.00311
  19        6D+1       -0.01581  -0.00000   0.01446  -0.00000  -0.00000
  20        6D-1       -0.02927  -0.00000   0.00735  -0.00000  -0.00000
  21        6D+2       -0.00000  -0.01469   0.00000   0.00142   0.00142
  22        6D-2       -0.00000   0.00433  -0.00000  -0.00473   0.00248
  23 2   N  1S          0.00000   0.00005  -0.00000   0.01173   0.00001
  24        2S          0.00000   0.00008  -0.00000   0.01943   0.00002
  25        2PX         0.00000  -0.02946  -0.00000   0.01291  -0.00730
  26        2PY         0.00000   0.04015   0.00000   0.00965   0.00976
  27        2PZ         0.19156   0.00000  -0.00001   0.00000   0.00000
  28        3S         -0.00000  -0.00021   0.00000  -0.06610  -0.00006
  29        3PX         0.00000  -0.04088   0.00000   0.01658  -0.00962
  30        3PY         0.00000   0.05578  -0.00000   0.01240   0.01287
  31        3PZ         0.28726   0.00000  -0.00001   0.00000   0.00000
  32        4S         -0.00000  -0.00035  -0.00000  -0.14581  -0.00007
  33        4PX         0.00000  -0.04244  -0.00000  -0.02275  -0.02613
  34        4PY        -0.00000   0.05771   0.00000  -0.01706   0.03491
  35        4PZ         0.27585   0.00000   0.00000   0.00000   0.00000
  36        5S         -0.00000  -0.00010  -0.00000  -1.58675  -0.00081
  37        5PX         0.00000  -0.00762   0.00000  -0.29119  -0.04275
  38        5PY        -0.00000   0.01053  -0.00000  -0.21768   0.05679
  39        5PZ         0.07528   0.00000   0.00002   0.00000   0.00000
  40        6D 0       -0.00000  -0.00002   0.00000   0.00442  -0.00000
  41        6D+1        0.01450   0.00000  -0.01125  -0.00000  -0.00000
  42        6D-1        0.01085   0.00000   0.01503   0.00000   0.00000
  43        6D+2        0.00000   0.00222  -0.00000   0.00222   0.00026
  44        6D-2        0.00000  -0.00062   0.00000   0.00756  -0.00007
  45 3   C  1S          0.00000  -0.02562  -0.00000   0.01392  -0.01284
  46        2S          0.00000  -0.04128  -0.00000   0.02426  -0.02163
  47        2PX        -0.00000   0.05881   0.00000  -0.01161   0.01465
  48        2PY        -0.00000   0.06963   0.00000   0.03750  -0.05053
  49        2PZ         0.04865   0.00000  -0.15283  -0.00000  -0.00000
  50        3S          0.00000   0.12930   0.00000  -0.11125   0.07942
  51        3PX        -0.00000   0.08768  -0.00000  -0.02230   0.03663
  52        3PY        -0.00000   0.10620   0.00000   0.05654  -0.09222
  53        3PZ         0.07696   0.00000  -0.23681  -0.00000  -0.00000
  54        4S         -0.00000   0.16960  -0.00000   0.19266   0.05639
  55        4PX         0.00000   0.04961  -0.00000  -0.06232  -0.06498
  56        4PY        -0.00000   0.08281  -0.00000   0.16293   0.06551
  57        4PZ         0.06811   0.00000  -0.23009  -0.00000  -0.00000
  58        5S         -0.00000   0.08870  -0.00000   2.19851   1.92671
  59        5PX         0.00000   0.00403   0.00000   0.15811  -1.31470
  60        5PY        -0.00000   0.03535  -0.00000  -0.03572   1.65432
  61        5PZ         0.01039  -0.00000  -0.05437  -0.00000  -0.00000
  62        6D 0        0.00000   0.00013   0.00000   0.00797  -0.00311
  63        6D+1       -0.03254  -0.00000  -0.01113   0.00000   0.00000
  64        6D-1       -0.00694  -0.00000  -0.01180   0.00000   0.00000
  65        6D+2        0.00000  -0.01460   0.00000  -0.00374  -0.00016
  66        6D-2       -0.00000   0.00418   0.00000  -0.00323  -0.00284
  67 4   N  1S         -0.00000   0.04105   0.00000   0.01015  -0.00385
  68        2S         -0.00000   0.06593   0.00000   0.01688  -0.00631
  69        2PX         0.00000  -0.15886  -0.00000  -0.01375   0.02631
  70        2PY         0.00000  -0.06506  -0.00000  -0.00059   0.00792
  71        2PZ        -0.13668  -0.00000  -0.12892   0.00000   0.00000
  72        3S          0.00000  -0.18690   0.00000  -0.05991   0.02058
  73        3PX         0.00000  -0.22307   0.00000  -0.01616   0.03537
  74        3PY         0.00000  -0.09628  -0.00000   0.00418   0.00699
  75        3PZ        -0.20518  -0.00000  -0.19299   0.00000   0.00000
  76        4S          0.00000  -0.32783   0.00000  -0.08481   0.00938
  77        4PX        -0.00000  -0.18783  -0.00000  -0.00963   0.07115
  78        4PY        -0.00000  -0.05822  -0.00000  -0.00415   0.03710
  79        4PZ        -0.19951  -0.00000  -0.18439   0.00000   0.00000
  80        5S          0.00000  -0.26134   0.00000  -0.94900  -1.70643
  81        5PX        -0.00000  -0.05139  -0.00000   0.07787   0.28553
  82        5PY         0.00000  -0.02540   0.00000   0.28281  -1.00337
  83        5PZ        -0.05235   0.00000  -0.05061   0.00000   0.00000
  84        6D 0       -0.00000  -0.00886  -0.00000   0.00369   0.00016
  85        6D+1        0.01393   0.00000   0.00954   0.00000   0.00000
  86        6D-1       -0.01155  -0.00000   0.01854  -0.00000  -0.00000
  87        6D+2       -0.00000  -0.00340   0.00000   0.00655  -0.00354
  88        6D-2        0.00000   0.01366   0.00000   0.00131  -0.00186
  89 5   N  1S          0.00000  -0.04108  -0.00000   0.01014   0.00386
  90        2S          0.00000  -0.06597  -0.00000   0.01685   0.00631
  91        2PX        -0.00000   0.10730   0.00000  -0.00442  -0.01501
  92        2PY         0.00000   0.13482   0.00000  -0.01303  -0.02301
  93        2PZ        -0.13666  -0.00000   0.12891  -0.00000  -0.00000
  94        3S         -0.00000   0.18700   0.00000  -0.05983  -0.02059
  95        3PX        -0.00000   0.15538   0.00000  -0.00053  -0.01667
  96        3PY         0.00000   0.18799  -0.00000  -0.01668  -0.03197
  97        3PZ        -0.20516  -0.00000   0.19297  -0.00000  -0.00000
  98        4S         -0.00000   0.32797  -0.00000  -0.08484  -0.00950
  99        4PX         0.00000   0.10903   0.00000  -0.00661  -0.05560
 100        4PY         0.00000   0.16474   0.00000  -0.00802  -0.05783
 101        4PZ        -0.19947  -0.00000   0.18436  -0.00000  -0.00000
 102        5S         -0.00000   0.26144  -0.00000  -0.94916   1.70613
 103        5PX        -0.00000   0.03895  -0.00000   0.29252   0.88280
 104        5PY         0.00000   0.04241   0.00000  -0.00462  -0.55616
 105        5PZ        -0.05233  -0.00000   0.05060  -0.00000  -0.00000
 106        6D 0        0.00000   0.00890   0.00000   0.00369  -0.00015
 107        6D+1       -0.00717   0.00000  -0.02048   0.00000   0.00000
 108        6D-1        0.01661   0.00000  -0.00393  -0.00000  -0.00000
 109        6D+2        0.00000  -0.01016  -0.00000  -0.00481  -0.00198
 110        6D-2        0.00000  -0.00966  -0.00000   0.00465   0.00348
 111 6   H  1S          0.00000  -0.00639  -0.00000  -0.01726   0.02021
 112        2S         -0.00000  -0.01031   0.00000   0.05421  -0.01720
 113        3S         -0.00000   0.00272  -0.00000  -0.28735   0.46706
 114        4PX        -0.00000   0.00431   0.00000   0.00404  -0.00615
 115        4PY         0.00000   0.00143   0.00000  -0.01057   0.01417
 116        4PZ         0.00433   0.00000  -0.01337  -0.00000  -0.00000
 117 7   H  1S         -0.00000   0.00632   0.00000  -0.01723  -0.02022
 118        2S         -0.00000   0.01020  -0.00000   0.05425   0.01723
 119        3S          0.00000  -0.00281   0.00000  -0.28693  -0.46711
 120        4PX        -0.00000  -0.00260  -0.00000  -0.00899  -0.01188
 121        4PY         0.00000  -0.00375   0.00000   0.00685   0.00990
 122        4PZ         0.00433   0.00000   0.01337   0.00000   0.00000
                          21        22        23        24        25
                           V         V         V         V         V
     Eigenvalues --     0.04562   0.04943   0.05177   0.06715   0.06746
   1 1   C  1S          0.00000  -0.00000   0.00068  -0.00929   0.01534
   2        2S          0.00000  -0.00000   0.00127  -0.01495   0.02422
   3        2PX         0.00000  -0.00000   0.00045  -0.00239   0.02647
   4        2PY        -0.00000   0.00000   0.01904   0.00468  -0.01289
   5        2PZ         0.04819   0.10434  -0.00000   0.00000   0.00000
   6        3S         -0.00000   0.00000  -0.00721   0.03591  -0.04685
   7        3PX         0.00000  -0.00000  -0.01919  -0.01653   0.05709
   8        3PY        -0.00000   0.00000   0.01567  -0.01166  -0.03379
   9        3PZ         0.07503   0.15570  -0.00000   0.00000   0.00000
  10        4S          0.00000  -0.00000  -0.05421   0.35268  -0.56674
  11        4PX         0.00000  -0.00000   0.06744   0.28070  -0.01508
  12        4PY        -0.00000  -0.00000   0.13902   0.17133   0.10578
  13        4PZ         0.14480   0.31521  -0.00000   0.00000   0.00000
  14        5S          0.00000  -0.00000   0.38595   1.76467  -1.74463
  15        5PX         0.00000  -0.00000   1.14661   2.43557  -1.21803
  16        5PY        -0.00000   0.00000   1.16535   1.56703   1.42029
  17        5PZ         1.00900   0.84877   0.00000   0.00000   0.00000
  18        6D 0       -0.00000  -0.00000   0.00083  -0.00027  -0.01379
  19        6D+1       -0.00946  -0.03002   0.00000  -0.00000  -0.00000
  20        6D-1        0.02153  -0.01359   0.00000  -0.00000  -0.00000
  21        6D+2        0.00000  -0.00000  -0.00271  -0.00763  -0.00463
  22        6D-2       -0.00000   0.00000  -0.00378  -0.00021  -0.00092
  23 2   N  1S          0.00000  -0.00000  -0.01572  -0.00026  -0.02019
  24        2S          0.00000  -0.00000  -0.02615  -0.00043  -0.03307
  25        2PX         0.00000  -0.00000  -0.03826  -0.00828   0.00626
  26        2PY         0.00000  -0.00000  -0.02864   0.01122   0.00447
  27        2PZ        -0.12169  -0.00024  -0.00000   0.00000  -0.00000
  28        3S         -0.00000   0.00000   0.09362   0.00136   0.10533
  29        3PX         0.00000  -0.00000  -0.06579  -0.01418   0.00691
  30        3PY         0.00000  -0.00000  -0.04925   0.01910   0.00481
  31        3PZ        -0.18998  -0.00039  -0.00000   0.00000  -0.00000
  32        4S          0.00000  -0.00000   0.08916   0.00372   0.29451
  33        4PX         0.00000  -0.00000  -0.00716  -0.00628   0.09473
  34        4PY         0.00000  -0.00000  -0.00537   0.01082   0.07078
  35        4PZ        -0.20496  -0.00032  -0.00000   0.00000  -0.00000
  36        5S         -0.00000  -0.00000   2.91401   0.04018   3.13899
  37        5PX         0.00000  -0.00000   0.15608  -0.79320   0.35506
  38        5PY        -0.00000   0.00000   0.11658   1.06889   0.24440
  39        5PZ        -0.77247  -0.00195  -0.00000   0.00000   0.00000
  40        6D 0       -0.00000   0.00000   0.00375  -0.00007  -0.00552
  41        6D+1       -0.00279  -0.01264   0.00000  -0.00000  -0.00000
  42        6D-1       -0.00216   0.01685  -0.00000   0.00000   0.00000
  43        6D+2        0.00000   0.00000  -0.00102  -0.00337   0.00139
  44        6D-2        0.00000  -0.00000  -0.00349   0.00105   0.00460
  45 3   C  1S         -0.00000  -0.00000   0.00068   0.00968   0.01510
  46        2S         -0.00000   0.00000   0.00126   0.01557   0.02383
  47        2PX        -0.00000   0.00000   0.01841  -0.00393  -0.00481
  48        2PY        -0.00000   0.00000  -0.00497   0.00437   0.02890
  49        2PZ         0.04872  -0.10424   0.00000  -0.00000  -0.00000
  50        3S          0.00000  -0.00000  -0.00718  -0.03715  -0.04594
  51        3PX        -0.00000   0.00000   0.00966   0.01541  -0.01672
  52        3PY         0.00000  -0.00000  -0.02290   0.01424   0.06394
  53        3PZ         0.07584  -0.15552   0.00000  -0.00000  -0.00000
  54        4S         -0.00000   0.00000  -0.05414  -0.36680  -0.55722
  55        4PX        -0.00000   0.00000   0.15246  -0.24087   0.10338
  56        4PY        -0.00000   0.00000   0.02580  -0.22193  -0.03837
  57        4PZ         0.14636  -0.31497   0.00000  -0.00000  -0.00000
  58        5S         -0.00000   0.00000   0.38859  -1.80755  -1.70141
  59        5PX         0.00000  -0.00000   1.44102  -2.16260   1.07532
  60        5PY        -0.00000   0.00000   0.77390  -1.93480  -1.52033
  61        5PZ         1.01398  -0.84291   0.00000  -0.00000  -0.00000
  62        6D 0        0.00000  -0.00000   0.00083  -0.00008  -0.01380
  63        6D+1        0.01788   0.02157  -0.00000   0.00000   0.00000
  64        6D-1       -0.01527   0.02489  -0.00000   0.00000   0.00000
  65        6D+2        0.00000  -0.00000   0.00024  -0.00622   0.00356
  66        6D-2        0.00000  -0.00000  -0.00465   0.00421  -0.00338
  67 4   N  1S         -0.00000   0.00000   0.01136  -0.01962  -0.00920
  68        2S         -0.00000   0.00000   0.01915  -0.03200  -0.01541
  69        2PX         0.00000  -0.00000  -0.04187   0.00298   0.00416
  70        2PY         0.00000  -0.00000   0.01037   0.01010  -0.00815
  71        2PZ        -0.05485   0.16912  -0.00000   0.00000   0.00000
  72        3S          0.00000  -0.00000  -0.07476   0.09622   0.05561
  73        3PX         0.00000  -0.00000  -0.06417   0.00813  -0.00108
  74        3PY         0.00000   0.00000   0.01643   0.01218  -0.00680
  75        3PZ        -0.08646   0.24947  -0.00000   0.00000   0.00000
  76        4S          0.00000  -0.00000   0.01236   0.37112   0.07588
  77        4PX        -0.00000   0.00000  -0.06982  -0.13823  -0.00194
  78        4PY        -0.00000   0.00000   0.00467   0.02688  -0.05410
  79        4PZ        -0.09348   0.35027  -0.00000   0.00000   0.00000
  80        5S          0.00000  -0.00000  -1.99226   2.83479   1.04211
  81        5PX        -0.00000   0.00000   0.14458  -0.41624  -0.34286
  82        5PY         0.00000  -0.00000   0.45060  -0.93422   0.06514
  83        5PZ        -0.28976   0.72366  -0.00000   0.00000   0.00000
  84        6D 0       -0.00000   0.00000  -0.00157   0.00132  -0.00645
  85        6D+1        0.00544   0.00288   0.00000   0.00000  -0.00000
  86        6D-1       -0.01153  -0.00531  -0.00000  -0.00000  -0.00000
  87        6D+2        0.00000  -0.00000   0.00405   0.00127   0.00200
  88        6D-2        0.00000  -0.00000   0.00096   0.00240  -0.00395
  89 5   N  1S          0.00000  -0.00000   0.01135   0.01938  -0.00970
  90        2S          0.00000  -0.00000   0.01914   0.03161  -0.01621
  91        2PX        -0.00000   0.00000  -0.00184  -0.01072  -0.00636
  92        2PY         0.00000  -0.00000  -0.04311   0.00012   0.00628
  93        2PZ        -0.05392  -0.16938   0.00000  -0.00000  -0.00000
  94        3S         -0.00000   0.00000  -0.07471  -0.09481   0.05802
  95        3PX        -0.00000   0.00000  -0.00231  -0.01417  -0.00645
  96        3PY         0.00000   0.00000  -0.06624  -0.00439   0.00098
  97        3PZ        -0.08509  -0.24990   0.00000  -0.00000  -0.00000
  98        4S         -0.00000   0.00000   0.01256  -0.36917   0.08549
  99        4PX         0.00000  -0.00000  -0.01518   0.01174  -0.05284
 100        4PY         0.00000  -0.00000  -0.06840   0.14046   0.00966
 101        4PZ        -0.09155  -0.35069   0.00000  -0.00000  -0.00000
 102        5S         -0.00000   0.00000  -1.98949  -2.80891   1.11690
 103        5PX        -0.00000  -0.00000   0.47313   1.01293  -0.05919
 104        5PY         0.00000  -0.00000   0.01114   0.12765  -0.35171
 105        5PZ        -0.28624  -0.72515   0.00000  -0.00000  -0.00000
 106        6D 0        0.00000  -0.00000  -0.00157  -0.00149  -0.00642
 107        6D+1       -0.00956   0.00425  -0.00000   0.00000  -0.00000
 108        6D-1        0.00849  -0.00420   0.00000  -0.00000  -0.00000
 109        6D+2       -0.00000   0.00000  -0.00289  -0.00033  -0.00381
 110        6D-2       -0.00000   0.00000   0.00300  -0.00275  -0.00217
 111 6   H  1S          0.00000  -0.00000   0.00687   0.00852   0.00777
 112        2S          0.00000  -0.00000  -0.00802   0.03194   0.11070
 113        3S         -0.00000   0.00000   0.13110  -0.07526  -0.21455
 114        4PX        -0.00000   0.00000   0.00763  -0.00603   0.00671
 115        4PY         0.00000  -0.00000   0.00349  -0.00738  -0.00667
 116        4PZ         0.01572  -0.01932   0.00000  -0.00000  -0.00000
 117 7   H  1S         -0.00000   0.00000   0.00689  -0.00830   0.00799
 118        2S         -0.00000  -0.00000  -0.00799  -0.02906   0.11147
 119        3S         -0.00000   0.00000   0.13087   0.07007  -0.21659
 120        4PX        -0.00000   0.00000   0.00549   0.00866  -0.00473
 121        4PY         0.00000   0.00000   0.00635   0.00393   0.00823
 122        4PZ         0.01561   0.01939  -0.00000   0.00000   0.00000
                          26        27        28        29        30
                           V         V         V         V         V
     Eigenvalues --     0.08283   0.10429   0.11802   0.12952   0.14278
   1 1   C  1S         -0.00000  -0.00000  -0.00804  -0.00041   0.00000
   2        2S         -0.00000  -0.00000  -0.01243   0.00104   0.00000
   3        2PX        -0.00000  -0.00000   0.02034   0.00251  -0.00000
   4        2PY        -0.00000  -0.00000  -0.00416   0.01696  -0.00000
   5        2PZ         0.16304  -0.10700  -0.00000   0.00000  -0.01453
   6        3S          0.00000   0.00000   0.01265  -0.04934   0.00000
   7        3PX        -0.00000   0.00000   0.00625  -0.01159   0.00000
   8        3PY         0.00000  -0.00000  -0.01029   0.03274  -0.00000
   9        3PZ         0.22322  -0.13448   0.00000   0.00000  -0.02198
  10        4S         -0.00000  -0.00000   0.51417   0.44417  -0.00000
  11        4PX        -0.00000  -0.00000   0.21250   0.01044  -0.00000
  12        4PY         0.00000   0.00000  -0.13996   0.09834  -0.00000
  13        4PZ         0.59954  -0.42688  -0.00000   0.00000  -0.04753
  14        5S         -0.00000  -0.00000  -0.89004  20.72361  -0.00000
  15        5PX        -0.00000  -0.00000  -0.23831   3.92857  -0.00000
  16        5PY         0.00000   0.00000  -0.41280  -6.19618   0.00000
  17        5PZ        -0.28431   1.44688   0.00000   0.00000   0.18308
  18        6D 0        0.00000   0.00000  -0.02154   0.01010  -0.00000
  19        6D+1        0.00408   0.00122  -0.00000  -0.00000  -0.00071
  20        6D-1        0.01624   0.00943   0.00000  -0.00000   0.00157
  21        6D+2        0.00000   0.00000   0.00610   0.00184   0.00000
  22        6D-2       -0.00000   0.00000  -0.00697  -0.00473   0.00000
  23 2   N  1S          0.00000   0.00000   0.00752   0.00000   0.00000
  24        2S          0.00000   0.00000   0.01153   0.00001   0.00000
  25        2PX        -0.00000   0.00000   0.01244   0.01563  -0.00000
  26        2PY         0.00000   0.00000   0.00930  -0.02090   0.00000
  27        2PZ        -0.14100   0.00003  -0.00000  -0.00000  -0.05691
  28        3S         -0.00000  -0.00000  -0.01299  -0.00002  -0.00000
  29        3PX        -0.00000  -0.00000   0.00533   0.03491  -0.00000
  30        3PY         0.00000   0.00000   0.00398  -0.04665   0.00000
  31        3PZ        -0.19100   0.00004  -0.00000  -0.00000  -0.05339
  32        4S          0.00000   0.00000  -0.31419  -0.00009  -0.00000
  33        4PX         0.00000   0.00000  -0.01593  -0.03500  -0.00000
  34        4PY         0.00000   0.00000  -0.01189   0.04678   0.00000
  35        4PZ        -0.41752   0.00012  -0.00000  -0.00000  -0.26201
  36        5S          0.00000   0.00000   0.61179   0.00168   0.00000
  37        5PX        -0.00000  -0.00000  -0.20698   1.39699  -0.00000
  38        5PY         0.00000   0.00000  -0.15580  -1.86470   0.00000
  39        5PZ        -0.20980   0.00018   0.00000   0.00000   1.04629
  40        6D 0       -0.00000   0.00000  -0.00655   0.00000   0.00000
  41        6D+1        0.00814   0.00811   0.00000  -0.00000  -0.01008
  42        6D-1        0.00610  -0.01084  -0.00000   0.00000  -0.00754
  43        6D+2       -0.00000  -0.00000   0.00165   0.00478  -0.00000
  44        6D-2        0.00000   0.00000   0.00563  -0.00141   0.00000
  45 3   C  1S         -0.00000   0.00000  -0.00805   0.00041  -0.00000
  46        2S         -0.00000   0.00000  -0.01244  -0.00104  -0.00000
  47        2PX         0.00000   0.00000   0.00173  -0.01698   0.00000
  48        2PY        -0.00000   0.00000   0.02073   0.00234  -0.00000
  49        2PZ         0.16304   0.10684   0.00000  -0.00000  -0.01455
  50        3S         -0.00000  -0.00000   0.01264   0.04935  -0.00000
  51        3PX         0.00000   0.00000  -0.00814  -0.02817   0.00000
  52        3PY        -0.00000  -0.00000   0.00893   0.02031  -0.00000
  53        3PZ         0.22318   0.13428   0.00000  -0.00000  -0.02202
  54        4S         -0.00000   0.00000   0.51455  -0.44441   0.00000
  55        4PX         0.00000   0.00000  -0.07447  -0.09720   0.00000
  56        4PY        -0.00000   0.00000   0.24368   0.01757  -0.00000
  57        4PZ         0.59966   0.42625   0.00000   0.00000  -0.04759
  58        5S          0.00000   0.00000  -0.90232 -20.72294   0.00000
  59        5PX        -0.00000  -0.00000  -0.46048   4.84064  -0.00000
  60        5PY         0.00000   0.00000  -0.11583  -5.51382   0.00000
  61        5PZ        -0.28674  -1.44631   0.00000   0.00000   0.18386
  62        6D 0        0.00000  -0.00000  -0.02156  -0.01007   0.00000
  63        6D+1        0.01675  -0.00940  -0.00000   0.00000   0.00131
  64        6D-1       -0.00062   0.00148   0.00000   0.00000  -0.00111
  65        6D+2       -0.00000   0.00000  -0.00891   0.00412   0.00000
  66        6D-2       -0.00000  -0.00000  -0.00257   0.00300   0.00000
  67 4   N  1S          0.00000   0.00000   0.00692  -0.01150   0.00000
  68        2S          0.00000   0.00000   0.01095  -0.01971   0.00000
  69        2PX        -0.00000   0.00000  -0.03373   0.01072  -0.00000
  70        2PY         0.00000  -0.00000  -0.01419   0.00724  -0.00000
  71        2PZ        -0.04182  -0.04183   0.00000   0.00000   0.06649
  72        3S         -0.00000  -0.00000  -0.02642   0.08461  -0.00000
  73        3PX        -0.00000  -0.00000  -0.02269   0.01425  -0.00000
  74        3PY        -0.00000  -0.00000  -0.01014   0.00778  -0.00000
  75        3PZ        -0.05943  -0.05483   0.00000   0.00000   0.06162
  76        4S          0.00000   0.00000  -0.15680  -0.06524  -0.00000
  77        4PX        -0.00000   0.00000  -0.13348   0.03078  -0.00000
  78        4PY        -0.00000   0.00000  -0.03240   0.00698   0.00000
  79        4PZ        -0.12635  -0.14483   0.00000   0.00000   0.29487
  80        5S         -0.00000  -0.00000   0.48439   9.16959  -0.00000
  81        5PX         0.00000   0.00000   0.94235  -2.49945   0.00000
  82        5PY        -0.00000  -0.00000   0.20429   0.60255  -0.00000
  83        5PZ        -0.10218   0.00180  -0.00000  -0.00000  -0.84239
  84        6D 0       -0.00000  -0.00000  -0.01025   0.00175  -0.00000
  85        6D+1       -0.00589  -0.00643  -0.00000  -0.00000  -0.01185
  86        6D-1       -0.01967  -0.00228  -0.00000  -0.00000   0.00155
  87        6D+2       -0.00000  -0.00000   0.00728   0.00097  -0.00000
  88        6D-2        0.00000  -0.00000   0.00785   0.00095  -0.00000
  89 5   N  1S         -0.00000  -0.00000   0.00693   0.01150  -0.00000
  90        2S         -0.00000  -0.00000   0.01095   0.01971  -0.00000
  91        2PX         0.00000   0.00000  -0.02310  -0.00997   0.00000
  92        2PY         0.00000   0.00000  -0.02836  -0.00824   0.00000
  93        2PZ        -0.04197   0.04187  -0.00000  -0.00000   0.06644
  94        3S          0.00000   0.00000  -0.02644  -0.08461   0.00000
  95        3PX         0.00000   0.00000  -0.01612  -0.01148   0.00000
  96        3PY         0.00000   0.00000  -0.01891  -0.01149   0.00000
  97        3PZ        -0.05966   0.05488   0.00000  -0.00000   0.06155
[...]
     X                                                                                                                               
     X                                                                                                                               
     X                                                                                                                               
     X                                                                                                                               
     X                                                                                                                               
     X                                                                                                                               
     X                                                                                                                               
     X                                                                                                                               
     X                                                                                                                               
 
 -------------------------------------------------------------------
 Center     Atomic                   Forces (Hartrees/Bohr)
 Number     Number              X              Y              Z
 -------------------------------------------------------------------
      1        6          -0.000013884   -0.000021125    0.000000000
      2        7          -0.000010835   -0.000044538   -0.000000000
      3        6           0.000023592    0.000011103   -0.000000000
      4        7           0.000050589   -0.000000987    0.000000000
      5        7          -0.000046128    0.000071037   -0.000000000
      6        1           0.000023045   -0.000006939    0.000000000
      7        1          -0.000026378   -0.000008552   -0.000000000
 -------------------------------------------------------------------
 Cartesian Forces:  Max     0.000071037 RMS     0.000026279
 Force constants in Cartesian coordinates: 
                1             2             3             4             5 
      1  0.776540D+00
      2 -0.139170D+00  0.665590D+00
      3  0.000000D+00  0.000000D+00  0.146988D+00
      4 -0.100113D+00 -0.680786D-02  0.000000D+00  0.502598D+00
      5 -0.153418D-01 -0.293062D+00  0.000000D+00  0.232069D-01  0.488798D+00
      6  0.000000D+00  0.000000D+00 -0.796832D-01  0.000000D+00  0.000000D+00
      7 -0.247579D-01  0.106806D+00  0.000000D+00 -0.283653D+00  0.474481D-01
      8  0.341547D-01 -0.661375D-01  0.000000D+00  0.388821D-01 -0.109221D+00
      9  0.000000D+00  0.000000D+00  0.140362D-01  0.000000D+00  0.000000D+00
     10 -0.109026D+00  0.379218D-02  0.000000D+00 -0.920670D-01  0.140917D-01
     11  0.672277D-01 -0.169815D-01  0.000000D+00 -0.760334D-01 -0.354155D-02
     12  0.000000D+00  0.000000D+00  0.198200D-01  0.000000D+00  0.000000D+00
     13 -0.295701D+00 -0.977021D-01  0.000000D+00 -0.271291D-01 -0.949902D-01
     14 -0.796154D-01 -0.137027D+00  0.000000D+00 -0.482578D-02 -0.683126D-01
     15  0.000000D+00  0.000000D+00 -0.783576D-01  0.000000D+00  0.000000D+00
     16 -0.720401D-02  0.593578D-03  0.000000D+00 -0.686041D-02  0.297239D-01
     17 -0.682468D-03 -0.213991D-03  0.000000D+00  0.129168D-05 -0.295130D-03
     18  0.000000D+00  0.000000D+00  0.576955D-02  0.000000D+00  0.000000D+00
     19 -0.239737D+00  0.132488D+00  0.000000D+00  0.722538D-02 -0.413855D-02
     20  0.133427D+00 -0.152168D+00  0.000000D+00  0.255767D-01 -0.143652D-01
     21  0.000000D+00  0.000000D+00 -0.285732D-01  0.000000D+00  0.000000D+00
                6             7             8             9            10 
      6  0.101088D+00
      7  0.000000D+00  0.597739D+00
      8  0.000000D+00 -0.875991D-01  0.842682D+00
      9 -0.793074D-01  0.000000D+00  0.000000D+00  0.147537D+00
     10  0.000000D+00 -0.196330D+00 -0.108273D+00  0.000000D+00  0.516596D+00
     11  0.000000D+00 -0.126403D+00 -0.235150D+00  0.000000D+00  0.652772D-01
     12  0.329945D-01  0.000000D+00  0.000000D+00 -0.793975D-01  0.000000D+00
     13  0.000000D+00 -0.510360D-02  0.367155D-01  0.000000D+00 -0.125674D+00
     14  0.000000D+00 -0.266825D-01 -0.120993D+00  0.000000D+00  0.174880D-01
     15  0.330520D-01  0.000000D+00  0.000000D+00  0.198781D-01  0.000000D+00
     16  0.000000D+00 -0.870930D-01  0.886834D-01  0.000000D+00  0.113172D-01
     17  0.000000D+00  0.877308D-01 -0.304562D+00  0.000000D+00  0.113607D-01
     18 -0.406955D-02  0.000000D+00  0.000000D+00 -0.285146D-01  0.000000D+00
     19  0.000000D+00 -0.800715D-03 -0.256342D-02  0.000000D+00 -0.481495D-02
     20  0.000000D+00 -0.130048D-02 -0.661848D-02  0.000000D+00 -0.373666D-02
     21 -0.407423D-02  0.000000D+00  0.000000D+00  0.576857D-02  0.000000D+00
               11            12            13            14            15 
     11  0.428912D+00
     12  0.000000D+00  0.108152D+00
     13  0.897195D-01  0.000000D+00  0.471595D+00
     14 -0.156739D+00  0.000000D+00  0.788381D-01  0.475145D+00
     15  0.000000D+00 -0.846864D-01  0.000000D+00  0.000000D+00  0.106982D+00
     16 -0.191141D-01  0.000000D+00 -0.737435D-03 -0.495198D-02  0.000000D+00
     17 -0.174167D-01  0.000000D+00 -0.186408D-02 -0.317787D-02  0.000000D+00
     18  0.000000D+00 -0.529970D-02  0.000000D+00  0.000000D+00  0.841788D-02
     19 -0.674342D-03  0.000000D+00 -0.172495D-01  0.197496D-01  0.000000D+00
     20  0.916095D-03  0.000000D+00 -0.107167D-01  0.111043D-01  0.000000D+00
     21  0.000000D+00  0.841682D-02  0.000000D+00  0.000000D+00 -0.528637D-02
               16            17            18            19            20 
     16  0.900384D-01
     17 -0.966768D-01  0.325679D+00
     18  0.000000D+00  0.000000D+00  0.227374D-01
     19  0.539322D-03  0.130489D-03  0.000000D+00  0.254838D+00
     20  0.174204D-02 -0.134586D-04  0.000000D+00 -0.144992D+00  0.161145D+00
     21  0.000000D+00  0.000000D+00  0.959106D-03  0.000000D+00  0.000000D+00
               21 
     21  0.227893D-01
 Leave Link  716 at Fri Jun  2 11:10:00 2023, MaxMem=  7381975040 cpu:               0.1 elap:               0.8
 (Enter /software/commercial/gaussian/g16/AVX/g16/l103.exe)

 GradGradGradGradGradGradGradGradGradGradGradGradGradGradGradGradGradGrad
 Berny optimization.
 Search for a local minimum.
 Step number   1 out of a maximum of    2
 All quantities printed in internal units (Hartrees-Bohrs-Radians)
 Second derivative matrix not updated -- analytic derivatives used.
 ITU=  0
     Eigenvalues ---    0.03269   0.06520   0.06594   0.10633   0.21338
     Eigenvalues ---    0.26610   0.27136   0.29020   0.57648   0.60164
     Eigenvalues ---    0.61251   0.84201   0.95162   1.10842   1.15335
 Angle between quadratic step and forces=  42.37 degrees.
 Linear search not attempted -- first point.
 B after Tr=     0.000009    0.000007   -0.000000
         Rot=    1.000000   -0.000000   -0.000000   -0.000000 Ang=  -0.00 deg.
 Variable       Old X    -DE/DX   Delta X   Delta X   Delta X     New X
                                 (Linear)    (Quad)   (Total)
    X1       -3.23831  -0.00001   0.00000  -0.00000   0.00001  -3.23830
    Y1        2.64427  -0.00002   0.00000   0.00001   0.00002   2.64428
    Z1       -0.00000   0.00000   0.00000   0.00000   0.00000   0.00000
    X2       -3.35882  -0.00001   0.00000  -0.00004  -0.00003  -3.35885
    Y2        0.08818  -0.00004   0.00000  -0.00003  -0.00002   0.08816
    Z2       -0.00000  -0.00000   0.00000   0.00000   0.00000   0.00000
    X3       -0.87222   0.00002   0.00000   0.00001   0.00002  -0.87220
    Y3       -0.51563   0.00001   0.00000  -0.00001  -0.00000  -0.51563
    Z3        0.00000  -0.00000   0.00000  -0.00000  -0.00000  -0.00000
    X4        0.67160   0.00005   0.00000   0.00010   0.00010   0.67171
    Y4        1.47804  -0.00000   0.00000  -0.00006  -0.00005   1.47799
    Z4        0.00000   0.00000   0.00000  -0.00000  -0.00000  -0.00000
    X5       -0.89086  -0.00005   0.00000  -0.00003  -0.00002  -0.89088
    Y5        3.56404   0.00007   0.00000   0.00011   0.00012   3.56416
    Z5       -0.00000  -0.00000   0.00000  -0.00000  -0.00000  -0.00000
    X6       -0.18100   0.00002   0.00000  -0.00003  -0.00002  -0.18102
    Y6       -2.44104  -0.00001   0.00000  -0.00007  -0.00006  -2.44110
    Z6        0.00000   0.00000   0.00000  -0.00000  -0.00000  -0.00000
    X7       -4.89071  -0.00003   0.00000  -0.00007  -0.00006  -4.89077
    Y7        3.85029  -0.00001   0.00000  -0.00001   0.00000   3.85029
    Z7        0.00000  -0.00000   0.00000  -0.00000  -0.00000  -0.00000
         Item               Value     Threshold  Converged?
 Maximum Force            0.000071     0.000450     YES
 RMS     Force            0.000026     0.000300     YES
 Maximum Displacement     0.000116     0.001800     YES
 RMS     Displacement     0.000042     0.001200     YES
 Predicted change in Energy=-8.707521D-09
 Optimization completed.
    -- Stationary point found.
 GradGradGradGradGradGradGradGradGradGradGradGradGradGradGradGradGradGrad

 Leave Link  103 at Fri Jun  2 11:10:02 2023, MaxMem=  7381975040 cpu:               0.6 elap:               1.0
 (Enter /software/commercial/gaussian/g16/AVX/g16/l9999.exe)

 ----------------------------------------------------------------------

 Electric dipole moment (input orientation):
 (Debye = 10**-18 statcoulomb cm , SI units = C m)
                  (au)            (Debye)         (10**-30 SI)
   Tot        0.214071D+01      0.544113D+01      0.181497D+02
   x          0.855100D+00      0.217345D+01      0.724984D+01
   y         -0.196251D+01     -0.498819D+01     -0.166388D+02
   z          0.000000D+00      0.000000D+00      0.000000D+00

 Dipole polarizability, Alpha (input orientation).
 (esu units = cm**3 , SI units = C**2 m**2 J**-1)
 Alpha(0;0):
               (au)            (10**-24 esu)      (10**-40 SI)
   iso        0.652324D+02      0.966645D+01      0.107554D+02
   aniso      0.313904D+02      0.465158D+01      0.517558D+01
   xx         0.759378D+02      0.112528D+02      0.125204D+02
   yx         0.852672D+00      0.126353D+00      0.140587D+00
   yy         0.754288D+02      0.111774D+02      0.124365D+02
   zx         0.000000D+00      0.000000D+00      0.000000D+00
   zy         0.000000D+00      0.000000D+00      0.000000D+00
   zz         0.443307D+02      0.656914D+01      0.730915D+01

 First dipole hyperpolarizability, Beta (input orientation).
 ||, _|_  parallel and perpendicular components, (z) with respect to z axis,
 vector components x,y,z.  Values do not include the 1/n! factor of 1/2.
 (esu units = statvolt**-1 cm**4 , SI units = C**3 m**3 J**-2)
 Beta(0;0,0):
               (au)            (10**-30 esu)      (10**-50 SI)
   || (z)     0.000000D+00      0.000000D+00      0.000000D+00
   _|_(z)     0.000000D+00      0.000000D+00      0.000000D+00
   x          0.878800D+02      0.759215D+00      0.281775D+00
   y          0.631609D+02      0.545661D+00      0.202517D+00
   z          0.000000D+00      0.000000D+00      0.000000D+00
   ||         0.216446D+02      0.186992D+00      0.694003D-01
   xxx        0.173437D+02      0.149836D+00      0.556101D-01
   xxy        0.354935D+02      0.306636D+00      0.113805D+00
   yxy        0.199471D+02      0.172327D+00      0.639576D-01
   yyy       -0.786752D+01     -0.679692D-01     -0.252261D-01
   xxz        0.000000D+00      0.000000D+00      0.000000D+00
   yxz        0.000000D+00      0.000000D+00      0.000000D+00
   yyz        0.000000D+00      0.000000D+00      0.000000D+00
   zxz       -0.799745D+01     -0.690917D-01     -0.256427D-01
   zyz       -0.657231D+01     -0.567797D-01     -0.210732D-01
   zzz        0.000000D+00      0.000000D+00      0.000000D+00

 ----------------------------------------------------------------------

 Dipole orientation:
     6         -1.75329103         -0.76394139         -3.71768181
     7         -2.79060223         -1.21591710         -1.42251593
     6         -0.92187500         -0.40167802          0.12430188
     7          1.10569776          0.48177300         -1.08673506
     7          0.55642147          0.24244315         -3.62321161
     1         -1.04601834         -0.45576957          2.16553671
     1         -2.70039160         -1.17661066         -5.48335781

 Electric dipole moment (dipole orientation):
 (Debye = 10**-18 statcoulomb cm , SI units = C m)
                  (au)            (Debye)         (10**-30 SI)
   Tot        0.214071D+01      0.544113D+01      0.181497D+02
   x          0.000000D+00      0.000000D+00      0.000000D+00
   y          0.000000D+00      0.000000D+00      0.000000D+00
   z          0.214071D+01      0.544113D+01      0.181497D+02

 Dipole polarizability, Alpha (dipole orientation).
 (esu units = cm**3 , SI units = C**2 m**2 J**-1)
 Alpha(0;0):
               (au)            (10**-24 esu)      (10**-40 SI)
   iso        0.652324D+02      0.966645D+01      0.107554D+02
   aniso      0.313904D+02      0.465158D+01      0.517558D+01
   xx         0.713512D+02      0.105732D+02      0.117642D+02
   yx         0.117733D+02      0.174462D+01      0.194116D+01
   yy         0.494606D+02      0.732930D+01      0.815495D+01
   zx        -0.361381D+00     -0.535511D-01     -0.595836D-01
   zy        -0.157460D+00     -0.233332D-01     -0.259617D-01
   zz         0.748855D+02      0.110969D+02      0.123470D+02

 First dipole hyperpolarizability, Beta (dipole orientation).
 ||, _|_  parallel and perpendicular components, (z) with respect to z axis,
 vector components x,y,z.  Values do not include the 1/n! factor of 1/2.
 (esu units = statvolt**-1 cm**4 , SI units = C**3 m**3 J**-2)
 Beta(0;0,0):
               (au)            (10**-30 esu)      (10**-50 SI)
   || (z)    -0.455993D+01     -0.393942D-01     -0.146208D-01
   _|_(z)    -0.151998D+01     -0.131314D-01     -0.487359D-02
   x          0.969873D+02      0.837895D+00      0.310976D+00
   y          0.422592D+02      0.365086D+00      0.135498D+00
   z         -0.227996D+02     -0.196971D+00     -0.731039D-01
   ||         0.216446D+02      0.186992D+00      0.694003D-01
   xxx        0.398266D+02      0.344071D+00      0.127698D+00
   xxy        0.253078D+02      0.218640D+00      0.811459D-01
   yxy        0.363191D+01      0.313769D-01      0.116452D-01
   yyy       -0.637211D+01     -0.550501D-01     -0.204313D-01
   xxz       -0.181319D+02     -0.156645D+00     -0.581374D-01
   yxz       -0.913376D+01     -0.789086D-01     -0.292861D-01
   yyz       -0.114910D+01     -0.992734D-02     -0.368443D-02
   zxz       -0.111294D+02     -0.961494D-01     -0.356849D-01
   zyz       -0.484929D+01     -0.418941D-01     -0.155486D-01
   zzz        0.116811D+02      0.100916D+00      0.374538D-01

 ----------------------------------------------------------------------
 Unable to Open any file for archive entry.
 1\1\GINC-NODE1798\Freq\RB3LYP\6-311+G(d,p)\C2H2N3(1-)\SVICCHI\02-Jun-2
 023\0\\#p freq=raman scale=0.967 pop=(nbo,full,hirshfeld) guess=read g
 eom=allcheck b3lyp/6-311+G(d,p) int=grid=ultrafine EmpiricalDispersion
 =GD3BJ SCRF=(Solvent=ethanol) scf=(xqc,intrep,maxconventionalcycle=350
 ) nosymm\\124triz-isolated.gjf\\-1,1\C,-1.713639888,1.3992852209,0.\N,
 -1.7774124764,0.0466644122,0.\C,-0.461560487,-0.2728609782,0.\N,0.3553
 975608,0.7821471596,0.\N,-0.471423693,1.8860109923,0.\H,-0.0957810325,
 -1.2917418985,0.\H,-2.5880499839,2.0374860916,0.\\Version=ES64L-G16Rev
 C.01\HF=-241.8631017\RMSD=4.574e-09\RMSF=2.628e-05\ZeroPoint=0.044656\
 Thermal=0.0480913\ETot=-241.8150104\HTot=-241.8140662\GTot=-241.844482
 9\Dipole=-0.7100845,-0.531279,0.\DipoleDeriv=0.3077082,0.164839,0.,0.1
 95422,0.6473885,0.,0.,0.,-0.1069976,-0.905124,-0.1750244,0.,-0.1767293
 ,-0.8027678,0.,0.,0.,-0.4006228,0.7163289,0.0752752,0.,0.045104,0.2386
 991,0.,0.,0.,-0.1065078,-0.8107335,-0.163994,0.,0.0503324,-0.2154264,0
 .,0.,0.,-0.3922625,-0.2852045,-0.0954772,0.,-0.3094897,-0.7293933,0.,0
 .,0.,-0.394141,0.0512622,0.0707078,0.,0.0867679,-0.1324073,0.,0.,0.,0.
 1999177,-0.0742373,0.1236736,0.,0.1085928,-0.0060927,0.,0.,0.,0.200614
 1\Polar=75.9377596,0.8526716,75.4288112,0.,0.,44.3307485\PolarDeriv=0.
 3735369,-2.4263798,-12.5582398,0.,0.,-6.8254469,9.9002449,3.6219754,-7
 .0474325,0.,0.,2.3737472,0.,0.,0.,-6.6192088,4.2250977,0.,-0.7743925,-
 4.8950929,-8.6019107,0.,0.,-2.1997494,-10.8511145,-0.6595139,3.8629365
 ,0.,0.,-1.674548,0.,0.,0.,-4.0131728,-3.0179667,0.,-7.1519775,7.712901
 9,6.5571787,0.,0.,0.3181633,-11.2978138,-0.7336044,-1.1753,0.,0.,-7.20
 43303,0.,0.,0.,2.2022676,-7.4822507,0.,12.4860631,0.8557845,5.638768,0
 .,0.,2.6509149,3.4456537,-4.565197,3.5903607,0.,0.,5.7157559,0.,0.,0.,
 4.9631508,1.6742796,0.,2.7300265,-3.1746034,8.8499802,0.,0.,6.2739146,
 5.9254554,3.4071778,9.3366254,0.,0.,0.962231,0.,0.,0.,3.0272469,4.3612
 524,0.,2.0671569,-3.3385429,3.5949499,0.,0.,0.1704149,-1.7789307,3.824
 5114,-13.7402477,0.,0.,-0.4528902,0.,0.,0.,-0.0013438,0.3933941,0.,-9.
 7304133,5.2659326,-3.4807263,0.,0.,-0.3882113,4.6565049,-4.8953493,5.1
 730576,0.,0.,0.2800344,0.,0.,0.,0.4410603,-0.1538064,0.\HyperPolar=17.
 34369,35.4934557,19.9471011,-7.8675187,0.,0.,0.,-7.9974474,-6.5723145,
 0.\Quadrupole=-1.8769,-2.2031678,4.0800678,-3.0827979,0.,0.\PG=CS [SG(
 C2H2N3)]\NImag=0\\0.77653990,-0.13917011,0.66559010,0.,0.,0.14698822,-
 0.10011345,-0.00680786,0.,0.50259766,-0.01534181,-0.29306217,0.,0.0232
 0689,0.48879781,0.,0.,-0.07968325,0.,0.,0.10108790,-0.02475790,0.10680
 583,0.,-0.28365300,0.04744810,0.,0.59773853,0.03415470,-0.06613747,0.,
 0.03888212,-0.10922116,0.,-0.08759911,0.84268162,0.,0.,0.01403620,0.,0
 .,-0.07930737,0.,0.,0.14753667,-0.10902625,0.00379218,0.,-0.09206704,0
 .01409171,0.,-0.19633029,-0.10827318,0.,0.51659574,0.06722774,-0.01698
 151,0.,-0.07603336,-0.00354155,0.,-0.12640265,-0.23514964,0.,0.0652772
 3,0.42891239,0.,0.,0.01982002,0.,0.,0.03299452,0.,0.,-0.07939747,0.,0.
 ,0.10815226,-0.29570094,-0.09770206,0.,-0.02712913,-0.09499019,0.,-0.0
 0510360,0.03671548,0.,-0.12567441,0.08971946,0.,0.47159499,-0.07961538
 ,-0.13702678,0.,-0.00482578,-0.06831256,0.,-0.02668253,-0.12099269,0.,
 0.01748796,-0.15673908,0.,0.07883811,0.47514466,0.,0.,-0.07835758,0.,0
 .,0.03305198,0.,0.,0.01987805,0.,0.,-0.08468645,0.,0.,0.10698249,-0.00
 720401,0.00059358,0.,-0.00686041,0.02972386,0.,-0.08709302,0.08868341,
 0.,0.01131720,-0.01911409,0.,-0.00073743,-0.00495198,0.,0.09003835,-0.
 00068247,-0.00021399,0.,0.00000129,-0.00029513,0.,0.08773082,-0.304562
 17,0.,0.01136075,-0.01741671,0.,-0.00186408,-0.00317787,0.,-0.09667680
 ,0.32567933,0.,0.,0.00576955,0.,0.,-0.00406955,0.,0.,-0.02851465,0.,0.
 ,-0.00529970,0.,0.,0.00841788,0.,0.,0.02273737,-0.23973735,0.13248844,
 0.,0.00722538,-0.00413855,0.,-0.00080072,-0.00256342,0.,-0.00481495,-0
 .00067434,0.,-0.01724947,0.01974960,0.,0.00053932,0.00013049,0.,0.2548
 3779,0.13342733,-0.15216819,0.,0.02557671,-0.01436524,0.,-0.00130048,-
 0.00661848,0.,-0.00373666,0.00091610,0.,-0.01071672,0.01110431,0.,0.00
 174204,-0.00001346,0.,-0.14499222,0.16114496,0.,0.,-0.02857316,0.,0.,-
 0.00407423,0.,0.,0.00576857,0.,0.,0.00841682,0.,0.,-0.00528637,0.,0.,0
 .00095911,0.,0.,0.02278926\\0.00001388,0.00002113,0.,0.00001083,0.0000
 4454,0.,-0.00002359,-0.00001110,0.,-0.00005059,0.00000099,0.,0.0000461
 3,-0.00007104,0.,-0.00002304,0.00000694,0.,0.00002638,0.00000855,0.\\\
 @
 The archive entry for this job was punched.


 A BIRD IN THE HAND IS SAFER THAN ONE OVERHEAD.

                       -- NEWTON'S SEVENTH LAW
 Job cpu time:       0 days  0 hours  5 minutes 31.7 seconds.
 Elapsed time:       0 days  0 hours  3 minutes 10.8 seconds.
 File lengths (MBytes):  RWF=     61 Int=      0 D2E=      0 Chk=      8 Scr=      1
 Normal termination of Gaussian 16 at Fri Jun  2 11:10:05 2023.
