 Entering Gaussian System, Link 0=g16
 Input=pyrrolide-CO2_binding-site_index-4-freq.gjf
 Output=pyrrolide-CO2_binding-site_index-4-freq.log
 Initial command:
 /software/commercial/gaussian/g16/AVX/g16/l1.exe "/scratch1/svicchi/G09-659824.pbs02/Gau-125318.inp" -scrdir="/scratch1/svicchi/G09-659824.pbs02/"
 Entering Link 1 = /software/commercial/gaussian/g16/AVX/g16/l1.exe PID=    125319.
  
 Copyright (c) 1988-2019, Gaussian, Inc.  All Rights Reserved.
  
 This is part of the Gaussian(R) 16 program.  It is based on
 the Gaussian(R) 09 system (copyright 2009, Gaussian, Inc.),
 the Gaussian(R) 03 system (copyright 2003, Gaussian, Inc.),
 the Gaussian(R) 98 system (copyright 1998, Gaussian, Inc.),
 the Gaussian(R) 94 system (copyright 1995, Gaussian, Inc.),
 the Gaussian 92(TM) system (copyright 1992, Gaussian, Inc.),
 the Gaussian 90(TM) system (copyright 1990, Gaussian, Inc.),
 the Gaussian 88(TM) system (copyright 1988, Gaussian, Inc.),
 the Gaussian 86(TM) system (copyright 1986, Carnegie Mellon
 University), and the Gaussian 82(TM) system (copyright 1983,
 Carnegie Mellon University). Gaussian is a federally registered
 trademark of Gaussian, Inc.
  
 This software contains proprietary and confidential information,
 including trade secrets, belonging to Gaussian, Inc.
  
 This software is provided under written license and may be
 used, copied, transmitted, or stored only in accord with that
 written license.
  
 The following legend is applicable only to US Government
 contracts under FAR:
  
                    RESTRICTED RIGHTS LEGEND
  
 Use, reproduction and disclosure by the US Government is
 subject to restrictions as set forth in subparagraphs (a)
 and (c) of the Commercial Computer Software - Restricted
 Rights clause in FAR 52.227-19.
  
 Gaussian, Inc.
 340 Quinnipiac St., Bldg. 40, Wallingford CT 06492
  
  
 ---------------------------------------------------------------
 Warning -- This program may not be used in any manner that
 competes with the business of Gaussian, Inc. or will provide
 assistance to any competitor of Gaussian, Inc.  The licensee
 of this program is prohibited from giving any competitor of
 Gaussian, Inc. access to this program.  By using this program,
 the user acknowledges that Gaussian, Inc. is engaged in the
 business of creating and licensing software in the field of
 computational chemistry and represents and warrants to the
 licensee that it is not a competitor of Gaussian, Inc. and that
 it will not use this program in any manner prohibited above.
 ---------------------------------------------------------------
  

 Cite this work as:
 Gaussian 16, Revision C.01,
 M. J. Frisch, G. W. Trucks, H. B. Schlegel, G. E. Scuseria, 
 M. A. Robb, J. R. Cheeseman, G. Scalmani, V. Barone, 
 G. A. Petersson, H. Nakatsuji, X. Li, M. Caricato, A. V. Marenich, 
 J. Bloino, B. G. Janesko, R. Gomperts, B. Mennucci, H. P. Hratchian, 
 J. V. Ortiz, A. F. Izmaylov, J. L. Sonnenberg, D. Williams-Young, 
 F. Ding, F. Lipparini, F. Egidi, J. Goings, B. Peng, A. Petrone, 
 T. Henderson, D. Ranasinghe, V. G. Zakrzewski, J. Gao, N. Rega, 
 G. Zheng, W. Liang, M. Hada, M. Ehara, K. Toyota, R. Fukuda, 
 J. Hasegawa, M. Ishida, T. Nakajima, Y. Honda, O. Kitao, H. Nakai, 
 T. Vreven, K. Throssell, J. A. Montgomery, Jr., J. E. Peralta, 
 F. Ogliaro, M. J. Bearpark, J. J. Heyd, E. N. Brothers, K. N. Kudin, 
 V. N. Staroverov, T. A. Keith, R. Kobayashi, J. Normand, 
 K. Raghavachari, A. P. Rendell, J. C. Burant, S. S. Iyengar, 
 J. Tomasi, M. Cossi, J. M. Millam, M. Klene, C. Adamo, R. Cammi, 
 J. W. Ochterski, R. L. Martin, K. Morokuma, O. Farkas, 
 J. B. Foresman, and D. J. Fox, Gaussian, Inc., Wallingford CT, 2019.
 
 ******************************************
 Gaussian 16:  ES64L-G16RevC.01  3-Jul-2019
                 2-Jun-2023 
 ******************************************
 %NProcShared=2
 Will use up to    2 processors via shared memory.
 %mem=55gb
 %chk=/scratch1/svicchi/G09-659824.pbs02/02-freq/pyrrolide-CO2_binding-site_index
 -4-freq.chk
 ----------------------------------------------------------------------
 #p freq=raman scale=0.967 pop=(nbo,full,hirshfeld) guess=read geom=all
 check b3lyp/6-311+G(d,p) int=grid=ultrafine EmpiricalDispersion=GD3BJ 
 SCRF=(Solvent=ethanol) scf=(xqc,intrep,maxconventionalcycle=350) nosym
 m
 ----------------------------------------------------------------------
 1/10=4,29=7,30=1,38=1,114=967000/1,3;
 2/12=2,15=1,40=1/2;
 3/5=4,6=6,7=111,11=2,14=-4,25=1,30=1,70=2201,71=2,72=4,74=-5,75=-5,116=-2,124=41,140=1/1,2,3;
 4/5=1/1;
 5/5=2,8=3,13=1,17=20,38=6,53=4,85=350,98=1/2,8;
 8/6=4,10=90,11=11/1;
 10/13=10,15=4,31=1/2;
 11/6=3,8=1,9=11,15=111,16=1,31=1/1,2,10;
 10/6=1,31=1/2;
 6/7=3,28=1,40=1,79=1/1,7;
 7/8=1,10=1,25=1,30=1/1,2,3,16;
 1/10=4,30=1/3;
 99//99;
 Leave Link    1 at Fri Jun  2 11:21:10 2023, MaxMem=  7381975040 cpu:               1.9 elap:               2.1
 (Enter /software/commercial/gaussian/g16/AVX/g16/l101.exe)
 Structure from the checkpoint file:  "/scratch1/svicchi/G09-659824.pbs02/02-freq/pyrrolide-CO2_binding-site_index-4-freq.chk"
 --------------------------------------
 pyrrolide-CO2_binding-site_index-4.gjf
 --------------------------------------
 Charge = -1 Multiplicity = 1
 No Z-Matrix found in chk file; cartesian coordinates used.
  C                                                -2.861706066445     -1.700588997776     -0.000000000001
  C                                                -1.431005616599     -1.654667911262     -0.000000000017
  C                                                -3.310683284467     -0.399284482755      0.000000000037
  C                                                -1.066095127527     -0.327279188528      0.000000000012
  N                                                -2.214115466755      0.438136761777      0.000000000048
  H                                                -4.303970513330      0.014409798221      0.000000000031
  H                                                -3.482275285806     -2.584351288913     -0.000000000013
  H                                                -0.755178975430     -2.496931426437     -0.000000000032
  H                                                -0.101018566752      0.148745025754     -0.000000000002
  C                                                -2.262137364327      1.913694867503     -0.000000000007
  O                                                -1.149188610787      2.471834397880      0.000000000031
  O                                                -3.409263121775      2.397855444538     -0.000000000087
 Recover connectivity data from disk.
 ITRead=  0  0  0  0  0  0  0  0  0  0  0  0
 MicOpt= -1 -1 -1 -1 -1 -1 -1 -1 -1 -1 -1 -1
 NAtoms=     12 NQM=       12 NQMF=       0 NMMI=      0 NMMIF=      0
                NMic=       0 NMicF=      0.
                    Isotopes and Nuclear Properties:
 (Nuclear quadrupole moments (NQMom) in fm**2, nuclear magnetic moments (NMagM)
  in nuclear magnetons)

  Atom         1           2           3           4           5           6           7           8           9          10
 IAtWgt=          12          12          12          12          14           1           1           1           1          12
 AtmWgt=  12.0000000  12.0000000  12.0000000  12.0000000  14.0030740   1.0078250   1.0078250   1.0078250   1.0078250  12.0000000
 NucSpn=           0           0           0           0           2           1           1           1           1           0
 AtZEff=   3.6000000   3.6000000   3.6000000   3.6000000   4.5500000   1.0000000   1.0000000   1.0000000   1.0000000   3.6000000
 NQMom=    0.0000000   0.0000000   0.0000000   0.0000000   2.0440000   0.0000000   0.0000000   0.0000000   0.0000000   0.0000000
 NMagM=    0.0000000   0.0000000   0.0000000   0.0000000   0.4037610   2.7928460   2.7928460   2.7928460   2.7928460   0.0000000
 AtZNuc=   6.0000000   6.0000000   6.0000000   6.0000000   7.0000000   1.0000000   1.0000000   1.0000000   1.0000000   6.0000000

  Atom        11          12
 IAtWgt=          16          16
 AtmWgt=  15.9949146  15.9949146
 NucSpn=           0           0
 AtZEff=   5.6000000   5.6000000
 NQMom=    0.0000000   0.0000000
 NMagM=    0.0000000   0.0000000
 AtZNuc=   8.0000000   8.0000000
 Leave Link  101 at Fri Jun  2 11:21:13 2023, MaxMem=  7381975040 cpu:               0.5 elap:               1.7
 (Enter /software/commercial/gaussian/g16/AVX/g16/l103.exe)

 GradGradGradGradGradGradGradGradGradGradGradGradGradGradGradGradGradGrad
 Berny optimization.
 Initialization pass.
 Trust Radius=3.00D-01 FncErr=1.00D-07 GrdErr=1.00D-07 EigMax=2.50D+02 EigMin=1.00D-04
 Number of steps in this run=      2 maximum allowed number of steps=      2.
 GradGradGradGradGradGradGradGradGradGradGradGradGradGradGradGradGradGrad

 Leave Link  103 at Fri Jun  2 11:21:16 2023, MaxMem=  7381975040 cpu:               0.1 elap:               1.3
 (Enter /software/commercial/gaussian/g16/AVX/g16/l202.exe)
                          Input orientation:                          
 ---------------------------------------------------------------------
 Center     Atomic      Atomic             Coordinates (Angstroms)
 Number     Number       Type             X           Y           Z
 ---------------------------------------------------------------------
      1          6           0       -2.861706   -1.700589   -0.000000
      2          6           0       -1.431006   -1.654668   -0.000000
      3          6           0       -3.310683   -0.399284    0.000000
      4          6           0       -1.066095   -0.327279    0.000000
      5          7           0       -2.214115    0.438137    0.000000
      6          1           0       -4.303971    0.014410    0.000000
      7          1           0       -3.482275   -2.584351   -0.000000
      8          1           0       -0.755179   -2.496931   -0.000000
      9          1           0       -0.101019    0.148745   -0.000000
     10          6           0       -2.262137    1.913695   -0.000000
     11          8           0       -1.149189    2.471834    0.000000
     12          8           0       -3.409263    2.397855   -0.000000
 ---------------------------------------------------------------------
                    Distance matrix (angstroms):
                    1          2          3          4          5
     1  C    0.000000
     2  C    1.431437   0.000000
     3  C    1.376581   2.260349   0.000000
     4  C    2.260575   1.376634   2.245743   0.000000
     5  N    2.234619   2.234523   1.379759   1.379787   0.000000
     6  H    2.240836   3.322612   1.075994   3.255854   2.132379
     7  H    1.079881   2.252114   2.191794   3.306403   3.277753
     8  H    2.252025   1.079884   3.306165   2.191817   3.277670
     9  H    3.322865   2.240795   3.256115   1.076091   2.132821
    10  C    3.663677   3.663877   2.539552   2.540174   1.476339
    11  O    4.510192   4.136114   3.593798   2.800347   2.295647
    12  O    4.134860   4.509595   2.798877   3.593994   2.295403
                    6          7          8          9         10
     6  H    0.000000
     7  H    2.725572   0.000000
     8  H    4.347500   2.728497   0.000000
     9  H    4.205098   4.347725   2.725349   0.000000
    10  C    2.788614   4.660596   4.660960   2.790248   0.000000
    11  O    3.998948   5.568510   4.984363   2.548608   1.245060
    12  O    2.545843   4.982742   5.568043   4.000372   1.245114
                   11         12
    11  O    0.000000
    12  O    2.261285   0.000000
 Symmetry turned off by external request.
 Stoichiometry    C5H4NO2(1-)
 Framework group  CS[SG(C5H4NO2)]
 Deg. of freedom    21
 Full point group                 CS      NOp   2
 Rotational constants (GHZ):           5.2583068           1.7145971           1.2929875
 Leave Link  202 at Fri Jun  2 11:21:18 2023, MaxMem=  7381975040 cpu:               0.1 elap:               1.3
 (Enter /software/commercial/gaussian/g16/AVX/g16/l301.exe)
 Standard basis: 6-311+G(d,p) (5D, 7F)
 Ernie: Thresh=  0.10000D-02 Tol=  0.10000D-05 Strict=F.
   200 basis functions,   320 primitive gaussians,   208 cartesian basis functions
    29 alpha electrons       29 beta electrons
       nuclear repulsion energy       341.4135694455 Hartrees.
 IExCor=  402 DFT=T Ex+Corr=B3LYP ExCW=0 ScaHFX=  0.200000
 ScaDFX=  0.800000  0.720000  1.000000  0.810000 ScalE2=  1.000000  1.000000
 IRadAn=      5 IRanWt=     -1 IRanGd=            0 ICorTp=0 IEmpDi=141
 NAtoms=   12 NActive=   12 NUniq=   12 SFac= 1.00D+00 NAtFMM=   60 NAOKFM=F Big=F
 Integral buffers will be    131072 words long.
 Raffenetti 2 integral format.
 Two-electron integral symmetry is turned off.
 R6Disp:  Grimme-D3(BJ) Dispersion energy=       -0.0193466350 Hartrees.
 Nuclear repulsion after empirical dispersion term =      341.3942228105 Hartrees.
 Force inversion solution in PCM.
 ------------------------------------------------------------------------------
 Polarizable Continuum Model (PCM)
 =================================
 Model                : PCM.
 Atomic radii         : UFF (Universal Force Field).
 Polarization charges : Total charges.
 Charge compensation  : None.
 Solution method      : Matrix inversion.
 Cavity type          : Scaled VdW (van der Waals Surface) (Alpha=1.100).
 Cavity algorithm     : GePol (No added spheres)
                        Default sphere list used, NSphG=   12.
                        Lebedev-Laikov grids with approx.  5.0 points / Ang**2.
                        Smoothing algorithm: York/Karplus (Gamma=1.0000).
                        Polarization charges: spherical gaussians, with
                                              point-specific exponents (IZeta= 3).
                        Self-potential: point-specific (ISelfS= 7).
                        Self-field    : sphere-specific E.n sum rule (ISelfD= 2).
 1st derivatives      : Analytical E(r).r(x)/FMM algorithm (CHGder, D1EAlg=3).
                        Cavity 1st derivative terms included.
 2nd derivatives      : Analytical E(r).r(xy)/FMM algorithm (CHGder, D2EAlg=3).
                        Cavity 2nd derivative terms included.
 Solvent              : Ethanol, Eps=  24.852000 Eps(inf)=   1.852593
 ------------------------------------------------------------------------------
 Spheres list:
 ISph  on   Nord     Re0    Alpha      Xe            Ye            Ze
    1   C      1    1.9255  1.100     -2.861706     -1.700589     -0.000000
    2   C      2    1.9255  1.100     -1.431006     -1.654668     -0.000000
    3   C      3    1.9255  1.100     -3.310683     -0.399284      0.000000
    4   C      4    1.9255  1.100     -1.066095     -0.327279      0.000000
    5   N      5    1.8300  1.100     -2.214115      0.438137      0.000000
    6   H      6    1.4430  1.100     -4.303971      0.014410      0.000000
    7   H      7    1.4430  1.100     -3.482275     -2.584351     -0.000000
    8   H      8    1.4430  1.100     -0.755179     -2.496931     -0.000000
    9   H      9    1.4430  1.100     -0.101019      0.148745     -0.000000
   10   C     10    1.9255  1.100     -2.262137      1.913695     -0.000000
   11   O     11    1.7500  1.100     -1.149189      2.471834      0.000000
   12   O     12    1.7500  1.100     -3.409263      2.397855     -0.000000
 ------------------------------------------------------------------------------
 GePol: Number of generator spheres                  =      12
 GePol: Total number of spheres                      =      12
 GePol: Number of exposed spheres                    =      12 (100.00%)
 GePol: Number of points                             =    1201
 GePol: Average weight of points                     =       0.13
 GePol: Minimum weight of points                     =   0.25D-08
 GePol: Maximum weight of points                     =    0.20577
 GePol: Number of points with low weight             =      57
 GePol: Fraction of low-weight points (<1% of avg)   =       4.75%
 GePol: Cavity surface area                          =    158.331 Ang**2
 GePol: Cavity volume                                =    151.466 Ang**3
 Leave Link  301 at Fri Jun  2 11:21:22 2023, MaxMem=  7381975040 cpu:               2.0 elap:               2.8
 (Enter /software/commercial/gaussian/g16/AVX/g16/l302.exe)
 NPDir=0 NMtPBC=     1 NCelOv=     1 NCel=       1 NClECP=     1 NCelD=      1
         NCelK=      1 NCelE2=     1 NClLst=     1 CellRange=     0.0.
 One-electron integrals computed using PRISM.
 NBasis=   200 RedAO= T EigKep=  9.22D-06  NBF=   200
 NBsUse=   200 1.00D-06 EigRej= -1.00D+00 NBFU=   200
 Precomputing XC quadrature grid using
 IXCGrd= 4 IRadAn=           5 IRanWt=          -1 IRanGd=           0 AccXCQ= 0.00D+00.
 Generated NRdTot=       0 NPtTot=           0 NUsed=           0 NTot=          32
 NSgBfM=   208   208   208   208   208 MxSgAt=    12 MxSgA2=    12.
 Leave Link  302 at Fri Jun  2 11:21:25 2023, MaxMem=  7381975040 cpu:               1.2 elap:               2.0
 (Enter /software/commercial/gaussian/g16/AVX/g16/l303.exe)
 DipDrv:  MaxL=1.
 Leave Link  303 at Fri Jun  2 11:21:27 2023, MaxMem=  7381975040 cpu:               0.2 elap:               1.2
 (Enter /software/commercial/gaussian/g16/AVX/g16/l401.exe)
 Initial guess from the checkpoint file:  "/scratch1/svicchi/G09-659824.pbs02/02-freq/pyrrolide-CO2_binding-site_index-4-freq.chk"
 B after Tr=     0.000000    0.000000    0.000000
         Rot=    1.000000    0.000000    0.000000    0.000000 Ang=   0.00 deg.
 Guess basis will be translated and rotated to current coordinates.
 JPrj=2 DoOrth=T DoCkMO=T.
 Leave Link  401 at Fri Jun  2 11:21:32 2023, MaxMem=  7381975040 cpu:               1.3 elap:               2.8
 (Enter /software/commercial/gaussian/g16/AVX/g16/l502.exe)
 Keep R1 ints in memory in canonical form, NReq=206580520.
 FoFCou: FMM=F IPFlag=           0 FMFlag=           0 FMFlg1=           0
         NFxFlg=           0 DoJE=F BraDBF=F KetDBF=F FulRan=T
         wScrn=  0.000000 ICntrl=       600 IOpCl=  0 I1Cent=           0 NGrid=           0
         NMat0=    1 NMatS0=  20100 NMatT0=    0 NMatD0=    1 NMtDS0=    0 NMtDT0=    0
 Symmetry not used in FoFCou.
 Two-electron integral symmetry not used.
 Closed shell SCF:
 Using DIIS extrapolation, IDIIS=  1040.
 NGot=  7381975040 LenX=  7179870384 LenY=  7179826679
 Requested convergence on RMS density matrix=1.00D-08 within 350 cycles.
 Requested convergence on MAX density matrix=1.00D-06.
 Requested convergence on             energy=1.00D-06.
 No special actions if energy rises.

 Cycle   1  Pass 1  IDiag  1:
 Inv3:  Mode=1 IEnd=     4327203.
 Iteration    1 A*A^-1 deviation from unit magnitude is 3.11D-15 for   1191.
 Iteration    1 A*A^-1 deviation from orthogonality  is 1.66D-15 for   1194   1024.
 Iteration    1 A^-1*A deviation from unit magnitude is 3.00D-15 for   1189.
 Iteration    1 A^-1*A deviation from orthogonality  is 4.21D-15 for    967    944.
 E= -398.439526720276    
 DIIS: error= 5.01D-08 at cycle   1 NSaved=   1.
 NSaved= 1 IEnMin= 1 EnMin= -398.439526720276     IErMin= 1 ErrMin= 5.01D-08
 ErrMax= 5.01D-08  0.00D+00 EMaxC= 1.00D-01 BMatC= 1.07D-13 BMatP= 1.07D-13
 IDIUse=1 WtCom= 1.00D+00 WtEn= 0.00D+00
 Coeff-Com:  0.100D+01
 Coeff:      0.100D+01
 Gap=     0.217 Goal=   None    Shift=    0.000
 RMSDP=5.83D-09 MaxDP=1.82D-07              OVMax= 3.50D-07

 Error on total polarization charges =  0.01962
 SCF Done:  E(RB3LYP) =  -398.439526720     A.U. after    1 cycles
            NFock=  1  Conv=0.58D-08     -V/T= 2.0040
 KE= 3.968635247342D+02 PE=-1.626291546678D+03 EE= 4.895942724135D+02
 Leave Link  502 at Fri Jun  2 11:21:51 2023, MaxMem=  7381975040 cpu:              27.2 elap:              17.4
 (Enter /software/commercial/gaussian/g16/AVX/g16/l508.exe)
 QCSCF skips out because SCF is already converged.
 Leave Link  508 at Fri Jun  2 11:21:54 2023, MaxMem=  7381975040 cpu:               0.1 elap:               1.4
 (Enter /software/commercial/gaussian/g16/AVX/g16/l801.exe)
 DoSCS=F DFT=T ScalE2(SS,OS)=  1.000000  1.000000
 Range of M.O.s used for correlation:     1   200
 NBasis=   200 NAE=    29 NBE=    29 NFC=     0 NFV=     0
 NROrb=    200 NOA=    29 NOB=    29 NVA=   171 NVB=   171

 **** Warning!!: The largest alpha MO coefficient is  0.80212225D+02

 Leave Link  801 at Fri Jun  2 11:21:56 2023, MaxMem=  7381975040 cpu:               0.2 elap:               1.1
 (Enter /software/commercial/gaussian/g16/AVX/g16/l1002.exe)
 Minotr:  Closed shell wavefunction.
 NEqPCM:  Using equilibrium solvation (IEInf=0, Eps=  24.8520, EpsInf=   1.8526)
          Direct CPHF calculation.
          Differentiating once with respect to electric field.
                with respect to dipole field.
          Electric field/nuclear overlap derivatives assumed to be zero.
          Requested convergence is 1.0D-08 RMS, and 1.0D-07 maximum.
          Secondary convergence is 1.0D-12 RMS, and 1.0D-12 maximum.
          NewPWx=F KeepS1=T KeepF1=T KeepIn=T MapXYZ=F SortEE=F KeepMc=T.
         3689 words used for storage of precomputed grid.
 Keep R1 ints in memory in canonical form, NReq=206755173.
 FoFCou: FMM=F IPFlag=           0 FMFlag=           0 FMFlg1=           0
         NFxFlg=           0 DoJE=F BraDBF=F KetDBF=F FulRan=T
         wScrn=  0.000000 ICntrl=       600 IOpCl=  0 I1Cent=           0 NGrid=           0
         NMat0=    1 NMatS0=  20100 NMatT0=    0 NMatD0=    1 NMtDS0=    0 NMtDT0=    0
 Symmetry not used in FoFCou.
 Two-electron integral symmetry not used.
          MDV=    7381975040 using IRadAn=       1.
          Solving linear equations simultaneously, MaxMat=       0.
          There are     3 degrees of freedom in the 1st order CPHF.  IDoFFX=0 NUNeed=     3.
      3 vectors produced by pass  0 Test12= 1.65D-13 3.33D-08 XBig12= 9.39D+01 6.20D+00.
 AX will form     3 AO Fock derivatives at one time.
      3 vectors produced by pass  1 Test12= 1.65D-13 3.33D-08 XBig12= 4.23D+01 1.83D+00.
      3 vectors produced by pass  2 Test12= 1.65D-13 3.33D-08 XBig12= 1.01D+01 1.02D+00.
      3 vectors produced by pass  3 Test12= 1.65D-13 3.33D-08 XBig12= 6.28D+00 1.03D+00.
      3 vectors produced by pass  4 Test12= 1.65D-13 3.33D-08 XBig12= 3.52D-01 1.77D-01.
      3 vectors produced by pass  5 Test12= 1.65D-13 3.33D-08 XBig12= 2.17D-01 2.09D-01.
      3 vectors produced by pass  6 Test12= 1.65D-13 3.33D-08 XBig12= 1.26D-02 1.96D-02.
      3 vectors produced by pass  7 Test12= 1.65D-13 3.33D-08 XBig12= 5.24D-03 2.70D-02.
      3 vectors produced by pass  8 Test12= 1.65D-13 3.33D-08 XBig12= 3.48D-04 4.58D-03.
      3 vectors produced by pass  9 Test12= 1.65D-13 3.33D-08 XBig12= 8.42D-05 2.45D-03.
      2 vectors produced by pass 10 Test12= 1.65D-13 3.33D-08 XBig12= 3.53D-06 3.26D-04.
      2 vectors produced by pass 11 Test12= 1.65D-13 3.33D-08 XBig12= 6.75D-08 5.02D-05.
      2 vectors produced by pass 12 Test12= 1.65D-13 3.33D-08 XBig12= 6.60D-10 4.64D-06.
      2 vectors produced by pass 13 Test12= 1.65D-13 3.33D-08 XBig12= 1.63D-11 1.01D-06.
      1 vectors produced by pass 14 Test12= 1.65D-13 3.33D-08 XBig12= 3.64D-13 1.11D-07.
 InvSVY:  IOpt=1 It=  1 EMax= 7.11D-15
 Solved reduced A of dimension    39 with     3 vectors.
 End of Minotr F.D. properties file   721 does not exist.
 End of Minotr F.D. properties file   722 does not exist.
 End of Minotr F.D. properties file   788 does not exist.
 Leave Link 1002 at Fri Jun  2 11:23:15 2023, MaxMem=  7381975040 cpu:             139.3 elap:              78.2
 (Enter /software/commercial/gaussian/g16/AVX/g16/l1101.exe)
 Using compressed storage, NAtomX=    12.
 Will process     13 centers per pass.
 R6Disp: Adding Grimme-D3(BJ) dispersion energy 1st derivatives to the gradient.
 Leave Link 1101 at Fri Jun  2 11:23:20 2023, MaxMem=  7381975040 cpu:               0.8 elap:               2.6
 (Enter /software/commercial/gaussian/g16/AVX/g16/l1102.exe)
 Symmetrizing basis deriv contribution to polar:
 IMax=3 JMax=2 DiffMx= 0.00D+00
 Leave Link 1102 at Fri Jun  2 11:23:22 2023, MaxMem=  7381975040 cpu:               0.2 elap:               1.2
 (Enter /software/commercial/gaussian/g16/AVX/g16/l1110.exe)
 Forming Gx(P) for the SCF density, NAtomX=    12.
 Integral derivatives from FoFJK, PRISM(SPDF).
 Do as many integral derivatives as possible in FoFJK.
 G2DrvN: MDV=    7381973692.
 G2DrvN: will do    13 centers at a time, making    1 passes.
 PxScal for G2LodP:  IOpCl= 0 ISclPx=1 IMOff=     1 NMtTot=     4 NTT=   20100 ScalPx= 2.93D+01
 Calling FoFCou, ICntrl=  3107 FMM=F I1Cent=   0 AccDes= 0.00D+00.
 FoFJK:  IHMeth= 1 ICntrl=    3107 DoSepK=F KAlg= 0 I1Cent=           0 FoldK=F
 IRaf=         0 NMat=       1 IRICut=       1 DoRegI=T DoRafI=F ISym2E= 0 IDoP0=0 IntGTp=1.
 FoFCou: FMM=F IPFlag=           0 FMFlag=      100000 FMFlg1=           0
         NFxFlg=           0 DoJE=F BraDBF=F KetDBF=F FulRan=T
         wScrn=  0.000000 ICntrl=      3107 IOpCl=  0 I1Cent=           0 NGrid=           0
         NMat0=    1 NMatS0=      1 NMatT0=    0 NMatD0=    4 NMtDS0=    3 NMtDT0=    0
 Symmetry not used in FoFCou.
 PxScal for G2LodP:  IOpCl= 0 ISclPx=0 IMOff=     1 NMtTot=     4 NTT=   20100 ScalPx= 1.00D+00
 NEqPCM:  Using equilibrium solvation (IEInf=0, Eps=  24.8520, EpsInf=   1.8526)
 G2PCM: DoFxE=T DoFxN=T DoGrad=T DoDP/DQ/DG/TGxP=TFFF NFrqRd=   0 IEInf=0 SqF1=F DoCFld=F IF1Alg=4.
 GePol: Maximum number of non-zero 1st derivatives   =     210
 End of G2Drv F.D. properties file   721 does not exist.
 End of G2Drv F.D. properties file   722 does not exist.
 End of G2Drv F.D. properties file   788 does not exist.
 Leave Link 1110 at Fri Jun  2 11:26:20 2023, MaxMem=  7381975040 cpu:             340.1 elap:             177.4
 (Enter /software/commercial/gaussian/g16/AVX/g16/l1002.exe)
 Minotr:  Closed shell wavefunction.
          IDoAtm=111111111111
 NEqPCM:  Using equilibrium solvation (IEInf=0, Eps=  24.8520, EpsInf=   1.8526)
          Direct CPHF calculation.
          Differentiating once with respect to electric field.
                with respect to dipole field.
          Differentiating once with respect to nuclear coordinates.
          Requested convergence is 1.0D-08 RMS, and 1.0D-07 maximum.
          Secondary convergence is 1.0D-12 RMS, and 1.0D-12 maximum.
          NewPWx=T KeepS1=F KeepF1=F KeepIn=T MapXYZ=F SortEE=F KeepMc=T.
         3689 words used for storage of precomputed grid.
 Keep R1 ints in memory in canonical form, NReq=206755449.
 FoFCou: FMM=F IPFlag=           0 FMFlag=           0 FMFlg1=           0
         NFxFlg=           0 DoJE=F BraDBF=F KetDBF=F FulRan=T
         wScrn=  0.000000 ICntrl=       600 IOpCl=  0 I1Cent=           0 NGrid=           0
         NMat0=    1 NMatS0=  20100 NMatT0=    0 NMatD0=    1 NMtDS0=    0 NMtDT0=    0
 Symmetry not used in FoFCou.
 Two-electron integral symmetry not used.
          MDV=    7381975040 using IRadAn=       1.
          Solving linear equations simultaneously, MaxMat=       0.
          There are    39 degrees of freedom in the 1st order CPHF.  IDoFFX=5 NUNeed=    39.
 Will reuse    3 saved solutions.
     33 vectors produced by pass  0 Test12= 1.27D-14 2.56D-09 XBig12= 2.44D-01 1.52D-01.
 AX will form    33 AO Fock derivatives at one time.
     33 vectors produced by pass  1 Test12= 1.27D-14 2.56D-09 XBig12= 1.77D-02 5.55D-02.
     33 vectors produced by pass  2 Test12= 1.27D-14 2.56D-09 XBig12= 3.19D-04 5.04D-03.
     33 vectors produced by pass  3 Test12= 1.27D-14 2.56D-09 XBig12= 3.43D-06 3.42D-04.
     33 vectors produced by pass  4 Test12= 1.27D-14 2.56D-09 XBig12= 1.45D-08 1.96D-05.
     33 vectors produced by pass  5 Test12= 1.27D-14 2.56D-09 XBig12= 3.36D-11 9.43D-07.
     16 vectors produced by pass  6 Test12= 1.27D-14 2.56D-09 XBig12= 5.55D-14 3.56D-08.
      1 vectors produced by pass  7 Test12= 1.27D-14 2.56D-09 XBig12= 1.09D-16 2.60D-09.
 InvSVY:  IOpt=1 It=  1 EMax= 1.33D-15
 Solved reduced A of dimension   215 with    33 vectors.
 FullF1:  Do perturbations      1 to       3.
 Isotropic polarizability for W=    0.000000      100.56 Bohr**3.
 FullF1:  Do perturbations      1 to       6.
 End of Minotr F.D. properties file   721 does not exist.
 End of Minotr F.D. properties file   722 does not exist.
 End of Minotr F.D. properties file   788 does not exist.
 Leave Link 1002 at Fri Jun  2 11:29:53 2023, MaxMem=  7381975040 cpu:             389.4 elap:             210.6
 (Enter /software/commercial/gaussian/g16/AVX/g16/l601.exe)
 Copying SCF densities to generalized density rwf, IOpCl= 0 IROHF=0.

 **********************************************************************

            Population analysis using the SCF Density.

 **********************************************************************

 Alpha  occ. eigenvalues --  -19.06405 -19.06401 -14.34569 -10.28414 -10.18077
 Alpha  occ. eigenvalues --  -10.18074 -10.15308 -10.15266  -1.04640  -0.95567
 Alpha  occ. eigenvalues --   -0.95145  -0.76816  -0.71343  -0.60109  -0.56221
 Alpha  occ. eigenvalues --   -0.53677  -0.46831  -0.43707  -0.42850  -0.42684
 Alpha  occ. eigenvalues --   -0.39740  -0.38743  -0.37202  -0.36943  -0.26927
 Alpha  occ. eigenvalues --   -0.25933  -0.24236  -0.24114  -0.21370
 Alpha virt. eigenvalues --    0.00379   0.01428   0.03289   0.03559   0.04954
 Alpha virt. eigenvalues --    0.05532   0.05683   0.06080   0.06247   0.08918
 Alpha virt. eigenvalues --    0.09487   0.09617   0.09624   0.10099   0.12015
 Alpha virt. eigenvalues --    0.13470   0.14205   0.14585   0.16097   0.16218
 Alpha virt. eigenvalues --    0.18072   0.19229   0.20256   0.21825   0.22128
 Alpha virt. eigenvalues --    0.22795   0.22954   0.23421   0.24037   0.24317
 Alpha virt. eigenvalues --    0.24658   0.25635   0.26136   0.28123   0.28152
 Alpha virt. eigenvalues --    0.29557   0.30616   0.31180   0.32166   0.37219
 Alpha virt. eigenvalues --    0.37708   0.38881   0.40458   0.42981   0.44802
 Alpha virt. eigenvalues --    0.45952   0.49276   0.52777   0.52995   0.56600
 Alpha virt. eigenvalues --    0.57160   0.60742   0.61859   0.63649   0.64277
 Alpha virt. eigenvalues --    0.66690   0.70949   0.71777   0.73040   0.73522
 Alpha virt. eigenvalues --    0.76507   0.79468   0.80916   0.81309   0.85391
 Alpha virt. eigenvalues --    0.86471   0.86786   0.87817   0.89827   0.92804
 Alpha virt. eigenvalues --    0.93159   0.98722   1.08769   1.09386   1.09726
 Alpha virt. eigenvalues --    1.13342   1.14882   1.15261   1.16669   1.18033
 Alpha virt. eigenvalues --    1.19296   1.20913   1.23032   1.24101   1.28694
 Alpha virt. eigenvalues --    1.30865   1.40784   1.42844   1.51143   1.53543
 Alpha virt. eigenvalues --    1.56652   1.57038   1.57291   1.62223   1.65247
 Alpha virt. eigenvalues --    1.69362   1.72127   1.76369   1.77541   1.78812
 Alpha virt. eigenvalues --    1.82859   1.83385   1.84398   1.92089   1.94634
 Alpha virt. eigenvalues --    1.95439   1.98700   2.00152   2.00180   2.02425
 Alpha virt. eigenvalues --    2.08859   2.23103   2.30005   2.37962   2.40087
 Alpha virt. eigenvalues --    2.41782   2.44610   2.46886   2.57834   2.58243
 Alpha virt. eigenvalues --    2.61572   2.66264   2.68579   2.72115   2.73867
 Alpha virt. eigenvalues --    2.78069   2.79150   2.80201   2.81313   2.82293
 Alpha virt. eigenvalues --    2.86307   2.89324   2.95555   2.97236   2.98471
 Alpha virt. eigenvalues --    3.02615   3.09421   3.22834   3.27951   3.30972
 Alpha virt. eigenvalues --    3.32023   3.40412   3.43357   3.50641   3.50728
 Alpha virt. eigenvalues --    3.52886   3.65639   3.68808   3.80946   3.87963
 Alpha virt. eigenvalues --    3.88313   4.08566   4.08936   4.09038   4.31177
 Alpha virt. eigenvalues --    4.91450   5.05232   5.07563   5.12064   5.20028
 Alpha virt. eigenvalues --    5.20845   5.69174   5.90959  23.73823  23.85713
 Alpha virt. eigenvalues --   23.91689  24.14942  24.20282  35.55094  49.95908
 Alpha virt. eigenvalues --   50.07372
     Molecular Orbital Coefficients:
                           1         2         3         4         5
                           O         O         O         O         O
     Eigenvalues --   -19.06405 -19.06401 -14.34569 -10.28414 -10.18077
   1 1   C  1S         -0.00000  -0.00000  -0.00001  -0.00001  -0.00112
   2        2S          0.00001   0.00001   0.00006   0.00001  -0.00094
   3        2PX        -0.00000   0.00000  -0.00007   0.00001   0.00016
   4        2PY        -0.00001   0.00001   0.00009   0.00000  -0.00022
   5        2PZ         0.00000  -0.00000  -0.00000   0.00000   0.00000
   6        3S         -0.00002  -0.00006  -0.00027  -0.00014   0.00003
   7        3PX         0.00002  -0.00003   0.00024  -0.00005  -0.00108
   8        3PY         0.00004  -0.00013  -0.00098  -0.00003   0.00084
   9        3PZ        -0.00000   0.00000   0.00000  -0.00000  -0.00000
  10        4S          0.00156   0.00038  -0.00029   0.00210  -0.00390
  11        4PX         0.00059  -0.00046  -0.00146   0.00009  -0.00043
  12        4PY         0.00078  -0.00009  -0.00131   0.00129  -0.00279
  13        4PZ         0.00000  -0.00000  -0.00000  -0.00000   0.00000
  14        5S          0.01941  -0.01850  -0.00050   0.00355  -0.03103
  15        5PX         0.00398  -0.00052   0.00016   0.00070  -0.00566
  16        5PY         0.00195  -0.00330  -0.00000   0.00098  -0.00360
  17        5PZ        -0.00000   0.00000   0.00000  -0.00000  -0.00000
  18        6D 0        0.00002  -0.00001  -0.00003   0.00001  -0.00016
  19        6D+1        0.00000  -0.00000   0.00000   0.00000  -0.00000
  20        6D-1        0.00000  -0.00000  -0.00000  -0.00000   0.00000
  21        6D+2        0.00003   0.00004   0.00019   0.00001  -0.00084
  22        6D-2        0.00000   0.00006   0.00042   0.00001   0.00006
  23 2   C  1S         -0.00000  -0.00000  -0.00001  -0.00001   0.00607
  24        2S          0.00000   0.00001   0.00006   0.00001   0.00523
  25        2PX        -0.00000  -0.00000   0.00007  -0.00001   0.00027
  26        2PY         0.00002   0.00000   0.00009   0.00000   0.00078
  27        2PZ        -0.00000   0.00000   0.00000   0.00000   0.00000
  28        3S         -0.00002  -0.00006  -0.00027  -0.00014  -0.00010
  29        3PX         0.00004   0.00002  -0.00018   0.00005  -0.00129
  30        3PY        -0.00011  -0.00008  -0.00100  -0.00003  -0.00358
  31        3PZ         0.00000  -0.00000  -0.00000  -0.00000  -0.00000
  32        4S         -0.00101   0.00124  -0.00029   0.00209   0.00349
  33        4PX         0.00079  -0.00002   0.00154  -0.00017  -0.00033
  34        4PY        -0.00062   0.00040  -0.00122   0.00128   0.00344
  35        4PZ        -0.00000   0.00000   0.00000   0.00000   0.00000
  36        5S         -0.02661  -0.00282  -0.00049   0.00347   0.02964
  37        5PX         0.00370  -0.00191  -0.00016  -0.00076  -0.00657
  38        5PY        -0.00332  -0.00155  -0.00002   0.00092   0.00288
  39        5PZ         0.00000  -0.00000  -0.00000  -0.00000   0.00000
  40        6D 0       -0.00003   0.00000  -0.00003   0.00001   0.00081
  41        6D+1        0.00000  -0.00000  -0.00000  -0.00000  -0.00000
  42        6D-1        0.00000   0.00000  -0.00000  -0.00000  -0.00000
  43        6D+2        0.00000   0.00005   0.00024   0.00001   0.00196
  44        6D-2       -0.00003  -0.00004  -0.00039  -0.00001  -0.00078
  45 3   C  1S         -0.00000  -0.00000   0.00001  -0.00001  -0.10184
  46        2S          0.00001   0.00001   0.00004  -0.00000  -0.08375
  47        2PX         0.00004  -0.00000   0.00037   0.00003  -0.00013
  48        2PY         0.00007   0.00006   0.00031   0.00002  -0.00008
  49        2PZ        -0.00000   0.00000   0.00000   0.00000   0.00000
  50        3S         -0.00001  -0.00008   0.00022  -0.00003  -0.00408
  51        3PX        -0.00024  -0.00003  -0.00105  -0.00028   0.00015
  52        3PY        -0.00045  -0.00020  -0.00093  -0.00018   0.00019
  53        3PZ         0.00000  -0.00000  -0.00000  -0.00000  -0.00000
  54        4S         -0.00560   0.00247   0.00450  -0.00247   0.00443
  55        4PX        -0.00173   0.00066   0.00387  -0.00231   0.00239
  56        4PY        -0.00057   0.00171   0.00124   0.00132  -0.00182
  57        4PZ        -0.00000   0.00000   0.00000   0.00000  -0.00000
  58        5S         -0.02266   0.02027  -0.00173  -0.00158   0.01877
  59        5PX        -0.00606   0.00368  -0.00047  -0.00139   0.00426
  60        5PY        -0.00172  -0.00279  -0.00121   0.00139  -0.00039
  61        5PZ         0.00000  -0.00000  -0.00000   0.00000   0.00000
  62        6D 0        0.00004  -0.00006   0.00005  -0.00004   0.00021
  63        6D+1        0.00000   0.00000  -0.00000   0.00000  -0.00000
  64        6D-1       -0.00000  -0.00000  -0.00000  -0.00000  -0.00000
  65        6D+2        0.00003   0.00001  -0.00041  -0.00007   0.00029
  66        6D-2       -0.00010  -0.00009  -0.00106  -0.00014   0.00031
  67 4   C  1S          0.00000  -0.00000   0.00001  -0.00001   0.55359
  68        2S         -0.00000   0.00001   0.00004  -0.00000   0.45547
  69        2PX         0.00003  -0.00003  -0.00039  -0.00004  -0.00043
  70        2PY        -0.00002   0.00009   0.00029   0.00002   0.00065
  71        2PZ         0.00000  -0.00000   0.00000   0.00000   0.00000
  72        3S         -0.00004  -0.00006   0.00022  -0.00003   0.01975
  73        3PX        -0.00019   0.00020   0.00111   0.00029   0.00029
  74        3PY         0.00023  -0.00042  -0.00086  -0.00016  -0.00144
  75        3PZ        -0.00000   0.00000  -0.00000  -0.00000  -0.00000
  76        4S          0.00595  -0.00145   0.00450  -0.00247  -0.01470
  77        4PX        -0.00187   0.00046  -0.00394   0.00222   0.00429
  78        4PY         0.00137   0.00103   0.00099   0.00146   0.00342
  79        4PZ         0.00000  -0.00000  -0.00000   0.00000   0.00000
  80        5S          0.03027   0.00223  -0.00173  -0.00150  -0.02902
  81        5PX        -0.00701   0.00098   0.00055   0.00129   0.00702
  82        5PY        -0.00077  -0.00319  -0.00118   0.00145  -0.00214
  83        5PZ        -0.00000   0.00000   0.00000   0.00000  -0.00000
  84        6D 0       -0.00007  -0.00002   0.00005  -0.00004  -0.00182
  85        6D+1       -0.00000   0.00000   0.00000  -0.00000  -0.00000
  86        6D-1        0.00000  -0.00000   0.00000   0.00000   0.00000
  87        6D+2       -0.00001   0.00001  -0.00055  -0.00009  -0.00020
  88        6D-2       -0.00003   0.00013   0.00100   0.00013   0.00153
  89 5   N  1S         -0.00000  -0.00000   0.55736  -0.00002  -0.00004
  90        2S          0.00001   0.00003   0.46572  -0.00006  -0.00005
  91        2PX        -0.00003   0.00001   0.00000  -0.00001   0.00028
  92        2PY         0.00005   0.00016  -0.00004   0.00018  -0.00021
  93        2PZ        -0.00000  -0.00000  -0.00000  -0.00000  -0.00000
  94        3S         -0.00003  -0.00008   0.01619   0.00030   0.00057
  95        3PX         0.00027  -0.00007   0.00002  -0.00000  -0.00021
  96        3PY        -0.00021  -0.00064  -0.00069   0.00005   0.00045
  97        3PZ         0.00000   0.00000  -0.00000   0.00000   0.00000
  98        4S         -0.00031  -0.00091  -0.01687   0.00187  -0.00126
  99        4PX        -0.00520   0.00176  -0.00001   0.00009  -0.00210
 100        4PY        -0.00014   0.00015   0.00055  -0.00256  -0.00005
 101        4PZ        -0.00000   0.00000   0.00000  -0.00000  -0.00000
 102        5S         -0.00169  -0.00501   0.00114   0.00732   0.00764
 103        5PX        -0.01102   0.00381   0.00001  -0.00010   0.01087
 104        5PY        -0.00091  -0.00153  -0.00002   0.00309  -0.00709
 105        5PZ         0.00000   0.00000   0.00000  -0.00000  -0.00000
 106        6D 0        0.00001   0.00004  -0.00043   0.00017   0.00043
 107        6D+1        0.00000   0.00000  -0.00000  -0.00000   0.00000
 108        6D-1       -0.00000   0.00000  -0.00000   0.00000  -0.00000
 109        6D+2        0.00009   0.00026   0.00007   0.00034  -0.00010
 110        6D-2       -0.00001   0.00002   0.00000   0.00002   0.00063
 111 6   H  1S         -0.00004   0.00004  -0.00015   0.00002  -0.00012
 112        2S          0.00025  -0.00052  -0.00041  -0.00063   0.00130
 113        3S         -0.00154   0.00015   0.00172  -0.00194   0.00130
 114        4PX         0.00002  -0.00013  -0.00045  -0.00017   0.00048
 115        4PY         0.00004  -0.00011  -0.00017  -0.00007  -0.00005
 116        4PZ         0.00000  -0.00000  -0.00000  -0.00000  -0.00000
 117 7   H  1S         -0.00001   0.00002  -0.00001  -0.00000  -0.00004
 118        2S          0.00015  -0.00028  -0.00102   0.00004  -0.00052
 119        3S          0.00005   0.00032  -0.00044   0.00031  -0.00018
 120        4PX         0.00002  -0.00001  -0.00015   0.00003  -0.00015
 121        4PY         0.00000  -0.00005  -0.00026  -0.00003  -0.00004
 122        4PZ        -0.00000   0.00000   0.00000   0.00000   0.00000
 123 8   H  1S          0.00002   0.00001  -0.00001  -0.00000  -0.00014
 124        2S         -0.00029  -0.00014  -0.00102   0.00004  -0.00015
 125        3S          0.00016   0.00028  -0.00044   0.00031   0.00092
 126        4PX         0.00003   0.00000   0.00016  -0.00002   0.00001
 127        4PY        -0.00003  -0.00004  -0.00025  -0.00003  -0.00042
 128        4PZ         0.00000  -0.00000  -0.00000  -0.00000   0.00000
 129 9   H  1S          0.00006   0.00001  -0.00015   0.00002   0.00011
 130        2S         -0.00051  -0.00026  -0.00041  -0.00063  -0.00475
 131        3S          0.00131  -0.00081   0.00171  -0.00194   0.00099
 132        4PX         0.00010   0.00009   0.00046   0.00017   0.00233
 133        4PY        -0.00009  -0.00005  -0.00014  -0.00006   0.00089
 134        4PZ        -0.00000   0.00000   0.00000  -0.00000  -0.00000
 135 10  C  1S         -0.00001  -0.00003   0.00001   0.56309   0.00001
 136        2S          0.00004   0.00012  -0.00001   0.46336   0.00001
 137        2PX         0.00043  -0.00015   0.00001   0.00002  -0.00002
 138        2PY         0.00010   0.00023  -0.00033  -0.00060  -0.00001
 139        2PZ        -0.00000  -0.00000   0.00000   0.00000   0.00000
 140        3S          0.00012   0.00035   0.00001   0.01789  -0.00011
 141        3PX        -0.00085   0.00031  -0.00002  -0.00005   0.00013
 142        3PY        -0.00021  -0.00052   0.00059   0.00151   0.00005
 143        3PZ         0.00000   0.00000  -0.00000  -0.00000  -0.00000
 144        4S          0.00134   0.00396   0.00408  -0.00986   0.00062
 145        4PX         0.01211  -0.00416   0.00010  -0.00002   0.00288
 146        4PY         0.00090   0.00135  -0.00307   0.00071  -0.00033
 147        4PZ         0.00000  -0.00000   0.00000   0.00000   0.00000
 148        5S         -0.00056  -0.00164   0.00255  -0.00937   0.00684
 149        5PX        -0.00209   0.00071   0.00004  -0.00009   0.00091
 150        5PY        -0.00011  -0.00011  -0.00129   0.00278  -0.00201
 151        5PZ        -0.00000   0.00000   0.00000  -0.00000  -0.00000
 152        6D 0        0.00008   0.00023  -0.00008  -0.00157  -0.00005
 153        6D+1        0.00000  -0.00000   0.00000   0.00000   0.00000
 154        6D-1       -0.00000  -0.00000   0.00000  -0.00000  -0.00000
 155        6D+2       -0.00023  -0.00084   0.00058   0.00159   0.00004
 156        6D-2       -0.00083   0.00022   0.00004   0.00010  -0.00002
 157 11  O  1S          0.49444   0.24387   0.00000  -0.00007   0.00000
 158        2S          0.42123   0.20782   0.00003  -0.00004   0.00000
 159        2PX        -0.00084  -0.00048  -0.00005  -0.00042   0.00000
 160        2PY        -0.00045  -0.00021  -0.00003  -0.00024  -0.00001
 161        2PZ        -0.00000   0.00000   0.00000  -0.00000  -0.00000
 162        3S          0.01270   0.00576  -0.00014   0.00040   0.00004
 163        3PX        -0.00059  -0.00003   0.00025   0.00126  -0.00000
 164        3PY        -0.00029  -0.00012   0.00016   0.00074   0.00004
 165        3PZ         0.00000  -0.00000  -0.00000   0.00000   0.00000
 166        4S         -0.01244  -0.00291  -0.00038  -0.00359  -0.00079
 167        4PX         0.00193   0.00054  -0.00004   0.00153   0.00031
 168        4PY         0.00176  -0.00032   0.00042   0.00085   0.00047
 169        4PZ        -0.00000   0.00000   0.00000  -0.00000  -0.00000
 170        5S          0.00165   0.00339  -0.00038   0.00431  -0.00450
 171        5PX         0.00096  -0.00038  -0.00006  -0.00171   0.00101
 172        5PY        -0.00033  -0.00066   0.00069  -0.00143   0.00125
 173        5PZ         0.00000  -0.00000  -0.00000   0.00000   0.00000
 174        6D 0       -0.00013  -0.00003   0.00002   0.00053   0.00002
 175        6D+1        0.00000  -0.00000   0.00000  -0.00000   0.00000
 176        6D-1        0.00000  -0.00000  -0.00000  -0.00000  -0.00000
 177        6D+2        0.00021  -0.00012  -0.00000  -0.00040   0.00002
 178        6D-2        0.00009   0.00015  -0.00013  -0.00073  -0.00001
 179 12  O  1S         -0.24387   0.49444   0.00000  -0.00007   0.00000
 180        2S         -0.20773   0.42128   0.00003  -0.00004   0.00001
 181        2PX        -0.00039   0.00091   0.00005   0.00044   0.00001
 182        2PY         0.00020  -0.00038  -0.00003  -0.00021  -0.00001
 183        2PZ        -0.00000   0.00000  -0.00000   0.00000   0.00000
 184        3S         -0.00657   0.01230  -0.00014   0.00040  -0.00009
 185        3PX        -0.00046   0.00040  -0.00026  -0.00130  -0.00006
 186        3PY         0.00013  -0.00025   0.00014   0.00066   0.00006
 187        3PZ         0.00000   0.00000   0.00000  -0.00000  -0.00000
 188        4S          0.00810  -0.00988  -0.00038  -0.00359   0.00073
 189        4PX         0.00131  -0.00165   0.00001  -0.00158   0.00045
 190        4PY        -0.00151   0.00071   0.00042   0.00074  -0.00044
 191        4PZ         0.00000  -0.00000  -0.00000  -0.00000   0.00000
 192        5S          0.00076   0.00370  -0.00038   0.00432   0.00609
 193        5PX         0.00100  -0.00023   0.00001   0.00180   0.00146
 194        5PY        -0.00007  -0.00074   0.00069  -0.00131  -0.00164
 195        5PZ         0.00000   0.00000   0.00000   0.00000   0.00000
 196        6D 0        0.00008  -0.00010   0.00002   0.00053  -0.00001
 197        6D+1       -0.00000   0.00000  -0.00000  -0.00000  -0.00000
 198        6D-1       -0.00000  -0.00000   0.00000   0.00000  -0.00000
 199        6D+2       -0.00024   0.00006  -0.00002  -0.00049  -0.00001
 200        6D-2       -0.00005  -0.00017   0.00013   0.00068  -0.00001
                           6         7         8         9        10
                           O         O         O         O         O
     Eigenvalues --   -10.18074 -10.15308 -10.15266  -1.04640  -0.95567
   1 1   C  1S          0.00608   0.39511   0.40088  -0.00470  -0.02661
   2        2S          0.00525   0.32516   0.32975  -0.00720  -0.04078
   3        2PX        -0.00028   0.00045  -0.00047   0.00181   0.01032
   4        2PY         0.00073  -0.00018  -0.00020   0.00477   0.02353
   5        2PZ         0.00000  -0.00000   0.00000   0.00000   0.00000
   6        3S         -0.00009   0.01413   0.01413   0.01801   0.10219
   7        3PX         0.00121  -0.00177   0.00119   0.00229   0.01366
   8        3PY        -0.00341   0.00101   0.00084   0.00770   0.03329
   9        3PZ        -0.00000   0.00000  -0.00000   0.00000   0.00000
  10        4S          0.00225  -0.00718  -0.01674   0.00343   0.04461
  11        4PX        -0.00006  -0.00084  -0.00589   0.00337   0.00706
  12        4PY         0.00263  -0.00231  -0.00779   0.00171   0.00926
  13        4PZ         0.00000  -0.00000   0.00000   0.00000   0.00000
  14        5S          0.01992   0.00572   0.01912   0.04971  -0.03913
  15        5PX         0.00467   0.00054   0.00348  -0.00664  -0.00238
  16        5PY         0.00216   0.00192   0.00227   0.00995  -0.01014
  17        5PZ        -0.00000   0.00000  -0.00000   0.00000  -0.00000
  18        6D 0        0.00081  -0.00092  -0.00179  -0.00129  -0.00659
  19        6D+1        0.00000  -0.00000  -0.00000  -0.00000   0.00000
  20        6D-1       -0.00000   0.00000   0.00000   0.00000   0.00000
  21        6D+2        0.00166  -0.00146   0.00030  -0.00120  -0.00317
  22        6D-2        0.00111   0.00016   0.00088   0.00025   0.00222
  23 2   C  1S          0.00112   0.40082  -0.39517  -0.00470  -0.02661
  24        2S          0.00099   0.32986  -0.32505  -0.00720  -0.04078
  25        2PX        -0.00005  -0.00043  -0.00049  -0.00211  -0.01181
  26        2PY         0.00005  -0.00021   0.00016   0.00464   0.02281
  27        2PZ        -0.00000   0.00000   0.00000   0.00000   0.00000
  28        3S         -0.00000   0.01433  -0.01392   0.01801   0.10219
  29        3PX         0.00060   0.00168   0.00127  -0.00278  -0.01576
  30        3PY        -0.00039   0.00113  -0.00075   0.00753   0.03233
  31        3PZ         0.00000  -0.00000  -0.00000  -0.00000   0.00000
  32        4S         -0.00284  -0.00740   0.01663   0.00345   0.04443
  33        4PX         0.00053   0.00107  -0.00636  -0.00348  -0.00758
  34        4PY        -0.00164  -0.00235   0.00736   0.00150   0.00869
  35        4PZ        -0.00000   0.00000   0.00000   0.00000   0.00000
  36        5S         -0.02192   0.00600  -0.01902   0.04945  -0.04032
  37        5PX         0.00379  -0.00072   0.00361   0.00597   0.00310
  38        5PY        -0.00235   0.00191  -0.00202   0.01029  -0.01020
  39        5PZ         0.00000  -0.00000  -0.00000  -0.00000   0.00000
  40        6D 0        0.00014  -0.00095   0.00178  -0.00129  -0.00659
  41        6D+1        0.00000   0.00000   0.00000   0.00000  -0.00000
  42        6D-1        0.00000   0.00000  -0.00000   0.00000   0.00000
  43        6D+2       -0.00014  -0.00142  -0.00043  -0.00116  -0.00285
  44        6D-2       -0.00048  -0.00036   0.00083  -0.00040  -0.00260
  45 3   C  1S          0.55359  -0.00445  -0.00450  -0.01319  -0.04719
  46        2S          0.45549  -0.00349  -0.00356  -0.02018  -0.07242
  47        2PX         0.00036   0.00015   0.00020   0.01179   0.04380
  48        2PY         0.00069  -0.00058  -0.00051   0.00758   0.01203
  49        2PZ        -0.00000   0.00000  -0.00000  -0.00000  -0.00000
  50        3S          0.01958  -0.00031  -0.00021   0.05082   0.18468
  51        3PX        -0.00015  -0.00096  -0.00068   0.01872   0.06543
  52        3PY        -0.00148   0.00268   0.00188   0.01338   0.01945
  53        3PZ         0.00000  -0.00000   0.00000   0.00000   0.00000
  54        4S         -0.01403  -0.00234   0.00580   0.01511   0.07808
  55        4PX        -0.00390  -0.00008   0.00435  -0.00150   0.00459
  56        4PY         0.00267  -0.00065  -0.00282  -0.00587  -0.00055
  57        4PZ        -0.00000   0.00000  -0.00000  -0.00000  -0.00000
  58        5S         -0.02391  -0.01383  -0.01124  -0.03612   0.08406
  59        5PX        -0.00573  -0.00279  -0.00206  -0.00047   0.01941
  60        5PY        -0.00291   0.00024   0.00021   0.02149   0.00125
  61        5PZ         0.00000  -0.00000   0.00000  -0.00000   0.00000
  62        6D 0       -0.00187   0.00061   0.00067  -0.00367  -0.01227
  63        6D+1       -0.00000  -0.00000   0.00000  -0.00000   0.00000
  64        6D-1        0.00000  -0.00000  -0.00000  -0.00000  -0.00000
  65        6D+2        0.00010   0.00123   0.00045   0.00103   0.00741
  66        6D-2       -0.00154   0.00090   0.00100   0.00439   0.00770
  67 4   C  1S          0.10182  -0.00451   0.00443  -0.01318  -0.04716
  68        2S          0.08382  -0.00353   0.00351  -0.02017  -0.07237
  69        2PX        -0.00002  -0.00011   0.00017  -0.01225  -0.04446
  70        2PY         0.00017  -0.00060   0.00051   0.00680   0.00916
  71        2PZ        -0.00000  -0.00000   0.00000   0.00000   0.00000
  72        3S          0.00315  -0.00031   0.00020   0.05078   0.18455
  73        3PX        -0.00007   0.00080  -0.00055  -0.01954  -0.06653
  74        3PY        -0.00035   0.00277  -0.00188   0.01214   0.01518
  75        3PZ         0.00000   0.00000  -0.00000   0.00000   0.00000
  76        4S         -0.00086  -0.00227  -0.00584   0.01511   0.07840
  77        4PX        -0.00079   0.00007   0.00417   0.00188  -0.00468
  78        4PY        -0.00080  -0.00069   0.00308  -0.00574  -0.00086
  79        4PZ        -0.00000  -0.00000  -0.00000  -0.00000  -0.00000
  80        5S          0.00904  -0.01401   0.01103  -0.03584   0.08555
  81        5PX        -0.00185   0.00280  -0.00201  -0.00093  -0.01974
  82        5PY        -0.00152   0.00042  -0.00033   0.02138  -0.00012
  83        5PZ        -0.00000   0.00000   0.00000   0.00000  -0.00000
  84        6D 0       -0.00047   0.00062  -0.00066  -0.00367  -0.01226
  85        6D+1       -0.00000  -0.00000   0.00000  -0.00000  -0.00000
  86        6D-1       -0.00000  -0.00000   0.00000   0.00000   0.00000
  87        6D+2        0.00027   0.00135  -0.00056   0.00159   0.00834
  88        6D-2        0.00030  -0.00075   0.00092  -0.00422  -0.00669
  89 5   N  1S         -0.00006   0.00000   0.00000  -0.03938  -0.08601
  90        2S         -0.00007   0.00005   0.00000  -0.06187  -0.13522
  91        2PX        -0.00018   0.00000  -0.00005  -0.00033   0.00118
  92        2PY        -0.00032  -0.00004  -0.00000   0.00975  -0.03900
  93        2PZ        -0.00000   0.00000   0.00000  -0.00000  -0.00000
  94        3S          0.00082  -0.00017  -0.00000   0.16937   0.37237
  95        3PX         0.00011  -0.00002   0.00028  -0.00068   0.00181
  96        3PY         0.00067   0.00049   0.00001   0.02031  -0.05911
  97        3PZ         0.00000  -0.00000  -0.00000  -0.00000  -0.00000
  98        4S         -0.00183  -0.00184  -0.00001   0.11441   0.26190
  99        4PX         0.00145   0.00007   0.00217  -0.00018   0.00028
 100        4PY         0.00007  -0.00272   0.00005   0.00525  -0.01431
 101        4PZ        -0.00000   0.00000   0.00000   0.00000  -0.00000
 102        5S          0.01108   0.00183   0.00002  -0.02236  -0.09053
 103        5PX        -0.00698   0.00057  -0.00479  -0.00034  -0.00178
 104        5PY        -0.01101  -0.01648  -0.00027   0.00991   0.04761
 105        5PZ         0.00000  -0.00000  -0.00000   0.00000   0.00000
 106        6D 0        0.00062   0.00006   0.00000  -0.00582  -0.01036
 107        6D+1       -0.00000   0.00000  -0.00000  -0.00000  -0.00000
 108        6D-1       -0.00000   0.00000  -0.00000  -0.00000   0.00000
 109        6D+2       -0.00006  -0.00027   0.00001  -0.00452  -0.00077
 110        6D-2       -0.00044  -0.00002  -0.00026  -0.00029  -0.00007
 111 6   H  1S          0.00007  -0.00011  -0.00006   0.00460   0.01353
 112        2S         -0.00460  -0.00035   0.00082   0.00640   0.01236
 113        3S          0.00156   0.00071   0.00107  -0.00047  -0.00613
 114        4PX        -0.00237  -0.00019   0.00009   0.00169   0.00277
 115        4PY         0.00077   0.00030   0.00014   0.00065   0.00025
 116        4PZ        -0.00000   0.00000   0.00000   0.00000   0.00000
 117 7   H  1S         -0.00016   0.00009   0.00023   0.00063   0.00576
 118        2S         -0.00036  -0.00330  -0.00410   0.00220   0.00673
 119        3S          0.00092   0.00170  -0.00095  -0.00089   0.00049
 120        4PX        -0.00004  -0.00117  -0.00089  -0.00001   0.00017
 121        4PY        -0.00046  -0.00139  -0.00146   0.00032   0.00075
 122        4PZ        -0.00000   0.00000  -0.00000  -0.00000  -0.00000
 123 8   H  1S         -0.00009   0.00010  -0.00023   0.00063   0.00576
 124        2S         -0.00061  -0.00335   0.00405   0.00220   0.00671
 125        3S          0.00016   0.00169   0.00097  -0.00089   0.00047
 126        4PX         0.00017   0.00127  -0.00097  -0.00001  -0.00022
 127        4PY        -0.00019  -0.00134   0.00138   0.00032   0.00074
 128        4PZ         0.00000  -0.00000   0.00000  -0.00000  -0.00000
 129 9   H  1S         -0.00008  -0.00011   0.00006   0.00458   0.01350
 130        2S         -0.00042  -0.00034  -0.00082   0.00638   0.01231
 131        3S          0.00177   0.00072  -0.00106  -0.00048  -0.00606
 132        4PX         0.00038   0.00017   0.00010  -0.00173  -0.00277
 133        4PY         0.00025   0.00031  -0.00013   0.00054   0.00007
 134        4PZ         0.00000   0.00000  -0.00000  -0.00000  -0.00000
 135 10  C  1S          0.00001   0.00000   0.00000  -0.07869   0.01512
 136        2S          0.00002   0.00003   0.00000  -0.12024   0.02286
 137        2PX         0.00002   0.00000  -0.00001  -0.00089   0.00098
 138        2PY        -0.00002  -0.00004  -0.00000   0.02758  -0.04959
 139        2PZ        -0.00000   0.00000   0.00000  -0.00000   0.00000
 140        3S         -0.00016  -0.00039  -0.00000   0.32366  -0.06334
 141        3PX        -0.00009  -0.00000   0.00010  -0.00099   0.00154
 142        3PY         0.00007   0.00012   0.00000   0.03060  -0.07223
 143        3PZ         0.00000  -0.00000  -0.00000  -0.00000   0.00000
 144        4S          0.00090   0.00345   0.00003   0.07477  -0.01764
 145        4PX        -0.00196   0.00014  -0.00242   0.00013  -0.00009
 146        4PY        -0.00069  -0.00370  -0.00011  -0.00434   0.00675
 147        4PZ        -0.00000   0.00000  -0.00000  -0.00000  -0.00000
 148        5S          0.00990   0.01247   0.00009   0.00352  -0.04448
 149        5PX        -0.00048   0.00013   0.00009  -0.00016  -0.00039
 150        5PY        -0.00298  -0.00395  -0.00002   0.00526   0.00968
 151        5PZ        -0.00000   0.00000  -0.00000  -0.00000  -0.00000
 152        6D 0       -0.00007  -0.00015  -0.00000  -0.02065   0.00314
 153        6D+1        0.00000  -0.00000  -0.00000   0.00000  -0.00000
 154        6D-1       -0.00000   0.00000   0.00000  -0.00000  -0.00000
 155        6D+2        0.00005   0.00001  -0.00001   0.01716  -0.01811
 156        6D-2        0.00002  -0.00000   0.00010   0.00113  -0.00129
 157 11  O  1S          0.00000   0.00000  -0.00000  -0.06494   0.02995
 158        2S          0.00001   0.00001   0.00000  -0.10358   0.04788
 159        2PX        -0.00001  -0.00002  -0.00002  -0.04413   0.01930
 160        2PY        -0.00002  -0.00002   0.00001  -0.02181   0.00316
 161        2PZ        -0.00000   0.00000  -0.00000  -0.00000   0.00000
 162        3S         -0.00009  -0.00003  -0.00002   0.29601  -0.13781
 163        3PX         0.00006   0.00009   0.00008  -0.06554   0.02773
 164        3PY         0.00008   0.00007  -0.00005  -0.03109   0.00385
 165        3PZ         0.00000  -0.00000   0.00000  -0.00000   0.00000
 166        4S          0.00048  -0.00029   0.00057   0.20029  -0.09839
 167        4PX        -0.00033  -0.00020  -0.00025  -0.02276   0.01141
 168        4PY        -0.00032   0.00017  -0.00004  -0.01092  -0.00101
 169        4PZ        -0.00000   0.00000  -0.00000  -0.00000   0.00000
 170        5S          0.00480   0.00424   0.00289  -0.01814  -0.00268
 171        5PX        -0.00106  -0.00114  -0.00080   0.00167   0.00197
 172        5PY        -0.00137  -0.00140  -0.00092   0.00294   0.00108
 173        5PZ         0.00000  -0.00000   0.00000   0.00000   0.00000
 174        6D 0       -0.00000  -0.00001   0.00002  -0.00452   0.00150
 175        6D+1        0.00000   0.00000  -0.00000   0.00000  -0.00000
 176        6D-1        0.00000  -0.00000   0.00000   0.00000  -0.00000
 177        6D+2       -0.00000   0.00000  -0.00001   0.00636  -0.00386
 178        6D-2        0.00000  -0.00003  -0.00000   0.00667  -0.00137
 179 12  O  1S          0.00000   0.00000   0.00000  -0.06493   0.02919
 180        2S          0.00001   0.00001  -0.00000  -0.10357   0.04667
 181        2PX         0.00000   0.00002  -0.00002   0.04545  -0.01907
 182        2PY        -0.00002  -0.00001  -0.00002  -0.01888   0.00165
 183        2PZ        -0.00000  -0.00000  -0.00000   0.00000  -0.00000
 184        3S          0.00000  -0.00003   0.00002   0.29596  -0.13434
 185        3PX        -0.00003  -0.00009   0.00007   0.06742  -0.02734
 186        3PY         0.00006   0.00006   0.00006  -0.02673   0.00167
 187        3PZ        -0.00000   0.00000   0.00000   0.00000  -0.00000
 188        4S         -0.00056  -0.00028  -0.00057   0.20026  -0.09569
 189        4PX        -0.00020   0.00019  -0.00025   0.02342  -0.01109
 190        4PY         0.00031   0.00018   0.00002  -0.00942  -0.00195
 191        4PZ        -0.00000  -0.00000  -0.00000   0.00000   0.00000
 192        5S         -0.00250   0.00428  -0.00283  -0.01816  -0.00275
 193        5PX        -0.00061   0.00125  -0.00085  -0.00186  -0.00200
 194        5PY         0.00064  -0.00133   0.00085   0.00283   0.00099
 195        5PZ         0.00000   0.00000   0.00000   0.00000   0.00000
 196        6D 0        0.00002  -0.00001  -0.00002  -0.00452   0.00145
 197        6D+1        0.00000  -0.00000   0.00000   0.00000  -0.00000
 198        6D-1        0.00000  -0.00000  -0.00000  -0.00000   0.00000
 199        6D+2        0.00001   0.00000   0.00001   0.00717  -0.00396
 200        6D-2        0.00001   0.00003   0.00000  -0.00578   0.00077
                          11        12        13        14        15
                           O         O         O         O         O
     Eigenvalues --    -0.95145  -0.76816  -0.71343  -0.60109  -0.56221
   1 1   C  1S         -0.00029  -0.06978   0.03978  -0.04026  -0.05463
   2        2S         -0.00043  -0.10772   0.06147  -0.06276  -0.08549
   3        2PX        -0.00033   0.02714   0.03480   0.02084  -0.05665
   4        2PY         0.00038   0.02066  -0.03262  -0.05700  -0.00825
   5        2PZ        -0.00000   0.00000  -0.00000  -0.00000   0.00000
   6        3S          0.00063   0.27873  -0.16089   0.16832   0.22931
   7        3PX        -0.00036   0.04091   0.05134   0.03422  -0.07948
   8        3PY         0.00119   0.02478  -0.04587  -0.07877  -0.01088
   9        3PZ         0.00000   0.00000  -0.00000  -0.00000   0.00000
  10        4S          0.01840   0.15635  -0.09390   0.11490   0.15666
  11        4PX         0.00632   0.01057   0.00561   0.00950  -0.04352
  12        4PY         0.00954   0.01211  -0.01471  -0.03471  -0.01230
  13        4PZ        -0.00000   0.00000  -0.00000  -0.00000  -0.00000
  14        5S          0.14372   0.01140   0.05848  -0.03365  -0.06081
  15        5PX         0.00485  -0.00784   0.02307  -0.00809   0.00141
  16        5PY         0.02929  -0.00138   0.00642  -0.01377  -0.02763
  17        5PZ         0.00000  -0.00000   0.00000   0.00000   0.00000
  18        6D 0       -0.00007  -0.01094   0.00440  -0.00252  -0.00478
  19        6D+1        0.00000   0.00000   0.00000   0.00000  -0.00000
  20        6D-1       -0.00000   0.00000  -0.00000  -0.00000   0.00000
  21        6D+2       -0.00021   0.00468   0.01112   0.00912  -0.00669
  22        6D-2       -0.00019   0.00269   0.00617  -0.00045   0.00139
  23 2   C  1S          0.00055  -0.06978  -0.03976  -0.04031   0.05460
  24        2S          0.00082  -0.10772  -0.06143  -0.06283   0.08545
  25        2PX        -0.00019  -0.02841   0.03266  -0.01710  -0.05713
  26        2PY        -0.00061   0.01887   0.03478  -0.05821   0.00455
  27        2PZ        -0.00000   0.00000   0.00000  -0.00000  -0.00000
  28        3S         -0.00162   0.27873   0.16080   0.16851  -0.22919
  29        3PX        -0.00014  -0.04241   0.04833  -0.02903  -0.08011
  30        3PY        -0.00152   0.02211   0.04907  -0.08079   0.00571
  31        3PZ         0.00000   0.00000   0.00000  -0.00000   0.00000
  32        4S         -0.01881   0.15636   0.09384   0.11497  -0.15661
  33        4PX         0.00700  -0.01134   0.00465  -0.00721  -0.04426
  34        4PY        -0.00919   0.01140   0.01504  -0.03528   0.00946
  35        4PZ        -0.00000   0.00000   0.00000   0.00000   0.00000
  36        5S         -0.14318   0.01132  -0.05847  -0.03323   0.06082
  37        5PX         0.00671   0.00786   0.02343   0.00901  -0.00034
  38        5PY        -0.02879  -0.00093  -0.00493  -0.01312   0.02766
  39        5PZ        -0.00000   0.00000   0.00000  -0.00000  -0.00000
  40        6D 0        0.00013  -0.01094  -0.00440  -0.00252   0.00478
  41        6D+1       -0.00000  -0.00000   0.00000   0.00000  -0.00000
  42        6D-1       -0.00000   0.00000   0.00000  -0.00000  -0.00000
  43        6D+2        0.00026   0.00499  -0.01182   0.00898   0.00647
  44        6D-2       -0.00014  -0.00206   0.00470   0.00162   0.00223
  45 3   C  1S         -0.00302  -0.01943   0.07552   0.03001   0.01690
  46        2S         -0.00463  -0.03010   0.11713   0.04699   0.02646
  47        2PX         0.00082   0.00364  -0.00737  -0.02835  -0.00986
  48        2PY         0.00323  -0.05941   0.00549  -0.01295  -0.10233
  49        2PZ        -0.00000  -0.00000   0.00000  -0.00000  -0.00000
  50        3S          0.01197   0.07755  -0.31310  -0.12823  -0.07430
  51        3PX         0.00032   0.00217  -0.01179  -0.04043  -0.01519
  52        3PY         0.00338  -0.08616   0.00495  -0.02071  -0.14308
  53        3PZ        -0.00000  -0.00000   0.00000  -0.00000  -0.00000
  54        4S         -0.03128   0.04837  -0.16927  -0.07649  -0.02548
  55        4PX        -0.01316   0.00002   0.00109  -0.00630   0.01111
  56        4PY        -0.00050  -0.01463   0.01213  -0.00894  -0.04553
  57        4PZ         0.00000  -0.00000  -0.00000   0.00000  -0.00000
  58        5S         -0.17587   0.03252  -0.03476   0.02102   0.02068
  59        5PX        -0.03282   0.01069  -0.00836   0.00774  -0.00454
  60        5PY         0.01607   0.01578  -0.02210  -0.00950  -0.02011
  61        5PZ        -0.00000   0.00000  -0.00000  -0.00000  -0.00000
  62        6D 0       -0.00060  -0.00373   0.00956   0.00528   0.00314
  63        6D+1        0.00000  -0.00000   0.00000  -0.00000  -0.00000
  64        6D-1       -0.00000   0.00000  -0.00000   0.00000   0.00000
  65        6D+2       -0.00031  -0.00174   0.00564  -0.01501  -0.00622
  66        6D-2        0.00045  -0.01770  -0.00075  -0.00180  -0.00885
  67 4   C  1S          0.00346  -0.01944  -0.07553   0.02999  -0.01684
  68        2S          0.00531  -0.03012  -0.11714   0.04696  -0.02635
  69        2PX         0.00145   0.00017  -0.00703   0.02916  -0.01649
  70        2PY        -0.00325  -0.05949  -0.00594  -0.01117   0.10147
  71        2PZ         0.00000  -0.00000  -0.00000  -0.00000   0.00000
  72        3S         -0.01370   0.07759   0.31313  -0.12815   0.07401
  73        3PX         0.00117   0.00334  -0.01149   0.04171  -0.02446
  74        3PY        -0.00348  -0.08609  -0.00568  -0.01817   0.14181
  75        3PZ        -0.00000  -0.00000   0.00000  -0.00000   0.00000
  76        4S          0.03054   0.04839   0.16930  -0.07641   0.02522
  77        4PX        -0.01312   0.00093   0.00187   0.00683   0.00814
  78        4PY        -0.00030  -0.01461  -0.01205  -0.00858   0.04611
  79        4PZ         0.00000   0.00000  -0.00000  -0.00000  -0.00000
  80        5S          0.17495   0.03267   0.03477   0.02051  -0.02072
  81        5PX        -0.03154  -0.01167  -0.00975  -0.00707  -0.00582
  82        5PY        -0.01805   0.01497   0.02152  -0.00982   0.01978
  83        5PZ         0.00000  -0.00000  -0.00000   0.00000   0.00000
  84        6D 0        0.00072  -0.00373  -0.00957   0.00528  -0.00313
  85        6D+1       -0.00000   0.00000  -0.00000   0.00000  -0.00000
  86        6D-1        0.00000  -0.00000   0.00000   0.00000   0.00000
  87        6D+2        0.00017  -0.00399  -0.00548  -0.01512   0.00730
  88        6D-2        0.00055   0.01733  -0.00147  -0.00013  -0.00801
  89 5   N  1S          0.00040   0.05518  -0.00001  -0.00868  -0.00003
  90        2S          0.00063   0.08747  -0.00002  -0.01391  -0.00005
  91        2PX        -0.01309   0.00157   0.09759  -0.00480   0.12795
  92        2PY        -0.00023  -0.04799   0.00311   0.14795   0.00414
  93        2PZ        -0.00000   0.00000  -0.00000  -0.00000  -0.00000
  94        3S         -0.00172  -0.24958   0.00005   0.04034   0.00014
  95        3PX        -0.01769   0.00239   0.14568  -0.00712   0.18755
  96        3PY        -0.00028  -0.07324   0.00465   0.21946   0.00607
  97        3PZ        -0.00000   0.00000  -0.00000  -0.00000  -0.00000
  98        4S         -0.00121  -0.19905   0.00004   0.04979   0.00015
  99        4PX        -0.03489   0.00160   0.08386  -0.00453   0.13912
 100        4PY        -0.00104  -0.04909   0.00268   0.13968   0.00448
 101        4PZ        -0.00000   0.00000  -0.00000  -0.00000  -0.00000
 102        5S          0.00041  -0.01323   0.00003  -0.00976   0.00004
 103        5PX        -0.05108  -0.00230  -0.02664   0.00110  -0.00470
 104        5PY        -0.00187   0.07132  -0.00083  -0.03310  -0.00018
 105        5PZ        -0.00000  -0.00000   0.00000  -0.00000   0.00000
 106        6D 0        0.00005   0.00223   0.00000   0.00033   0.00000
 107        6D+1        0.00000   0.00000  -0.00000   0.00000  -0.00000
 108        6D-1       -0.00000   0.00000   0.00000  -0.00000   0.00000
 109        6D+2        0.00020  -0.00151   0.00091  -0.00916   0.00045
 110        6D-2       -0.00304  -0.00009  -0.01421  -0.00060  -0.00722
 111 6   H  1S          0.00264   0.00249  -0.05595  -0.01561  -0.03540
 112        2S          0.00374  -0.00113  -0.06492  -0.01646  -0.04345
 113        3S         -0.00659  -0.00188  -0.00225   0.00011  -0.00560
 114        4PX         0.00075  -0.00263  -0.00911  -0.00142  -0.00605
 115        4PY         0.00068  -0.00180   0.00481  -0.00115  -0.00223
 116        4PZ        -0.00000   0.00000   0.00000  -0.00000   0.00000
 117 7   H  1S          0.00000   0.03602  -0.02813   0.05839   0.08002
 118        2S          0.00171   0.04002  -0.03410   0.07309   0.09985
 119        3S          0.00155  -0.00177  -0.00300   0.00657   0.01305
 120        4PX         0.00010   0.00432  -0.00085   0.00783   0.00503
 121        4PY         0.00011   0.00466  -0.00599   0.00713   0.01085
 122        4PZ         0.00000   0.00000  -0.00000   0.00000   0.00000
 123 8   H  1S         -0.00006   0.03603   0.02812   0.05845  -0.07999
 124        2S         -0.00178   0.04003   0.03409   0.07316  -0.09981
 125        3S         -0.00156  -0.00177   0.00300   0.00657  -0.01305
 126        4PX         0.00011  -0.00461  -0.00123  -0.00827   0.00571
 127        4PY        -0.00011   0.00437   0.00592   0.00662  -0.01050
 128        4PZ         0.00000  -0.00000   0.00000   0.00000  -0.00000
 129 9   H  1S         -0.00276   0.00251   0.05594  -0.01559   0.03524
 130        2S         -0.00385  -0.00111   0.06491  -0.01641   0.04326
 131        3S          0.00665  -0.00189   0.00224   0.00013   0.00555
 132        4PX         0.00082   0.00273  -0.00879   0.00148  -0.00617
 133        4PY        -0.00063  -0.00164  -0.00538  -0.00106   0.00186
 134        4PZ        -0.00000  -0.00000   0.00000  -0.00000   0.00000
 135 10  C  1S         -0.00007   0.01456   0.00000  -0.04373  -0.00002
 136        2S         -0.00011   0.02294   0.00000  -0.06916  -0.00003
 137        2PX        -0.13622  -0.00212  -0.00248   0.00329   0.01025
 138        2PY        -0.00424   0.06463  -0.00006  -0.10090   0.00033
 139        2PZ        -0.00000  -0.00000  -0.00000   0.00000  -0.00000
 140        3S          0.00030  -0.06315  -0.00000   0.20317   0.00009
 141        3PX        -0.17504  -0.00312  -0.00287   0.00485   0.01476
 142        3PY        -0.00540   0.09512  -0.00006  -0.14867   0.00047
 143        3PZ        -0.00000  -0.00000  -0.00000   0.00000  -0.00000
 144        4S          0.00007  -0.02919  -0.00001   0.12222   0.00008
 145        4PX         0.02472  -0.00039  -0.01173   0.00123  -0.00750
 146        4PY         0.00079   0.01226  -0.00037  -0.03829  -0.00025
 147        4PZ         0.00000   0.00000  -0.00000   0.00000  -0.00000
 148        5S          0.00018  -0.07666  -0.00001   0.03676   0.00002
 149        5PX        -0.01466  -0.00082  -0.01043   0.00052  -0.00985
 150        5PY        -0.00052   0.02539  -0.00033  -0.01646  -0.00032
 151        5PZ         0.00000  -0.00000  -0.00000  -0.00000  -0.00000
 152        6D 0       -0.00002   0.00352   0.00000  -0.00640   0.00000
 153        6D+1        0.00000   0.00000   0.00000  -0.00000   0.00000
 154        6D-1       -0.00000   0.00000  -0.00000  -0.00000  -0.00000
 155        6D+2        0.00168   0.01494   0.00066  -0.01146   0.00095
 156        6D-2       -0.02426   0.00097  -0.01000  -0.00075  -0.01460
 157 11  O  1S          0.08141  -0.01654   0.00710   0.02377   0.00892
 158        2S          0.13024  -0.02661   0.01142   0.03845   0.01440
 159        2PX         0.04034  -0.00674   0.00287  -0.00888  -0.00144
 160        2PY         0.02743   0.00964  -0.00358  -0.03437  -0.01356
 161        2PZ         0.00000  -0.00000  -0.00000   0.00000  -0.00000
 162        3S         -0.37297   0.07793  -0.03395  -0.11404  -0.04346
 163        3PX         0.05941  -0.00985   0.00340  -0.01107  -0.00299
 164        3PY         0.04138   0.01429  -0.00466  -0.04936  -0.01893
 165        3PZ         0.00000  -0.00000  -0.00000   0.00000  -0.00000
 166        4S         -0.28951   0.06544  -0.02506  -0.11782  -0.03816
 167        4PX         0.02267  -0.00432   0.00072  -0.00598  -0.00213
 168        4PY         0.02204   0.00916  -0.00510  -0.03057  -0.01495
 169        4PZ         0.00000  -0.00000   0.00000   0.00000  -0.00000
 170        5S          0.00917  -0.00771   0.01525  -0.01415   0.00013
 171        5PX         0.00388   0.00144  -0.00335   0.00068   0.00066
 172        5PY        -0.00512   0.00471  -0.00361  -0.00045  -0.00082
 173        5PZ        -0.00000   0.00000   0.00000  -0.00000   0.00000
 174        6D 0        0.00509  -0.00015  -0.00025  -0.00094  -0.00094
 175        6D+1       -0.00000   0.00000   0.00000  -0.00000   0.00000
 176        6D-1       -0.00000   0.00000   0.00000  -0.00000   0.00000
 177        6D+2       -0.00351   0.00298  -0.00029  -0.00354  -0.00034
 178        6D-2       -0.01002  -0.00131  -0.00033   0.00433   0.00070
 179 12  O  1S         -0.08169  -0.01656  -0.00711   0.02377  -0.00891
 180        2S         -0.13069  -0.02663  -0.01144   0.03846  -0.01439
 181        2PX         0.04222   0.00610   0.00265   0.01112  -0.00228
 182        2PY        -0.02475   0.01007   0.00377  -0.03371   0.01344
 183        2PZ         0.00000  -0.00000  -0.00000   0.00000  -0.00000
 184        3S          0.37426   0.07800   0.03402  -0.11406   0.04342
 185        3PX         0.06224   0.00890   0.00311   0.01429  -0.00416
 186        3PY        -0.03743   0.01490   0.00489  -0.04852   0.01870
 187        3PZ         0.00000  -0.00000  -0.00000   0.00000  -0.00000
 188        4S          0.29044   0.06551   0.02511  -0.11786   0.03807
 189        4PX         0.02417   0.00372   0.00039   0.00797  -0.00307
 190        4PY        -0.02051   0.00943   0.00516  -0.03010   0.01480
 191        4PZ         0.00000  -0.00000   0.00000   0.00000  -0.00000
 192        5S         -0.00915  -0.00768  -0.01527  -0.01418  -0.00016
 193        5PX         0.00355  -0.00174  -0.00359  -0.00066   0.00061
 194        5PY         0.00536   0.00460   0.00339  -0.00050   0.00085
 195        5PZ        -0.00000  -0.00000  -0.00000   0.00000   0.00000
 196        6D 0       -0.00511  -0.00015   0.00025  -0.00094   0.00093
 197        6D+1        0.00000   0.00000  -0.00000   0.00000  -0.00000
 198        6D-1       -0.00000   0.00000   0.00000  -0.00000   0.00000
 199        6D+2        0.00482   0.00279   0.00033  -0.00295   0.00025
 200        6D-2       -0.00949   0.00169  -0.00029  -0.00476   0.00073
                          16        17        18        19        20
                           O         O         O         O         O
     Eigenvalues --    -0.53677  -0.46831  -0.43707  -0.42850  -0.42684
   1 1   C  1S          0.00695   0.00401  -0.00000   0.00528   0.01615
   2        2S          0.01118   0.00621  -0.00000   0.00841   0.02558
   3        2PX        -0.07288   0.00367  -0.00000  -0.04407   0.01052
   4        2PY         0.00581   0.09115  -0.00000  -0.09616   0.02799
   5        2PZ         0.00000   0.00000   0.03706  -0.00000   0.00000
   6        3S         -0.03108  -0.01540  -0.00000  -0.02543  -0.06907
   7        3PX        -0.10230   0.00353  -0.00000  -0.06171   0.01393
   8        3PY         0.00928   0.12488  -0.00000  -0.13023   0.03524
   9        3PZ         0.00000   0.00000   0.05714  -0.00000   0.00000
  10        4S         -0.02793  -0.02884   0.00000  -0.02199  -0.11447
  11        4PX        -0.04670   0.00563   0.00000  -0.02950  -0.00697
  12        4PY        -0.00579   0.06809   0.00000  -0.08448   0.00726
  13        4PZ        -0.00000  -0.00000   0.03472  -0.00000   0.00000
  14        5S          0.06168  -0.04231   0.00000  -0.04059   0.08352
  15        5PX        -0.00055   0.00739   0.00000   0.00104   0.03185
  16        5PY         0.01317  -0.00374  -0.00000  -0.01423   0.00126
  17        5PZ        -0.00000   0.00000  -0.00306   0.00000  -0.00000
  18        6D 0        0.00279  -0.00066   0.00000   0.00097   0.00169
  19        6D+1       -0.00000  -0.00000   0.00270  -0.00000  -0.00000
  20        6D-1       -0.00000  -0.00000   0.00779  -0.00000  -0.00000
  21        6D+2       -0.00224  -0.00265   0.00000  -0.00331   0.00817
  22        6D-2       -0.00917   0.00122  -0.00000  -0.00187  -0.01251
  23 2   C  1S          0.00701   0.00402   0.00000   0.00534  -0.01613
  24        2S          0.01128   0.00622   0.00000   0.00850  -0.02555
  25        2PX         0.07229  -0.00950   0.00000   0.05009   0.01246
  26        2PY         0.01049   0.09069  -0.00000  -0.09303  -0.02756
  27        2PZ        -0.00000   0.00000   0.03706  -0.00000   0.00000
  28        3S         -0.03135  -0.01543  -0.00000  -0.02567   0.06898
  29        3PX         0.10140  -0.01152   0.00000   0.06988   0.01640
  30        3PY         0.01585   0.12436  -0.00000  -0.12587  -0.03469
  31        3PZ        -0.00000  -0.00000   0.05714  -0.00000   0.00000
  32        4S         -0.02822  -0.02885  -0.00000  -0.02236   0.11435
  33        4PX         0.04694  -0.00995   0.00000   0.03489  -0.00637
  34        4PY        -0.00282   0.06760  -0.00000  -0.08239  -0.00800
  35        4PZ         0.00000   0.00000   0.03473  -0.00000  -0.00000
  36        5S          0.06143  -0.04164  -0.00000  -0.04046  -0.08342
  37        5PX        -0.00037  -0.00709   0.00000  -0.00023   0.03191
  38        5PY         0.01308  -0.00404   0.00000  -0.01431   0.00078
  39        5PZ        -0.00000  -0.00000  -0.00306  -0.00000   0.00000
  40        6D 0        0.00280  -0.00066   0.00000   0.00097  -0.00169
  41        6D+1        0.00000  -0.00000  -0.00320   0.00000   0.00000
  42        6D-1       -0.00000  -0.00000   0.00760  -0.00000   0.00000
  43        6D+2       -0.00339  -0.00245  -0.00000  -0.00351  -0.00652
  44        6D-2        0.00882  -0.00155   0.00000   0.00148  -0.01344
  45 3   C  1S         -0.04415  -0.00998  -0.00000  -0.00100  -0.01299
  46        2S         -0.06919  -0.01585  -0.00000  -0.00145  -0.02059
  47        2PX        -0.10992   0.00752   0.00000   0.00196  -0.09256
  48        2PY        -0.00185  -0.06208   0.00000   0.06616  -0.01735
  49        2PZ        -0.00000  -0.00000   0.06630  -0.00000  -0.00000
  50        3S          0.18750   0.04275   0.00000   0.00786   0.05165
  51        3PX        -0.14990   0.00639   0.00000   0.00706  -0.12676
  52        3PY        -0.00188  -0.08752   0.00000   0.09483  -0.02628
  53        3PZ        -0.00000  -0.00000   0.10122  -0.00000   0.00000
  54        4S          0.18261   0.02528  -0.00000   0.00591   0.11102
  55        4PX        -0.05491   0.00421  -0.00000  -0.00472  -0.05158
[...]
 Berny optimization.
 Search for a local minimum.
 Step number   1 out of a maximum of    2
 All quantities printed in internal units (Hartrees-Bohrs-Radians)
 Second derivative matrix not updated -- analytic derivatives used.
 ITU=  0
     Eigenvalues ---    0.00271   0.00660   0.01434   0.02362   0.02769
     Eigenvalues ---    0.04327   0.04549   0.05088   0.06276   0.06624
     Eigenvalues ---    0.09049   0.11301   0.16308   0.20365   0.21782
     Eigenvalues ---    0.22663   0.24372   0.30095   0.31118   0.38483
     Eigenvalues ---    0.44112   0.69765   0.80205   0.83133   0.96258
     Eigenvalues ---    1.04779   1.08029   1.26833   1.28710   1.40924
 Angle between quadratic step and forces=  67.16 degrees.
 Linear search not attempted -- first point.
 B after Tr=    -0.000007    0.000054    0.000000
         Rot=    1.000000   -0.000000    0.000000   -0.000005 Ang=  -0.00 deg.
 Variable       Old X    -DE/DX   Delta X   Delta X   Delta X     New X
                                 (Linear)    (Quad)   (Total)
    X1       -5.40784   0.00000   0.00000  -0.00003  -0.00000  -5.40785
    Y1       -3.21365   0.00001   0.00000   0.00009   0.00008  -3.21356
    Z1       -0.00000   0.00000   0.00000   0.00000   0.00000   0.00000
    X2       -2.70421   0.00002   0.00000  -0.00003  -0.00000  -2.70421
    Y2       -3.12687   0.00002   0.00000  -0.00002   0.00001  -3.12686
    Z2       -0.00000   0.00000   0.00000   0.00000   0.00000   0.00000
    X3       -6.25628  -0.00000   0.00000   0.00004   0.00004  -6.25624
    Y3       -0.75454  -0.00001   0.00000   0.00006   0.00005  -0.75449
    Z3        0.00000  -0.00000   0.00000  -0.00000  -0.00000  -0.00000
    X4       -2.01463   0.00000   0.00000   0.00010   0.00010  -2.01452
    Y4       -0.61847  -0.00001   0.00000  -0.00009  -0.00006  -0.61853
    Z4        0.00000   0.00000   0.00000  -0.00000  -0.00000  -0.00000
    X5       -4.18407   0.00000   0.00000   0.00012   0.00011  -4.18397
    Y5        0.82796  -0.00005   0.00000  -0.00004  -0.00003   0.82793
    Z5        0.00000  -0.00000   0.00000  -0.00000  -0.00000  -0.00000
    X6       -8.13333  -0.00001   0.00000  -0.00003  -0.00004  -8.13337
    Y6        0.02723  -0.00001   0.00000  -0.00006  -0.00009   0.02714
    Z6        0.00000   0.00000   0.00000  -0.00000  -0.00000  -0.00000
    X7       -6.58055   0.00001   0.00000  -0.00017  -0.00013  -6.58067
    Y7       -4.88372   0.00001   0.00000   0.00023   0.00021  -4.88350
    Z7       -0.00000  -0.00000   0.00000   0.00000   0.00000   0.00000
    X8       -1.42708   0.00000   0.00000  -0.00004   0.00000  -1.42708
    Y8       -4.71852   0.00002   0.00000   0.00001   0.00005  -4.71846
    Z8       -0.00000  -0.00000   0.00000   0.00000   0.00000   0.00000
    X9       -0.19090   0.00002   0.00000   0.00030   0.00029  -0.19060
    Y9        0.28109  -0.00000   0.00000  -0.00040  -0.00035   0.28074
    Z9       -0.00000   0.00000   0.00000  -0.00000  -0.00000  -0.00000
   X10       -4.27482  -0.00003   0.00000  -0.00003  -0.00008  -4.27490
   Y10        3.61636   0.00005   0.00000   0.00012   0.00013   3.61648
   Z10       -0.00000   0.00000   0.00000   0.00000   0.00000   0.00000
   X11       -2.17165  -0.00002   0.00000  -0.00008  -0.00014  -2.17179
   Y11        4.67109  -0.00000   0.00000   0.00016   0.00019   4.67128
   Z11        0.00000   0.00000   0.00000   0.00000   0.00000   0.00000
   X12       -6.44257  -0.00000   0.00000  -0.00010  -0.00015  -6.44273
   Y12        4.53129  -0.00003   0.00000  -0.00018  -0.00019   4.53110
   Z12       -0.00000   0.00000   0.00000   0.00000   0.00000  -0.00000
         Item               Value     Threshold  Converged?
 Maximum Force            0.000055     0.000450     YES
 RMS     Force            0.000017     0.000300     YES
 Maximum Displacement     0.000345     0.001800     YES
 RMS     Displacement     0.000112     0.001200     YES
 Predicted change in Energy=-1.814424D-08
 Optimization completed.
    -- Stationary point found.
 GradGradGradGradGradGradGradGradGradGradGradGradGradGradGradGradGradGrad

 Leave Link  103 at Fri Jun  2 11:33:49 2023, MaxMem=  7381975040 cpu:               2.3 elap:               3.9
 (Enter /software/commercial/gaussian/g16/AVX/g16/l9999.exe)

 ----------------------------------------------------------------------

 Electric dipole moment (input orientation):
 (Debye = 10**-18 statcoulomb cm , SI units = C m)
                  (au)            (Debye)         (10**-30 SI)
   Tot        0.586170D+01      0.148989D+02      0.496975D+02
   x          0.428812D+01      0.108993D+02      0.363562D+02
   y         -0.399644D+01     -0.101579D+02     -0.338832D+02
   z          0.000000D+00      0.000000D+00      0.000000D+00

 Dipole polarizability, Alpha (input orientation).
 (esu units = cm**3 , SI units = C**2 m**2 J**-1)
 Alpha(0;0):
               (au)            (10**-24 esu)      (10**-40 SI)
   iso        0.100556D+03      0.149009D+02      0.165795D+02
   aniso      0.548165D+02      0.812297D+01      0.903802D+01
   xx         0.112963D+03      0.167394D+02      0.186251D+02
   yx        -0.363716D+00     -0.538971D-01     -0.599686D-01
   yy         0.124119D+03      0.183926D+02      0.204645D+02
   zx         0.000000D+00      0.000000D+00      0.000000D+00
   zy         0.000000D+00      0.000000D+00      0.000000D+00
   zz         0.645866D+02      0.957074D+01      0.106489D+02

 First dipole hyperpolarizability, Beta (input orientation).
 ||, _|_  parallel and perpendicular components, (z) with respect to z axis,
 vector components x,y,z.  Values do not include the 1/n! factor of 1/2.
 (esu units = statvolt**-1 cm**4 , SI units = C**3 m**3 J**-2)
 Beta(0;0,0):
               (au)            (10**-30 esu)      (10**-50 SI)
   || (z)     0.000000D+00      0.000000D+00      0.000000D+00
   _|_(z)     0.000000D+00      0.000000D+00      0.000000D+00
   x          0.543680D+01      0.469697D-01      0.174323D-01
   y         -0.163873D+03     -0.141573D+01     -0.525436D+00
   z          0.000000D+00      0.000000D+00      0.000000D+00
   ||         0.327926D+02      0.283303D+00      0.105145D+00
   xxx        0.956446D+01      0.826295D-01      0.306671D-01
   xxy       -0.968632D+02     -0.836823D+00     -0.310578D+00
   yxy       -0.137174D+02     -0.118508D+00     -0.439830D-01
   yyy        0.225845D+03      0.195112D+01      0.724140D+00
   xxz        0.000000D+00      0.000000D+00      0.000000D+00
   yxz        0.000000D+00      0.000000D+00      0.000000D+00
   yyz        0.000000D+00      0.000000D+00      0.000000D+00
   zxz        0.596522D+01      0.515349D-01      0.191267D-01
   zyz       -0.183606D+03     -0.158621D+01     -0.588707D+00
   zzz        0.000000D+00      0.000000D+00      0.000000D+00

 ----------------------------------------------------------------------

 Dipole orientation:
     6         -4.11660607         -4.41705270         -1.76506971
     6         -2.81657795         -3.02214325          0.15360459
     6         -3.28448351         -3.52419846         -4.06234163
     6         -1.24494056         -1.33580138         -1.05213383
     7         -1.53195442         -1.64376268         -3.62534582
     1         -3.76708369         -4.04202076         -5.96849010
     1         -5.49468915         -5.89571388         -1.48432671
     1         -3.01677599         -3.23695255          2.17305330
     1          0.05145963          0.05521536         -0.33129307
     6         -0.18338924         -0.19677373         -5.59283371
     8          1.32029949          1.41666031         -4.77336739
     8         -0.73470710         -0.78832901         -7.80244109

 Electric dipole moment (dipole orientation):
 (Debye = 10**-18 statcoulomb cm , SI units = C m)
                  (au)            (Debye)         (10**-30 SI)
   Tot        0.586170D+01      0.148989D+02      0.496975D+02
   x          0.000000D+00      0.000000D+00      0.000000D+00
   y          0.000000D+00      0.000000D+00      0.000000D+00
   z          0.586170D+01      0.148989D+02      0.496975D+02

 Dipole polarizability, Alpha (dipole orientation).
 (esu units = cm**3 , SI units = C**2 m**2 J**-1)
 Alpha(0;0):
               (au)            (10**-24 esu)      (10**-40 SI)
   iso        0.100556D+03      0.149009D+02      0.165795D+02
   aniso      0.548165D+02      0.812297D+01      0.903802D+01
   xx         0.896803D+02      0.132893D+02      0.147863D+02
   yx         0.269252D+02      0.398991D+01      0.443937D+01
   yy         0.934769D+02      0.138518D+02      0.154123D+02
   zx        -0.381121D+01     -0.564762D+00     -0.628383D+00
   zy        -0.408936D+01     -0.605981D+00     -0.674245D+00
   zz         0.118512D+03      0.175616D+02      0.195399D+02

 First dipole hyperpolarizability, Beta (dipole orientation).
 ||, _|_  parallel and perpendicular components, (z) with respect to z axis,
 vector components x,y,z.  Values do not include the 1/n! factor of 1/2.
 (esu units = statvolt**-1 cm**4 , SI units = C**3 m**3 J**-2)
 Beta(0;0,0):
               (au)            (10**-30 esu)      (10**-50 SI)
   || (z)     0.231408D+02      0.199919D+00      0.741978D-01
   _|_(z)     0.771360D+01      0.666395D-01      0.247326D-01
   x         -0.792064D+02     -0.684281D+00     -0.253964D+00
   y         -0.849872D+02     -0.734223D+00     -0.272500D+00
   z          0.115704D+03      0.999593D+00      0.370989D+00
   ||         0.327926D+02      0.283303D+00      0.105145D+00
   xxx       -0.149665D+03     -0.129299D+01     -0.479881D+00
   xxy        0.299797D+02      0.259001D+00      0.961256D-01
   yxy        0.456031D+02      0.393975D+00      0.146220D+00
   yyy       -0.141637D+03     -0.122363D+01     -0.454138D+00
   xxz        0.157880D+02      0.136396D+00      0.506219D-01
   yxz       -0.122059D+03     -0.105449D+01     -0.391365D+00
   yyz       -0.142281D+01     -0.122919D-01     -0.456203D-02
   zxz        0.776600D+02      0.670922D+00      0.249006D+00
   zyz        0.833279D+02      0.719888D+00      0.267179D+00
   zzz        0.242029D+02      0.209094D+00      0.776032D-01

 ----------------------------------------------------------------------
 Unable to Open any file for archive entry.
 1\1\GINC-NODE1801\Freq\RB3LYP\6-311+G(d,p)\C5H4N1O2(1-)\SVICCHI\02-Jun
 -2023\0\\#p freq=raman scale=0.967 pop=(nbo,full,hirshfeld) guess=read
  geom=allcheck b3lyp/6-311+G(d,p) int=grid=ultrafine EmpiricalDispersi
 on=GD3BJ SCRF=(Solvent=ethanol) scf=(xqc,intrep,maxconventionalcycle=3
 50) nosymm\\pyrrolide-CO2_binding-site_index-4.gjf\\-1,1\C,-2.86170606
 64,-1.7005889978,0.\C,-1.4310056166,-1.6546679113,0.\C,-3.3106832845,-
 0.3992844828,0.\C,-1.0660951275,-0.3272791885,0.\N,-2.2141154668,0.438
 1367618,0.\H,-4.3039705133,0.0144097982,0.\H,-3.4822752858,-2.58435128
 89,0.\H,-0.7551789754,-2.4969314264,0.\H,-0.1010185668,0.1487450258,0.
 \C,-2.2621373643,1.9136948675,0.\O,-1.1491886108,2.4718343979,0.\O,-3.
 4092631218,2.3978554445,-0.0000000001\\Version=ES64L-G16RevC.01\HF=-39
 8.4395267\RMSD=5.831e-09\RMSF=1.656e-05\ZeroPoint=0.0811126\Thermal=0.
 0874897\ETot=-398.352037\HTot=-398.3510928\GTot=-398.3893131\Dipole=0.
 1042418,-3.1975302,0.\DipoleDeriv=0.0825028,0.105705,0.,0.007997,-0.33
 55951,0.,0.,0.,-0.3313732,0.0893512,-0.0791622,0.,0.0192284,-0.3395621
 ,0.,0.,0.,-0.3319203,-0.1953122,0.4211269,0.,0.1230887,0.6103844,0.,0.
 ,0.,-0.1775412,-0.1558147,-0.4692139,0.,-0.1742308,0.5711955,0.,0.,0.,
 -0.1742681,-0.1815943,0.0695392,0.,0.069253,-2.3274621,0.,0.,0.,-0.105
 4003,0.0165148,0.0160392,0.,0.0455782,0.1217663,0.,0.,0.,0.2406614,0.0
 195439,-0.1226451,0.,-0.1116333,-0.0486036,0.,0.,0.,0.2277476,0.004047
 ,0.1265844,0.,0.1151421,-0.0337253,0.,0.,0.,0.2274531,0.0174025,-0.023
 4234,0.,-0.0530533,0.1168501,0.,0.,0.,0.2418239,2.9659828,-0.018347,0.
 ,-0.0162302,3.5114456,0.,0.,0.,0.3892127,-1.7933799,-0.6085678,0.,-0.5
 429218,-1.4613267,0.,0.,0.,-0.6046889,-1.8692437,0.5823646,0.,0.517781
 9,-1.385367,0.,0.,0.,-0.6017064\Polar=112.962929,-0.3637156,124.119407
 2,0.,0.,64.5865503\PolarDeriv=17.1510547,0.5231041,-12.3257838,0.,0.,-
 2.0827846,-12.2012065,0.4495315,-0.2870109,0.,0.,-8.4354185,0.,0.,0.,-
 2.4036198,-8.286601,0.,-16.2930224,-1.2908702,12.2970607,0.,0.,2.58766
 51,-13.2018749,-1.3286541,0.6711983,0.,0.,-8.1940918,0.,0.,0.,2.903473
 8,-8.0654048,0.,-5.8834102,1.8015371,-6.3086298,0.,0.,-2.8502742,13.04
 0806,0.8895595,-4.7493453,0.,0.,8.5002424,0.,0.,0.,-8.6552265,2.685922
 8,0.,4.7291826,1.7039913,6.8153636,0.,0.,2.2617198,13.5249078,0.395205
 3,-4.3254078,0.,0.,8.6282966,0.,0.,0.,8.3635727,3.1606257,0.,0.3202021
 ,-3.1490445,-0.784833,0.,0.,0.1172781,-3.3524505,-0.7921532,18.2547317
 ,0.,0.,-3.2721123,0.,0.,0.,-0.0702119,3.112341,0.,-12.0267098,2.836293
 4,-1.9418111,0.,0.,-0.8615122,2.8902398,-1.9773315,2.6469711,0.,0.,0.0
 457874,0.,0.,0.,1.3755887,-0.2848743,0.,-4.2939779,-4.7509775,-5.68904
 58,0.,0.,-0.2322574,-4.1135537,-5.3756785,-11.6739705,0.,0.,-0.2698868
 ,0.,0.,0.,0.4542362,1.5871249,0.,5.2199714,-5.1756906,5.7403496,0.,0.,
 0.2562979,-4.5126313,5.53048,-10.787626,0.,0.,-0.2571188,0.,0.,0.,-0.5
 347651,1.5242158,0.,11.5086905,3.3239054,2.1378343,0.,0.,0.8263886,3.3
 777902,2.2004503,3.0360397,0.,0.,0.0871018,0.,0.,0.,-1.4002112,-0.3987
 976,0.,0.5755476,-7.4361838,-0.0139592,0.,0.,-0.1339805,-2.3651339,0.1
 091302,-14.0035334,0.,0.,4.800284,0.,0.,0.,0.0662666,-1.0862441,0.,11.
 2100069,5.5854485,14.0611147,0.,0.,1.863675,3.4813256,4.6398649,11.425
 43,0.,0.,-0.7584649,0.,0.,0.,4.2971614,3.1924213,0.,-12.2175356,6.0284
 868,-13.9876602,0.,0.,-1.7522158,3.4317815,-4.7404043,9.7925231,0.,0.,
 -0.8746192,0.,0.,0.,-4.396265,2.8592703,0.\HyperPolar=9.5644589,-96.86
 32122,-13.7174117,225.844868,0.,0.,0.,5.9652196,-183.6059653,0.0000001
 \Quadrupole=-6.7094242,-6.9822888,13.691713,17.2214217,0.,0.\PG=CS [SG
 (C5H4N1O2)]\NImag=0\\0.60086142,0.10969451,0.79140070,0.,0.,0.11566050
 ,-0.26679446,-0.01812999,0.,0.61559715,0.00803242,-0.10678366,0.,-0.12
 105721,0.77657842,0.,0.,-0.05768256,0.,0.,0.11585536,-0.13038694,0.094
 17443,0.,-0.04285338,0.02174790,0.,0.78779495,0.07695965,-0.34824434,0
 .,0.06873676,-0.00151740,0.,-0.14207860,0.66161143,0.,0.,-0.06451003,0
 .,0.,0.01298744,0.,0.,0.12008825,-0.03688900,-0.02393767,0.,-0.1203133
 7,-0.07967837,0.,-0.09146511,-0.01401550,0.,0.76921482,-0.07098621,-0.
 00744500,0.,-0.06241738,-0.35820601,0.,0.00858228,-0.00683958,0.,0.148
 85650,0.67980746,0.,0.,0.01297486,0.,0.,-0.06469188,0.,0.,0.01441766,0
 .,0.,0.12005232,-0.00504053,-0.04100286,0.,-0.00782655,0.04637443,0.,-
 0.22701186,-0.08103897,0.,-0.23617004,0.07586301,0.,0.65682222,0.00300
 738,-0.09101437,0.,0.00233937,-0.08819000,0.,-0.06751834,-0.15521521,0
 .,0.06226338,-0.14603416,0.,-0.00047685,0.67083412,0.,0.,0.01196750,0.
 ,0.,0.01197288,0.,0.,-0.06077350,0.,0.,-0.06065422,0.,0.,0.10999025,0.
 00160723,-0.00167434,0.,0.00069749,0.00040976,0.,-0.31166292,0.1043336
 0,0.,-0.00111253,-0.00416956,0.,-0.01983882,0.01046917,0.,0.33037815,0
 .02162665,0.00254093,0.,0.00127157,-0.00484286,0.,0.11491461,-0.103043
 22,0.,-0.00263826,-0.00401967,0.,-0.02113523,0.01225441,0.,-0.11430633
 ,0.09622863,0.,0.,0.00197453,0.,0.,0.00447103,0.,0.,-0.02386965,0.,0.,
 0.00156039,0.,0.,-0.00208028,0.,0.,0.02050759,-0.15279448,-0.13766853,
 0.,-0.00483346,-0.02353758,0.,0.01089329,0.00966667,0.,-0.00651225,0.0
 0052857,0.,-0.00061290,0.00336431,0.,-0.00015594,-0.00086978,0.,0.1519
 3136,-0.13525883,-0.25251933,0.,0.00361656,0.00591303,0.,-0.01899367,-
 0.01042041,0.,0.00128468,-0.00003075,0.,0.00192463,-0.00592209,0.,0.00
 051131,0.00045467,0.,0.14890971,0.26156198,0.,0.,-0.02578220,0.,0.,-0.
 00102759,0.,0.,-0.00073324,0.,0.,0.00337909,0.,0.,0.00606194,0.,0.,-0.
 00353487,0.,0.,0.02114121,-0.00606426,0.02277844,0.,-0.17056815,0.1428
 7206,0.,-0.00637464,-0.00093135,0.,0.01020588,-0.00835383,0.,-0.000302
 61,-0.00299579,0.,0.00019116,0.00123323,0.,0.00085815,-0.00077583,0.,0
 .17134840,-0.00438457,0.00714494,0.,0.14047413,-0.23473772,0.,-0.00168
 839,-0.00017256,0.,0.02031677,-0.00973650,0.,-0.00156103,-0.00624665,0
 .,-0.00001438,0.00047658,0.,0.00083658,-0.00011842,0.,-0.15465529,0.24
 215170,0.,0.,-0.00102241,0.,0.,-0.02578635,0.,0.,0.00338124,0.,0.,-0.0
 0072735,0.,0.,0.00605858,0.,0.,0.00126551,0.,0.,-0.00208640,0.,0.,0.02
 113454,0.00078151,-0.00006339,0.,0.00285942,0.00169307,0.,-0.00155637,
 0.00433049,0.,-0.29673500,-0.11669475,0.,-0.02036667,-0.01260043,0.,-0
 .00061358,-0.00079170,0.,0.00026785,0.00000016,0.,-0.00017461,-0.00055
 177,0.,0.31496618,-0.00091728,-0.00493399,0.,-0.02162661,0.00126669,0.
 ,0.00279069,-0.00357639,0.,-0.12709726,-0.11758620,0.,0.01903190,0.012
 81523,0.,0.00069459,0.00090060,0.,-0.00124812,0.00039752,0.,0.00083246
 ,0.00047283,0.,0.12803895,0.11194583,0.,0.,0.00446845,0.,0.,0.00197919
 ,0.,0.,0.00156113,0.,0.,-0.02387880,0.,0.,-0.00208649,0.,0.,0.00219951
 ,0.,0.,0.00126316,0.,0.,-0.00353184,0.,0.,0.01985561,-0.00607626,-0.00
 522442,0.,-0.00694550,0.00339121,0.,0.01183115,-0.01906396,0.,0.008228
 79,0.02213746,0.,-0.10249846,-0.00073298,0.,-0.00291542,-0.00054806,0.
 ,0.00058143,-0.00104841,0.,0.00052899,0.00090699,0.,-0.00262293,0.0003
 7570,0.,0.94107092,-0.00990857,0.02092116,0.,0.00814500,0.02171934,0.,
 -0.02972035,-0.03694084,0.,0.03272886,-0.03351545,0.,-0.00079215,-0.07
 977069,0.,0.00317061,0.00027089,0.,0.00009538,0.00262350,0.,-0.0002351
 7,0.00268233,0.,-0.00325870,0.00009675,0.,0.01713988,0.42887743,0.,0.,
 0.00182465,0.,0.,0.00181820,0.,0.,-0.00731877,0.,0.,-0.00751944,0.,0.,
 -0.05554054,0.,0.,-0.00168470,0.,0.,0.00244270,0.,0.,0.00244456,0.,0.,
 -0.00167833,0.,0.,0.23159481,0.00229155,-0.00407965,0.,-0.00094099,-0.
 00494747,0.,0.00796507,0.00210748,0.,-0.00735403,0.00822841,0.,-0.0152
 7027,-0.04206122,0.,0.00081372,0.00073651,0.,0.00029514,-0.00067207,0.
 ,0.00009961,-0.00045739,0.,0.00246142,-0.00016306,0.,-0.41071145,-0.16
 304412,0.,0.54058905,-0.00123985,-0.00765149,0.,-0.00321203,-0.0039529
 7,0.,0.01206197,-0.00020858,0.,-0.00661487,0.00468811,0.,-0.05551595,-
 0.06503722,0.,-0.00059125,0.00026119,0.,0.00012057,-0.00134603,0.,0.00
 024303,-0.00061254,0.,-0.00073030,-0.00205132,0.,-0.15819090,-0.172636
 21,0.,0.21419595,0.21634843,0.,0.,-0.00029807,0.,0.,0.00040985,0.,0.,0
 .00405338,0.,0.,0.00103520,0.,0.,0.01753157,0.,0.,0.00006367,0.,0.,-0.
 00088262,0.,0.,-0.00024369,0.,0.,-0.00020888,0.,0.,-0.08314266,0.,0.,0
 .03188761,-0.00149578,0.00513347,0.,0.00192179,0.00469978,0.,-0.007173
 24,-0.00900626,0.,0.00890183,-0.00157450,0.,-0.02188350,0.04494201,0.,
 0.00261146,0.00050680,0.,0.00008180,0.00050175,0.,0.00025207,0.0007783
 5,0.,0.00073277,-0.00071195,0.,-0.43047126,0.14567934,0.,-0.12023881,-
 0.00052638,0.,0.56676087,0.00337469,-0.00341555,0.,0.00185984,-0.00724
 685,0.,0.00572747,0.00456712,0.,-0.01146825,-0.00108223,0.,0.05832906,
 -0.05847337,0.,0.00116683,-0.00148213,0.,-0.00019777,-0.00059365,0.,-0
 .00001195,-0.00130399,0.,0.00062837,0.00025244,0.,0.14085750,-0.154328
 22,0.,-0.00984338,0.03219864,0.,-0.19042242,0.19090778,0.,0.,0.0004247
 7,0.,0.,-0.00030558,0.,0.,0.00071608,0.,0.,0.00405216,0.,0.,0.01755232
 ,0.,0.,-0.00087274,0.,0.,-0.00024117,0.,0.,-0.00088640,0.,0.,0.0000572
 8,0.,0.,-0.08324049,0.,0.,0.02979464,0.,0.,0.03294914\\-0.00000370,-0.
 00001255,0.,-0.00001643,-0.00001798,0.,0.00000072,0.00001445,0.,-0.000
 00376,0.00000680,0.,-0.00000464,0.00004832,0.,0.00001387,0.00001198,0.
 ,-0.00000894,-0.00001254,0.,-0.00000276,-0.00001702,0.,-0.00002202,0.0
 0000101,0.,0.00002833,-0.00005478,0.,0.00001880,0.00000115,0.,0.000000
 52,0.00003117,0.\\\@
 The archive entry for this job was punched.


 IF AT FIRST YOU DON'T SUCCEED, TRY LOOKING IN 
 THE WASTEBASKET FOR THE DIRECTIONS.
 Job cpu time:       0 days  0 hours 21 minutes 59.2 seconds.
 Elapsed time:       0 days  0 hours 12 minutes 16.8 seconds.
 File lengths (MBytes):  RWF=    115 Int=      0 D2E=      0 Chk=     15 Scr=      1
 Normal termination of Gaussian 16 at Fri Jun  2 11:33:54 2023.
