 Entering Gaussian System, Link 0=g16
 Input=bentriz-isolated-freq.gjf
 Output=bentriz-isolated-freq.log
 Initial command:
 /software/commercial/gaussian/g16/AVX/g16/l1.exe "/scratch1/svicchi/G09-659818.pbs02/Gau-3426293.inp" -scrdir="/scratch1/svicchi/G09-659818.pbs02/"
 Entering Link 1 = /software/commercial/gaussian/g16/AVX/g16/l1.exe PID=   3426294.
  
 Copyright (c) 1988-2019, Gaussian, Inc.  All Rights Reserved.
  
 This is part of the Gaussian(R) 16 program.  It is based on
 the Gaussian(R) 09 system (copyright 2009, Gaussian, Inc.),
 the Gaussian(R) 03 system (copyright 2003, Gaussian, Inc.),
 the Gaussian(R) 98 system (copyright 1998, Gaussian, Inc.),
 the Gaussian(R) 94 system (copyright 1995, Gaussian, Inc.),
 the Gaussian 92(TM) system (copyright 1992, Gaussian, Inc.),
 the Gaussian 90(TM) system (copyright 1990, Gaussian, Inc.),
 the Gaussian 88(TM) system (copyright 1988, Gaussian, Inc.),
 the Gaussian 86(TM) system (copyright 1986, Carnegie Mellon
 University), and the Gaussian 82(TM) system (copyright 1983,
 Carnegie Mellon University). Gaussian is a federally registered
 trademark of Gaussian, Inc.
  
 This software contains proprietary and confidential information,
 including trade secrets, belonging to Gaussian, Inc.
  
 This software is provided under written license and may be
 used, copied, transmitted, or stored only in accord with that
 written license.
  
 The following legend is applicable only to US Government
 contracts under FAR:
  
                    RESTRICTED RIGHTS LEGEND
  
 Use, reproduction and disclosure by the US Government is
 subject to restrictions as set forth in subparagraphs (a)
 and (c) of the Commercial Computer Software - Restricted
 Rights clause in FAR 52.227-19.
  
 Gaussian, Inc.
 340 Quinnipiac St., Bldg. 40, Wallingford CT 06492
  
  
 ---------------------------------------------------------------
 Warning -- This program may not be used in any manner that
 competes with the business of Gaussian, Inc. or will provide
 assistance to any competitor of Gaussian, Inc.  The licensee
 of this program is prohibited from giving any competitor of
 Gaussian, Inc. access to this program.  By using this program,
 the user acknowledges that Gaussian, Inc. is engaged in the
 business of creating and licensing software in the field of
 computational chemistry and represents and warrants to the
 licensee that it is not a competitor of Gaussian, Inc. and that
 it will not use this program in any manner prohibited above.
 ---------------------------------------------------------------
  

 Cite this work as:
 Gaussian 16, Revision C.01,
 M. J. Frisch, G. W. Trucks, H. B. Schlegel, G. E. Scuseria, 
 M. A. Robb, J. R. Cheeseman, G. Scalmani, V. Barone, 
 G. A. Petersson, H. Nakatsuji, X. Li, M. Caricato, A. V. Marenich, 
 J. Bloino, B. G. Janesko, R. Gomperts, B. Mennucci, H. P. Hratchian, 
 J. V. Ortiz, A. F. Izmaylov, J. L. Sonnenberg, D. Williams-Young, 
 F. Ding, F. Lipparini, F. Egidi, J. Goings, B. Peng, A. Petrone, 
 T. Henderson, D. Ranasinghe, V. G. Zakrzewski, J. Gao, N. Rega, 
 G. Zheng, W. Liang, M. Hada, M. Ehara, K. Toyota, R. Fukuda, 
 J. Hasegawa, M. Ishida, T. Nakajima, Y. Honda, O. Kitao, H. Nakai, 
 T. Vreven, K. Throssell, J. A. Montgomery, Jr., J. E. Peralta, 
 F. Ogliaro, M. J. Bearpark, J. J. Heyd, E. N. Brothers, K. N. Kudin, 
 V. N. Staroverov, T. A. Keith, R. Kobayashi, J. Normand, 
 K. Raghavachari, A. P. Rendell, J. C. Burant, S. S. Iyengar, 
 J. Tomasi, M. Cossi, J. M. Millam, M. Klene, C. Adamo, R. Cammi, 
 J. W. Ochterski, R. L. Martin, K. Morokuma, O. Farkas, 
 J. B. Foresman, and D. J. Fox, Gaussian, Inc., Wallingford CT, 2019.
 
 ******************************************
 Gaussian 16:  ES64L-G16RevC.01  3-Jul-2019
                 2-Jun-2023 
 ******************************************
 %NProcShared=2
 Will use up to    2 processors via shared memory.
 %mem=55gb
 %chk=/scratch1/svicchi/G09-659818.pbs02/02-freq/bentriz-isolated-freq.chk
 ----------------------------------------------------------------------
 #p freq=raman scale=0.967 pop=(nbo,full,hirshfeld) guess=read geom=all
 check b3lyp/6-311+G(d,p) int=grid=ultrafine EmpiricalDispersion=GD3BJ 
 SCRF=(Solvent=ethanol) scf=(xqc,intrep,maxconventionalcycle=350) nosym
 m
 ----------------------------------------------------------------------
 1/10=4,29=7,30=1,38=1,114=967000/1,3;
 2/12=2,15=1,40=1/2;
 3/5=4,6=6,7=111,11=2,14=-4,25=1,30=1,70=2201,71=2,72=4,74=-5,75=-5,116=-2,124=41,140=1/1,2,3;
 4/5=1/1;
 5/5=2,8=3,13=1,17=20,38=6,53=4,85=350,98=1/2,8;
 8/6=4,10=90,11=11/1;
 10/13=10,15=4,31=1/2;
 11/6=3,8=1,9=11,15=111,16=1,31=1/1,2,10;
 10/6=1,31=1/2;
 6/7=3,28=1,40=1,79=1/1,7;
 7/8=1,10=1,25=1,30=1/1,2,3,16;
 1/10=4,30=1/3;
 99//99;
 Leave Link    1 at Fri Jun  2 11:22:26 2023, MaxMem=  7381975040 cpu:               3.8 elap:               3.8
 (Enter /software/commercial/gaussian/g16/AVX/g16/l101.exe)
 Structure from the checkpoint file:  "/scratch1/svicchi/G09-659818.pbs02/02-freq/bentriz-isolated-freq.chk"
 --------------------
 bentriz-isolated.gjf
 --------------------
 Charge = -1 Multiplicity = 1
 No Z-Matrix found in chk file; cartesian coordinates used.
  C                                                -1.789948503235     -0.955977604525     -0.000000000003
  C                                                -1.781981662401     -2.376141458155     -0.000000000004
  C                                                -0.613304873252     -0.227221953382      0.000000000006
  C                                                 0.599392575149     -0.943596532750      0.000000000004
  C                                                 0.607395380133     -2.361867755052      0.000000000006
  C                                                -0.597265544944     -3.091721039508      0.000000000010
  N                                                 1.900045015195     -0.530946504612     -0.000000000007
  N                                                 2.646967822938     -1.641164787415     -0.000000000013
  N                                                 1.912668743011     -2.759797387193     -0.000000000006
  H                                                -0.623855032645      0.857389807657      0.000000000016
  H                                                -2.742508108678     -0.437570858009     -0.000000000008
  H                                                -2.728682321236     -2.905173703959     -0.000000000018
  H                                                -0.595813490037     -4.176381223096      0.000000000017
 Recover connectivity data from disk.
 ITRead=  0  0  0  0  0  0  0  0  0  0  0  0  0
 MicOpt= -1 -1 -1 -1 -1 -1 -1 -1 -1 -1 -1 -1 -1
 NAtoms=     13 NQM=       13 NQMF=       0 NMMI=      0 NMMIF=      0
                NMic=       0 NMicF=      0.
                    Isotopes and Nuclear Properties:
 (Nuclear quadrupole moments (NQMom) in fm**2, nuclear magnetic moments (NMagM)
  in nuclear magnetons)

  Atom         1           2           3           4           5           6           7           8           9          10
 IAtWgt=          12          12          12          12          12          12          14          14          14           1
 AtmWgt=  12.0000000  12.0000000  12.0000000  12.0000000  12.0000000  12.0000000  14.0030740  14.0030740  14.0030740   1.0078250
 NucSpn=           0           0           0           0           0           0           2           2           2           1
 AtZEff=   3.6000000   3.6000000   3.6000000   3.6000000   3.6000000   3.6000000   4.5500000   4.5500000   4.5500000   1.0000000
 NQMom=    0.0000000   0.0000000   0.0000000   0.0000000   0.0000000   0.0000000   2.0440000   2.0440000   2.0440000   0.0000000
 NMagM=    0.0000000   0.0000000   0.0000000   0.0000000   0.0000000   0.0000000   0.4037610   0.4037610   0.4037610   2.7928460
 AtZNuc=   6.0000000   6.0000000   6.0000000   6.0000000   6.0000000   6.0000000   7.0000000   7.0000000   7.0000000   1.0000000

  Atom        11          12          13
 IAtWgt=           1           1           1
 AtmWgt=   1.0078250   1.0078250   1.0078250
 NucSpn=           1           1           1
 AtZEff=   1.0000000   1.0000000   1.0000000
 NQMom=    0.0000000   0.0000000   0.0000000
 NMagM=    2.7928460   2.7928460   2.7928460
 AtZNuc=   1.0000000   1.0000000   1.0000000
 Leave Link  101 at Fri Jun  2 11:22:28 2023, MaxMem=  7381975040 cpu:               0.4 elap:               1.6
 (Enter /software/commercial/gaussian/g16/AVX/g16/l103.exe)

 GradGradGradGradGradGradGradGradGradGradGradGradGradGradGradGradGradGrad
 Berny optimization.
 Initialization pass.
 Trust Radius=3.00D-01 FncErr=1.00D-07 GrdErr=1.00D-07 EigMax=2.50D+02 EigMin=1.00D-04
 Number of steps in this run=      2 maximum allowed number of steps=      2.
 GradGradGradGradGradGradGradGradGradGradGradGradGradGradGradGradGradGrad

 Leave Link  103 at Fri Jun  2 11:22:31 2023, MaxMem=  7381975040 cpu:               0.1 elap:               1.4
 (Enter /software/commercial/gaussian/g16/AVX/g16/l202.exe)
                          Input orientation:                          
 ---------------------------------------------------------------------
 Center     Atomic      Atomic             Coordinates (Angstroms)
 Number     Number       Type             X           Y           Z
 ---------------------------------------------------------------------
      1          6           0       -1.789949   -0.955978   -0.000000
      2          6           0       -1.781982   -2.376141   -0.000000
      3          6           0       -0.613305   -0.227222    0.000000
      4          6           0        0.599393   -0.943597    0.000000
      5          6           0        0.607395   -2.361868    0.000000
      6          6           0       -0.597266   -3.091721    0.000000
      7          7           0        1.900045   -0.530947   -0.000000
      8          7           0        2.646968   -1.641165   -0.000000
      9          7           0        1.912669   -2.759797   -0.000000
     10          1           0       -0.623855    0.857390    0.000000
     11          1           0       -2.742508   -0.437571   -0.000000
     12          1           0       -2.728682   -2.905174   -0.000000
     13          1           0       -0.595813   -4.176381    0.000000
 ---------------------------------------------------------------------
                    Distance matrix (angstroms):
                    1          2          3          4          5
     1  C    0.000000
     2  C    1.420186   0.000000
     3  C    1.384043   2.446152   0.000000
     4  C    2.389373   2.779052   1.408484   0.000000
     5  C    2.779170   2.389420   2.459029   1.418294   0.000000
     6  C    2.446200   1.384054   2.864544   2.458949   1.408508
     7  N    3.714391   4.118503   2.531635   1.364543   2.241253
     8  N    4.489511   4.489519   3.553676   2.163138   2.163162
     9  N    4.118633   3.714517   3.576937   2.241267   1.364583
    10  H    2.155940   3.434673   1.084663   2.177128   3.446679
    11  H    1.084489   2.163485   2.139568   3.379994   3.863259
    12  H    2.163466   1.084489   3.412660   3.863142   3.380029
    13  H    3.434670   2.155889   3.949198   3.446653   2.177193
                    6          7          8          9         10
     6  C    0.000000
     7  N    3.576888   0.000000
     8  N    3.553753   1.338088   0.000000
     9  N    2.531787   2.228887   1.338108   0.000000
    10  H    3.949200   2.880547   4.115952   4.417918   0.000000
    11  H    3.412708   4.643492   5.522236   5.202250   2.483065
    12  H    2.139565   5.202122   5.522258   4.643627   4.311285
    13  H    1.084661   4.417975   4.116182   2.880832   5.033849
                   11         12         13
    11  H    0.000000
    12  H    2.467642   0.000000
    13  H    4.311264   2.482962   0.000000
 Symmetry turned off by external request.
 Stoichiometry    C6H4N3(1-)
 Framework group  CS[SG(C6H4N3)]
 Deg. of freedom    23
 Full point group                 CS      NOp   2
 Rotational constants (GHZ):           4.0748095           1.7090200           1.2040346
 Leave Link  202 at Fri Jun  2 11:22:34 2023, MaxMem=  7381975040 cpu:               0.1 elap:               1.5
 (Enter /software/commercial/gaussian/g16/AVX/g16/l301.exe)
 Standard basis: 6-311+G(d,p) (5D, 7F)
 Ernie: Thresh=  0.10000D-02 Tol=  0.10000D-05 Strict=F.
   222 basis functions,   356 primitive gaussians,   231 cartesian basis functions
    31 alpha electrons       31 beta electrons
       nuclear repulsion energy       392.8603210066 Hartrees.
 IExCor=  402 DFT=T Ex+Corr=B3LYP ExCW=0 ScaHFX=  0.200000
 ScaDFX=  0.800000  0.720000  1.000000  0.810000 ScalE2=  1.000000  1.000000
 IRadAn=      5 IRanWt=     -1 IRanGd=            0 ICorTp=0 IEmpDi=141
 NAtoms=   13 NActive=   13 NUniq=   13 SFac= 1.00D+00 NAtFMM=   60 NAOKFM=F Big=F
 Integral buffers will be    131072 words long.
 Raffenetti 2 integral format.
 Two-electron integral symmetry is turned off.
 R6Disp:  Grimme-D3(BJ) Dispersion energy=       -0.0251830840 Hartrees.
 Nuclear repulsion after empirical dispersion term =      392.8351379226 Hartrees.
 Force inversion solution in PCM.
 ------------------------------------------------------------------------------
 Polarizable Continuum Model (PCM)
 =================================
 Model                : PCM.
 Atomic radii         : UFF (Universal Force Field).
 Polarization charges : Total charges.
 Charge compensation  : None.
 Solution method      : Matrix inversion.
 Cavity type          : Scaled VdW (van der Waals Surface) (Alpha=1.100).
 Cavity algorithm     : GePol (No added spheres)
                        Default sphere list used, NSphG=   13.
                        Lebedev-Laikov grids with approx.  5.0 points / Ang**2.
                        Smoothing algorithm: York/Karplus (Gamma=1.0000).
                        Polarization charges: spherical gaussians, with
                                              point-specific exponents (IZeta= 3).
                        Self-potential: point-specific (ISelfS= 7).
                        Self-field    : sphere-specific E.n sum rule (ISelfD= 2).
 1st derivatives      : Analytical E(r).r(x)/FMM algorithm (CHGder, D1EAlg=3).
                        Cavity 1st derivative terms included.
 2nd derivatives      : Analytical E(r).r(xy)/FMM algorithm (CHGder, D2EAlg=3).
                        Cavity 2nd derivative terms included.
 Solvent              : Ethanol, Eps=  24.852000 Eps(inf)=   1.852593
 ------------------------------------------------------------------------------
 Spheres list:
 ISph  on   Nord     Re0    Alpha      Xe            Ye            Ze
    1   C      1    1.9255  1.100     -1.789949     -0.955978     -0.000000
    2   C      2    1.9255  1.100     -1.781982     -2.376141     -0.000000
    3   C      3    1.9255  1.100     -0.613305     -0.227222      0.000000
    4   C      4    1.9255  1.100      0.599393     -0.943597      0.000000
    5   C      5    1.9255  1.100      0.607395     -2.361868      0.000000
    6   C      6    1.9255  1.100     -0.597266     -3.091721      0.000000
    7   N      7    1.8300  1.100      1.900045     -0.530947     -0.000000
    8   N      8    1.8300  1.100      2.646968     -1.641165     -0.000000
    9   N      9    1.8300  1.100      1.912669     -2.759797     -0.000000
   10   H     10    1.4430  1.100     -0.623855      0.857390      0.000000
   11   H     11    1.4430  1.100     -2.742508     -0.437571     -0.000000
   12   H     12    1.4430  1.100     -2.728682     -2.905174     -0.000000
   13   H     13    1.4430  1.100     -0.595813     -4.176381      0.000000
 ------------------------------------------------------------------------------
 GePol: Number of generator spheres                  =      13
 GePol: Total number of spheres                      =      13
 GePol: Number of exposed spheres                    =      13 (100.00%)
 GePol: Number of points                             =    1241
 GePol: Average weight of points                     =       0.13
 GePol: Minimum weight of points                     =   0.54D-08
 GePol: Maximum weight of points                     =    0.20577
 GePol: Number of points with low weight             =      64
 GePol: Fraction of low-weight points (<1% of avg)   =       5.16%
 GePol: Cavity surface area                          =    165.422 Ang**2
 GePol: Cavity volume                                =    162.523 Ang**3
 Leave Link  301 at Fri Jun  2 11:22:38 2023, MaxMem=  7381975040 cpu:               2.0 elap:               2.6
 (Enter /software/commercial/gaussian/g16/AVX/g16/l302.exe)
 NPDir=0 NMtPBC=     1 NCelOv=     1 NCel=       1 NClECP=     1 NCelD=      1
         NCelK=      1 NCelE2=     1 NClLst=     1 CellRange=     0.0.
 One-electron integrals computed using PRISM.
 NBasis=   222 RedAO= T EigKep=  1.74D-06  NBF=   222
 NBsUse=   222 1.00D-06 EigRej= -1.00D+00 NBFU=   222
 Precomputing XC quadrature grid using
 IXCGrd= 4 IRadAn=           5 IRanWt=          -1 IRanGd=           0 AccXCQ= 0.00D+00.
 Generated NRdTot=       0 NPtTot=           0 NUsed=           0 NTot=          32
 NSgBfM=   231   231   231   231   231 MxSgAt=    13 MxSgA2=    13.
 Leave Link  302 at Fri Jun  2 11:22:41 2023, MaxMem=  7381975040 cpu:               0.9 elap:               1.7
 (Enter /software/commercial/gaussian/g16/AVX/g16/l303.exe)
 DipDrv:  MaxL=1.
 Leave Link  303 at Fri Jun  2 11:22:43 2023, MaxMem=  7381975040 cpu:               0.4 elap:               1.2
 (Enter /software/commercial/gaussian/g16/AVX/g16/l401.exe)
 Initial guess from the checkpoint file:  "/scratch1/svicchi/G09-659818.pbs02/02-freq/bentriz-isolated-freq.chk"
 B after Tr=     0.000000    0.000000    0.000000
         Rot=    1.000000    0.000000    0.000000    0.000000 Ang=   0.00 deg.
 Guess basis will be translated and rotated to current coordinates.
 JPrj=2 DoOrth=T DoCkMO=T.
 Leave Link  401 at Fri Jun  2 11:22:48 2023, MaxMem=  7381975040 cpu:               2.2 elap:               3.4
 (Enter /software/commercial/gaussian/g16/AVX/g16/l502.exe)
 Keep R1 ints in memory in canonical form, NReq=312612332.
 FoFCou: FMM=F IPFlag=           0 FMFlag=           0 FMFlg1=           0
         NFxFlg=           0 DoJE=F BraDBF=F KetDBF=F FulRan=T
         wScrn=  0.000000 ICntrl=       600 IOpCl=  0 I1Cent=           0 NGrid=           0
         NMat0=    1 NMatS0=  24753 NMatT0=    0 NMatD0=    1 NMtDS0=    0 NMtDT0=    0
 Symmetry not used in FoFCou.
 Two-electron integral symmetry not used.
 Closed shell SCF:
 Using DIIS extrapolation, IDIIS=  1040.
 NGot=  7381975040 LenX=  7075497054 LenY=  7075443252
 Requested convergence on RMS density matrix=1.00D-08 within 350 cycles.
 Requested convergence on MAX density matrix=1.00D-06.
 Requested convergence on             energy=1.00D-06.
 No special actions if energy rises.

 Cycle   1  Pass 1  IDiag  1:
 Inv3:  Mode=1 IEnd=     4620243.
 Iteration    1 A*A^-1 deviation from unit magnitude is 4.44D-15 for   1209.
 Iteration    1 A*A^-1 deviation from orthogonality  is 3.16D-15 for   1230    857.
 Iteration    1 A^-1*A deviation from unit magnitude is 4.22D-15 for   1209.
 Iteration    1 A^-1*A deviation from orthogonality  is 1.70D-15 for   1218     27.
 E= -395.535897003624    
 DIIS: error= 2.73D-08 at cycle   1 NSaved=   1.
 NSaved= 1 IEnMin= 1 EnMin= -395.535897003624     IErMin= 1 ErrMin= 2.73D-08
 ErrMax= 2.73D-08  0.00D+00 EMaxC= 1.00D-01 BMatC= 3.68D-14 BMatP= 3.68D-14
 IDIUse=1 WtCom= 1.00D+00 WtEn= 0.00D+00
 Coeff-Com:  0.100D+01
 Coeff:      0.100D+01
 Gap=     0.186 Goal=   None    Shift=    0.000
 RMSDP=6.13D-09 MaxDP=2.52D-07              OVMax= 2.40D-07

 Error on total polarization charges =  0.02249
 SCF Done:  E(RB3LYP) =  -395.535897004     A.U. after    1 cycles
            NFock=  1  Conv=0.61D-08     -V/T= 2.0042
 KE= 3.938811749307D+02 PE=-1.718247745272D+03 EE= 5.359955354156D+02
 Leave Link  502 at Fri Jun  2 11:23:15 2023, MaxMem=  7381975040 cpu:              38.0 elap:              25.0
 (Enter /software/commercial/gaussian/g16/AVX/g16/l508.exe)
 QCSCF skips out because SCF is already converged.
 Leave Link  508 at Fri Jun  2 11:23:17 2023, MaxMem=  7381975040 cpu:               0.1 elap:               0.8
 (Enter /software/commercial/gaussian/g16/AVX/g16/l801.exe)
 DoSCS=F DFT=T ScalE2(SS,OS)=  1.000000  1.000000
 Range of M.O.s used for correlation:     1   222
 NBasis=   222 NAE=    31 NBE=    31 NFC=     0 NFV=     0
 NROrb=    222 NOA=    31 NOB=    31 NVA=   191 NVB=   191

 **** Warning!!: The largest alpha MO coefficient is  0.23484372D+03

 Leave Link  801 at Fri Jun  2 11:23:21 2023, MaxMem=  7381975040 cpu:               0.4 elap:               1.7
 (Enter /software/commercial/gaussian/g16/AVX/g16/l1002.exe)
 Minotr:  Closed shell wavefunction.
 NEqPCM:  Using equilibrium solvation (IEInf=0, Eps=  24.8520, EpsInf=   1.8526)
          Direct CPHF calculation.
          Differentiating once with respect to electric field.
                with respect to dipole field.
          Electric field/nuclear overlap derivatives assumed to be zero.
          Requested convergence is 1.0D-08 RMS, and 1.0D-07 maximum.
          Secondary convergence is 1.0D-12 RMS, and 1.0D-12 maximum.
          NewPWx=F KeepS1=T KeepF1=T KeepIn=T MapXYZ=F SortEE=F KeepMc=T.
         3966 words used for storage of precomputed grid.
 Keep R1 ints in memory in canonical form, NReq=312617961.
 FoFCou: FMM=F IPFlag=           0 FMFlag=           0 FMFlg1=           0
         NFxFlg=           0 DoJE=F BraDBF=F KetDBF=F FulRan=T
         wScrn=  0.000000 ICntrl=       600 IOpCl=  0 I1Cent=           0 NGrid=           0
         NMat0=    1 NMatS0=  24753 NMatT0=    0 NMatD0=    1 NMtDS0=    0 NMtDT0=    0
 Symmetry not used in FoFCou.
 Two-electron integral symmetry not used.
          MDV=    7381975040 using IRadAn=       1.
          Solving linear equations simultaneously, MaxMat=       0.
          There are     3 degrees of freedom in the 1st order CPHF.  IDoFFX=0 NUNeed=     3.
      3 vectors produced by pass  0 Test12= 1.97D-13 3.33D-08 XBig12= 1.95D+02 9.92D+00.
 AX will form     3 AO Fock derivatives at one time.
      3 vectors produced by pass  1 Test12= 1.97D-13 3.33D-08 XBig12= 8.87D+01 2.25D+00.
      3 vectors produced by pass  2 Test12= 1.97D-13 3.33D-08 XBig12= 1.67D+01 1.41D+00.
      3 vectors produced by pass  3 Test12= 1.97D-13 3.33D-08 XBig12= 1.02D+01 7.44D-01.
      3 vectors produced by pass  4 Test12= 1.97D-13 3.33D-08 XBig12= 7.39D-01 1.89D-01.
      3 vectors produced by pass  5 Test12= 1.97D-13 3.33D-08 XBig12= 2.53D-01 2.26D-01.
      3 vectors produced by pass  6 Test12= 1.97D-13 3.33D-08 XBig12= 2.78D-02 5.38D-02.
      3 vectors produced by pass  7 Test12= 1.97D-13 3.33D-08 XBig12= 7.75D-03 2.39D-02.
      3 vectors produced by pass  8 Test12= 1.97D-13 3.33D-08 XBig12= 1.66D-03 9.75D-03.
      3 vectors produced by pass  9 Test12= 1.97D-13 3.33D-08 XBig12= 4.21D-04 6.49D-03.
      2 vectors produced by pass 10 Test12= 1.97D-13 3.33D-08 XBig12= 1.21D-04 3.06D-03.
      2 vectors produced by pass 11 Test12= 1.97D-13 3.33D-08 XBig12= 3.33D-06 3.48D-04.
      2 vectors produced by pass 12 Test12= 1.97D-13 3.33D-08 XBig12= 7.45D-08 4.19D-05.
      2 vectors produced by pass 13 Test12= 1.97D-13 3.33D-08 XBig12= 1.84D-09 6.99D-06.
      2 vectors produced by pass 14 Test12= 1.97D-13 3.33D-08 XBig12= 3.06D-11 7.49D-07.
      1 vectors produced by pass 15 Test12= 1.97D-13 3.33D-08 XBig12= 8.57D-13 1.83D-07.
 InvSVY:  IOpt=1 It=  1 EMax= 3.47D-15
 Solved reduced A of dimension    41 with     3 vectors.
 End of Minotr F.D. properties file   721 does not exist.
 End of Minotr F.D. properties file   722 does not exist.
 End of Minotr F.D. properties file   788 does not exist.
 Leave Link 1002 at Fri Jun  2 11:25:19 2023, MaxMem=  7381975040 cpu:             200.5 elap:             115.9
 (Enter /software/commercial/gaussian/g16/AVX/g16/l1101.exe)
 Using compressed storage, NAtomX=    13.
 Will process     14 centers per pass.
 R6Disp: Adding Grimme-D3(BJ) dispersion energy 1st derivatives to the gradient.
 Leave Link 1101 at Fri Jun  2 11:25:22 2023, MaxMem=  7381975040 cpu:               0.9 elap:               1.5
 (Enter /software/commercial/gaussian/g16/AVX/g16/l1102.exe)
 Symmetrizing basis deriv contribution to polar:
 IMax=3 JMax=2 DiffMx= 0.00D+00
 Leave Link 1102 at Fri Jun  2 11:25:24 2023, MaxMem=  7381975040 cpu:               0.2 elap:               1.1
 (Enter /software/commercial/gaussian/g16/AVX/g16/l1110.exe)
 Forming Gx(P) for the SCF density, NAtomX=    13.
 Integral derivatives from FoFJK, PRISM(SPDF).
 Do as many integral derivatives as possible in FoFJK.
 G2DrvN: MDV=    7381973591.
 G2DrvN: will do    14 centers at a time, making    1 passes.
 PxScal for G2LodP:  IOpCl= 0 ISclPx=1 IMOff=     1 NMtTot=     4 NTT=   24753 ScalPx= 4.21D+01
 Calling FoFCou, ICntrl=  3107 FMM=F I1Cent=   0 AccDes= 0.00D+00.
 FoFJK:  IHMeth= 1 ICntrl=    3107 DoSepK=F KAlg= 0 I1Cent=           0 FoldK=F
 IRaf=         0 NMat=       1 IRICut=       1 DoRegI=T DoRafI=F ISym2E= 0 IDoP0=0 IntGTp=1.
 FoFCou: FMM=F IPFlag=           0 FMFlag=      100000 FMFlg1=           0
         NFxFlg=           0 DoJE=F BraDBF=F KetDBF=F FulRan=T
         wScrn=  0.000000 ICntrl=      3107 IOpCl=  0 I1Cent=           0 NGrid=           0
         NMat0=    1 NMatS0=      1 NMatT0=    0 NMatD0=    4 NMtDS0=    3 NMtDT0=    0
 Symmetry not used in FoFCou.
 PxScal for G2LodP:  IOpCl= 0 ISclPx=0 IMOff=     1 NMtTot=     4 NTT=   24753 ScalPx= 1.00D+00
 NEqPCM:  Using equilibrium solvation (IEInf=0, Eps=  24.8520, EpsInf=   1.8526)
 G2PCM: DoFxE=T DoFxN=T DoGrad=T DoDP/DQ/DG/TGxP=TFFF NFrqRd=   0 IEInf=0 SqF1=F DoCFld=F IF1Alg=4.
 GePol: Maximum number of non-zero 1st derivatives   =     188
 End of G2Drv F.D. properties file   721 does not exist.
 End of G2Drv F.D. properties file   722 does not exist.
 End of G2Drv F.D. properties file   788 does not exist.
 Leave Link 1110 at Fri Jun  2 11:29:09 2023, MaxMem=  7381975040 cpu:             434.6 elap:             223.2
 (Enter /software/commercial/gaussian/g16/AVX/g16/l1002.exe)
 Minotr:  Closed shell wavefunction.
          IDoAtm=1111111111111
 NEqPCM:  Using equilibrium solvation (IEInf=0, Eps=  24.8520, EpsInf=   1.8526)
          Direct CPHF calculation.
          Differentiating once with respect to electric field.
                with respect to dipole field.
          Differentiating once with respect to nuclear coordinates.
          Requested convergence is 1.0D-08 RMS, and 1.0D-07 maximum.
          Secondary convergence is 1.0D-12 RMS, and 1.0D-12 maximum.
          NewPWx=T KeepS1=F KeepF1=F KeepIn=T MapXYZ=F SortEE=F KeepMc=T.
         3966 words used for storage of precomputed grid.
 Keep R1 ints in memory in canonical form, NReq=312618260.
 FoFCou: FMM=F IPFlag=           0 FMFlag=           0 FMFlg1=           0
         NFxFlg=           0 DoJE=F BraDBF=F KetDBF=F FulRan=T
         wScrn=  0.000000 ICntrl=       600 IOpCl=  0 I1Cent=           0 NGrid=           0
         NMat0=    1 NMatS0=  24753 NMatT0=    0 NMatD0=    1 NMtDS0=    0 NMtDT0=    0
 Symmetry not used in FoFCou.
 Two-electron integral symmetry not used.
          MDV=    7381975040 using IRadAn=       1.
          Solving linear equations simultaneously, MaxMat=       0.
          There are    42 degrees of freedom in the 1st order CPHF.  IDoFFX=5 NUNeed=    42.
 Will reuse    3 saved solutions.
     36 vectors produced by pass  0 Test12= 1.41D-14 2.38D-09 XBig12= 2.38D-01 1.34D-01.
 AX will form    36 AO Fock derivatives at one time.
     36 vectors produced by pass  1 Test12= 1.41D-14 2.38D-09 XBig12= 6.54D-02 8.34D-02.
     36 vectors produced by pass  2 Test12= 1.41D-14 2.38D-09 XBig12= 1.17D-03 7.64D-03.
     36 vectors produced by pass  3 Test12= 1.41D-14 2.38D-09 XBig12= 9.16D-06 5.36D-04.
     36 vectors produced by pass  4 Test12= 1.41D-14 2.38D-09 XBig12= 5.57D-08 4.32D-05.
     36 vectors produced by pass  5 Test12= 1.41D-14 2.38D-09 XBig12= 1.08D-10 1.52D-06.
     23 vectors produced by pass  6 Test12= 1.41D-14 2.38D-09 XBig12= 1.98D-13 6.95D-08.
 InvSVY:  IOpt=1 It=  1 EMax= 1.11D-15
 Solved reduced A of dimension   239 with    36 vectors.
 FullF1:  Do perturbations      1 to       3.
 Isotropic polarizability for W=    0.000000      135.56 Bohr**3.
 FullF1:  Do perturbations      1 to       6.
 End of Minotr F.D. properties file   721 does not exist.
 End of Minotr F.D. properties file   722 does not exist.
 End of Minotr F.D. properties file   788 does not exist.
 Leave Link 1002 at Fri Jun  2 11:33:23 2023, MaxMem=  7381975040 cpu:             462.1 elap:             252.3
 (Enter /software/commercial/gaussian/g16/AVX/g16/l601.exe)
 Copying SCF densities to generalized density rwf, IOpCl= 0 IROHF=0.

 **********************************************************************

            Population analysis using the SCF Density.

 **********************************************************************

 Alpha  occ. eigenvalues --  -14.33371 -14.29842 -14.29839 -10.17306 -10.17260
 Alpha  occ. eigenvalues --  -10.16745 -10.16744 -10.16485 -10.16440  -1.03525
 Alpha  occ. eigenvalues --   -0.84072  -0.83554  -0.74185  -0.73223  -0.61982
 Alpha  occ. eigenvalues --   -0.58751  -0.56192  -0.48757  -0.46769  -0.45157
 Alpha  occ. eigenvalues --   -0.43010  -0.42482  -0.37160  -0.36260  -0.33816
 Alpha  occ. eigenvalues --   -0.30670  -0.28609  -0.25615  -0.24630  -0.22802
 Alpha  occ. eigenvalues --   -0.21012
 Alpha virt. eigenvalues --   -0.02455   0.01415   0.02611   0.03195   0.03209
 Alpha virt. eigenvalues --    0.04592   0.05342   0.05631   0.06429   0.07536
 Alpha virt. eigenvalues --    0.08500   0.08928   0.09411   0.09855   0.12492
 Alpha virt. eigenvalues --    0.13342   0.13347   0.14098   0.14295   0.14361
 Alpha virt. eigenvalues --    0.16507   0.17400   0.17796   0.18608   0.19188
 Alpha virt. eigenvalues --    0.19913   0.19942   0.19994   0.20313   0.21463
 Alpha virt. eigenvalues --    0.21788   0.22696   0.22919   0.24492   0.25759
 Alpha virt. eigenvalues --    0.25991   0.26404   0.26422   0.27209   0.27983
 Alpha virt. eigenvalues --    0.28847   0.29784   0.30223   0.32794   0.32959
 Alpha virt. eigenvalues --    0.35638   0.36904   0.37182   0.38381   0.43197
 Alpha virt. eigenvalues --    0.44836   0.46764   0.50500   0.53177   0.53332
 Alpha virt. eigenvalues --    0.53474   0.54564   0.57925   0.59166   0.60620
 Alpha virt. eigenvalues --    0.61056   0.62825   0.63014   0.63317   0.69419
 Alpha virt. eigenvalues --    0.69893   0.72055   0.72758   0.76053   0.76535
 Alpha virt. eigenvalues --    0.81225   0.81501   0.83126   0.83313   0.83767
 Alpha virt. eigenvalues --    0.85773   0.87309   0.89161   0.89559   0.89877
 Alpha virt. eigenvalues --    0.92664   0.93164   0.93197   0.95731   0.96806
 Alpha virt. eigenvalues --    1.00794   1.01341   1.01853   1.02290   1.03475
 Alpha virt. eigenvalues --    1.04971   1.09660   1.12857   1.20027   1.21880
 Alpha virt. eigenvalues --    1.23100   1.23167   1.29208   1.38947   1.43009
 Alpha virt. eigenvalues --    1.48503   1.50480   1.54511   1.56669   1.56949
 Alpha virt. eigenvalues --    1.57854   1.60492   1.61909   1.66279   1.66509
 Alpha virt. eigenvalues --    1.70042   1.72718   1.74404   1.75595   1.81217
 Alpha virt. eigenvalues --    1.83351   1.84853   1.90875   1.91157   1.93162
 Alpha virt. eigenvalues --    1.94349   1.95958   1.99231   2.02239   2.02692
 Alpha virt. eigenvalues --    2.07748   2.07931   2.19351   2.20468   2.28170
 Alpha virt. eigenvalues --    2.29000   2.30789   2.37312   2.39323   2.40289
 Alpha virt. eigenvalues --    2.43301   2.53754   2.56059   2.60591   2.60614
 Alpha virt. eigenvalues --    2.69288   2.69291   2.69385   2.73586   2.75346
 Alpha virt. eigenvalues --    2.76743   2.77602   2.78253   2.79216   2.82840
 Alpha virt. eigenvalues --    2.82949   2.85014   2.85447   2.90990   2.94335
 Alpha virt. eigenvalues --    2.94524   3.03550   3.08536   3.11277   3.15362
 Alpha virt. eigenvalues --    3.17322   3.33235   3.39718   3.42458   3.50990
 Alpha virt. eigenvalues --    3.51367   3.59458   3.75521   3.78141   3.92942
 Alpha virt. eigenvalues --    3.96066   3.96962   4.02817   4.04003   4.06903
 Alpha virt. eigenvalues --    4.10313   4.19209   4.60873   4.65913   4.84201
 Alpha virt. eigenvalues --    4.90277   5.66274  23.62413  23.92326  23.98575
 Alpha virt. eigenvalues --   24.05603  24.11667  24.19428  35.46151  35.55968
 Alpha virt. eigenvalues --   35.70598
     Molecular Orbital Coefficients:
                           1         2         3         4         5
                           O         O         O         O         O
     Eigenvalues --   -14.33371 -14.29842 -14.29839 -10.17306 -10.17260
   1 1   C  1S         -0.00000  -0.00000  -0.00001   0.00004   0.00080
   2        2S          0.00001   0.00001   0.00004   0.00013   0.00066
   3        2PX         0.00002  -0.00005   0.00007   0.00011   0.00011
   4        2PY         0.00001  -0.00003  -0.00000   0.00005   0.00011
   5        2PZ         0.00000  -0.00000   0.00000  -0.00000  -0.00000
   6        3S         -0.00008  -0.00024  -0.00032  -0.00059   0.00035
   7        3PX        -0.00014   0.00025  -0.00042  -0.00101  -0.00078
   8        3PY        -0.00005   0.00020   0.00001  -0.00024  -0.00070
   9        3PZ        -0.00000  -0.00000  -0.00000   0.00000   0.00000
  10        4S          0.00061   0.00954  -0.00327   0.00046  -0.01133
  11        4PX         0.00009   0.00423  -0.00022   0.00082  -0.00533
  12        4PY         0.00045  -0.00221  -0.00080   0.00010   0.00283
  13        4PZ        -0.00000   0.00000   0.00000  -0.00000  -0.00000
  14        5S         -0.01548   0.04107  -0.00730  -0.00023  -0.01795
  15        5PX        -0.00209   0.00642  -0.00101   0.00074  -0.00631
  16        5PY        -0.00405  -0.00342  -0.00036  -0.00133  -0.00530
  17        5PZ         0.00000  -0.00000  -0.00000   0.00000   0.00000
  18        6D 0       -0.00002  -0.00003  -0.00006  -0.00003   0.00009
  19        6D+1       -0.00000   0.00000  -0.00000  -0.00000  -0.00000
  20        6D-1        0.00000  -0.00000   0.00000  -0.00000   0.00000
  21        6D+2       -0.00002   0.00011  -0.00007  -0.00007  -0.00029
  22        6D-2       -0.00005   0.00001  -0.00006  -0.00047  -0.00044
  23 2   C  1S         -0.00000   0.00000  -0.00001   0.00005  -0.00080
  24        2S          0.00001  -0.00001   0.00004   0.00014  -0.00065
  25        2PX         0.00002   0.00006   0.00006   0.00011  -0.00011
  26        2PY        -0.00001  -0.00003   0.00000  -0.00005   0.00011
  27        2PZ         0.00000  -0.00000   0.00000   0.00000   0.00000
  28        3S         -0.00008   0.00019  -0.00035  -0.00058  -0.00036
  29        3PX        -0.00014  -0.00031  -0.00038  -0.00103   0.00077
  30        3PY         0.00005   0.00019  -0.00004   0.00024  -0.00069
  31        3PZ        -0.00000   0.00000  -0.00000  -0.00000  -0.00000
  32        4S          0.00060  -0.00989  -0.00197   0.00026   0.01133
  33        4PX         0.00009  -0.00420   0.00033   0.00073   0.00531
  34        4PY        -0.00045  -0.00213   0.00109  -0.00015   0.00289
  35        4PZ         0.00000  -0.00000  -0.00000   0.00000   0.00000
  36        5S         -0.01548  -0.04168  -0.00173  -0.00058   0.01795
  37        5PX        -0.00213  -0.00646  -0.00015   0.00061   0.00638
  38        5PY         0.00402  -0.00342   0.00081   0.00143  -0.00521
  39        5PZ        -0.00000   0.00000   0.00000  -0.00000  -0.00000
  40        6D 0       -0.00002   0.00002  -0.00006  -0.00003  -0.00010
  41        6D+1        0.00000  -0.00000  -0.00000  -0.00000   0.00000
  42        6D-1       -0.00000   0.00000   0.00000   0.00000  -0.00000
  43        6D+2       -0.00002  -0.00012  -0.00005  -0.00008   0.00030
  44        6D-2        0.00005   0.00001   0.00006   0.00047  -0.00042
  45 3   C  1S         -0.00000   0.00000  -0.00001   0.01670   0.01898
  46        2S          0.00002  -0.00001   0.00005   0.01389   0.01572
  47        2PX         0.00005   0.00004   0.00008   0.00054   0.00042
  48        2PY        -0.00001  -0.00012   0.00001  -0.00032  -0.00018
  49        2PZ        -0.00000  -0.00000  -0.00000  -0.00000  -0.00000
  50        3S         -0.00018   0.00037  -0.00040   0.00030   0.00030
  51        3PX        -0.00032  -0.00033  -0.00043  -0.00245  -0.00163
  52        3PY         0.00014   0.00067   0.00011   0.00151   0.00044
  53        3PZ         0.00000   0.00000   0.00000  -0.00000  -0.00000
  54        4S          0.00118  -0.01992   0.00425   0.00050   0.01393
  55        4PX         0.00135  -0.00251  -0.00117   0.00129   0.00047
  56        4PY        -0.00057   0.00936  -0.00401  -0.00075  -0.00931
  57        4PZ         0.00000  -0.00000  -0.00000   0.00000   0.00000
  58        5S         -0.02964  -0.05250   0.00474  -0.02584   0.01297
  59        5PX        -0.01592   0.00035  -0.00243  -0.00664  -0.01018
  60        5PY         0.00182   0.01177  -0.00245   0.00291  -0.00458
  61        5PZ        -0.00000   0.00000   0.00000  -0.00000  -0.00000
  62        6D 0       -0.00002   0.00012  -0.00005   0.00033   0.00032
  63        6D+1       -0.00000   0.00000  -0.00000   0.00000   0.00000
  64        6D-1        0.00000  -0.00000   0.00000  -0.00000  -0.00000
  65        6D+2       -0.00010   0.00011  -0.00029  -0.00060  -0.00034
  66        6D-2        0.00012   0.00010   0.00016   0.00147   0.00096
  67 4   C  1S         -0.00001  -0.00002  -0.00000   0.39414   0.40100
  68        2S          0.00003   0.00005   0.00004   0.32449   0.32993
  69        2PX         0.00007  -0.00032   0.00035   0.00017   0.00014
  70        2PY         0.00003  -0.00019   0.00015  -0.00036   0.00075
  71        2PZ         0.00000   0.00000  -0.00000  -0.00000  -0.00000
  72        3S         -0.00031  -0.00111   0.00021   0.01341   0.01395
  73        3PX        -0.00057   0.00079  -0.00104  -0.00046  -0.00026
  74        3PY         0.00001   0.00096  -0.00021   0.00148  -0.00260
  75        3PZ        -0.00000  -0.00000   0.00000   0.00000   0.00000
  76        4S         -0.00122   0.00298   0.00454  -0.00862  -0.01739
  77        4PX         0.00128  -0.02442   0.00782   0.00090   0.01428
  78        4PY        -0.00063   0.00006   0.00206  -0.00080   0.00651
  79        4PZ        -0.00000   0.00000   0.00000  -0.00000  -0.00000
  80        5S          0.04279   0.10559  -0.00577   0.02247  -0.01951
  81        5PX        -0.01275  -0.01147  -0.00062  -0.00783  -0.00196
  82        5PY         0.01426  -0.01949   0.00550   0.00737   0.01288
  83        5PZ         0.00000  -0.00000  -0.00000   0.00000   0.00000
  84        6D 0       -0.00011  -0.00024   0.00005  -0.00073  -0.00158
  85        6D+1       -0.00000  -0.00000  -0.00000  -0.00000   0.00000
  86        6D-1       -0.00000  -0.00000   0.00000   0.00000  -0.00000
  87        6D+2       -0.00004   0.00086  -0.00031   0.00138  -0.00080
  88        6D-2       -0.00025   0.00024  -0.00048  -0.00045  -0.00053
  89 5   C  1S         -0.00001   0.00002  -0.00000   0.40102  -0.39412
  90        2S          0.00003  -0.00004   0.00005   0.33015  -0.32427
  91        2PX         0.00007   0.00037   0.00031   0.00016  -0.00014
  92        2PY        -0.00003  -0.00020  -0.00012   0.00035   0.00075
  93        2PZ         0.00000  -0.00000  -0.00000  -0.00000   0.00000
  94        3S         -0.00031   0.00113   0.00006   0.01365  -0.01371
  95        3PX        -0.00057  -0.00093  -0.00092  -0.00044   0.00028
  96        3PY        -0.00002   0.00097   0.00007  -0.00144  -0.00262
  97        3PZ        -0.00000   0.00000   0.00000  -0.00000  -0.00000
  98        4S         -0.00123  -0.00235   0.00489  -0.00892   0.01724
  99        4PX         0.00127   0.02526   0.00451   0.00114  -0.01434
 100        4PY         0.00064   0.00007  -0.00200   0.00070   0.00636
 101        4PZ        -0.00000  -0.00000  -0.00000   0.00000   0.00000
 102        5S          0.04283  -0.10541   0.00844   0.02208   0.01991
 103        5PX        -0.01257   0.01151  -0.00212  -0.00777   0.00168
 104        5PY        -0.01436  -0.01992  -0.00286  -0.00770   0.01276
 105        5PZ         0.00000   0.00000   0.00000  -0.00000  -0.00000
 106        6D 0       -0.00011   0.00025   0.00001  -0.00076   0.00157
 107        6D+1       -0.00000   0.00000  -0.00000  -0.00000  -0.00000
 108        6D-1        0.00000  -0.00000  -0.00000   0.00000   0.00000
 109        6D+2       -0.00004  -0.00090  -0.00020   0.00135   0.00084
 110        6D-2        0.00025   0.00028   0.00044   0.00049  -0.00050
 111 6   C  1S         -0.00000  -0.00000  -0.00001   0.01701  -0.01867
 112        2S          0.00002   0.00001   0.00005   0.01415  -0.01546
 113        2PX         0.00005  -0.00003   0.00008   0.00054  -0.00041
 114        2PY         0.00001  -0.00012   0.00001   0.00033  -0.00018
 115        2PZ        -0.00000   0.00000   0.00000  -0.00000  -0.00000
 116        3S         -0.00018  -0.00042  -0.00035   0.00030  -0.00029
 117        3PX        -0.00031   0.00026  -0.00046  -0.00246   0.00158
 118        3PY        -0.00014   0.00066  -0.00021  -0.00154   0.00043
 119        3PZ         0.00000  -0.00000  -0.00000   0.00000   0.00000
 120        4S          0.00118   0.02031   0.00155   0.00074  -0.01393
 121        4PX         0.00134   0.00222  -0.00152   0.00129  -0.00035
 122        4PY         0.00059   0.00983   0.00270   0.00093  -0.00930
 123        4PZ        -0.00000   0.00000   0.00000  -0.00000  -0.00000
 124        5S         -0.02961   0.05267  -0.00234  -0.02557  -0.01343
 125        5PX        -0.01588  -0.00080  -0.00237  -0.00680   0.01011
 126        5PY        -0.00200   0.01198   0.00082  -0.00290  -0.00452
 127        5PZ         0.00000  -0.00000  -0.00000   0.00000   0.00000
 128        6D 0       -0.00002  -0.00013  -0.00004   0.00034  -0.00031
 129        6D+1        0.00000  -0.00000  -0.00000   0.00000  -0.00000
 130        6D-1       -0.00000  -0.00000   0.00000   0.00000  -0.00000
 131        6D+2       -0.00009  -0.00015  -0.00027  -0.00058   0.00031
 132        6D-2       -0.00012   0.00007  -0.00018  -0.00150   0.00094
 133 7   N  1S          0.00200  -0.36675   0.41971  -0.00004  -0.00004
 134        2S          0.00170  -0.30642   0.35080  -0.00002  -0.00008
 135        2PX         0.00021   0.00027  -0.00029  -0.00035  -0.00024
 136        2PY        -0.00023   0.00094  -0.00113  -0.00015  -0.00020
 137        2PZ         0.00000  -0.00000   0.00000   0.00000   0.00000
 138        3S          0.00011  -0.01137   0.01199   0.00064   0.00109
 139        3PX        -0.00045   0.00049  -0.00059   0.00106   0.00041
 140        3PY         0.00034   0.00051  -0.00019   0.00048   0.00051
 141        3PZ        -0.00000   0.00000  -0.00000  -0.00000  -0.00000
 142        4S          0.00223   0.02007  -0.01579  -0.00426  -0.00746
 143        4PX         0.00046  -0.00444   0.00278   0.00025   0.00361
 144        4PY        -0.00129  -0.00325   0.00328   0.00129   0.00033
 145        4PZ         0.00000  -0.00000  -0.00000   0.00000   0.00000
 146        5S         -0.01611  -0.01321   0.00434   0.02281  -0.00294
 147        5PX        -0.00076  -0.00174   0.00064  -0.00009  -0.00143
 148        5PY         0.00326   0.00465  -0.00187  -0.00705  -0.00031
 149        5PZ        -0.00000   0.00000   0.00000  -0.00000  -0.00000
 150        6D 0        0.00023   0.00014  -0.00012   0.00053   0.00046
 151        6D+1        0.00000  -0.00000   0.00000   0.00000   0.00000
 152        6D-1       -0.00000  -0.00000  -0.00000   0.00000   0.00000
 153        6D+2        0.00023  -0.00011   0.00020  -0.00050  -0.00026
 154        6D-2        0.00049   0.00006   0.00003  -0.00048  -0.00043
 155 8   N  1S          0.55738  -0.00019  -0.00284   0.00000   0.00000
 156        2S          0.46593  -0.00016  -0.00233   0.00002   0.00000
 157        2PX        -0.00177  -0.00001  -0.00016   0.00011   0.00000
 158        2PY        -0.00001  -0.00033   0.00002   0.00000  -0.00006
 159        2PZ        -0.00000  -0.00000  -0.00000  -0.00000   0.00000
 160        3S          0.01517  -0.00001  -0.00010  -0.00034  -0.00000
 161        3PX        -0.00012   0.00001   0.00019  -0.00034  -0.00000
 162        3PY        -0.00000   0.00039  -0.00003  -0.00000   0.00032
 163        3PZ         0.00000   0.00000   0.00000   0.00000  -0.00000
 164        4S         -0.01458   0.00033   0.00492   0.00330   0.00003
 165        4PX         0.00228  -0.00016  -0.00255  -0.00137  -0.00001
 166        4PY         0.00001  -0.00156   0.00009   0.00000  -0.00124
 167        4PZ        -0.00000  -0.00000  -0.00000  -0.00000   0.00000
 168        5S          0.03946  -0.00013  -0.00189  -0.03124  -0.00027
 169        5PX        -0.00864  -0.00003   0.00000   0.00811   0.00006
 170        5PY        -0.00005   0.00607  -0.00041   0.00003   0.00233
 171        5PZ         0.00000  -0.00000  -0.00000   0.00000   0.00000
 172        6D 0       -0.00017   0.00002   0.00027  -0.00012  -0.00000
 173        6D+1        0.00000   0.00000   0.00000   0.00000   0.00000
 174        6D-1        0.00000   0.00000   0.00000  -0.00000  -0.00000
 175        6D+2       -0.00024   0.00003   0.00031   0.00025   0.00000
 176        6D-2       -0.00000  -0.00055   0.00004   0.00000  -0.00010
 177 9   N  1S          0.00200   0.41972   0.36674  -0.00004   0.00004
 178        2S          0.00170   0.35069   0.30655  -0.00002   0.00008
 179        2PX         0.00021  -0.00032  -0.00026  -0.00036   0.00024
 180        2PY         0.00024   0.00108   0.00099   0.00015  -0.00019
 181        2PZ         0.00000   0.00000   0.00000   0.00000  -0.00000
 182        3S          0.00011   0.01287   0.01035   0.00066  -0.00108
 183        3PX        -0.00044  -0.00057  -0.00052   0.00108  -0.00040
 184        3PY        -0.00035   0.00052   0.00011  -0.00047   0.00050
 185        3PZ        -0.00000  -0.00000  -0.00000  -0.00000   0.00000
 186        4S          0.00223  -0.02201  -0.01296  -0.00439   0.00739
 187        4PX         0.00045   0.00481   0.00220   0.00032  -0.00361
 188        4PY         0.00130  -0.00361  -0.00279  -0.00129   0.00026
 189        4PZ         0.00000   0.00000   0.00000   0.00000  -0.00000
 190        5S         -0.01612   0.01367   0.00252   0.02275   0.00334
 191        5PX        -0.00073   0.00176   0.00039  -0.00020   0.00143
 192        5PY        -0.00327   0.00488   0.00123   0.00705  -0.00017
 193        5PZ        -0.00000  -0.00000  -0.00000  -0.00000   0.00000
 194        6D 0        0.00023  -0.00016  -0.00010   0.00053  -0.00045
 195        6D+1        0.00000   0.00000   0.00000   0.00000  -0.00000
 196        6D-1        0.00000   0.00000   0.00000  -0.00000   0.00000
 197        6D+2        0.00024   0.00013   0.00018  -0.00051   0.00026
 198        6D-2       -0.00049   0.00006  -0.00003   0.00048  -0.00042
 199 10  H  1S         -0.00001   0.00012  -0.00016  -0.00013  -0.00016
 200        2S         -0.00017  -0.00109   0.00075  -0.00077   0.00090
 201        3S          0.00054  -0.00172   0.00112   0.00128   0.00251
 202        4PX        -0.00007   0.00003   0.00004  -0.00015  -0.00008
 203        4PY         0.00006   0.00008   0.00005   0.00047   0.00018
 204        4PZ         0.00000   0.00000   0.00000   0.00000  -0.00000
 205 11  H  1S         -0.00000  -0.00004  -0.00008  -0.00013   0.00002
 206        2S         -0.00017   0.00035   0.00033  -0.00021  -0.00073
 207        3S          0.00023   0.00076   0.00048   0.00073  -0.00117
 208        4PX        -0.00003  -0.00003   0.00000  -0.00019  -0.00009
 209        4PY         0.00000   0.00001   0.00002   0.00008   0.00002
 210        4PZ         0.00000  -0.00000  -0.00000   0.00000   0.00000
 211 12  H  1S         -0.00000   0.00003  -0.00009  -0.00013  -0.00002
 212        2S         -0.00017  -0.00030   0.00038  -0.00022   0.00073
 213        3S          0.00023  -0.00069   0.00058   0.00071   0.00119
 214        4PX        -0.00003   0.00003  -0.00000  -0.00019   0.00009
 215        4PY        -0.00000   0.00001  -0.00002  -0.00008   0.00002
 216        4PZ        -0.00000   0.00000   0.00000   0.00000  -0.00000
 217 13  H  1S         -0.00001  -0.00014  -0.00014  -0.00014   0.00016
 218        2S         -0.00017   0.00118   0.00060  -0.00075  -0.00091
 219        3S          0.00054   0.00185   0.00088   0.00132  -0.00249
 220        4PX        -0.00007  -0.00002   0.00004  -0.00015   0.00008
 221        4PY        -0.00006   0.00007  -0.00006  -0.00047   0.00018
 222        4PZ         0.00000  -0.00000  -0.00000   0.00000   0.00000
                           6         7         8         9        10
                           O         O         O         O         O
     Eigenvalues --   -10.16745 -10.16744 -10.16485 -10.16440  -1.03525
   1 1   C  1S         -0.02474   0.05373   0.39550  -0.39616  -0.00171
   2        2S         -0.02042   0.04441   0.32551  -0.32588  -0.00263
   3        2PX        -0.00032   0.00054  -0.00021   0.00011   0.00157
   4        2PY        -0.00041   0.00026  -0.00056  -0.00044  -0.00022
   5        2PZ        -0.00000  -0.00000   0.00000  -0.00000   0.00000
   6        3S         -0.00056   0.00146   0.01365  -0.01401   0.00717
   7        3PX         0.00120  -0.00227   0.00082  -0.00028   0.00259
   8        3PY         0.00199  -0.00085   0.00230   0.00128  -0.00091
   9        3PZ         0.00000   0.00000   0.00000   0.00000  -0.00000
  10        4S         -0.01011   0.00396  -0.00611   0.02204   0.01147
  11        4PX        -0.00613   0.00399  -0.00149   0.01101  -0.00196
  12        4PY         0.00260  -0.00140   0.00019  -0.00656   0.00421
  13        4PZ        -0.00000  -0.00000  -0.00000   0.00000   0.00000
  14        5S         -0.03553   0.00435   0.00488  -0.00781   0.01875
  15        5PX        -0.00528   0.00093   0.00250  -0.00168  -0.00211
  16        5PY         0.00544  -0.00303  -0.00087  -0.00029   0.01069
  17        5PZ         0.00000   0.00000   0.00000   0.00000  -0.00000
  18        6D 0       -0.00017   0.00046  -0.00099   0.00169  -0.00022
  19        6D+1        0.00000  -0.00000  -0.00000   0.00000   0.00000
  20        6D-1        0.00000  -0.00000  -0.00000   0.00000  -0.00000
  21        6D+2        0.00101  -0.00041   0.00123   0.00069   0.00033
  22        6D-2        0.00068  -0.00121   0.00032  -0.00011  -0.00042
  23 2   C  1S          0.04959   0.03207   0.39548   0.39620  -0.00171
  24        2S          0.04096   0.02653   0.32549   0.32591  -0.00263
  25        2PX         0.00056   0.00029  -0.00021  -0.00011   0.00156
  26        2PY        -0.00048   0.00000   0.00056  -0.00044   0.00024
  27        2PZ         0.00000   0.00000   0.00000   0.00000  -0.00000
  28        3S          0.00125   0.00093   0.01365   0.01401   0.00717
  29        3PX        -0.00225  -0.00126   0.00084   0.00026   0.00258
  30        3PY         0.00211  -0.00036  -0.00229   0.00129   0.00094
  31        3PZ        -0.00000  -0.00000  -0.00000  -0.00000   0.00000
  32        4S          0.01066  -0.00208  -0.00611  -0.02204   0.01149
  33        4PX         0.00728   0.00009  -0.00149  -0.01093  -0.00190
  34        4PY         0.00303  -0.00021  -0.00020  -0.00669  -0.00422
  35        4PZ         0.00000   0.00000   0.00000   0.00000  -0.00000
  36        5S          0.03233  -0.01538   0.00488   0.00781   0.01894
  37        5PX         0.00489  -0.00204   0.00249   0.00169  -0.00195
  38        5PY         0.00627  -0.00038   0.00089  -0.00027  -0.01072
  39        5PZ        -0.00000  -0.00000  -0.00000  -0.00000   0.00000
  40        6D 0        0.00039   0.00030  -0.00099  -0.00169  -0.00022
  41        6D+1       -0.00000   0.00000   0.00000   0.00000   0.00000
  42        6D-1        0.00000   0.00000  -0.00000   0.00000  -0.00000
  43        6D+2       -0.00110   0.00018   0.00124  -0.00068   0.00032
  44        6D-2        0.00120   0.00066  -0.00029  -0.00013   0.00043
  45 3   C  1S         -0.26974   0.48984  -0.04477   0.03881  -0.00490
  46        2S         -0.22190   0.40309  -0.03667   0.03181  -0.00731
  47        2PX        -0.00005   0.00003  -0.00059   0.00046   0.00417
  48        2PY        -0.00006   0.00005  -0.00035   0.00020  -0.00289
  49        2PZ        -0.00000   0.00000  -0.00000   0.00000  -0.00000
  50        3S         -0.00993   0.01709  -0.00181   0.00187   0.01841
  51        3PX         0.00022   0.00003   0.00269  -0.00175   0.00412
  52        3PY         0.00035   0.00003   0.00170  -0.00058  -0.00295
  53        3PZ        -0.00000  -0.00000  -0.00000   0.00000   0.00000
  54        4S          0.01612  -0.01712   0.00012  -0.01679   0.00380
  55        4PX         0.00055  -0.00128  -0.00069  -0.00028   0.00801
  56        4PY        -0.00819   0.00835  -0.00078   0.01034   0.00679
  57        4PZ        -0.00000   0.00000   0.00000  -0.00000  -0.00000
  58        5S          0.03780  -0.00634  -0.00313   0.00458   0.22255
  59        5PX         0.00266  -0.00260   0.00040  -0.00171   0.06486
  60        5PY        -0.00612  -0.00004   0.00049   0.00027  -0.01489
  61        5PZ        -0.00000  -0.00000  -0.00000  -0.00000   0.00000
  62        6D 0        0.00082  -0.00154   0.00066  -0.00054  -0.00035
  63        6D+1        0.00000  -0.00000  -0.00000   0.00000   0.00000
  64        6D-1        0.00000  -0.00000  -0.00000   0.00000   0.00000
  65        6D+2        0.00009  -0.00030  -0.00066   0.00034   0.00094
  66        6D-2       -0.00008  -0.00007  -0.00145   0.00087   0.00046
  67 4   C  1S          0.01344  -0.02144   0.00184  -0.00104  -0.03268
  68        2S          0.01102  -0.01749   0.00159  -0.00084  -0.04991
  69        2PX         0.00028  -0.00062  -0.00006   0.00001   0.03042
  70        2PY        -0.00026   0.00031   0.00001  -0.00004  -0.00904
  71        2PZ         0.00000   0.00000  -0.00000   0.00000  -0.00000
  72        3S          0.00063  -0.00101  -0.00041  -0.00044   0.12413
  73        3PX        -0.00092   0.00235   0.00065  -0.00022   0.04240
  74        3PY         0.00131  -0.00107  -0.00014   0.00037  -0.01210
  75        3PZ        -0.00000   0.00000   0.00000  -0.00000  -0.00000
  76        4S         -0.01021   0.00468  -0.00122   0.01103   0.03472
  77        4PX         0.00799  -0.00859  -0.00208  -0.00938  -0.00725
  78        4PY         0.00190  -0.00048  -0.00031  -0.00199  -0.01282
  79        4PZ         0.00000  -0.00000  -0.00000   0.00000   0.00000
  80        5S         -0.04153   0.01088  -0.00332  -0.00902  -0.21129
  81        5PX         0.01219  -0.00521   0.00041   0.00111   0.07866
  82        5PY         0.00152   0.00118   0.00011   0.00234  -0.09661
  83        5PZ         0.00000   0.00000   0.00000   0.00000  -0.00000
  84        6D 0       -0.00031   0.00066  -0.00004  -0.00005  -0.00976
  85        6D+1       -0.00000   0.00000  -0.00000  -0.00000   0.00000
  86        6D-1        0.00000  -0.00000   0.00000  -0.00000   0.00000
  87        6D+2        0.00075  -0.00057  -0.00007   0.00017   0.00683
  88        6D-2       -0.00059   0.00099   0.00022  -0.00021  -0.00268
  89 5   C  1S         -0.02282  -0.01090   0.00183   0.00104  -0.03267
  90        2S         -0.01866  -0.00886   0.00159   0.00084  -0.04990
  91        2PX        -0.00056  -0.00037  -0.00006  -0.00001   0.03031
  92        2PY        -0.00039  -0.00013  -0.00001  -0.00004   0.00938
  93        2PZ         0.00000   0.00000   0.00000   0.00000  -0.00000
  94        3S         -0.00107  -0.00052  -0.00041   0.00044   0.12412
  95        3PX         0.00202   0.00148   0.00065   0.00022   0.04226
  96        3PY         0.00170   0.00022   0.00015   0.00037   0.01258
  97        3PZ        -0.00000  -0.00000  -0.00000  -0.00000  -0.00000
  98        4S          0.01113  -0.00152  -0.00122  -0.01103   0.03475
  99        4PX        -0.01137  -0.00296  -0.00209   0.00940  -0.00741
 100        4PY         0.00173  -0.00065   0.00028  -0.00189   0.01274
 101        4PZ         0.00000   0.00000   0.00000   0.00000   0.00000
 102        5S          0.04089  -0.01308  -0.00332   0.00902  -0.21112
 103        5PX        -0.01309   0.00216   0.00041  -0.00114   0.07747
 104        5PY         0.00051  -0.00179  -0.00010   0.00233   0.09745
 105        5PZ        -0.00000  -0.00000  -0.00000  -0.00000   0.00000
 106        6D 0        0.00061   0.00039  -0.00004   0.00005  -0.00976
 107        6D+1        0.00000   0.00000   0.00000   0.00000   0.00000
 108        6D-1        0.00000   0.00000   0.00000  -0.00000  -0.00000
 109        6D+2       -0.00091  -0.00007  -0.00007  -0.00016   0.00677
 110        6D-2       -0.00105  -0.00052  -0.00022  -0.00022   0.00284
 111 6   C  1S          0.49023   0.26907  -0.04469  -0.03876  -0.00490
 112        2S          0.40335   0.22145  -0.03660  -0.03177  -0.00731
 113        2PX         0.00006  -0.00000  -0.00060  -0.00046   0.00414
 114        2PY        -0.00007  -0.00001   0.00034   0.00020   0.00294
 115        2PZ        -0.00000  -0.00000  -0.00000  -0.00000  -0.00000
 116        3S          0.01754   0.00911  -0.00181  -0.00187   0.01841
 117        3PX        -0.00018   0.00015   0.00271   0.00175   0.00409
 118        3PY         0.00028  -0.00021  -0.00167  -0.00056   0.00299
 119        3PZ         0.00000   0.00000   0.00000   0.00000   0.00000
 120        4S         -0.02279  -0.00581   0.00012   0.01679   0.00377
 121        4PX        -0.00103  -0.00076  -0.00070   0.00017   0.00808
 122        4PY        -0.01140  -0.00267   0.00077   0.01034  -0.00671
 123        4PZ        -0.00000  -0.00000  -0.00000  -0.00000  -0.00000
 124        5S         -0.03531   0.01492  -0.00313  -0.00458   0.22221
 125        5PX        -0.00358  -0.00080   0.00041   0.00171   0.06469
 126        5PY        -0.00519   0.00331  -0.00048   0.00029   0.01556
 127        5PZ         0.00000   0.00000   0.00000   0.00000  -0.00000
 128        6D 0       -0.00152  -0.00086   0.00066   0.00054  -0.00035
 129        6D+1        0.00000   0.00000  -0.00000  -0.00000  -0.00000
 130        6D-1        0.00000   0.00000   0.00000   0.00000   0.00000
 131        6D+2       -0.00024  -0.00021  -0.00069  -0.00036   0.00095
 132        6D-2       -0.00004   0.00010   0.00144   0.00086  -0.00044
 133 7   N  1S         -0.00000   0.00000   0.00000   0.00000  -0.05783
 134        2S          0.00000   0.00005   0.00003   0.00001  -0.09035
 135        2PX        -0.00001  -0.00006  -0.00005   0.00001  -0.00097
 136        2PY        -0.00002   0.00001   0.00001  -0.00001  -0.05123
 137        2PZ        -0.00000   0.00000   0.00000   0.00000  -0.00000
 138        3S          0.00002  -0.00040  -0.00027  -0.00015   0.24415
 139        3PX         0.00003   0.00032   0.00023  -0.00003  -0.00049
 140        3PY         0.00009   0.00001   0.00001   0.00003  -0.08038
 141        3PZ         0.00000  -0.00000  -0.00000  -0.00000   0.00000
 142        4S         -0.00220   0.00326   0.00152   0.00290   0.15623
 143        4PX         0.00054  -0.00139  -0.00086  -0.00072  -0.01280
 144        4PY        -0.00003  -0.00086  -0.00043  -0.00029  -0.02561
 145        4PZ        -0.00000   0.00000   0.00000   0.00000  -0.00000
 146        5S          0.00173   0.00766   0.00301   0.00382  -0.05027
 147        5PX        -0.00008  -0.00022  -0.00067  -0.00071  -0.00459
 148        5PY        -0.00108  -0.00142  -0.00028  -0.00121   0.03129
 149        5PZ        -0.00000  -0.00000  -0.00000  -0.00000   0.00000
 150        6D 0        0.00000  -0.00000   0.00000   0.00001  -0.01040
 151        6D+1        0.00000  -0.00000  -0.00000  -0.00000   0.00000
 152        6D-1       -0.00000  -0.00000  -0.00000   0.00000  -0.00000
 153        6D+2        0.00000  -0.00017  -0.00006   0.00002  -0.00606
 154        6D-2       -0.00003   0.00003  -0.00000  -0.00003  -0.00359
 155 8   N  1S          0.00000   0.00000   0.00000  -0.00000  -0.07345
 156        2S          0.00001   0.00003   0.00001  -0.00000  -0.11512
 157        2PX        -0.00001  -0.00002  -0.00002   0.00000  -0.05742
 158        2PY        -0.00001   0.00000  -0.00000  -0.00000  -0.00032
 159        2PZ        -0.00000  -0.00000  -0.00000  -0.00000   0.00000
 160        3S         -0.00006  -0.00021  -0.00003   0.00000   0.31853
 161        3PX         0.00004   0.00014   0.00008   0.00000  -0.09469
 162        3PY         0.00003  -0.00001   0.00000  -0.00000  -0.00053
 163        3PZ         0.00000   0.00000   0.00000   0.00000  -0.00000
 164        4S          0.00004   0.00014  -0.00026  -0.00000   0.18766
 165        4PX        -0.00013  -0.00045   0.00002   0.00000  -0.02758
 166        4PY        -0.00001   0.00000   0.00000  -0.00021  -0.00016
 167        4PZ        -0.00000  -0.00000  -0.00000   0.00000   0.00000
 168        5S         -0.00188  -0.00647  -0.00089   0.00000  -0.00462
 169        5PX         0.00047   0.00161   0.00029   0.00000   0.00928
 170        5PY        -0.00080   0.00024   0.00000  -0.00028   0.00005
 171        5PZ         0.00000   0.00000   0.00000   0.00000  -0.00000
 172        6D 0       -0.00001  -0.00002   0.00001   0.00000  -0.01304
 173        6D+1        0.00000   0.00000   0.00000   0.00000   0.00000
 174        6D-1        0.00000  -0.00000  -0.00000  -0.00000  -0.00000
 175        6D+2        0.00001   0.00005   0.00001  -0.00000   0.00139
 176        6D-2       -0.00004   0.00001   0.00000   0.00001   0.00001
 177 9   N  1S          0.00000   0.00000   0.00000  -0.00000  -0.05782
 178        2S          0.00002   0.00004   0.00003  -0.00001  -0.09034
 179        2PX        -0.00002  -0.00005  -0.00005  -0.00001  -0.00154
 180        2PY        -0.00002  -0.00000  -0.00001  -0.00001   0.05121
 181        2PZ         0.00000   0.00000  -0.00000  -0.00000  -0.00000
 182        3S         -0.00023  -0.00032  -0.00027   0.00015   0.24412
 183        3PX         0.00014   0.00029   0.00023   0.00003  -0.00140
 184        3PY         0.00007  -0.00006  -0.00001   0.00003   0.08036
 185        3PZ        -0.00000  -0.00000   0.00000   0.00000   0.00000
 186        4S          0.00361   0.00157   0.00152  -0.00290   0.15622
 187        4PX        -0.00120  -0.00089  -0.00086   0.00072  -0.01310
 188        4PY         0.00042   0.00074   0.00042  -0.00029   0.02546
 189        4PZ         0.00000   0.00000  -0.00000  -0.00000  -0.00000
 190        5S          0.00265   0.00740   0.00300  -0.00382  -0.05026
 191        5PX        -0.00005  -0.00025  -0.00067   0.00072  -0.00423
 192        5PY        -0.00015   0.00177   0.00027  -0.00120  -0.03134
 193        5PZ         0.00000  -0.00000   0.00000   0.00000   0.00000
 194        6D 0       -0.00000  -0.00000   0.00000  -0.00001  -0.01039
 195        6D+1        0.00000   0.00000   0.00000   0.00000   0.00000
 196        6D-1        0.00000   0.00000  -0.00000  -0.00000  -0.00000
 197        6D+2       -0.00009  -0.00014  -0.00006  -0.00002  -0.00614
 198        6D-2       -0.00004  -0.00001   0.00000  -0.00003   0.00345
 199 10  H  1S         -0.00025   0.00031  -0.00018   0.00020   0.00176
 200        2S          0.00279  -0.00472  -0.00022  -0.00134   0.00010
 201        3S          0.00047   0.00066   0.00071  -0.00260  -0.00514
 202        4PX         0.00000   0.00003   0.00009  -0.00004  -0.00017
 203        4PY        -0.00107   0.00213   0.00022   0.00005  -0.00028
 204        4PZ        -0.00000   0.00000  -0.00000   0.00000  -0.00000
 205 11  H  1S          0.00006  -0.00018   0.00014  -0.00045   0.00050
 206        2S         -0.00072  -0.00038  -0.00319   0.00414  -0.00192
 207        3S         -0.00137   0.00220   0.00219   0.00145  -0.00267
 208        4PX         0.00010  -0.00056  -0.00152   0.00127  -0.00017
 209        4PY         0.00002   0.00022   0.00089  -0.00065   0.00010
 210        4PZ         0.00000   0.00000  -0.00000   0.00000  -0.00000
 211 12  H  1S         -0.00015  -0.00012   0.00014   0.00045   0.00050
 212        2S          0.00040  -0.00071  -0.00319  -0.00414  -0.00192
 213        3S          0.00233   0.00112   0.00219  -0.00145  -0.00267
 214        4PX        -0.00038  -0.00042  -0.00151  -0.00126  -0.00017
 215        4PY        -0.00011  -0.00020  -0.00091  -0.00067  -0.00010
 216        4PZ         0.00000  -0.00000  -0.00000  -0.00000  -0.00000
 217 13  H  1S          0.00037   0.00013  -0.00018  -0.00020   0.00176
 218        2S         -0.00488  -0.00249  -0.00022   0.00134   0.00010
 219        3S         -0.00005   0.00081   0.00071   0.00260  -0.00514
 220        4PX         0.00003   0.00004   0.00009   0.00004  -0.00017
 221        4PY        -0.00204  -0.00123  -0.00022   0.00005   0.00028
 222        4PZ         0.00000   0.00000   0.00000   0.00000  -0.00000
                          11        12        13        14        15
                           O         O         O         O         O
     Eigenvalues --    -0.84072  -0.83554  -0.74185  -0.73223  -0.61982
   1 1   C  1S         -0.05296   0.00482  -0.05595  -0.03987   0.03801
   2        2S         -0.08154   0.00734  -0.08655  -0.06173   0.05928
   3        2PX         0.02542  -0.00472  -0.00090   0.02890   0.05312
   4        2PY        -0.01212  -0.00446  -0.02085   0.03981   0.04875
   5        2PZ         0.00000  -0.00000   0.00000   0.00000   0.00000
   6        3S          0.21026  -0.01864   0.22703   0.16224  -0.15904
   7        3PX         0.03735  -0.00711  -0.00102   0.04199   0.07435
   8        3PY        -0.01923  -0.00651  -0.03225   0.05742   0.07023
   9        3PZ        -0.00000   0.00000  -0.00000   0.00000  -0.00000
  10        4S          0.09852  -0.02539   0.12236   0.07757  -0.11156
  11        4PX         0.00779  -0.00789   0.00032   0.00690   0.02990
  12        4PY        -0.00472  -0.00135  -0.01039   0.01784   0.02288
  13        4PZ         0.00000  -0.00000   0.00000  -0.00000   0.00000
  14        5S         -0.02148  -0.10377   0.04117  -0.11157   0.04858
  15        5PX        -0.00913  -0.03998   0.00074  -0.04472   0.01736
  16        5PY         0.00179  -0.05107   0.01548  -0.02997  -0.00854
  17        5PZ        -0.00000   0.00000  -0.00000   0.00000  -0.00000
  18        6D 0       -0.00929   0.00069  -0.00717  -0.00492   0.00325
  19        6D+1       -0.00000  -0.00000   0.00000  -0.00000   0.00000
  20        6D-1       -0.00000   0.00000  -0.00000  -0.00000  -0.00000
  21        6D+2       -0.00060  -0.00216  -0.00631   0.00787   0.00888
  22        6D-2        0.00140  -0.00037   0.00103   0.00904   0.00198
  23 2   C  1S         -0.05295  -0.00487  -0.05594   0.03988   0.03802
  24        2S         -0.08153  -0.00743  -0.08654   0.06174   0.05928
  25        2PX         0.02528   0.00480  -0.00114  -0.02934   0.05367
  26        2PY         0.01241  -0.00440   0.02085   0.03948  -0.04815
  27        2PZ        -0.00000   0.00000  -0.00000  -0.00000   0.00000
  28        3S          0.21024   0.01887   0.22701  -0.16227  -0.15905
  29        3PX         0.03712   0.00722  -0.00139  -0.04264   0.07513
  30        3PY         0.01966  -0.00640   0.03224   0.05695  -0.06939
  31        3PZ         0.00000  -0.00000   0.00000  -0.00000   0.00000
  32        4S          0.09848   0.02550   0.12234  -0.07758  -0.11157
  33        4PX         0.00772   0.00792   0.00020  -0.00710   0.03015
  34        4PY         0.00481  -0.00125   0.01040   0.01776  -0.02254
  35        4PZ        -0.00000   0.00000  -0.00000   0.00000  -0.00000
  36        5S         -0.02146   0.10380   0.04109   0.11162   0.04853
  37        5PX        -0.00912   0.04055   0.00087   0.04506   0.01722
  38        5PY        -0.00186  -0.05063  -0.01544  -0.02947   0.00879
  39        5PZ         0.00000  -0.00000   0.00000  -0.00000   0.00000
  40        6D 0       -0.00929  -0.00070  -0.00717   0.00492   0.00325
  41        6D+1       -0.00000   0.00000  -0.00000   0.00000  -0.00000
  42        6D-1       -0.00000   0.00000  -0.00000  -0.00000   0.00000
  43        6D+2       -0.00058   0.00217  -0.00628  -0.00807   0.00893
  44        6D-2       -0.00141  -0.00032  -0.00117   0.00887  -0.00178
  45 3   C  1S         -0.05157   0.01748  -0.00483  -0.07064  -0.04796
  46        2S         -0.07943   0.02683  -0.00748  -0.10939  -0.07506
  47        2PX        -0.00255  -0.01118  -0.04518  -0.01041   0.02216
  48        2PY        -0.02921   0.00383  -0.00337  -0.01408   0.00280
  49        2PZ        -0.00000   0.00000  -0.00000  -0.00000   0.00000
  50        3S          0.20501  -0.07012   0.01955   0.28728   0.20155
  51        3PX        -0.00258  -0.01469  -0.06577  -0.01195   0.03428
  52        3PY        -0.04259   0.00380  -0.00455  -0.02142   0.00342
  53        3PZ         0.00000  -0.00000   0.00000   0.00000   0.00000
  54        4S          0.09979   0.01160   0.00686   0.18330   0.12338
  55        4PX        -0.00036   0.00043  -0.02182  -0.00084   0.00566
  56        4PY        -0.01219  -0.01787   0.00117  -0.01684   0.00075
  57        4PZ        -0.00000   0.00000  -0.00000  -0.00000   0.00000
  58        5S          0.01436  -0.03658   0.04587  -0.01098  -0.02134
  59        5PX        -0.00708  -0.10963   0.03831  -0.07117   0.00699
  60        5PY        -0.00449  -0.02974   0.00013  -0.01162   0.01505
  61        5PZ         0.00000  -0.00000   0.00000  -0.00000  -0.00000
  62        6D 0       -0.00895   0.00215  -0.00060  -0.00887  -0.00538
  63        6D+1        0.00000   0.00000  -0.00000   0.00000   0.00000
  64        6D-1       -0.00000   0.00000  -0.00000  -0.00000  -0.00000
  65        6D+2        0.00062  -0.00461  -0.00071   0.00300  -0.00085
  66        6D-2        0.00033  -0.00030   0.01083   0.00034  -0.00639
  67 4   C  1S         -0.04460   0.03862   0.05562  -0.02095   0.00510
  68        2S         -0.06883   0.05950   0.08621  -0.03252   0.00797
  69        2PX        -0.02883  -0.03565  -0.01649  -0.04374  -0.08393
  70        2PY        -0.00913  -0.03064   0.01796   0.02239   0.01924
  71        2PZ         0.00000   0.00000   0.00000   0.00000   0.00000
  72        3S          0.17939  -0.15484  -0.23039   0.08716  -0.02306
  73        3PX        -0.04110  -0.05159  -0.02504  -0.06131  -0.11782
  74        3PY        -0.01371  -0.04820   0.02672   0.03473   0.02592
  75        3PZ        -0.00000   0.00000   0.00000   0.00000   0.00000
  76        4S          0.08848  -0.07122  -0.12064   0.04746  -0.00872
  77        4PX        -0.00595   0.05316  -0.00780   0.01417  -0.04482
  78        4PY        -0.00365  -0.00660   0.01069   0.00612   0.01606
  79        4PZ         0.00000  -0.00000   0.00000  -0.00000  -0.00000
  80        5S          0.01544  -0.53845  -0.09120  -0.37657  -0.02970
  81        5PX         0.00512  -0.10230   0.02086  -0.05569   0.01910
  82        5PY         0.01899   0.27368  -0.03507   0.19132   0.00107
  83        5PZ        -0.00000   0.00000  -0.00000   0.00000   0.00000
  84        6D 0       -0.00805   0.00740   0.00761  -0.00229   0.00201
  85        6D+1        0.00000  -0.00000   0.00000   0.00000   0.00000
  86        6D-1        0.00000  -0.00000  -0.00000  -0.00000  -0.00000
  87        6D+2       -0.00026  -0.01703   0.00542   0.00349  -0.00133
  88        6D-2       -0.00035  -0.00484  -0.00047  -0.00901  -0.00344
  89 5   C  1S         -0.04456  -0.03866   0.05562   0.02095   0.00510
  90        2S         -0.06876  -0.05957   0.08621   0.03252   0.00797
  91        2PX        -0.02897   0.03596  -0.01628   0.04349  -0.08370
  92        2PY         0.00884  -0.03022  -0.01815   0.02287  -0.02019
  93        2PZ        -0.00000  -0.00000  -0.00000   0.00000   0.00000
  94        3S          0.17922   0.15503  -0.23040  -0.08715  -0.02306
  95        3PX        -0.04130   0.05209  -0.02473   0.06092  -0.11752
  96        3PY         0.01331  -0.04759  -0.02700   0.03541  -0.02725
  97        3PZ        -0.00000  -0.00000   0.00000  -0.00000   0.00000
  98        4S          0.08839   0.07132  -0.12066  -0.04746  -0.00872
  99        4PX        -0.00593  -0.05309  -0.00767  -0.01424  -0.04462
 100        4PY         0.00359  -0.00719  -0.01078   0.00596  -0.01655
 101        4PZ        -0.00000   0.00000  -0.00000   0.00000   0.00000
 102        5S          0.01521   0.53846  -0.09139   0.37660  -0.02980
 103        5PX         0.00521   0.09922   0.02041   0.05352   0.01906
 104        5PY        -0.01913   0.27480   0.03517   0.19193  -0.00097
 105        5PZ         0.00000  -0.00000   0.00000  -0.00000  -0.00000
 106        6D 0       -0.00804  -0.00741   0.00761   0.00229   0.00201
 107        6D+1        0.00000   0.00000  -0.00000  -0.00000   0.00000
 108        6D-1        0.00000  -0.00000  -0.00000  -0.00000   0.00000
 109        6D+2       -0.00028   0.01714   0.00540  -0.00329  -0.00140
 110        6D-2        0.00034  -0.00446   0.00059  -0.00908   0.00340
 111 6   C  1S         -0.05155  -0.01754  -0.00483   0.07065  -0.04796
 112        2S         -0.07940  -0.02692  -0.00747   0.10939  -0.07505
 113        2PX        -0.00289   0.01113  -0.04521   0.01057   0.02219
 114        2PY         0.02917   0.00399   0.00286  -0.01396  -0.00256
 115        2PZ        -0.00000  -0.00000   0.00000   0.00000  -0.00000
 116        3S          0.20493   0.07033   0.01953  -0.28729   0.20154
 117        3PX        -0.00307   0.01464  -0.06582   0.01219   0.03432
 118        3PY         0.04255   0.00401   0.00381  -0.02129  -0.00304
 119        3PZ        -0.00000   0.00000  -0.00000   0.00000   0.00000
 120        4S          0.09981  -0.01150   0.00685  -0.18331   0.12340
 121        4PX        -0.00050  -0.00024  -0.02180   0.00103   0.00568
 122        4PY         0.01221  -0.01785  -0.00141  -0.01683  -0.00068
 123        4PZ         0.00000  -0.00000   0.00000  -0.00000   0.00000
 124        5S          0.01417   0.03656   0.04586   0.01091  -0.02135
 125        5PX        -0.00722   0.10998   0.03824   0.07131   0.00707
 126        5PY         0.00440  -0.02852   0.00031  -0.01084  -0.01496
 127        5PZ        -0.00000   0.00000  -0.00000   0.00000   0.00000
 128        6D 0       -0.00894  -0.00216  -0.00060   0.00887  -0.00538
 129        6D+1        0.00000   0.00000  -0.00000  -0.00000   0.00000
 130        6D-1        0.00000   0.00000   0.00000  -0.00000   0.00000
 131        6D+2        0.00062   0.00462  -0.00047  -0.00301  -0.00099
 132        6D-2       -0.00031  -0.00020  -0.01084   0.00027   0.00637
 133 7   N  1S          0.00542   0.07583   0.00538   0.02338   0.01794
 134        2S          0.00865   0.11934   0.00841   0.03699   0.02848
 135        2PX        -0.02517   0.01902   0.06217  -0.01300   0.06235
 136        2PY         0.01366   0.03236  -0.01729   0.01653  -0.00626
 137        2PZ         0.00000   0.00000  -0.00000   0.00000  -0.00000
 138        3S         -0.02539  -0.33208  -0.02147  -0.10445  -0.07993
 139        3PX        -0.03740   0.02684   0.09320  -0.01878   0.09218
 140        3PY         0.02073   0.05226  -0.02523   0.02677  -0.00817
 141        3PZ         0.00000  -0.00000   0.00000  -0.00000  -0.00000
 142        4S         -0.00983  -0.27427  -0.03185  -0.10175  -0.08010
 143        4PX        -0.01023   0.02282   0.03325  -0.00397   0.04082
 144        4PY         0.00524   0.02887  -0.00353   0.01688   0.00268
 145        4PZ        -0.00000   0.00000  -0.00000   0.00000  -0.00000
 146        5S         -0.04822   0.09660   0.08667   0.05738   0.06761
 147        5PX         0.00646   0.00472  -0.00640   0.01627  -0.00167
 148        5PY         0.00388  -0.03764  -0.01933  -0.02865  -0.02654
 149        5PZ         0.00000  -0.00000   0.00000  -0.00000   0.00000
 150        6D 0        0.00106   0.00685   0.00040   0.00194   0.00124
 151        6D+1        0.00000  -0.00000   0.00000   0.00000   0.00000
 152        6D-1        0.00000  -0.00000  -0.00000   0.00000  -0.00000
 153        6D+2        0.00457  -0.00430  -0.00820   0.00153  -0.00446
 154        6D-2        0.00541   0.00171  -0.01318   0.00139  -0.01291
 155 8   N  1S          0.03011   0.00001  -0.05385   0.00000  -0.04578
 156        2S          0.04751   0.00002  -0.08528   0.00000  -0.07284
 157        2PX         0.01329   0.00050  -0.00977   0.00026   0.01273
 158        2PY         0.00012  -0.08674  -0.00005  -0.04536   0.00007
 159        2PZ        -0.00000   0.00000   0.00000   0.00000  -0.00000
 160        3S         -0.13528  -0.00005   0.24662  -0.00001   0.21387
 161        3PX         0.02170   0.00075  -0.01754   0.00038   0.01680
 162        3PY         0.00019  -0.13029  -0.00009  -0.06772   0.00010
 163        3PZ         0.00000  -0.00000  -0.00000   0.00000  -0.00000
 164        4S         -0.10086  -0.00004   0.20311  -0.00001   0.19938
 165        4PX         0.01321   0.00018  -0.01412   0.00010   0.00393
 166        4PY         0.00009  -0.03130  -0.00008  -0.01804   0.00002
 167        4PZ        -0.00000  -0.00000   0.00000  -0.00000   0.00000
 168        5S          0.05810   0.00004  -0.14022   0.00001  -0.11708
 169        5PX        -0.02233   0.00008   0.04057   0.00013   0.02944
 170        5PY        -0.00012  -0.01575   0.00023  -0.02329   0.00016
 171        5PZ         0.00000   0.00000  -0.00000   0.00000  -0.00000
 172        6D 0        0.00288   0.00000  -0.00243   0.00000   0.00083
 173        6D+1        0.00000  -0.00000   0.00000   0.00000   0.00000
 174        6D-1        0.00000  -0.00000   0.00000  -0.00000  -0.00000
 175        6D+2        0.00289  -0.00027  -0.00776  -0.00011  -0.00905
 176        6D-2        0.00002   0.02354  -0.00009   0.00960  -0.00010
 177 9   N  1S          0.00549  -0.07583   0.00538  -0.02338   0.01794
 178        2S          0.00878  -0.11934   0.00841  -0.03700   0.02848
 179        2PX        -0.02499  -0.01941   0.06197   0.01280   0.06227
 180        2PY        -0.01397   0.03214   0.01799   0.01667   0.00697
 181        2PZ         0.00000  -0.00000  -0.00000  -0.00000  -0.00000
 182        3S         -0.02573   0.33207  -0.02147   0.10447  -0.07993
 183        3PX        -0.03713  -0.02746   0.09289   0.01846   0.09207
 184        3PY        -0.02120   0.05194   0.02628   0.02698   0.00922
 185        3PZ        -0.00000   0.00000  -0.00000   0.00000   0.00000
 186        4S         -0.01011   0.27428  -0.03186   0.10176  -0.08010
 187        4PX        -0.01014  -0.02316   0.03320   0.00377   0.04084
 188        4PY        -0.00538   0.02861   0.00390   0.01692  -0.00222
 189        4PZ         0.00000  -0.00000   0.00000  -0.00000  -0.00000
 190        5S         -0.04814  -0.09666   0.08668  -0.05739   0.06760
 191        5PX         0.00651  -0.00429  -0.00662  -0.01594  -0.00197
 192        5PY        -0.00378  -0.03770   0.01926  -0.02884   0.02652
 193        5PZ        -0.00000   0.00000  -0.00000   0.00000   0.00000
 194        6D 0        0.00107  -0.00685   0.00040  -0.00194   0.00124
 195        6D+1       -0.00000   0.00000   0.00000  -0.00000   0.00000
 196        6D-1        0.00000  -0.00000  -0.00000  -0.00000  -0.00000
 197        6D+2        0.00469   0.00426  -0.00850  -0.00156  -0.00475
 198        6D-2       -0.00530   0.00180   0.01299   0.00135   0.01280
 199 10  H  1S          0.02135  -0.01041   0.00222   0.04686   0.04483
 200        2S          0.02503  -0.01068   0.00222   0.05624   0.05720
 201        3S         -0.00424   0.00557  -0.00187   0.00121   0.00457
 202        4PX        -0.00008  -0.00029  -0.00251  -0.00031   0.00155
 203        4PY        -0.00481   0.00277  -0.00039  -0.00957  -0.00791
[...]
    Y4       -1.78314   0.00002   0.00000   0.00005   0.00005  -1.78309
    Z4        0.00000  -0.00000   0.00000  -0.00000  -0.00000  -0.00000
    X5        1.14781  -0.00003   0.00000  -0.00001   0.00001   1.14782
    Y5       -4.46328  -0.00002   0.00000  -0.00005  -0.00005  -4.46333
    Z5        0.00000   0.00000   0.00000  -0.00000  -0.00000  -0.00000
    X6       -1.12867   0.00001   0.00000  -0.00001   0.00001  -1.12866
    Y6       -5.84251  -0.00001   0.00000  -0.00005  -0.00005  -5.84256
    Z6        0.00000   0.00000   0.00000  -0.00000  -0.00000  -0.00000
    X7        3.59056   0.00003   0.00000   0.00010   0.00012   3.59068
    Y7       -1.00334   0.00002   0.00000   0.00002   0.00002  -1.00332
    Z7       -0.00000  -0.00000   0.00000   0.00000   0.00000   0.00000
    X8        5.00204   0.00002   0.00000   0.00008   0.00010   5.00214
    Y8       -3.10135   0.00000   0.00000   0.00000   0.00000  -3.10135
    Z8       -0.00000   0.00000   0.00000   0.00000   0.00000   0.00000
    X9        3.61442   0.00004   0.00000   0.00010   0.00012   3.61454
    Y9       -5.21526  -0.00001   0.00000  -0.00002  -0.00002  -5.21528
    Z9       -0.00000  -0.00000   0.00000   0.00000   0.00000   0.00000
   X10       -1.17892  -0.00001   0.00000  -0.00016  -0.00014  -1.17905
   Y10        1.62023   0.00000   0.00000   0.00006   0.00006   1.62030
   Z10        0.00000  -0.00000   0.00000  -0.00000  -0.00000  -0.00000
   X11       -5.18259  -0.00001   0.00000  -0.00008  -0.00005  -5.18264
   Y11       -0.82689  -0.00000   0.00000  -0.00008  -0.00008  -0.82697
   Z11       -0.00000   0.00000   0.00000   0.00000   0.00000   0.00000
   X12       -5.15646  -0.00001   0.00000  -0.00008  -0.00005  -5.15652
   Y12       -5.48998  -0.00000   0.00000   0.00008   0.00008  -5.48990
   Z12       -0.00000   0.00000   0.00000   0.00000   0.00000   0.00000
   X13       -1.12592  -0.00001   0.00000  -0.00017  -0.00014  -1.12607
   Y13       -7.89222  -0.00000   0.00000  -0.00007  -0.00006  -7.89228
   Z13        0.00000  -0.00000   0.00000  -0.00000  -0.00000  -0.00000
         Item               Value     Threshold  Converged?
 Maximum Force            0.000035     0.000450     YES
 RMS     Force            0.000014     0.000300     YES
 Maximum Displacement     0.000142     0.001800     YES
 RMS     Displacement     0.000055     0.001200     YES
 Predicted change in Energy=-8.416302D-09
 Optimization completed.
    -- Stationary point found.
 GradGradGradGradGradGradGradGradGradGradGradGradGradGradGradGradGradGrad

 Leave Link  103 at Fri Jun  2 11:38:13 2023, MaxMem=  7381975040 cpu:               2.3 elap:               3.4
 (Enter /software/commercial/gaussian/g16/AVX/g16/l9999.exe)

 ----------------------------------------------------------------------

 Electric dipole moment (input orientation):
 (Debye = 10**-18 statcoulomb cm , SI units = C m)
                  (au)            (Debye)         (10**-30 SI)
   Tot        0.525975D+01      0.133689D+02      0.445940D+02
   x         -0.424497D+01     -0.107896D+02     -0.359903D+02
   y          0.310567D+01      0.789382D+01      0.263310D+02
   z          0.000000D+00      0.000000D+00      0.000000D+00

 Dipole polarizability, Alpha (input orientation).
 (esu units = cm**3 , SI units = C**2 m**2 J**-1)
 Alpha(0;0):
               (au)            (10**-24 esu)      (10**-40 SI)
   iso        0.135562D+03      0.200882D+02      0.223511D+02
   aniso      0.961937D+02      0.142544D+02      0.158602D+02
   xx         0.185072D+03      0.274248D+02      0.305142D+02
   yx         0.220110D+00      0.326170D-01      0.362913D-01
   yy         0.146105D+03      0.216505D+02      0.240894D+02
   zx         0.000000D+00      0.000000D+00      0.000000D+00
   zy         0.000000D+00      0.000000D+00      0.000000D+00
   zz         0.755091D+02      0.111893D+02      0.124498D+02

 First dipole hyperpolarizability, Beta (input orientation).
 ||, _|_  parallel and perpendicular components, (z) with respect to z axis,
 vector components x,y,z.  Values do not include the 1/n! factor of 1/2.
 (esu units = statvolt**-1 cm**4 , SI units = C**3 m**3 J**-2)
 Beta(0;0,0):
               (au)            (10**-30 esu)      (10**-50 SI)
   || (z)     0.000000D+00      0.000000D+00      0.000000D+00
   _|_(z)     0.000000D+00      0.000000D+00      0.000000D+00
   x         -0.548675D+03     -0.474013D+01     -0.175925D+01
   y         -0.317791D+01     -0.274547D-01     -0.101895D-01
   z          0.000000D+00      0.000000D+00      0.000000D+00
   ||         0.109737D+03      0.948041D+00      0.351856D+00
   xxx       -0.148259D+03     -0.128084D+01     -0.475371D+00
   xxy       -0.223523D+01     -0.193107D-01     -0.716697D-02
   yxy        0.118324D+03      0.102223D+01      0.379391D+00
   yyy        0.203637D+01      0.175926D-01      0.652932D-02
   xxz        0.000000D+00      0.000000D+00      0.000000D+00
   yxz        0.000000D+00      0.000000D+00      0.000000D+00
   yyz        0.000000D+00      0.000000D+00      0.000000D+00
   zxz       -0.152957D+03     -0.132143D+01     -0.490437D+00
   zyz       -0.860435D+00     -0.743349D-02     -0.275887D-02
   zzz        0.000000D+00      0.000000D+00      0.000000D+00

 ----------------------------------------------------------------------

 Dipole orientation:
     6         -2.04017653         -2.78860482          1.66322733
     6         -3.31382973         -4.52949116          0.06644748
     6         -0.60868995         -0.83198474          0.68183717
     6         -0.45483477         -0.62168857         -1.96702697
     6         -1.72675991         -2.36021291         -3.56174986
     6         -3.17769384         -4.34341451         -2.53885427
     7          0.77369068          1.05751514         -3.49026038
     7          0.26600654          0.36358968         -5.86820874
     7         -1.22514240         -1.67457960         -5.99648159
     1          0.36108608          0.49354865          1.90814543
     1         -2.20091887         -3.00831466          3.69445200
     1         -4.41396362         -6.03320351          0.91999628
     1         -4.15350767         -5.67720063         -3.75134072

 Electric dipole moment (dipole orientation):
 (Debye = 10**-18 statcoulomb cm , SI units = C m)
                  (au)            (Debye)         (10**-30 SI)
   Tot        0.525975D+01      0.133689D+02      0.445940D+02
   x          0.000000D+00      0.000000D+00      0.000000D+00
   y          0.000000D+00      0.000000D+00      0.000000D+00
   z          0.525975D+01      0.133689D+02      0.445940D+02

 Dipole polarizability, Alpha (dipole orientation).
 (esu units = cm**3 , SI units = C**2 m**2 J**-1)
 Alpha(0;0):
               (au)            (10**-24 esu)      (10**-40 SI)
   iso        0.135562D+03      0.200882D+02      0.223511D+02
   aniso      0.961937D+02      0.142544D+02      0.158602D+02
   xx         0.104931D+03      0.155492D+02      0.173008D+02
   yx         0.402157D+02      0.595935D+01      0.663067D+01
   yy         0.130478D+03      0.193348D+02      0.215129D+02
   zx        -0.110039D+02     -0.163061D+01     -0.181430D+01
   zy        -0.150406D+02     -0.222879D+01     -0.247986D+01
   zz         0.171276D+03      0.253805D+02      0.282397D+02

 First dipole hyperpolarizability, Beta (dipole orientation).
 ||, _|_  parallel and perpendicular components, (z) with respect to z axis,
 vector components x,y,z.  Values do not include the 1/n! factor of 1/2.
 (esu units = statvolt**-1 cm**4 , SI units = C**3 m**3 J**-2)
 Beta(0;0,0):
               (au)            (10**-30 esu)      (10**-50 SI)
   || (z)     0.881883D+02      0.761878D+00      0.282763D+00
   _|_(z)     0.293961D+02      0.253959D+00      0.942545D-01
   x         -0.192806D+03     -0.166569D+01     -0.618206D+00
   y         -0.263536D+03     -0.227675D+01     -0.844992D+00
   z          0.440941D+03      0.380939D+01      0.141382D+01
   ||         0.109737D+03      0.948041D+00      0.351856D+00
   xxx       -0.833535D+02     -0.720109D+00     -0.267261D+00
   xxy        0.329705D+02      0.284840D+00      0.105715D+00
   yxy        0.917240D+02      0.792424D+00      0.294100D+00
   yyy       -0.215293D+02     -0.185996D+00     -0.690307D-01
   xxz        0.968625D+02      0.836817D+00      0.310576D+00
   yxz       -0.356422D+02     -0.307921D+00     -0.114282D+00
   yyz        0.742214D+02      0.641215D+00      0.237981D+00
   zxz       -0.726392D+02     -0.627546D+00     -0.232908D+00
   zyz       -0.992866D+02     -0.857759D+00     -0.318349D+00
   zzz       -0.241035D+02     -0.208236D+00     -0.772847D-01

 ----------------------------------------------------------------------
 Unable to Open any file for archive entry.
 1\1\GINC-NODE1777\Freq\RB3LYP\6-311+G(d,p)\C6H4N3(1-)\SVICCHI\02-Jun-2
 023\0\\#p freq=raman scale=0.967 pop=(nbo,full,hirshfeld) guess=read g
 eom=allcheck b3lyp/6-311+G(d,p) int=grid=ultrafine EmpiricalDispersion
 =GD3BJ SCRF=(Solvent=ethanol) scf=(xqc,intrep,maxconventionalcycle=350
 ) nosymm\\bentriz-isolated.gjf\\-1,1\C,-1.7899485032,-0.9559776045,0.\
 C,-1.7819816624,-2.3761414582,0.\C,-0.6133048733,-0.2272219534,0.\C,0.
 5993925751,-0.9435965327,0.\C,0.6073953801,-2.3618677551,0.\C,-0.59726
 55449,-3.0917210395,0.\N,1.9000450152,-0.5309465046,0.\N,2.6469678229,
 -1.6411647874,0.\N,1.912668743,-2.7597973872,0.\H,-0.6238550326,0.8573
 898077,0.\H,-2.7425081087,-0.437570858,0.\H,-2.7286823212,-2.905173704
 ,0.\H,-0.59581349,-4.1763812231,0.\\Version=ES64L-G16RevC.01\HF=-395.5
 35897\RMSD=6.132e-09\RMSF=1.373e-05\ZeroPoint=0.0893159\Thermal=0.0951
 879\ETot=-395.4407091\HTot=-395.4397649\GTot=-395.4766665\Dipole=-3.71
 60729,-0.020875,0.\DipoleDeriv=-0.2237884,-0.0392073,0.,-0.2119413,0.0
 620671,0.,0.,0.,-0.2484249,-0.2265524,0.0358949,0.,0.2083826,0.0645745
 ,0.,0.,0.,-0.2485789,0.3501857,-0.0488793,0.,-0.0175274,0.1013839,0.,0
 .,0.,-0.1883878,0.1717326,0.0214198,0.,0.4589901,-0.1327594,0.,0.,0.,0
 .0628846,0.1770443,-0.0178157,0.,-0.455414,-0.1381681,0.,0.,0.,0.06270
 8,0.3496553,0.0512928,0.,0.020687,0.1018687,0.,0.,0.,-0.1882767,-0.337
 5356,0.4433386,0.,-0.2284504,-0.8946269,0.,0.,0.,-0.3062336,-0.8331168
 ,-0.0110147,0.,-0.0110976,1.014276,0.,0.,0.,-0.3851487,-0.3370118,-0.4
 359785,0.,0.2353734,-0.8970438,0.,0.,0.,-0.3063156,0.0836411,-0.001804
 2,0.,0.0373001,-0.1636267,0.,0.,0.,0.185601,-0.130486,0.1160091,0.,0.1
 163016,0.0241541,0.,0.,0.,0.1872446,-0.1278119,-0.1177874,0.,-0.117949
 ,0.0216096,0.,0.,0.,0.1873052,0.0840439,0.0045317,0.,-0.0346551,-0.163
 7091,0.,0.,0.,0.1856229\Polar=185.0717997,0.2201105,146.1045155,0.,0.,
 75.5090958\PolarDeriv=-5.9552667,0.8885989,-13.1639096,0.,0.,-5.798272
 2,10.2316636,-0.9914143,-22.4080268,0.,0.,1.4235914,0.,0.,0.,-9.307727
 3,1.8328231,0.,-5.7919884,-0.7845543,-13.4252019,0.,0.,-5.7782538,-10.
 277086,-1.3793834,22.2237515,0.,0.,-1.5050604,0.,0.,0.,-9.2983855,-1.9
 457264,0.,12.1402107,1.8150849,14.4885622,0.,0.,2.5888681,2.7600519,-0
 .483379,3.9746594,0.,0.,5.3762548,0.,0.,0.,-0.4061696,8.1576019,0.,6.1
 759805,-1.4756184,-7.1876688,0.,0.,1.5442458,38.4079481,1.9494405,2.66
 85307,0.,0.,1.2289216,0.,0.,0.,1.1521503,3.5753689,0.,6.5704753,1.6068
 726,-7.1152697,0.,0.,1.5689182,-38.3765642,1.5653104,-2.7103528,0.,0.,
 -1.1928565,0.,0.,0.,1.2002019,-3.564231,0.,12.2004816,-1.8453406,14.45
 38638,0.,0.,2.657503,-2.6053394,-0.4797457,-3.8368006,0.,0.,-5.3416178
 ,0.,0.,0.,-0.31677,-8.1566528,0.,-15.7204158,3.2750384,4.2778869,0.,0.
 ,1.1361037,12.1625377,8.543949,6.7797656,0.,0.,1.5558248,0.,0.,0.,3.98
 57063,4.3981709,0.,36.389531,0.1952192,10.1029885,0.,0.,1.5772872,0.27
 17698,-3.7558399,0.0182443,0.,0.,0.0060395,0.,0.,0.,5.9353558,0.036815
 7,0.,-15.4497247,-3.6234633,4.278101,0.,0.,1.143455,-12.557579,8.45687
 62,-6.5584703,0.,0.,-1.5470968,0.,0.,0.,4.0392943,-4.3564048,0.,0.1758
 401,2.1488505,0.1099693,0.,0.,0.0158995,1.42346,-1.9822535,18.6183095,
 0.,0.,0.6889786,0.,0.,0.,0.1010372,-0.7139917,0.,-15.5984608,5.8425648
 ,-3.5053573,0.,0.,-0.3407659,6.130621,-4.76434,3.0341447,0.,0.,0.24524
 15,0.,0.,0.,1.4063883,0.0157673,0.,-15.3796319,-5.9197278,-3.600318,0.
 ,0.,-0.3373844,-6.193211,-4.8582769,-3.1752164,0.,0.,-0.2483275,0.,0.,
 0.,1.4164537,0.0048361,0.,0.2429692,-2.1235247,0.2863535,0.,0.,0.02239
 58,-1.3782724,-1.8209432,-18.6285388,0.,0.,-0.6898931,0.,0.,0.,0.09246
 45,0.7156228,0.\HyperPolar=-148.2587293,-2.235234,118.3243966,2.036365
 6,-0.0000003,0.0000001,0.,-152.9574257,-0.8604349,-0.0000002\Quadrupol
 e=-8.3492527,-1.6681435,10.0173961,13.1933341,0.,0.\PG=CS [SG(C6H4N3)]
 \NImag=0\\0.72823204,-0.01663406,0.62810983,0.,0.,0.12668223,-0.120068
 08,-0.02752831,0.,0.72780247,0.02928471,-0.27733271,0.,0.01776056,0.62
 854439,0.,0.,-0.06044054,0.,0.,0.12671977,-0.29217432,-0.08100292,0.,0
 .02241784,-0.06520606,0.,0.64709900,-0.13249246,-0.18917438,0.,-0.0259
 9085,-0.03092732,0.,0.02009477,0.73412095,0.,0.,-0.05695209,0.,0.,0.00
 584574,0.,0.,0.12549852,-0.06762413,-0.02314722,0.,-0.01142089,0.03305
 259,0.,-0.23218519,0.10419432,0.,0.74973896,0.00648645,0.04663877,0.,0
 .01616794,-0.03199782,0.,0.08346717,-0.18648738,0.,-0.10104476,0.63634
 540,0.,0.,0.00335387,0.,0.,-0.00239079,0.,0.,-0.05270215,0.,0.,0.14480
 063,-0.01086538,-0.03281572,0.,-0.06779271,0.02187777,0.,0.02667682,0.
 02886682,0.,-0.10973598,0.00822608,0.,0.74733108,-0.01593210,-0.032554
 68,0.,-0.00775789,0.04680398,0.,0.04520892,-0.01650219,0.,-0.00669406,
 -0.24549338,0.,0.10224783,0.63855100,0.,0.,-0.00238737,0.,0.,0.0033433
 7,0.,0.,-0.00156793,0.,0.,-0.07526404,0.,0.,0.14481531,0.02140058,0.06
 578917,0.,-0.29451852,0.07982086,0.,-0.04543760,-0.00644563,0.,0.02749
 192,-0.04471849,0.,-0.23006405,-0.08389983,0.,0.64755621,0.02657427,-0
 .02989886,0.,0.13131205,-0.18683502,0.,0.00594147,-0.00015657,0.,-0.02
 837905,-0.01733246,0.,-0.10464618,-0.18854364,0.,-0.02103822,0.7336606
 5,0.,0.,0.00584083,0.,0.,-0.05698958,0.,0.,0.00165213,0.,0.,-0.0015637
 6,0.,0.,-0.05265330,0.,0.,0.12546637,0.01668748,0.01770173,0.,-0.00029
 892,-0.01540501,0.,-0.05663882,-0.00175318,0.,-0.21967222,-0.09196134,
 0.,-0.01736976,-0.07097216,0.,-0.00291727,-0.00241630,0.,0.43794606,0.
 00383525,0.00086939,0.,0.00432980,-0.00299066,0.,0.01703998,0.01895164
 ,0.,-0.06028150,-0.14698409,0.,-0.00772855,-0.03829823,0.,-0.00280877,
 -0.00576284,0.,0.03965593,0.48576172,0.,0.,0.00575462,0.,0.,-0.0017980
 1,0.,0.,-0.00590301,0.,0.,-0.06893372,0.,0.,0.01432851,0.,0.,0.0035948
 4,0.,0.,0.10206418,-0.00971969,-0.01048807,0.,-0.00972850,0.01039476,0
 .,0.01088549,-0.00978405,0.,-0.11794900,0.02917122,0.,-0.11670126,-0.0
 3045166,0.,0.01059020,0.00988025,0.,-0.15981195,0.03727188,0.,0.552625
 46,0.00954543,-0.00168471,0.,-0.00963701,-0.00167690,0.,-0.01668344,0.
 00220469,0.,0.08095667,-0.00395520,0.,-0.08223297,-0.00520837,0.,0.016
 78095,0.00250117,0.,0.09619392,-0.18437162,0.,0.00088351,0.37873970,0.
 ,0.,0.00010921,0.,0.,0.00010913,0.,0.,0.00823489,0.,0.,0.02141582,0.,0
 .,0.02140735,0.,0.,0.00823712,0.,0.,-0.08462927,0.,0.,0.11268356,-0.00
 042966,0.01543070,0.,0.01692347,-0.01751660,0.,-0.00297303,0.00244623,
 0.,-0.01827314,0.07121222,0.,-0.22128652,0.09109712,0.,-0.05646816,0.0
 0091600,0.,0.00105027,-0.02861646,0.,-0.15843758,-0.09580037,0.,0.4389
 0659,-0.00430157,-0.00286518,0.,-0.00365338,0.00063127,0.,0.00283291,-
 0.00569747,0.,0.00795912,-0.03740111,0.,0.05944025,-0.14523468,0.,-0.0
 1789642,0.01875745,0.,0.03009396,-0.12851139,0.,-0.03687130,-0.1858570
 3,0.,-0.04031765,0.48474750,0.,0.,-0.00179824,0.,0.,0.00575425,0.,0.,0
 .00359745,0.,0.,0.01432310,0.,0.,-0.06898018,0.,0.,-0.00588892,0.,0.,0
 .03710212,0.,0.,-0.08459926,0.,0.,0.10208090,0.00508779,-0.02743350,0.
 ,-0.00398679,-0.00188084,0.,-0.05859586,0.00534464,0.,0.00588464,0.027
 44691,0.,-0.00400303,0.00074170,0.,-0.00118494,-0.00004458,0.,0.002207
 29,-0.00173988,0.,0.00024398,0.00021349,0.,-0.00102322,0.00200719,0.,0
 .05399891,0.00296840,-0.01182483,0.,-0.00315721,0.00131058,0.,0.003521
 34,-0.33230402,0.,-0.00218006,-0.01243853,0.,0.00214169,0.00120861,0.,
 0.00054317,0.00031707,0.,-0.00069593,0.00153667,0.,0.00084953,-0.00049
 784,0.,0.00012645,-0.00109566,0.,-0.00403366,0.35375311,0.,0.,0.003297
 72,0.,0.,0.00823687,0.,0.,-0.03433153,0.,0.,0.00396476,0.,0.,0.0058761
 8,0.,0.,-0.00105217,0.,0.,-0.00316996,0.,0.,0.00013103,0.,0.,-0.000258
 19,0.,0.,0.02338718,-0.26965747,0.11546874,0.,0.00288941,-0.00268431,0
 .,-0.01932630,0.01508777,0.,-0.00231883,-0.00426344,0.,0.00005128,-0.0
 0060575,0.,0.00145255,-0.00032843,0.,-0.00052320,0.00143180,0.,-0.0011
 2284,-0.00049771,0.,0.00033149,0.00038425,0.,0.00115180,-0.00018344,0.
 ,0.28634649,0.11601865,-0.12083626,0.,0.02860202,-0.01052026,0.,-0.016
 15147,0.01098055,0.,-0.00321826,-0.00158922,0.,-0.00097475,-0.00049749
 ,0.,-0.00142209,-0.00534074,0.,-0.00012625,0.00080860,0.,-0.00029094,0
 .00015473,0.,0.00019366,0.00011358,0.,0.00067697,0.00093542,0.,-0.1241
 6258,0.12529207,0.,0.,-0.03337685,0.,0.,0.00167890,0.,0.,0.00274612,0.
 ,0.,0.00780940,0.,0.,-0.00068941,0.,0.,0.00493410,0.,0.,0.00163828,0.,
 0.,-0.00161533,0.,0.,0.00020922,0.,0.,-0.00503084,0.,0.,0.02443494,0.0
 0317274,0.00283821,0.,-0.26704181,-0.11712147,0.,0.00143186,0.00040326
 ,0.,0.00003421,0.00061121,0.,-0.00240234,0.00425308,0.,-0.01933743,-0.
 01542677,0.,0.00033898,-0.00038166,0.,-0.00113141,0.00048272,0.,-0.000
 50931,-0.00144619,0.,0.00001711,0.00012599,0.,0.00072214,-0.00048219,0
 .,0.28354363,-0.02845013,-0.01081367,0.,-0.11766603,-0.12344728,0.,0.0
 0149764,-0.00532040,0.,0.00098075,-0.00047981,0.,0.00320928,-0.0015058
 0,0.,0.01580550,0.01098115,0.,-0.00019067,0.00010715,0.,0.00027671,0.0
 0016355,0.,0.00011125,0.00079393,0.,-0.00132885,-0.00072266,0.,0.00047
 102,0.00120799,0.,0.12595962,0.12810822,0.,0.,0.00167949,0.,0.,-0.0333
 6870,0.,0.,0.00493407,0.,0.,-0.00068965,0.,0.,0.00780856,0.,0.,0.00274
 597,0.,0.,0.00020964,0.,0.,-0.00161541,0.,0.,0.00163837,0.,0.,0.000347
 91,0.,0.,-0.00308634,0.,0.,0.02442771,-0.00404190,0.00182126,0.,0.0048
 2300,0.02762305,0.,-0.00117988,0.00002837,0.,-0.00397033,-0.00080119,0
 .,0.00616185,-0.02723521,0.,-0.05856348,-0.00234452,0.,-0.00099795,-0.
 00200783,0.,0.00025710,-0.00020519,0.,0.00218880,0.00176884,0.,0.00020
 233,-0.00002626,0.,0.00000350,0.00133723,0.,0.00116162,-0.00067608,0.,
 0.05395534,0.00309715,0.00136731,0.,-0.00278168,-0.01156224,0.,-0.0005
 6031,0.00031190,0.,-0.00219852,0.00117482,0.,0.00238846,-0.01272513,0.
 ,-0.00051020,-0.33234736,0.,-0.00012470,-0.00111633,0.,-0.00084187,-0.
 00051218,0.,0.00071745,0.00161880,0.,0.00003043,-0.00017792,0.,-0.0001
 1793,-0.00070897,0.,0.00018419,0.00092763,0.,0.00071754,0.35374967,0.,
 0.,0.00823713,0.,0.,0.00329960,0.,0.,-0.00105220,0.,0.,0.00587654,0.,0
 .,0.00396295,0.,0.,-0.03432362,0.,0.,-0.00025821,0.,0.,0.00013116,0.,0
 .,-0.00318063,0.,0.,-0.00139896,0.,0.,0.00034781,0.,0.,-0.00503163,0.,
 0.,0.02339006\\0.00000681,0.00001214,0.,0.00000466,-0.00000685,0.,-0.0
 0001036,-0.00000952,0.,0.00003483,-0.00002417,0.,0.00003354,0.00002254
 ,0.,-0.00001389,0.00001154,0.,-0.00003097,-0.00001588,0.,-0.00001768,-
 0.00000403,0.,-0.00003511,0.00001048,0.,0.00000810,-0.00000436,0.,0.00
 000799,0.00000278,0.,0.00000657,0.00000039,0.,0.00000549,0.00000495,0.
 \\\@
 The archive entry for this job was punched.


 OLD HORSE! OLD HORSE! WHAT BROUGHT YOU HERE?
 FROM SACARAP' TO PORTLAND PIER
 I'VE CARTED STONE THIS MANY A YEAR;
 TILL, KILLED BY BLOWS AND SORE ABUSE,
 THEY SALTED ME DOWN FOR SAILORS' USE.
 THE SAILORS THEY DO ME DESPISE;
 THEY TURN ME OVER AND DAMN MY EYES;
 CUT OFF MY MEAT, AND SCRAPE MY BONES,
 AND PITCH ME OVER TO DAVY JONES.

    SAILORS' COMPLAINT ABOUT THE BEEF
    SERVED ON SHIPBOARD, CIRCA 1835.
 Job cpu time:       0 days  0 hours 27 minutes 51.3 seconds.
 Elapsed time:       0 days  0 hours 15 minutes 18.2 seconds.
 File lengths (MBytes):  RWF=    131 Int=      0 D2E=      0 Chk=     17 Scr=      1
 Normal termination of Gaussian 16 at Fri Jun  2 11:38:17 2023.
