 Entering Gaussian System, Link 0=g16
 Input=3ethyl45dimethylthiazolium-CO2_binding-site_index-1-freq.gjf
 Output=3ethyl45dimethylthiazolium-CO2_binding-site_index-1-freq.log
 Initial command:
 /software/commercial/gaussian/g16/AVX/g16/l1.exe "/scratch1/svicchi/G09-659721.pbs02/Gau-1333300.inp" -scrdir="/scratch1/svicchi/G09-659721.pbs02/"
 Entering Link 1 = /software/commercial/gaussian/g16/AVX/g16/l1.exe PID=   1333301.
  
 Copyright (c) 1988-2019, Gaussian, Inc.  All Rights Reserved.
  
 This is part of the Gaussian(R) 16 program.  It is based on
 the Gaussian(R) 09 system (copyright 2009, Gaussian, Inc.),
 the Gaussian(R) 03 system (copyright 2003, Gaussian, Inc.),
 the Gaussian(R) 98 system (copyright 1998, Gaussian, Inc.),
 the Gaussian(R) 94 system (copyright 1995, Gaussian, Inc.),
 the Gaussian 92(TM) system (copyright 1992, Gaussian, Inc.),
 the Gaussian 90(TM) system (copyright 1990, Gaussian, Inc.),
 the Gaussian 88(TM) system (copyright 1988, Gaussian, Inc.),
 the Gaussian 86(TM) system (copyright 1986, Carnegie Mellon
 University), and the Gaussian 82(TM) system (copyright 1983,
 Carnegie Mellon University). Gaussian is a federally registered
 trademark of Gaussian, Inc.
  
 This software contains proprietary and confidential information,
 including trade secrets, belonging to Gaussian, Inc.
  
 This software is provided under written license and may be
 used, copied, transmitted, or stored only in accord with that
 written license.
  
 The following legend is applicable only to US Government
 contracts under FAR:
  
                    RESTRICTED RIGHTS LEGEND
  
 Use, reproduction and disclosure by the US Government is
 subject to restrictions as set forth in subparagraphs (a)
 and (c) of the Commercial Computer Software - Restricted
 Rights clause in FAR 52.227-19.
  
 Gaussian, Inc.
 340 Quinnipiac St., Bldg. 40, Wallingford CT 06492
  
  
 ---------------------------------------------------------------
 Warning -- This program may not be used in any manner that
 competes with the business of Gaussian, Inc. or will provide
 assistance to any competitor of Gaussian, Inc.  The licensee
 of this program is prohibited from giving any competitor of
 Gaussian, Inc. access to this program.  By using this program,
 the user acknowledges that Gaussian, Inc. is engaged in the
 business of creating and licensing software in the field of
 computational chemistry and represents and warrants to the
 licensee that it is not a competitor of Gaussian, Inc. and that
 it will not use this program in any manner prohibited above.
 ---------------------------------------------------------------
  

 Cite this work as:
 Gaussian 16, Revision C.01,
 M. J. Frisch, G. W. Trucks, H. B. Schlegel, G. E. Scuseria, 
 M. A. Robb, J. R. Cheeseman, G. Scalmani, V. Barone, 
 G. A. Petersson, H. Nakatsuji, X. Li, M. Caricato, A. V. Marenich, 
 J. Bloino, B. G. Janesko, R. Gomperts, B. Mennucci, H. P. Hratchian, 
 J. V. Ortiz, A. F. Izmaylov, J. L. Sonnenberg, D. Williams-Young, 
 F. Ding, F. Lipparini, F. Egidi, J. Goings, B. Peng, A. Petrone, 
 T. Henderson, D. Ranasinghe, V. G. Zakrzewski, J. Gao, N. Rega, 
 G. Zheng, W. Liang, M. Hada, M. Ehara, K. Toyota, R. Fukuda, 
 J. Hasegawa, M. Ishida, T. Nakajima, Y. Honda, O. Kitao, H. Nakai, 
 T. Vreven, K. Throssell, J. A. Montgomery, Jr., J. E. Peralta, 
 F. Ogliaro, M. J. Bearpark, J. J. Heyd, E. N. Brothers, K. N. Kudin, 
 V. N. Staroverov, T. A. Keith, R. Kobayashi, J. Normand, 
 K. Raghavachari, A. P. Rendell, J. C. Burant, S. S. Iyengar, 
 J. Tomasi, M. Cossi, J. M. Millam, M. Klene, C. Adamo, R. Cammi, 
 J. W. Ochterski, R. L. Martin, K. Morokuma, O. Farkas, 
 J. B. Foresman, and D. J. Fox, Gaussian, Inc., Wallingford CT, 2019.
 
 ******************************************
 Gaussian 16:  ES64L-G16RevC.01  3-Jul-2019
                 2-Jun-2023 
 ******************************************
 %NProcShared=2
 Will use up to    2 processors via shared memory.
 %mem=55gb
 %chk=/scratch1/svicchi/G09-659721.pbs02/02-freq/3ethyl45dimethylthiazolium-CO2_b
 inding-site_index-1-freq.chk
 ----------------------------------------------------------------------
 #p freq=raman scale=0.967 pop=(nbo,full,hirshfeld) guess=read geom=all
 check b3lyp/6-311+G(d,p) int=grid=ultrafine EmpiricalDispersion=GD3BJ 
 SCRF=(Solvent=ethanol) scf=(xqc,intrep,maxconventionalcycle=350) nosym
 m
 ----------------------------------------------------------------------
 1/10=4,29=7,30=1,38=1,114=967000/1,3;
 2/12=2,15=1,40=1/2;
 3/5=4,6=6,7=111,11=2,14=-4,25=1,30=1,70=2201,71=2,72=4,74=-5,75=-5,116=-2,124=41,140=1/1,2,3;
 4/5=1/1;
 5/5=2,8=3,13=1,17=20,38=6,53=4,85=350,98=1/2,8;
 8/6=4,10=90,11=11/1;
 10/13=10,15=4,31=1/2;
 11/6=3,8=1,9=11,15=111,16=1,31=1/1,2,10;
 10/6=1,31=1/2;
 6/7=3,28=1,40=1,79=1/1,7;
 7/8=1,10=1,25=1,30=1/1,2,3,16;
 1/10=4,30=1/3;
 99//99;
 Leave Link    1 at Fri Jun  2 16:15:31 2023, MaxMem=  7381975040 cpu:               1.2 elap:               1.7
 (Enter /software/commercial/gaussian/g16/AVX/g16/l101.exe)
 Structure from the checkpoint file:  "/scratch1/svicchi/G09-659721.pbs02/02-freq/3ethyl45dimethylthiazolium-CO2_binding-site_index-1-freq.chk"
 -------------------------------------------------------
 3ethyl45dimethylthiazolium-CO2_binding-site_index-1.gjf
 -------------------------------------------------------
 Charge =  0 Multiplicity = 1
 No Z-Matrix found in chk file; cartesian coordinates used.
  N                                                -0.116137216689      0.061757015293      0.052979766823
  C                                                 1.213146983115     -0.000924846055      0.126829662501
  C                                                -0.632794610264      0.075883325624     -1.247766550178
  C                                                 0.352683654957      0.025955875162     -2.190146128231
  S                                                 1.912775373716     -0.045633080855     -1.426784707336
  C                                                -1.005714069979      0.042210810677      1.243877840067
  C                                                -1.357839078870     -1.386185004251      1.641941973548
  H                                                -2.030985620240     -1.359705670389      2.501103561441
  H                                                -1.856264846621     -1.923750398523      0.833064397095
  H                                                -0.457954891391     -1.933190933005      1.926603474456
  H                                                -1.889120150412      0.620831004328      0.984991035552
  H                                                -0.465672567150      0.540691562085      2.041061451040
  C                                                 0.220538703704      0.056424860438     -3.679563040299
  H                                                 1.057787787926     -0.452465715617     -4.158278458322
  H                                                 0.197832522434      1.086115889067     -4.046315173087
  C                                                -2.101965070286      0.169933864963     -1.493778972188
  H                                                -2.299871452711      0.091647697751     -2.560877182473
  H                                                -2.499871322776      1.128856545667     -1.151465838102
  H                                                -2.650889564376     -0.626833069958     -0.988711116097
  H                                                -0.698421604835     -0.437403914364     -3.996033693984
  C                                                 2.139738794273     -0.031998574635      1.361056412983
  O                                                 1.608395166686      0.097460755595      2.477980616176
  O                                                 3.338301079790     -0.179809998997      1.045627668617
 Recover connectivity data from disk.
 ITRead=  0  0  0  0  0  0  0  0  0  0  0  0  0  0  0  0  0  0  0  0
 ITRead=  0  0  0
 MicOpt= -1 -1 -1 -1 -1 -1 -1 -1 -1 -1 -1 -1 -1 -1 -1 -1 -1 -1 -1 -1
 MicOpt= -1 -1 -1
 NAtoms=     23 NQM=       23 NQMF=       0 NMMI=      0 NMMIF=      0
                NMic=       0 NMicF=      0.
                    Isotopes and Nuclear Properties:
 (Nuclear quadrupole moments (NQMom) in fm**2, nuclear magnetic moments (NMagM)
  in nuclear magnetons)

  Atom         1           2           3           4           5           6           7           8           9          10
 IAtWgt=          14          12          12          12          32          12          12           1           1           1
 AtmWgt=  14.0030740  12.0000000  12.0000000  12.0000000  31.9720718  12.0000000  12.0000000   1.0078250   1.0078250   1.0078250
 NucSpn=           2           0           0           0           0           0           0           1           1           1
 AtZEff=   4.5500000   3.6000000   3.6000000   3.6000000  13.6000000   3.6000000   3.6000000   1.0000000   1.0000000   1.0000000
 NQMom=    2.0440000   0.0000000   0.0000000   0.0000000   0.0000000   0.0000000   0.0000000   0.0000000   0.0000000   0.0000000
 NMagM=    0.4037610   0.0000000   0.0000000   0.0000000   0.0000000   0.0000000   0.0000000   2.7928460   2.7928460   2.7928460
 AtZNuc=   7.0000000   6.0000000   6.0000000   6.0000000  16.0000000   6.0000000   6.0000000   1.0000000   1.0000000   1.0000000

  Atom        11          12          13          14          15          16          17          18          19          20
 IAtWgt=           1           1          12           1           1          12           1           1           1           1
 AtmWgt=   1.0078250   1.0078250  12.0000000   1.0078250   1.0078250  12.0000000   1.0078250   1.0078250   1.0078250   1.0078250
 NucSpn=           1           1           0           1           1           0           1           1           1           1
 AtZEff=   1.0000000   1.0000000   3.6000000   1.0000000   1.0000000   3.6000000   1.0000000   1.0000000   1.0000000   1.0000000
 NQMom=    0.0000000   0.0000000   0.0000000   0.0000000   0.0000000   0.0000000   0.0000000   0.0000000   0.0000000   0.0000000
 NMagM=    2.7928460   2.7928460   0.0000000   2.7928460   2.7928460   0.0000000   2.7928460   2.7928460   2.7928460   2.7928460
 AtZNuc=   1.0000000   1.0000000   6.0000000   1.0000000   1.0000000   6.0000000   1.0000000   1.0000000   1.0000000   1.0000000

  Atom        21          22          23
 IAtWgt=          12          16          16
 AtmWgt=  12.0000000  15.9949146  15.9949146
 NucSpn=           0           0           0
 AtZEff=   3.6000000   5.6000000   5.6000000
 NQMom=    0.0000000   0.0000000   0.0000000
 NMagM=    0.0000000   0.0000000   0.0000000
 AtZNuc=   6.0000000   8.0000000   8.0000000
 Leave Link  101 at Fri Jun  2 16:15:36 2023, MaxMem=  7381975040 cpu:               0.4 elap:               2.5
 (Enter /software/commercial/gaussian/g16/AVX/g16/l103.exe)

 GradGradGradGradGradGradGradGradGradGradGradGradGradGradGradGradGradGrad
 Berny optimization.
 Initialization pass.
 Trust Radius=3.00D-01 FncErr=1.00D-07 GrdErr=1.00D-07 EigMax=2.50D+02 EigMin=1.00D-04
 Number of steps in this run=      2 maximum allowed number of steps=      2.
 GradGradGradGradGradGradGradGradGradGradGradGradGradGradGradGradGradGrad

 Leave Link  103 at Fri Jun  2 16:15:38 2023, MaxMem=  7381975040 cpu:               0.1 elap:               1.4
 (Enter /software/commercial/gaussian/g16/AVX/g16/l202.exe)
                          Input orientation:                          
 ---------------------------------------------------------------------
 Center     Atomic      Atomic             Coordinates (Angstroms)
 Number     Number       Type             X           Y           Z
 ---------------------------------------------------------------------
      1          7           0       -0.116137    0.061757    0.052980
      2          6           0        1.213147   -0.000925    0.126830
      3          6           0       -0.632795    0.075883   -1.247767
      4          6           0        0.352684    0.025956   -2.190146
      5         16           0        1.912775   -0.045633   -1.426785
      6          6           0       -1.005714    0.042211    1.243878
      7          6           0       -1.357839   -1.386185    1.641942
      8          1           0       -2.030986   -1.359706    2.501104
      9          1           0       -1.856265   -1.923750    0.833064
     10          1           0       -0.457955   -1.933191    1.926603
     11          1           0       -1.889120    0.620831    0.984991
     12          1           0       -0.465673    0.540692    2.041061
     13          6           0        0.220539    0.056425   -3.679563
     14          1           0        1.057788   -0.452466   -4.158278
     15          1           0        0.197833    1.086116   -4.046315
     16          6           0       -2.101965    0.169934   -1.493779
     17          1           0       -2.299871    0.091648   -2.560877
     18          1           0       -2.499871    1.128857   -1.151466
     19          1           0       -2.650890   -0.626833   -0.988711
     20          1           0       -0.698422   -0.437404   -3.996034
     21          6           0        2.139739   -0.031999    1.361056
     22          8           0        1.608395    0.097461    2.477981
     23          8           0        3.338301   -0.179810    1.045628
 ---------------------------------------------------------------------
                    Distance matrix (angstroms):
                    1          2          3          4          5
     1  N    0.000000
     2  C    1.332809   0.000000
     3  C    1.399670   2.302806   0.000000
     4  C    2.291874   2.471740   1.364456   0.000000
     5  S    2.513508   1.704464   2.554749   1.738313   0.000000
     6  C    1.486596   2.484553   2.519622   3.692970   3.956986
     7  C    2.482571   3.290058   3.318697   4.427745   4.680927
     8  H    3.417676   4.243567   4.250868   5.441485   5.719121
     9  H    2.752965   3.690165   3.134529   4.221446   4.779112
    10  H    2.758101   3.124967   3.760794   4.630661   4.519784
    11  H    2.079586   3.278274   2.619261   3.932055   4.551400
    12  H    2.074614   2.603088   3.325713   4.340251   4.245792
    13  C    3.747700   3.934105   2.577245   1.495578   2.819413
    14  H    4.401956   4.311633   3.407096   2.144669   2.890947
    15  H    4.236993   4.430311   3.089075   2.143194   3.329238
    16  C    2.519460   3.693986   1.492592   2.555574   4.021082
    17  H    3.406147   4.424210   2.122181   2.679143   4.364792
    18  H    2.876035   4.086190   2.145694   3.229910   4.574569
    19  H    2.825641   4.070254   2.152586   3.300156   4.621335
    20  H    4.121010   4.565371   2.796559   2.140270   3.684138
    21  C    2.609374   1.543649   3.808482   3.975923   2.797098
    22  O    2.975889   2.386171   4.347941   4.834597   3.919224
    23  O    3.602339   2.322169   4.592890   4.407548   2.857088
                    6          7          8          9         10
     6  C    0.000000
     7  C    1.524061   0.000000
     8  H    2.144101   1.091781   0.000000
     9  H    2.181102   1.091645   1.769471   0.000000
    10  H    2.160640   1.090889   1.770130   1.775158   0.000000
    11  H    1.087304   2.177604   2.498249   2.549325   3.075369
    12  H    1.084265   2.160581   2.504666   3.076764   2.476541
    13  C    5.073871   5.735051   6.728702   5.347711   5.987322
    14  H    5.803967   6.352137   7.396687   5.964049   6.443276
    15  H    5.524890   6.394424   7.336100   6.089906   6.724733
    16  C    2.951753   3.578823   4.278308   3.139758   4.338769
    17  H    4.019135   4.553581   5.272796   3.972085   5.256435
    18  H    3.025058   3.928460   4.444554   3.697431   4.797923
    19  H    2.852836   3.028024   3.619418   2.373244   3.874867
    20  H    5.270781   5.755153   6.696205   5.183630   6.113332
    21  C    3.148509   3.761086   4.522992   4.452589   3.268392
    22  O    2.891302   3.420338   3.920327   4.335310   2.949130
    23  O    4.354201   4.885147   5.686810   5.483614   4.273409
                   11         12         13         14         15
    11  H    0.000000
    12  H    1.774235   0.000000
    13  C    5.150464   5.781950   0.000000
    14  H    6.024073   6.460581   1.090470   0.000000
    15  H    5.466800   6.147673   1.093292   1.766152   0.000000
    16  C    2.528421   3.912801   3.191326   4.179830   3.555826
    17  H    3.608592   4.974311   2.757747   3.757875   3.071485
    18  H    2.279376   3.830944   3.865490   4.919191   3.957219
    19  H    2.456106   3.913797   3.994074   4.881685   4.516454
    20  H    5.229554   6.120242   1.090187   1.763752   1.768308
    21  C    4.098697   2.752916   5.394348   5.640077   5.853277
    22  O    3.838691   2.165435   6.312145   6.681730   6.747856
    23  O    5.288727   3.997528   5.666011   5.688209   6.114981
                   16         17         18         19         20
    16  C    0.000000
    17  H    1.088115   0.000000
    18  H    1.093179   1.761318   0.000000
    19  H    1.091444   1.763841   1.769673   0.000000
    20  H    2.932588   2.214545   3.713483   3.590544   0.000000
    21  C    5.116924   5.925115   5.402438   5.368925   6.076012
    22  O    5.435706   6.376886   5.578038   5.539319   6.893500
    23  O    6.013934   6.698474   6.373703   6.341038   6.463732
                   21         22         23
    21  C    0.000000
    22  O    1.243626   0.000000
    23  O    1.248157   2.262982   0.000000
 Symmetry turned off by external request.
 Stoichiometry    C8H11NO2S
 Framework group  C1[X(C8H11NO2S)]
 Deg. of freedom    63
 Full point group                 C1      NOp   1
 Rotational constants (GHZ):           1.0991447           0.7683636           0.4782267
 Leave Link  202 at Fri Jun  2 16:15:40 2023, MaxMem=  7381975040 cpu:               0.0 elap:               0.7
 (Enter /software/commercial/gaussian/g16/AVX/g16/l301.exe)
 Standard basis: 6-311+G(d,p) (5D, 7F)
 Ernie: Thresh=  0.10000D-02 Tol=  0.10000D-05 Strict=F.
   338 basis functions,   534 primitive gaussians,   350 cartesian basis functions
    49 alpha electrons       49 beta electrons
       nuclear repulsion energy       827.6174216582 Hartrees.
 IExCor=  402 DFT=T Ex+Corr=B3LYP ExCW=0 ScaHFX=  0.200000
 ScaDFX=  0.800000  0.720000  1.000000  0.810000 ScalE2=  1.000000  1.000000
 IRadAn=      5 IRanWt=     -1 IRanGd=            0 ICorTp=0 IEmpDi=141
 NAtoms=   23 NActive=   23 NUniq=   23 SFac= 1.00D+00 NAtFMM=   60 NAOKFM=F Big=F
 Integral buffers will be    131072 words long.
 Raffenetti 2 integral format.
 Two-electron integral symmetry is turned off.
 R6Disp:  Grimme-D3(BJ) Dispersion energy=       -0.0462015458 Hartrees.
 Nuclear repulsion after empirical dispersion term =      827.5712201124 Hartrees.
 Force inversion solution in PCM.
 ------------------------------------------------------------------------------
 Polarizable Continuum Model (PCM)
 =================================
 Model                : PCM.
 Atomic radii         : UFF (Universal Force Field).
 Polarization charges : Total charges.
 Charge compensation  : None.
 Solution method      : Matrix inversion.
 Cavity type          : Scaled VdW (van der Waals Surface) (Alpha=1.100).
 Cavity algorithm     : GePol (No added spheres)
                        Default sphere list used, NSphG=   23.
                        Lebedev-Laikov grids with approx.  5.0 points / Ang**2.
                        Smoothing algorithm: York/Karplus (Gamma=1.0000).
                        Polarization charges: spherical gaussians, with
                                              point-specific exponents (IZeta= 3).
                        Self-potential: point-specific (ISelfS= 7).
                        Self-field    : sphere-specific E.n sum rule (ISelfD= 2).
 1st derivatives      : Analytical E(r).r(x)/FMM algorithm (CHGder, D1EAlg=3).
                        Cavity 1st derivative terms included.
 2nd derivatives      : Analytical E(r).r(xy)/FMM algorithm (CHGder, D2EAlg=3).
                        Cavity 2nd derivative terms included.
 Solvent              : Ethanol, Eps=  24.852000 Eps(inf)=   1.852593
 ------------------------------------------------------------------------------
 GePol: Number of generator spheres                  =      23
 GePol: Total number of spheres                      =      23
 GePol: Number of exposed spheres                    =      23 (100.00%)
 GePol: Number of points                             =    1877
 GePol: Average weight of points                     =       0.13
 GePol: Minimum weight of points                     =   0.17D-08
 GePol: Maximum weight of points                     =    0.20577
 GePol: Number of points with low weight             =     101
 GePol: Fraction of low-weight points (<1% of avg)   =       5.38%
 GePol: Cavity surface area                          =    240.249 Ang**2
 GePol: Cavity volume                                =    252.784 Ang**3
 Leave Link  301 at Fri Jun  2 16:15:43 2023, MaxMem=  7381975040 cpu:               0.5 elap:               1.3
 (Enter /software/commercial/gaussian/g16/AVX/g16/l302.exe)
 NPDir=0 NMtPBC=     1 NCelOv=     1 NCel=       1 NClECP=     1 NCelD=      1
         NCelK=      1 NCelE2=     1 NClLst=     1 CellRange=     0.0.
 One-electron integrals computed using PRISM.
 NBasis=   338 RedAO= T EigKep=  2.10D-06  NBF=   338
 NBsUse=   338 1.00D-06 EigRej= -1.00D+00 NBFU=   338
 Precomputing XC quadrature grid using
 IXCGrd= 4 IRadAn=           5 IRanWt=          -1 IRanGd=           0 AccXCQ= 0.00D+00.
 Generated NRdTot=       0 NPtTot=           0 NUsed=           0 NTot=          32
 NSgBfM=   350   350   350   350   350 MxSgAt=    23 MxSgA2=    23.
 Leave Link  302 at Fri Jun  2 16:15:47 2023, MaxMem=  7381975040 cpu:               1.9 elap:               2.9
 (Enter /software/commercial/gaussian/g16/AVX/g16/l303.exe)
 DipDrv:  MaxL=1.
 Leave Link  303 at Fri Jun  2 16:15:49 2023, MaxMem=  7381975040 cpu:               0.1 elap:               0.9
 (Enter /software/commercial/gaussian/g16/AVX/g16/l401.exe)
 Initial guess from the checkpoint file:  "/scratch1/svicchi/G09-659721.pbs02/02-freq/3ethyl45dimethylthiazolium-CO2_binding-site_index-1-freq.chk"
 B after Tr=     0.000000    0.000000    0.000000
         Rot=    1.000000    0.000000    0.000000    0.000000 Ang=   0.00 deg.
 Guess basis will be translated and rotated to current coordinates.
 JPrj=2 DoOrth=T DoCkMO=T.
 Leave Link  401 at Fri Jun  2 16:15:54 2023, MaxMem=  7381975040 cpu:               2.6 elap:               3.7
 (Enter /software/commercial/gaussian/g16/AVX/g16/l502.exe)
 Keep R1 ints in memory in canonical form, NReq=1662781234.
 FoFCou: FMM=F IPFlag=           0 FMFlag=           0 FMFlg1=           0
         NFxFlg=           0 DoJE=F BraDBF=F KetDBF=F FulRan=T
         wScrn=  0.000000 ICntrl=       600 IOpCl=  0 I1Cent=           0 NGrid=           0
         NMat0=    1 NMatS0=  57291 NMatT0=    0 NMatD0=    1 NMtDS0=    0 NMtDT0=    0
 Symmetry not used in FoFCou.
 Two-electron integral symmetry not used.
 Closed shell SCF:
 Using DIIS extrapolation, IDIIS=  1040.
 NGot=  7381975040 LenX=  5740566796 LenY=  5740443855
 Requested convergence on RMS density matrix=1.00D-08 within 350 cycles.
 Requested convergence on MAX density matrix=1.00D-06.
 Requested convergence on             energy=1.00D-06.
 No special actions if energy rises.

 Cycle   1  Pass 1  IDiag  1:
 Inv3:  Mode=1 IEnd=    10569387.
 Iteration    1 A*A^-1 deviation from unit magnitude is 4.66D-15 for   1866.
 Iteration    1 A*A^-1 deviation from orthogonality  is 2.08D-15 for   1870   1786.
 Iteration    1 A^-1*A deviation from unit magnitude is 4.88D-15 for   1866.
 Iteration    1 A^-1*A deviation from orthogonality  is 1.82D-15 for   1873   1780.
 E= -915.106474506661    
 DIIS: error= 1.14D-08 at cycle   1 NSaved=   1.
 NSaved= 1 IEnMin= 1 EnMin= -915.106474506661     IErMin= 1 ErrMin= 1.14D-08
 ErrMax= 1.14D-08  0.00D+00 EMaxC= 1.00D-01 BMatC= 2.35D-14 BMatP= 2.35D-14
 IDIUse=1 WtCom= 1.00D+00 WtEn= 0.00D+00
 Coeff-Com:  0.100D+01
 Coeff:      0.100D+01
 Gap=     0.176 Goal=   None    Shift=    0.000
 RMSDP=4.34D-09 MaxDP=3.43D-07              OVMax= 2.02D-07

 Error on total polarization charges =  0.01674
 SCF Done:  E(RB3LYP) =  -915.106474507     A.U. after    1 cycles
            NFock=  1  Conv=0.43D-08     -V/T= 2.0030
 KE= 9.123735525749D+02 PE=-3.806742990829D+03 EE= 1.151691743635D+03
 Leave Link  502 at Fri Jun  2 16:17:01 2023, MaxMem=  7381975040 cpu:             117.8 elap:              65.2
 (Enter /software/commercial/gaussian/g16/AVX/g16/l508.exe)
 QCSCF skips out because SCF is already converged.
 Leave Link  508 at Fri Jun  2 16:17:03 2023, MaxMem=  7381975040 cpu:               0.0 elap:               1.3
 (Enter /software/commercial/gaussian/g16/AVX/g16/l801.exe)
 DoSCS=F DFT=T ScalE2(SS,OS)=  1.000000  1.000000
 Range of M.O.s used for correlation:     1   338
 NBasis=   338 NAE=    49 NBE=    49 NFC=     0 NFV=     0
 NROrb=    338 NOA=    49 NOB=    49 NVA=   289 NVB=   289

 **** Warning!!: The largest alpha MO coefficient is  0.15150683D+03

 Leave Link  801 at Fri Jun  2 16:17:05 2023, MaxMem=  7381975040 cpu:               0.3 elap:               0.9
 (Enter /software/commercial/gaussian/g16/AVX/g16/l1002.exe)
 Minotr:  Closed shell wavefunction.
 NEqPCM:  Using equilibrium solvation (IEInf=0, Eps=  24.8520, EpsInf=   1.8526)
          Direct CPHF calculation.
          Differentiating once with respect to electric field.
                with respect to dipole field.
          Electric field/nuclear overlap derivatives assumed to be zero.
          Requested convergence is 1.0D-08 RMS, and 1.0D-07 maximum.
          Secondary convergence is 1.0D-12 RMS, and 1.0D-12 maximum.
          NewPWx=F KeepS1=T KeepF1=T KeepIn=T MapXYZ=F SortEE=F KeepMc=T.
         7100 words used for storage of precomputed grid.
 Keep R1 ints in memory in canonical form, NReq=1662790955.
 FoFCou: FMM=F IPFlag=           0 FMFlag=           0 FMFlg1=           0
         NFxFlg=           0 DoJE=F BraDBF=F KetDBF=F FulRan=T
         wScrn=  0.000000 ICntrl=       600 IOpCl=  0 I1Cent=           0 NGrid=           0
         NMat0=    1 NMatS0=  57291 NMatT0=    0 NMatD0=    1 NMtDS0=    0 NMtDT0=    0
 Symmetry not used in FoFCou.
 Two-electron integral symmetry not used.
          MDV=    7381975040 using IRadAn=       1.
          Solving linear equations simultaneously, MaxMat=       0.
          There are     3 degrees of freedom in the 1st order CPHF.  IDoFFX=0 NUNeed=     3.
      3 vectors produced by pass  0 Test12= 4.72D-13 3.33D-08 XBig12= 1.64D+02 6.01D+00.
 AX will form     3 AO Fock derivatives at one time.
      3 vectors produced by pass  1 Test12= 4.72D-13 3.33D-08 XBig12= 6.97D+01 1.93D+00.
      3 vectors produced by pass  2 Test12= 4.72D-13 3.33D-08 XBig12= 2.35D+01 1.57D+00.
      3 vectors produced by pass  3 Test12= 4.72D-13 3.33D-08 XBig12= 5.98D+00 3.68D-01.
      3 vectors produced by pass  4 Test12= 4.72D-13 3.33D-08 XBig12= 1.27D+00 1.65D-01.
      3 vectors produced by pass  5 Test12= 4.72D-13 3.33D-08 XBig12= 2.14D-01 8.45D-02.
      3 vectors produced by pass  6 Test12= 4.72D-13 3.33D-08 XBig12= 7.92D-02 8.72D-02.
      3 vectors produced by pass  7 Test12= 4.72D-13 3.33D-08 XBig12= 1.69D-02 3.84D-02.
      3 vectors produced by pass  8 Test12= 4.72D-13 3.33D-08 XBig12= 1.09D-03 7.95D-03.
      3 vectors produced by pass  9 Test12= 4.72D-13 3.33D-08 XBig12= 6.12D-05 1.20D-03.
      3 vectors produced by pass 10 Test12= 4.72D-13 3.33D-08 XBig12= 3.69D-06 3.45D-04.
      3 vectors produced by pass 11 Test12= 4.72D-13 3.33D-08 XBig12= 2.89D-07 9.18D-05.
      3 vectors produced by pass 12 Test12= 4.72D-13 3.33D-08 XBig12= 1.61D-08 2.62D-05.
      3 vectors produced by pass 13 Test12= 4.72D-13 3.33D-08 XBig12= 8.06D-10 7.90D-06.
      3 vectors produced by pass 14 Test12= 4.72D-13 3.33D-08 XBig12= 4.22D-11 1.35D-06.
      2 vectors produced by pass 15 Test12= 4.72D-13 3.33D-08 XBig12= 1.14D-12 1.68D-07.
 InvSVY:  IOpt=1 It=  1 EMax= 4.44D-15
 Solved reduced A of dimension    47 with     3 vectors.
 End of Minotr F.D. properties file   721 does not exist.
 End of Minotr F.D. properties file   722 does not exist.
 End of Minotr F.D. properties file   788 does not exist.
 Leave Link 1002 at Fri Jun  2 16:22:35 2023, MaxMem=  7381975040 cpu:             628.1 elap:             327.8
 (Enter /software/commercial/gaussian/g16/AVX/g16/l1101.exe)
 Using compressed storage, NAtomX=    23.
 Will process     24 centers per pass.
 R6Disp: Adding Grimme-D3(BJ) dispersion energy 1st derivatives to the gradient.
 Leave Link 1101 at Fri Jun  2 16:22:39 2023, MaxMem=  7381975040 cpu:               2.6 elap:               3.0
 (Enter /software/commercial/gaussian/g16/AVX/g16/l1102.exe)
 Symmetrizing basis deriv contribution to polar:
 IMax=3 JMax=2 DiffMx= 0.00D+00
 Leave Link 1102 at Fri Jun  2 16:22:42 2023, MaxMem=  7381975040 cpu:               0.4 elap:               1.4
 (Enter /software/commercial/gaussian/g16/AVX/g16/l1110.exe)
 Forming Gx(P) for the SCF density, NAtomX=    23.
 Integral derivatives from FoFJK, PRISM(SPDF).
 Do as many integral derivatives as possible in FoFJK.
 G2DrvN: MDV=    7381972535.
 G2DrvN: will do    24 centers at a time, making    1 passes.
 PxScal for G2LodP:  IOpCl= 0 ISclPx=1 IMOff=     1 NMtTot=     4 NTT=   57291 ScalPx= 6.39D+01
 Calling FoFCou, ICntrl=  3107 FMM=F I1Cent=   0 AccDes= 0.00D+00.
 FoFJK:  IHMeth= 1 ICntrl=    3107 DoSepK=F KAlg= 0 I1Cent=           0 FoldK=F
 IRaf=         0 NMat=       1 IRICut=       1 DoRegI=T DoRafI=F ISym2E= 0 IDoP0=0 IntGTp=1.
 FoFCou: FMM=F IPFlag=           0 FMFlag=      100000 FMFlg1=           0
         NFxFlg=           0 DoJE=F BraDBF=F KetDBF=F FulRan=T
         wScrn=  0.000000 ICntrl=      3107 IOpCl=  0 I1Cent=           0 NGrid=           0
         NMat0=    1 NMatS0=      1 NMatT0=    0 NMatD0=    4 NMtDS0=    3 NMtDT0=    0
 Symmetry not used in FoFCou.
 PxScal for G2LodP:  IOpCl= 0 ISclPx=0 IMOff=     1 NMtTot=     4 NTT=   57291 ScalPx= 1.00D+00
 NEqPCM:  Using equilibrium solvation (IEInf=0, Eps=  24.8520, EpsInf=   1.8526)
 G2PCM: DoFxE=T DoFxN=T DoGrad=T DoDP/DQ/DG/TGxP=TFFF NFrqRd=   0 IEInf=0 SqF1=F DoCFld=F IF1Alg=4.
 GePol: Maximum number of non-zero 1st derivatives   =     249
 End of G2Drv F.D. properties file   721 does not exist.
 End of G2Drv F.D. properties file   722 does not exist.
 End of G2Drv F.D. properties file   788 does not exist.
 Leave Link 1110 at Fri Jun  2 16:36:19 2023, MaxMem=  7381975040 cpu:            1612.0 elap:             815.3
 (Enter /software/commercial/gaussian/g16/AVX/g16/l1002.exe)
 Minotr:  Closed shell wavefunction.
          IDoAtm=11111111111111111111111
 NEqPCM:  Using equilibrium solvation (IEInf=0, Eps=  24.8520, EpsInf=   1.8526)
          Direct CPHF calculation.
          Differentiating once with respect to electric field.
                with respect to dipole field.
          Differentiating once with respect to nuclear coordinates.
          Requested convergence is 1.0D-08 RMS, and 1.0D-07 maximum.
          Secondary convergence is 1.0D-12 RMS, and 1.0D-12 maximum.
          NewPWx=T KeepS1=F KeepF1=F KeepIn=T MapXYZ=F SortEE=F KeepMc=T.
         7100 words used for storage of precomputed grid.
 Keep R1 ints in memory in canonical form, NReq=1662791484.
 FoFCou: FMM=F IPFlag=           0 FMFlag=           0 FMFlg1=           0
         NFxFlg=           0 DoJE=F BraDBF=F KetDBF=F FulRan=T
         wScrn=  0.000000 ICntrl=       600 IOpCl=  0 I1Cent=           0 NGrid=           0
         NMat0=    1 NMatS0=  57291 NMatT0=    0 NMatD0=    1 NMtDS0=    0 NMtDT0=    0
 Symmetry not used in FoFCou.
 Two-electron integral symmetry not used.
          MDV=    7381975040 using IRadAn=       1.
          Solving linear equations simultaneously, MaxMat=       0.
          There are    72 degrees of freedom in the 1st order CPHF.  IDoFFX=5 NUNeed=    72.
 Will reuse    3 saved solutions.
     66 vectors produced by pass  0 Test12= 1.97D-14 1.39D-09 XBig12= 3.08D-01 1.19D-01.
 AX will form    66 AO Fock derivatives at one time.
     66 vectors produced by pass  1 Test12= 1.97D-14 1.39D-09 XBig12= 4.66D-02 6.59D-02.
     66 vectors produced by pass  2 Test12= 1.97D-14 1.39D-09 XBig12= 6.78D-04 5.90D-03.
     66 vectors produced by pass  3 Test12= 1.97D-14 1.39D-09 XBig12= 3.46D-06 3.53D-04.
     66 vectors produced by pass  4 Test12= 1.97D-14 1.39D-09 XBig12= 1.05D-08 1.37D-05.
     61 vectors produced by pass  5 Test12= 1.97D-14 1.39D-09 XBig12= 2.04D-11 4.26D-07.
     24 vectors produced by pass  6 Test12= 1.97D-14 1.39D-09 XBig12= 2.99D-14 1.82D-08.
 InvSVY:  IOpt=1 It=  1 EMax= 1.44D-15
 Solved reduced A of dimension   415 with    72 vectors.
 FullF1:  Do perturbations      1 to       3.
 Isotropic polarizability for W=    0.000000      166.91 Bohr**3.
 FullF1:  Do perturbations      1 to       6.
 End of Minotr F.D. properties file   721 does not exist.
 End of Minotr F.D. properties file   722 does not exist.
 End of Minotr F.D. properties file   788 does not exist.
 Leave Link 1002 at Fri Jun  2 16:52:10 2023, MaxMem=  7381975040 cpu:            1822.8 elap:             949.9
 (Enter /software/commercial/gaussian/g16/AVX/g16/l601.exe)
 Copying SCF densities to generalized density rwf, IOpCl= 0 IROHF=0.

 **********************************************************************

            Population analysis using the SCF Density.

 **********************************************************************

 Alpha  occ. eigenvalues --  -88.91874 -19.08660 -19.08521 -14.42844 -10.29134
 Alpha  occ. eigenvalues --  -10.28046 -10.25317 -10.24076 -10.22767 -10.19380
 Alpha  occ. eigenvalues --  -10.19277 -10.17621  -8.00475  -5.96736  -5.96342
 Alpha  occ. eigenvalues --   -5.96132  -1.06186  -1.03938  -0.97151  -0.87691
 Alpha  occ. eigenvalues --   -0.82829  -0.78396  -0.74638  -0.71462  -0.67412
 Alpha  occ. eigenvalues --   -0.62676  -0.60417  -0.55275  -0.51369  -0.49602
 Alpha  occ. eigenvalues --   -0.47220  -0.46500  -0.45547  -0.44536  -0.43788
 Alpha  occ. eigenvalues --   -0.43549  -0.42734  -0.42147  -0.41779  -0.40684
 Alpha  occ. eigenvalues --   -0.39336  -0.38556  -0.38015  -0.37073  -0.31744
 Alpha  occ. eigenvalues --   -0.27764  -0.27494  -0.27067  -0.26217
 Alpha virt. eigenvalues --   -0.08665  -0.01185  -0.00730  -0.00213   0.01561
 Alpha virt. eigenvalues --    0.01852   0.02427   0.03639   0.04105   0.04430
 Alpha virt. eigenvalues --    0.04831   0.05504   0.06166   0.06576   0.07063
 Alpha virt. eigenvalues --    0.07326   0.07610   0.07807   0.08670   0.09030
 Alpha virt. eigenvalues --    0.09550   0.09825   0.10157   0.10815   0.11420
 Alpha virt. eigenvalues --    0.11507   0.12790   0.13217   0.13631   0.14300
 Alpha virt. eigenvalues --    0.15432   0.15928   0.16341   0.16587   0.16903
 Alpha virt. eigenvalues --    0.17168   0.17376   0.17885   0.18457   0.19265
 Alpha virt. eigenvalues --    0.19774   0.20313   0.21007   0.21257   0.21694
 Alpha virt. eigenvalues --    0.22375   0.22522   0.23447   0.23905   0.24922
 Alpha virt. eigenvalues --    0.25348   0.25411   0.26128   0.26947   0.27289
 Alpha virt. eigenvalues --    0.27632   0.28023   0.28998   0.29238   0.29450
 Alpha virt. eigenvalues --    0.30969   0.31318   0.31523   0.32434   0.32763
 Alpha virt. eigenvalues --    0.33416   0.33670   0.35652   0.36317   0.37846
 Alpha virt. eigenvalues --    0.39156   0.39395   0.40524   0.41781   0.42191
 Alpha virt. eigenvalues --    0.42896   0.45904   0.46274   0.47281   0.48008
 Alpha virt. eigenvalues --    0.49434   0.50004   0.50615   0.52196   0.54514
 Alpha virt. eigenvalues --    0.55647   0.56224   0.56951   0.58421   0.58780
 Alpha virt. eigenvalues --    0.59337   0.61214   0.61827   0.62020   0.63681
 Alpha virt. eigenvalues --    0.64599   0.65424   0.66239   0.67035   0.67559
 Alpha virt. eigenvalues --    0.68618   0.69268   0.71076   0.73266   0.73574
 Alpha virt. eigenvalues --    0.73887   0.74573   0.75789   0.76711   0.77570
 Alpha virt. eigenvalues --    0.78775   0.80810   0.80910   0.84432   0.86453
 Alpha virt. eigenvalues --    0.87575   0.89204   0.89902   0.91213   0.94284
 Alpha virt. eigenvalues --    0.95059   0.95885   0.97658   0.99724   1.01397
 Alpha virt. eigenvalues --    1.01935   1.07301   1.07388   1.08341   1.09437
 Alpha virt. eigenvalues --    1.11132   1.11879   1.15891   1.16597   1.18108
 Alpha virt. eigenvalues --    1.19317   1.21577   1.23390   1.23936   1.26245
 Alpha virt. eigenvalues --    1.28550   1.33434   1.35796   1.37201   1.39454
 Alpha virt. eigenvalues --    1.40188   1.42652   1.43874   1.44701   1.45995
 Alpha virt. eigenvalues --    1.47209   1.48055   1.51954   1.52429   1.52881
 Alpha virt. eigenvalues --    1.54303   1.55312   1.55800   1.56855   1.58337
 Alpha virt. eigenvalues --    1.59216   1.60412   1.60644   1.62018   1.64024
 Alpha virt. eigenvalues --    1.66494   1.66728   1.68561   1.69558   1.71594
 Alpha virt. eigenvalues --    1.72196   1.72714   1.74213   1.75870   1.78765
 Alpha virt. eigenvalues --    1.79172   1.80984   1.82687   1.83369   1.84546
 Alpha virt. eigenvalues --    1.90250   1.94185   1.95631   1.97405   1.97826
 Alpha virt. eigenvalues --    1.99244   2.03278   2.04028   2.07105   2.07678
 Alpha virt. eigenvalues --    2.09910   2.11307   2.13257   2.15910   2.16310
 Alpha virt. eigenvalues --    2.23158   2.25493   2.25696   2.30680   2.32941
 Alpha virt. eigenvalues --    2.34370   2.36182   2.37812   2.43446   2.44525
 Alpha virt. eigenvalues --    2.45847   2.48058   2.48792   2.49526   2.51086
 Alpha virt. eigenvalues --    2.54336   2.55083   2.56303   2.57206   2.59574
 Alpha virt. eigenvalues --    2.60251   2.61403   2.62707   2.63783   2.64566
 Alpha virt. eigenvalues --    2.67271   2.70276   2.72466   2.74983   2.76526
 Alpha virt. eigenvalues --    2.80604   2.83367   2.84177   2.85714   2.87077
 Alpha virt. eigenvalues --    2.88531   2.90655   2.92468   2.94659   2.96119
 Alpha virt. eigenvalues --    2.97380   2.98828   3.04194   3.06927   3.20128
 Alpha virt. eigenvalues --    3.21110   3.25560   3.28433   3.29505   3.32379
 Alpha virt. eigenvalues --    3.39147   3.41095   3.46348   3.57584   3.63339
 Alpha virt. eigenvalues --    3.65762   3.72893   3.76906   3.77695   3.79555
 Alpha virt. eigenvalues --    3.80697   3.82108   3.85316   3.88652   3.89359
 Alpha virt. eigenvalues --    3.98274   4.08159   4.12153   4.22676   4.37539
 Alpha virt. eigenvalues --    4.86638   4.93645   5.04862   5.07194   5.18724
 Alpha virt. eigenvalues --    5.22712   5.63320   5.89816   7.99526  17.26003
 Alpha virt. eigenvalues --   17.47942  17.52197  23.60469  23.73456  23.85786
 Alpha virt. eigenvalues --   23.88729  23.93936  23.95082  23.97706  24.09388
 Alpha virt. eigenvalues --   35.52028  49.94211  50.05108 189.16770
     Molecular Orbital Coefficients:
                           1         2         3         4         5
                           O         O         O         O         O
     Eigenvalues --   -88.91874 -19.08660 -19.08521 -14.42844 -10.29134
   1 1   N  1S         -0.00000  -0.00000   0.00000   0.55738   0.00000
   2        2S          0.00001   0.00004  -0.00000   0.46565   0.00001
   3        2PX         0.00001   0.00006   0.00005   0.00003   0.00005
   4        2PY        -0.00000   0.00000  -0.00001  -0.00003  -0.00000
   5        2PZ        -0.00000   0.00001   0.00003  -0.00002   0.00003
   6        3S         -0.00003  -0.00037   0.00020   0.01697  -0.00008
   7        3PX        -0.00005  -0.00029  -0.00021   0.00075  -0.00024
   8        3PY         0.00000  -0.00001   0.00003  -0.00010   0.00002
   9        3PZ         0.00003  -0.00002  -0.00009  -0.00050  -0.00006
  10        4S         -0.00004   0.00380  -0.00279  -0.02361   0.00109
  11        4PX         0.00014   0.00207  -0.00065  -0.00242   0.00137
  12        4PY        -0.00000   0.00006  -0.00008   0.00034  -0.00012
  13        4PZ        -0.00013  -0.00011  -0.00040   0.00274  -0.00109
  14        5S          0.00043   0.00940  -0.00045  -0.00024   0.00293
  15        5PX         0.00038  -0.00206  -0.00198  -0.00358   0.00515
  16        5PY        -0.00001  -0.00054  -0.00029  -0.00019  -0.00086
  17        5PZ        -0.00040  -0.00034  -0.00009   0.00362  -0.00113
  18        6D 0        0.00001   0.00004   0.00003   0.00001   0.00005
  19        6D+1       -0.00000   0.00000  -0.00007   0.00010  -0.00008
  20        6D-1       -0.00000   0.00000   0.00000  -0.00001   0.00000
  21        6D+2       -0.00001  -0.00003  -0.00008   0.00040  -0.00005
  22        6D-2        0.00000  -0.00000   0.00000  -0.00003   0.00001
  23 2   C  1S          0.00000  -0.00001  -0.00001  -0.00001   0.00512
  24        2S         -0.00000   0.00005   0.00004   0.00013   0.00419
  25        2PX         0.00003   0.00006   0.00011  -0.00047   0.00027
  26        2PY        -0.00000  -0.00000  -0.00000   0.00003  -0.00000
  27        2PZ        -0.00005   0.00010   0.00008  -0.00008   0.00029
  28        3S          0.00005  -0.00022  -0.00019   0.00009   0.00065
  29        3PX        -0.00007  -0.00030  -0.00060   0.00136  -0.00066
  30        3PY         0.00001   0.00001   0.00001  -0.00010  -0.00000
  31        3PZ         0.00011  -0.00040  -0.00046   0.00034  -0.00054
  32        4S         -0.00004  -0.00117   0.00190   0.00484   0.00024
  33        4PX         0.00025   0.00640  -0.00238  -0.00914   0.00482
  34        4PY        -0.00002  -0.00049   0.00039   0.00055   0.00001
  35        4PZ         0.00006  -0.00119   0.00323  -0.00113   0.00396
  36        5S          0.00216   0.01138   0.00821   0.00175   0.00983
  37        5PX        -0.00396  -0.00096  -0.00481   0.00311   0.00939
  38        5PY         0.00018   0.00050   0.00033   0.00020   0.00027
  39        5PZ        -0.00507  -0.00240   0.00761  -0.00427   0.01939
  40        6D 0       -0.00008  -0.00021  -0.00005   0.00057  -0.00022
  41        6D+1        0.00007  -0.00017  -0.00024   0.00001  -0.00044
  42        6D-1       -0.00000  -0.00001   0.00004   0.00002   0.00002
  43        6D+2        0.00001   0.00007   0.00007  -0.00071  -0.00021
  44        6D-2        0.00000  -0.00003  -0.00002   0.00008   0.00002
  45 3   C  1S         -0.00000   0.00000  -0.00000   0.00001  -0.00001
  46        2S          0.00001  -0.00000   0.00000   0.00001   0.00000
  47        2PX         0.00001   0.00003   0.00001   0.00015   0.00001
  48        2PY        -0.00000   0.00000  -0.00000  -0.00000   0.00000
  49        2PZ        -0.00000   0.00002   0.00000   0.00043   0.00004
  50        3S         -0.00007   0.00012  -0.00006   0.00015  -0.00013
  51        3PX        -0.00007  -0.00014  -0.00005  -0.00027  -0.00012
  52        3PY         0.00001  -0.00001   0.00000  -0.00001  -0.00002
  53        3PZ         0.00002  -0.00007  -0.00002  -0.00111  -0.00021
  54        4S          0.00029  -0.00223  -0.00038   0.00879  -0.00248
  55        4PX         0.00031  -0.00054   0.00089   0.00874  -0.00016
  56        4PY        -0.00003   0.00006   0.00001  -0.00032   0.00016
  57        4PZ        -0.00004   0.00030   0.00057   0.00577   0.00163
  58        5S         -0.01478  -0.00926  -0.00484   0.01159  -0.01323
  59        5PX        -0.01401   0.00383  -0.00354   0.01751  -0.00945
  60        5PY         0.00081   0.00004   0.00042  -0.00049   0.00131
  61        5PZ        -0.00034  -0.00240  -0.00317  -0.00053   0.00877
  62        6D 0       -0.00000  -0.00001   0.00001  -0.00046   0.00001
  63        6D+1        0.00003  -0.00006   0.00001  -0.00060  -0.00003
  64        6D-1       -0.00000   0.00000   0.00001   0.00002   0.00001
  65        6D+2        0.00002  -0.00002   0.00003   0.00027   0.00004
  66        6D-2       -0.00000  -0.00000  -0.00000  -0.00005   0.00000
  67 4   C  1S          0.00000  -0.00000  -0.00000  -0.00001  -0.00000
  68        2S         -0.00000   0.00000   0.00001   0.00007   0.00000
  69        2PX         0.00005   0.00000  -0.00001  -0.00007  -0.00001
  70        2PY        -0.00000   0.00000   0.00000  -0.00000  -0.00000
  71        2PZ         0.00002  -0.00000   0.00002   0.00001   0.00002
  72        3S          0.00005  -0.00007  -0.00002  -0.00038  -0.00006
  73        3PX        -0.00011  -0.00001   0.00004   0.00061   0.00009
  74        3PY         0.00001  -0.00000  -0.00001  -0.00001  -0.00000
  75        3PZ        -0.00002   0.00001  -0.00011  -0.00035  -0.00016
  76        4S         -0.00010   0.00130  -0.00088  -0.00262   0.00036
  77        4PX         0.00023  -0.00045  -0.00083  -0.00137  -0.00164
  78        4PY        -0.00001   0.00003   0.00006  -0.00008   0.00003
  79        4PZ        -0.00022   0.00083   0.00037  -0.00740   0.00197
  80        5S          0.01653  -0.00171  -0.00634  -0.00880   0.01616
  81        5PX        -0.00050  -0.00374  -0.00129   0.00041  -0.00694
  82        5PY        -0.00008   0.00009  -0.00021  -0.00018  -0.00016
  83        5PZ         0.00940  -0.00662   0.00548  -0.01884   0.01293
  84        6D 0        0.00003   0.00004  -0.00001   0.00005   0.00003
  85        6D+1       -0.00008  -0.00000  -0.00003   0.00036  -0.00001
  86        6D-1        0.00000   0.00000  -0.00000  -0.00000   0.00000
  87        6D+2       -0.00005   0.00000   0.00000  -0.00002   0.00002
  88        6D-2        0.00000  -0.00000   0.00000   0.00001   0.00000
  89 5   S  1S          0.41089  -0.00000  -0.00000  -0.00000  -0.00000
  90        2S          0.65436   0.00000   0.00000   0.00001   0.00000
  91        3S          0.01538  -0.00002  -0.00004  -0.00007  -0.00002
  92        4S         -0.00462   0.00005   0.00008   0.00017   0.00006
  93        5S          0.00200  -0.00002  -0.00025  -0.00047  -0.00014
  94        6S         -0.00204  -0.00221   0.00293   0.00408   0.00100
  95        7S         -0.00595   0.00253   0.01407  -0.00182   0.01563
  96        7PX         0.00109  -0.00125  -0.00167  -0.00016  -0.00185
  97        7PY        -0.00005  -0.00004   0.00021  -0.00004   0.00003
  98        7PZ        -0.00031  -0.00102   0.00209  -0.00115   0.00219
  99        8PX        -0.00010  -0.00000   0.00001   0.00001   0.00000
 100        8PY         0.00001  -0.00000   0.00000  -0.00000   0.00000
 101        8PZ         0.00004   0.00000  -0.00001  -0.00001  -0.00000
 102        9PX         0.00004   0.00001  -0.00002  -0.00005  -0.00001
 103        9PY        -0.00000   0.00000  -0.00000   0.00000  -0.00000
 104        9PZ        -0.00002  -0.00002   0.00003   0.00006   0.00001
 105       10PX        -0.00002  -0.00006   0.00013   0.00017   0.00004
 106       10PY        -0.00000  -0.00001   0.00000  -0.00001   0.00002
 107       10PZ         0.00001   0.00015  -0.00012  -0.00023  -0.00001
 108       11PX        -0.00010   0.00020  -0.00050  -0.00041  -0.00034
 109       11PY         0.00001   0.00002   0.00000   0.00003  -0.00003
 110       11PZ         0.00005  -0.00084   0.00047   0.00035  -0.00010
 111       12PX         0.00060  -0.00019  -0.00116  -0.00058  -0.00197
 112       12PY        -0.00004   0.00001   0.00005  -0.00003   0.00016
 113       12PZ        -0.00019  -0.00120  -0.00006   0.00156  -0.00206
 114       13D 0        0.00001  -0.00012  -0.00000   0.00003  -0.00008
 115       13D+1       -0.00001   0.00001  -0.00003   0.00021  -0.00004
 116       13D-1        0.00000   0.00001  -0.00001  -0.00002  -0.00001
 117       13D+2        0.00002   0.00003   0.00000  -0.00002   0.00006
 118       13D-2       -0.00000  -0.00001   0.00001   0.00000  -0.00000
 119 6   C  1S         -0.00000  -0.00000   0.00000   0.00001  -0.00002
 120        2S          0.00000   0.00001  -0.00000  -0.00004   0.00000
 121        2PX        -0.00000   0.00007   0.00000   0.00017   0.00004
 122        2PY         0.00000  -0.00001   0.00000  -0.00002   0.00002
 123        2PZ         0.00000   0.00003   0.00001  -0.00023   0.00003
 124        3S         -0.00004  -0.00005  -0.00006   0.00015  -0.00022
 125        3PX         0.00000  -0.00026   0.00000  -0.00027  -0.00020
 126        3PY         0.00001   0.00001   0.00002   0.00023  -0.00008
 127        3PZ        -0.00000  -0.00016  -0.00005   0.00036  -0.00020
 128        4S          0.00042   0.00028   0.00104   0.00245   0.00309
 129        4PX         0.00007   0.00031   0.00040   0.00041   0.00044
 130        4PY         0.00005  -0.00052  -0.00002  -0.00024   0.00023
 131        4PZ        -0.00009   0.00040   0.00042  -0.00071   0.00013
 132        5S         -0.00048  -0.01834  -0.00603  -0.00487   0.00268
 133        5PX         0.00015  -0.00073  -0.00161  -0.00020   0.00127
 134        5PY         0.00023   0.00497   0.00054   0.00094  -0.00108
 135        5PZ        -0.00008   0.00016   0.00090   0.00102   0.00154
 136        6D 0        0.00000   0.00000   0.00002  -0.00021  -0.00000
 137        6D+1        0.00001  -0.00003   0.00002   0.00035  -0.00002
 138        6D-1        0.00000  -0.00003   0.00002   0.00002  -0.00002
 139        6D+2        0.00000  -0.00008   0.00000  -0.00019  -0.00002
 140        6D-2       -0.00000  -0.00002   0.00002  -0.00001  -0.00000
 141 7   C  1S         -0.00000   0.00000   0.00000   0.00000   0.00000
 142        2S          0.00000  -0.00001  -0.00000   0.00000  -0.00000
 143        2PX         0.00000  -0.00001   0.00001   0.00001  -0.00003
 144        2PY         0.00000   0.00002   0.00001   0.00007   0.00000
 145        2PZ        -0.00000   0.00000   0.00001  -0.00002  -0.00000
 146        3S         -0.00001   0.00009   0.00009   0.00006   0.00012
 147        3PX        -0.00001   0.00007  -0.00002  -0.00006   0.00015
 148        3PY        -0.00000  -0.00007  -0.00001  -0.00040  -0.00000
 149        3PZ         0.00001  -0.00001  -0.00002   0.00011   0.00002
 150        4S         -0.00000  -0.00069  -0.00076  -0.00082  -0.00040
 151        4PX         0.00003  -0.00040  -0.00035   0.00006  -0.00060
 152        4PY        -0.00001  -0.00022  -0.00008  -0.00055  -0.00074
 153        4PZ        -0.00005  -0.00002  -0.00002  -0.00006  -0.00005
 154        5S          0.00087   0.01513   0.00069   0.00367  -0.00097
 155        5PX         0.00010   0.00160   0.00022   0.00061   0.00017
 156        5PY         0.00018   0.00318   0.00005   0.00064  -0.00035
 157        5PZ        -0.00013  -0.00139  -0.00013  -0.00073  -0.00018
 158        6D 0       -0.00000   0.00002   0.00002   0.00008   0.00004
 159        6D+1       -0.00000   0.00001  -0.00001  -0.00001   0.00001
 160        6D-1       -0.00000   0.00001  -0.00001   0.00011   0.00003
 161        6D+2       -0.00000   0.00003  -0.00002   0.00011   0.00004
 162        6D-2       -0.00000  -0.00001  -0.00000  -0.00009  -0.00003
 163 8   H  1S         -0.00000  -0.00002  -0.00001  -0.00005  -0.00003
 164        2S          0.00002   0.00015   0.00005   0.00008   0.00014
 165        3S          0.00002  -0.00024   0.00017   0.00018  -0.00039
 166        4PX         0.00000   0.00005   0.00003  -0.00002   0.00005
 167        4PY         0.00000   0.00002   0.00000   0.00004   0.00004
 168        4PZ        -0.00000  -0.00000   0.00001   0.00002   0.00000
 169 9   H  1S         -0.00000  -0.00000  -0.00001   0.00005  -0.00002
 170        2S          0.00002   0.00001   0.00006  -0.00032   0.00007
 171        3S         -0.00011  -0.00046   0.00018  -0.00033  -0.00072
 172        4PX         0.00000  -0.00001   0.00002  -0.00012   0.00002
 173        4PY         0.00000  -0.00002   0.00000  -0.00009   0.00003
 174        4PZ         0.00000   0.00000   0.00000  -0.00002  -0.00003
 175 10  H  1S         -0.00000  -0.00001  -0.00001   0.00008   0.00003
 176        2S          0.00001   0.00020   0.00019  -0.00041   0.00003
 177        3S         -0.00002  -0.00030   0.00018  -0.00038  -0.00105
 178        4PX         0.00000  -0.00001  -0.00004   0.00005  -0.00003
 179        4PY        -0.00000  -0.00005   0.00002  -0.00012  -0.00009
 180        4PZ         0.00000   0.00001  -0.00001   0.00012   0.00004
 181 11  H  1S          0.00000  -0.00001   0.00002   0.00002   0.00004
 182        2S         -0.00004  -0.00007  -0.00011  -0.00099  -0.00044
 183        3S         -0.00006   0.00069   0.00046  -0.00008   0.00070
 184        4PX        -0.00001  -0.00003  -0.00001  -0.00022  -0.00005
 185        4PY         0.00000   0.00002  -0.00000   0.00012   0.00004
 186        4PZ        -0.00000  -0.00001  -0.00001  -0.00004  -0.00004
 187 12  H  1S          0.00001  -0.00002   0.00005   0.00002  -0.00000
 188        2S         -0.00007  -0.00015  -0.00046  -0.00097  -0.00027
 189        3S          0.00007   0.00060  -0.00069  -0.00039  -0.00283
 190        4PX         0.00001  -0.00001  -0.00000   0.00009  -0.00009
 191        4PY         0.00000  -0.00004   0.00005   0.00010  -0.00000
 192        4PZ         0.00001  -0.00009   0.00004   0.00023   0.00001
 193 13  C  1S         -0.00000  -0.00000  -0.00000  -0.00000  -0.00000
 194        2S          0.00000   0.00000   0.00000   0.00002   0.00000
 195        2PX         0.00000  -0.00000  -0.00000  -0.00001  -0.00001
 196        2PY         0.00000  -0.00000  -0.00000   0.00000   0.00000
 197        2PZ         0.00001  -0.00000   0.00001   0.00010  -0.00000
 198        3S         -0.00002   0.00000  -0.00007  -0.00001  -0.00009
 199        3PX        -0.00002   0.00001   0.00001   0.00002   0.00004
 200        3PY         0.00000   0.00002   0.00000   0.00001  -0.00001
 201        3PZ        -0.00004   0.00001  -0.00006  -0.00052  -0.00001
 202        4S         -0.00006   0.00023   0.00069  -0.00469   0.00148
 203        4PX        -0.00003   0.00013   0.00025  -0.00038   0.00025
 204        4PY         0.00001  -0.00008  -0.00009   0.00055  -0.00003
 205        4PZ        -0.00002  -0.00005   0.00042  -0.00145   0.00056
 206        5S          0.00809  -0.00931   0.00689  -0.02298   0.01430
 207        5PX         0.00035   0.00032   0.00048  -0.00067   0.00094
 208        5PY        -0.00004   0.00001  -0.00007   0.00038  -0.00004
 209        5PZ         0.00152  -0.00198   0.00128  -0.00452   0.00285
 210        6D 0       -0.00001  -0.00002  -0.00000  -0.00014  -0.00001
 211        6D+1       -0.00002   0.00001   0.00001   0.00001   0.00003
 212        6D-1        0.00000   0.00000   0.00000  -0.00001   0.00000
 213        6D+2        0.00001   0.00001   0.00000   0.00000   0.00001
 214        6D-2       -0.00000  -0.00000  -0.00000   0.00001   0.00001
 215 14  H  1S         -0.00001  -0.00000   0.00001  -0.00002  -0.00001
 216        2S          0.00000  -0.00003  -0.00016   0.00021  -0.00005
 217        3S         -0.00007  -0.00008   0.00025   0.00042  -0.00023
 218        4PX         0.00000   0.00000   0.00002   0.00000   0.00001
 219        4PY        -0.00000  -0.00001  -0.00001  -0.00001  -0.00001
 220        4PZ        -0.00001   0.00000  -0.00001  -0.00002  -0.00000
 221 15  H  1S          0.00000   0.00000   0.00001   0.00004  -0.00000
 222        2S          0.00000  -0.00002  -0.00007  -0.00021  -0.00004
 223        3S         -0.00008   0.00010   0.00037  -0.00020  -0.00015
 224        4PX        -0.00000   0.00000  -0.00001   0.00003  -0.00000
 225        4PY         0.00000   0.00000   0.00001   0.00006   0.00001
 226        4PZ        -0.00001   0.00000  -0.00000  -0.00008  -0.00000
 227 16  C  1S         -0.00000   0.00000   0.00000  -0.00000  -0.00000
 228        2S          0.00000  -0.00000  -0.00000   0.00001   0.00000
 229        2PX         0.00000   0.00000   0.00000   0.00005   0.00001
 230        2PY        -0.00000   0.00000   0.00000   0.00000  -0.00000
 231        2PZ        -0.00000  -0.00001   0.00000   0.00006   0.00002
 232        3S         -0.00002  -0.00002   0.00000  -0.00013  -0.00008
 233        3PX        -0.00003  -0.00004  -0.00001  -0.00032  -0.00006
 234        3PY         0.00000  -0.00001  -0.00000  -0.00003  -0.00000
 235        3PZ         0.00000   0.00003  -0.00000  -0.00025  -0.00008
 236        4S          0.00022   0.00022   0.00067   0.00543   0.00094
 237        4PX         0.00004   0.00015   0.00032   0.00201   0.00050
 238        4PY         0.00000  -0.00004  -0.00001  -0.00032  -0.00009
 239        4PZ         0.00004  -0.00017  -0.00005  -0.00123  -0.00003
 240        5S         -0.01297   0.00625  -0.00368   0.01916  -0.00852
 241        5PX        -0.00235   0.00115  -0.00075   0.00346  -0.00169
 242        5PY         0.00017  -0.00017   0.00001  -0.00045  -0.00003
 243        5PZ        -0.00057   0.00063   0.00017   0.00131  -0.00076
 244        6D 0        0.00001  -0.00000  -0.00002   0.00012  -0.00000
 245        6D+1       -0.00000  -0.00002  -0.00002  -0.00027  -0.00003
 246        6D-1       -0.00000  -0.00000   0.00000   0.00001  -0.00000
 247        6D+2       -0.00001  -0.00001  -0.00001  -0.00012  -0.00001
 248        6D-2        0.00000   0.00001  -0.00000   0.00003   0.00000
 249 17  H  1S          0.00000  -0.00000  -0.00000   0.00001   0.00001
 250        2S         -0.00003  -0.00001  -0.00001  -0.00074  -0.00017
 251        3S          0.00002  -0.00033  -0.00023  -0.00057   0.00034
 252        4PX         0.00000  -0.00000   0.00000   0.00003   0.00000
 253        4PY        -0.00000   0.00000   0.00000  -0.00002   0.00000
 254        4PZ        -0.00001  -0.00000   0.00000  -0.00015  -0.00002
 255 18  H  1S          0.00000   0.00001   0.00001   0.00003   0.00001
 256        2S         -0.00005  -0.00009  -0.00010  -0.00024  -0.00009
 257        3S         -0.00003   0.00032   0.00019   0.00035   0.00003
 258        4PX        -0.00000  -0.00002  -0.00001  -0.00005  -0.00002
 259        4PY         0.00001   0.00002   0.00001   0.00005   0.00001
 260        4PZ         0.00000  -0.00001   0.00000   0.00007   0.00000
 261 19  H  1S          0.00000   0.00002   0.00001   0.00004   0.00001
 262        2S         -0.00004  -0.00018  -0.00011  -0.00037  -0.00015
 263        3S         -0.00004   0.00055   0.00034   0.00009   0.00012
 264        4PX        -0.00000  -0.00003  -0.00001  -0.00011  -0.00002
 265        4PY        -0.00001  -0.00002  -0.00001  -0.00007  -0.00001
 266        4PZ         0.00000   0.00001   0.00001   0.00008   0.00003
 267 20  H  1S         -0.00001  -0.00000   0.00001  -0.00000   0.00001
 268        2S          0.00001  -0.00001  -0.00007  -0.00003  -0.00010
 269        3S         -0.00007  -0.00005   0.00020   0.00056  -0.00001
 270        4PX        -0.00000  -0.00001  -0.00001  -0.00000  -0.00002
 271        4PY        -0.00001   0.00000   0.00001  -0.00004  -0.00000
 272        4PZ        -0.00000   0.00000  -0.00002   0.00001  -0.00002
 273 21  C  1S         -0.00000  -0.00002  -0.00002  -0.00000   0.56304
 274        2S          0.00000   0.00007   0.00006   0.00002   0.46330
 275        2PX        -0.00000  -0.00014   0.00038  -0.00007  -0.00023
 276        2PY        -0.00000   0.00003  -0.00004   0.00000   0.00000
 277        2PZ        -0.00001   0.00036  -0.00006  -0.00006  -0.00031
 278        3S         -0.00001   0.00048   0.00047  -0.00011   0.01844
 279        3PX         0.00001   0.00025  -0.00086   0.00023   0.00085
 280        3PY         0.00000  -0.00005   0.00007  -0.00001  -0.00001
 281        3PZ         0.00004  -0.00084   0.00004   0.00025   0.00117
 282        4S         -0.00029   0.00034  -0.00010   0.00219  -0.01755
 283        4PX         0.00002  -0.00615   0.00759   0.00375   0.00202
 284        4PY        -0.00001   0.00099  -0.00096  -0.00061  -0.00013
 285        4PZ         0.00003   0.00821  -0.00358  -0.00517   0.00295
 286        5S          0.00715  -0.00587  -0.01429   0.00116  -0.04075
 287        5PX        -0.00067   0.00226   0.00201  -0.00064   0.00692
 288        5PY         0.00002  -0.00019   0.00000  -0.00008  -0.00044
 289        5PZ        -0.00124   0.00054   0.00317   0.00002   0.00738
 290        6D 0       -0.00001  -0.00050   0.00047   0.00007   0.00050
 291        6D+1       -0.00002   0.00069   0.00050  -0.00030  -0.00148
 292        6D-1        0.00000  -0.00011  -0.00004   0.00001   0.00030
 293        6D+2        0.00001   0.00005  -0.00048  -0.00003   0.00132
 294        6D-2       -0.00000   0.00003   0.00013  -0.00002  -0.00038
 295 22  O  1S         -0.00000   0.55129   0.00470   0.00000  -0.00007
 296        2S          0.00000   0.46969   0.00405   0.00003  -0.00006
 297        2PX        -0.00000   0.00047   0.00005   0.00003   0.00019
 298        2PY        -0.00000  -0.00011  -0.00001  -0.00000  -0.00004
 299        2PZ        -0.00000  -0.00097  -0.00005  -0.00003  -0.00045
 300        3S         -0.00001   0.01402  -0.00029  -0.00031   0.00052
 301        3PX        -0.00000   0.00020  -0.00017  -0.00016  -0.00055
 302        3PY         0.00000  -0.00007   0.00003   0.00002   0.00012
 303        3PZ         0.00002  -0.00061   0.00019   0.00016   0.00133
 304        4S          0.00004  -0.01278   0.00256   0.00217  -0.00376
 305        4PX         0.00001  -0.00056  -0.00026   0.00048  -0.00062
 306        4PY        -0.00001   0.00025  -0.00005  -0.00008   0.00022
 307        4PZ        -0.00004   0.00237  -0.00124  -0.00079   0.00140
 308        5S          0.00013   0.00188   0.00373   0.00412   0.00680
 309        5PX        -0.00003  -0.00134  -0.00033   0.00027  -0.00011
 310        5PY         0.00001   0.00018  -0.00003  -0.00007  -0.00004
 311        5PZ        -0.00004   0.00054  -0.00107  -0.00123  -0.00337
 312        6D 0       -0.00000   0.00016   0.00012  -0.00002  -0.00077
 313        6D+1       -0.00000  -0.00017   0.00015   0.00002   0.00056
 314        6D-1       -0.00000   0.00004  -0.00001  -0.00001  -0.00016
 315        6D+2        0.00000   0.00005  -0.00008  -0.00003  -0.00016
 316        6D-2        0.00000  -0.00002   0.00003   0.00000   0.00007
 317 23  O  1S         -0.00000  -0.00469   0.55129   0.00000  -0.00007
 318        2S          0.00000  -0.00395   0.46971  -0.00000  -0.00006
 319        2PX        -0.00000  -0.00003  -0.00103  -0.00003  -0.00046
 320        2PY         0.00000   0.00001   0.00013   0.00000   0.00006
 321        2PZ        -0.00000   0.00004   0.00025  -0.00004   0.00009
 322        3S         -0.00002  -0.00054   0.01388   0.00010   0.00054
 323        3PX         0.00001   0.00020  -0.00060   0.00012   0.00134
 324        3PY        -0.00000  -0.00005   0.00007  -0.00001  -0.00016
 325        3PZ         0.00001  -0.00015   0.00012   0.00013  -0.00026
 326        4S          0.00005   0.00309  -0.01198  -0.00210  -0.00351
 327        4PX        -0.00003  -0.00114   0.00208   0.00049   0.00147
 328        4PY         0.00001   0.00015  -0.00025  -0.00006  -0.00017
 329        4PZ         0.00000  -0.00048  -0.00022  -0.00026  -0.00034
 330        5S         -0.00002   0.00433   0.00395  -0.00293   0.00787
 331        5PX        -0.00003  -0.00152  -0.00023   0.00104  -0.00381
 332        5PY        -0.00001   0.00008  -0.00004  -0.00018   0.00038
 333        5PZ        -0.00005  -0.00022  -0.00098   0.00021  -0.00078
 334        6D 0        0.00000  -0.00008  -0.00009   0.00007   0.00038
 335        6D+1        0.00000   0.00019  -0.00011  -0.00001   0.00028
 336        6D-1       -0.00000  -0.00003   0.00001   0.00001  -0.00004
 337        6D+2        0.00000   0.00000   0.00020   0.00000  -0.00082
 338        6D-2       -0.00000   0.00001  -0.00005   0.00000   0.00019
                           6         7         8         9        10
                           O         O         O         O         O
     Eigenvalues --   -10.28046 -10.25317 -10.24076 -10.22767 -10.19380
   1 1   N  1S         -0.00007  -0.00004   0.00000  -0.00002   0.00000
   2        2S         -0.00001  -0.00007   0.00005  -0.00007   0.00002
   3        2PX         0.00057  -0.00010  -0.00009  -0.00010  -0.00005
   4        2PY        -0.00003  -0.00000   0.00000   0.00002   0.00001
   5        2PZ         0.00005  -0.00031  -0.00010   0.00015  -0.00006
   6        3S          0.00068   0.00080  -0.00027   0.00045   0.00003
   7        3PX        -0.00176   0.00011   0.00037  -0.00007   0.00020
   8        3PY         0.00008   0.00002  -0.00001  -0.00006  -0.00003
   9        3PZ        -0.00027   0.00043   0.00066  -0.00001   0.00030
  10        4S         -0.00615  -0.00259   0.00058   0.00104  -0.00089
  11        4PX        -0.00294   0.00001  -0.00036  -0.00065   0.00009
  12        4PY         0.00029  -0.00000   0.00003  -0.00024   0.00023
  13        4PZ         0.00224   0.00152  -0.00224   0.00067  -0.00152
  14        5S          0.02194   0.02706   0.01312   0.01552   0.00616
  15        5PX         0.02160  -0.00681  -0.00156  -0.01277  -0.00697
  16        5PY        -0.00192  -0.00043   0.00040  -0.00120  -0.00095
  17        5PZ         0.00291  -0.01766  -0.01236   0.01673  -0.00134
  18        6D 0        0.00067  -0.00061  -0.00019  -0.00014  -0.00003
  19        6D+1       -0.00009  -0.00034  -0.00024   0.00027  -0.00013
  20        6D-1        0.00000   0.00000   0.00001  -0.00005   0.00003
  21        6D+2       -0.00128  -0.00017   0.00008  -0.00008  -0.00002
  22        6D-2        0.00012   0.00001  -0.00001   0.00004  -0.00001
  23 2   C  1S          0.56289   0.00007   0.00005   0.00006   0.00001
  24        2S          0.46341   0.00006   0.00006   0.00010   0.00003
  25        2PX        -0.00032   0.00005  -0.00001  -0.00002  -0.00002
  26        2PY         0.00003  -0.00001  -0.00001  -0.00000   0.00001
  27        2PZ        -0.00075   0.00004   0.00004   0.00003  -0.00001
  28        3S          0.01896  -0.00011  -0.00018  -0.00050  -0.00031
  29        3PX        -0.00200  -0.00014   0.00019   0.00021   0.00014
  30        3PY         0.00006   0.00002   0.00003  -0.00000  -0.00005
  31        3PZ         0.00078  -0.00006  -0.00007  -0.00020   0.00011
  32        4S         -0.01959  -0.00057   0.00028   0.00294   0.00143
  33        4PX        -0.00031  -0.00081  -0.00100  -0.00054  -0.00181
  34        4PY         0.00019   0.00005  -0.00010   0.00017   0.00025
  35        4PZ        -0.00176  -0.00122   0.00134   0.00143  -0.00099
  36        5S         -0.03734   0.03228   0.03151   0.01041   0.02950
  37        5PX         0.00111   0.03217   0.03565   0.00584  -0.02057
  38        5PY         0.00030  -0.00054  -0.00125   0.00042   0.00156
  39        5PZ        -0.00759   0.06337   0.05259  -0.00792  -0.00687
  40        6D 0       -0.00045   0.00010   0.00016   0.00008   0.00004
  41        6D+1        0.00074   0.00025   0.00008   0.00006  -0.00001
  42        6D-1       -0.00002  -0.00001  -0.00000  -0.00003   0.00002
  43        6D+2        0.00138   0.00009   0.00000   0.00009   0.00006
  44        6D-2       -0.00013  -0.00001   0.00001  -0.00002  -0.00001
  45 3   C  1S         -0.00007   0.56272  -0.01538   0.00009  -0.00135
  46        2S         -0.00005   0.46306  -0.01234   0.00009  -0.00115
  47        2PX        -0.00007   0.00006   0.00067  -0.00004  -0.00055
  48        2PY         0.00001  -0.00000  -0.00005   0.00000   0.00004
  49        2PZ         0.00004   0.00088  -0.00073   0.00006  -0.00011
  50        3S         -0.00022   0.01969  -0.00101  -0.00016   0.00070
  51        3PX         0.00017   0.00157  -0.00345   0.00016   0.00142
  52        3PY        -0.00002  -0.00006   0.00023  -0.00001  -0.00013
  53        3PZ        -0.00019  -0.00163   0.00354  -0.00038   0.00025
  54        4S          0.00373  -0.01959  -0.00313  -0.00368  -0.00060
  55        4PX         0.00663   0.00014   0.00029  -0.00094  -0.00630
  56        4PY        -0.00028   0.00011  -0.00018   0.00012   0.00061
  57        4PZ         0.00113   0.00061  -0.00590   0.00270  -0.00178
  58        5S          0.01836  -0.03222  -0.07893   0.03485   0.03870
  59        5PX        -0.04371   0.01771   0.00838   0.02212  -0.06025
  60        5PY         0.00320  -0.00036   0.00008   0.00027   0.00382
  61        5PZ         0.01556  -0.00458   0.01121  -0.02090  -0.02669
  62        6D 0       -0.00011   0.00036  -0.00035  -0.00001   0.00051
  63        6D+1        0.00006  -0.00092   0.00236   0.00004  -0.00034
  64        6D-1        0.00000   0.00006  -0.00012   0.00000   0.00003
  65        6D+2        0.00028   0.00141  -0.00106   0.00007  -0.00063
  66        6D-2       -0.00002  -0.00016   0.00010   0.00003   0.00006
  67 4   C  1S         -0.00005   0.01520   0.56271   0.00011   0.00007
  68        2S         -0.00003   0.01281   0.46314   0.00013   0.00010
  69        2PX        -0.00002  -0.00052   0.00091  -0.00002  -0.00008
  70        2PY         0.00000   0.00003  -0.00004   0.00001   0.00000
  71        2PZ        -0.00003   0.00057   0.00002   0.00003   0.00002
  72        3S         -0.00011  -0.00001   0.01909  -0.00040  -0.00027
  73        3PX         0.00019   0.00253  -0.00329   0.00013   0.00048
  74        3PY        -0.00001  -0.00012   0.00020  -0.00005  -0.00002
  75        3PZ        -0.00009  -0.00268   0.00170  -0.00021  -0.00018
  76        4S         -0.00416  -0.00159  -0.01773   0.00375   0.00243
  77        4PX        -0.00020  -0.00270   0.00277  -0.00254  -0.00040
  78        4PY        -0.00002   0.00004  -0.00016   0.00024   0.00003
  79        4PZ        -0.00374   0.00022  -0.00010   0.00276   0.00200
  80        5S          0.05764   0.00064   0.06553  -0.05693   0.00565
  81        5PX        -0.00959  -0.00068  -0.00931   0.01751   0.01446
  82        5PY         0.00024  -0.00041  -0.00013  -0.00184  -0.00076
  83        5PZ        -0.00802   0.02078   0.03776   0.01343   0.02209
  84        6D 0        0.00010  -0.00025   0.00128   0.00001   0.00020
  85        6D+1        0.00017   0.00182  -0.00182  -0.00003   0.00020
  86        6D-1       -0.00000  -0.00009   0.00007   0.00001  -0.00003
  87        6D+2        0.00002  -0.00091   0.00084   0.00005  -0.00010
  88        6D-2        0.00001   0.00010  -0.00009   0.00000   0.00001
  89 5   S  1S         -0.00000  -0.00000  -0.00000  -0.00000  -0.00000
  90        2S         -0.00000   0.00001  -0.00000   0.00000   0.00000
  91        3S          0.00001  -0.00006   0.00002  -0.00003  -0.00002
  92        4S         -0.00004   0.00016  -0.00007   0.00007   0.00006
  93        5S          0.00033  -0.00049   0.00032  -0.00023  -0.00011
  94        6S          0.00168   0.00175   0.00106   0.00141  -0.00063
  95        7S          0.01654   0.02750   0.00011  -0.03118  -0.00901
  96        7PX        -0.00453  -0.00533   0.00108   0.00607   0.00336
  97        7PY         0.00010   0.00022   0.00011  -0.00040  -0.00030
  98        7PZ        -0.00027   0.00316  -0.00168  -0.00302   0.00366
  99        8PX        -0.00000   0.00001  -0.00001   0.00000   0.00000
 100        8PY         0.00000  -0.00000   0.00000   0.00000   0.00000
 101        8PZ         0.00001   0.00000  -0.00001  -0.00000   0.00000
 102        9PX         0.00002  -0.00004   0.00010  -0.00001  -0.00000
 103        9PY        -0.00000   0.00000  -0.00000  -0.00000  -0.00000
 104        9PZ        -0.00008  -0.00000   0.00008   0.00001  -0.00000
 105       10PX        -0.00010   0.00013  -0.00046   0.00006  -0.00002
 106       10PY         0.00001  -0.00001   0.00001   0.00000   0.00001
 107       10PZ         0.00042  -0.00002  -0.00033  -0.00002   0.00001
 108       11PX        -0.00032  -0.00017   0.00017  -0.00015   0.00030
 109       11PY        -0.00000   0.00002   0.00003  -0.00002  -0.00003
 110       11PZ        -0.00021  -0.00009   0.00044   0.00006  -0.00004
 111       12PX        -0.00074  -0.00057  -0.00117  -0.00124  -0.00059
 112       12PY         0.00001   0.00004   0.00004   0.00011  -0.00004
 113       12PZ         0.00211  -0.00112  -0.00109   0.00000   0.00063
 114       13D 0       -0.00006   0.00006   0.00002   0.00004   0.00003
 115       13D+1        0.00011  -0.00007   0.00007   0.00003   0.00001
 116       13D-1       -0.00002   0.00000   0.00000  -0.00001  -0.00001
 117       13D+2       -0.00003  -0.00000  -0.00006  -0.00001  -0.00002
 118       13D-2        0.00000  -0.00001   0.00000  -0.00000   0.00001
 119 6   C  1S         -0.00006  -0.00009  -0.00012   0.56301   0.00004
 120        2S         -0.00001  -0.00005  -0.00006   0.46318   0.00006
 121        2PX         0.00002   0.00004  -0.00000   0.00053  -0.00003
 122        2PY        -0.00003  -0.00001  -0.00001  -0.00030  -0.00002
 123        2PZ        -0.00008   0.00002  -0.00002  -0.00094  -0.00005
 124        3S         -0.00051  -0.00030  -0.00048   0.02009  -0.00023
 125        3PX        -0.00020  -0.00021   0.00000  -0.00072   0.00015
 126        3PY         0.00018   0.00009   0.00009   0.00172   0.00008
 127        3PZ         0.00048   0.00001   0.00011   0.00118   0.00018
 128        4S          0.00058   0.00107   0.00384  -0.02046   0.00153
 129        4PX         0.00027   0.00006   0.00049  -0.00143  -0.00010
 130        4PY        -0.00137  -0.00062   0.00003   0.00161  -0.00158
 131        4PZ         0.00008   0.00059  -0.00102   0.00303  -0.00060
 132        5S         -0.01397  -0.01011  -0.00379  -0.04440  -0.01530
 133        5PX         0.00047   0.00026   0.00177  -0.00250  -0.00222
 134        5PY         0.00313   0.00429   0.00328   0.00874   0.00278
 135        5PZ         0.00074  -0.00159  -0.00253   0.00365   0.00062
 136        6D 0       -0.00010   0.00004  -0.00001  -0.00031  -0.00006
 137        6D+1        0.00016   0.00011   0.00005   0.00124  -0.00009
 138        6D-1        0.00011  -0.00005  -0.00001   0.00033  -0.00004
 139        6D+2        0.00007   0.00000   0.00006   0.00012  -0.00001
 140        6D-2        0.00008  -0.00008  -0.00004  -0.00028  -0.00002
 141 7   C  1S         -0.00000   0.00000  -0.00001   0.00127   0.00001
 142        2S         -0.00000  -0.00000   0.00000   0.00101   0.00000
 143        2PX        -0.00001   0.00003   0.00002   0.00008  -0.00000
 144        2PY         0.00001   0.00001   0.00002   0.00047   0.00001
 145        2PZ        -0.00003   0.00000  -0.00002  -0.00006  -0.00000
 146        3S          0.00014   0.00013  -0.00007   0.00034   0.00022
 147        3PX         0.00010  -0.00017  -0.00011  -0.00023  -0.00000
 148        3PY        -0.00002   0.00002  -0.00007  -0.00117   0.00001
 149        3PZ         0.00016  -0.00009   0.00009   0.00011  -0.00004
 150        4S         -0.00126  -0.00096  -0.00032   0.00470  -0.00222
 151        4PX        -0.00123  -0.00013   0.00054  -0.00004  -0.00033
 152        4PY        -0.00045  -0.00038  -0.00004   0.00186  -0.00119
 153        4PZ         0.00042   0.00053  -0.00008  -0.00044   0.00111
 154        5S          0.01213   0.01362   0.01144   0.02614   0.01055
 155        5PX         0.00142   0.00127   0.00111   0.00223   0.00084
 156        5PY         0.00259   0.00285   0.00263   0.00508   0.00209
 157        5PZ        -0.00123  -0.00158  -0.00129  -0.00268  -0.00142
 158        6D 0       -0.00000   0.00002  -0.00002   0.00046   0.00000
 159        6D+1       -0.00003  -0.00000  -0.00001  -0.00002  -0.00002
 160        6D-1       -0.00002   0.00005   0.00002   0.00028   0.00006
 161        6D+2       -0.00000  -0.00002  -0.00001   0.00068   0.00004
 162        6D-2       -0.00009   0.00004   0.00001  -0.00025  -0.00002
 163 8   H  1S          0.00001  -0.00001  -0.00004   0.00000  -0.00003
 164        2S         -0.00012   0.00006   0.00026  -0.00126   0.00017
 165        3S         -0.00059  -0.00029   0.00004  -0.00012  -0.00068
 166        4PX         0.00002  -0.00001  -0.00001  -0.00023  -0.00001
 167        4PY         0.00001   0.00001   0.00002   0.00003   0.00005
 168        4PZ         0.00005  -0.00002  -0.00003   0.00034  -0.00005
 169 9   H  1S         -0.00009   0.00003  -0.00002  -0.00004  -0.00001
 170        2S          0.00071   0.00001   0.00017  -0.00105   0.00034
 171        3S         -0.00104  -0.00027  -0.00004   0.00015  -0.00106
 172        4PX         0.00012  -0.00003  -0.00001  -0.00015   0.00000
 173        4PY         0.00010  -0.00009  -0.00000  -0.00015  -0.00006
 174        4PZ        -0.00001   0.00005   0.00002  -0.00026   0.00009
 175 10  H  1S          0.00001  -0.00009  -0.00004  -0.00006  -0.00005
 176        2S          0.00021   0.00073   0.00025  -0.00071   0.00036
 177        3S         -0.00058  -0.00090  -0.00072  -0.00005  -0.00107
 178        4PX        -0.00006  -0.00004   0.00000   0.00024  -0.00001
 179        4PY        -0.00010   0.00010   0.00002  -0.00008   0.00003
 180        4PZ         0.00006  -0.00009  -0.00003   0.00008  -0.00005
 181 11  H  1S         -0.00002   0.00000   0.00002   0.00009   0.00003
 182        2S          0.00015  -0.00048  -0.00062  -0.00275  -0.00056
 183        3S          0.00276   0.00024   0.00030   0.00421   0.00086
 184        4PX         0.00001  -0.00008  -0.00009  -0.00178   0.00003
 185        4PY         0.00007   0.00008   0.00005   0.00104   0.00001
 186        4PZ        -0.00002   0.00009  -0.00002  -0.00062   0.00002
 187 12  H  1S         -0.00000   0.00001   0.00000   0.00005  -0.00002
 188        2S         -0.00080  -0.00011  -0.00028  -0.00300   0.00004
 189        3S          0.00109   0.00150   0.00112   0.00314   0.00081
 190        4PX        -0.00003   0.00004   0.00006   0.00123  -0.00001
 191        4PY         0.00012   0.00005   0.00003   0.00093   0.00003
 192        4PZ         0.00015  -0.00003   0.00004   0.00160  -0.00004
 193 13  C  1S         -0.00000  -0.00002   0.00159  -0.00002  -0.00130
 194        2S          0.00001   0.00003   0.00131  -0.00000  -0.00105
 195        2PX        -0.00000  -0.00003   0.00011  -0.00000  -0.00002
 196        2PY         0.00000   0.00002  -0.00002  -0.00001  -0.00001
 197        2PZ         0.00004   0.00017   0.00061   0.00002   0.00003
 198        3S         -0.00009  -0.00020   0.00040  -0.00012  -0.00014
 199        3PX         0.00000   0.00009  -0.00038   0.00000   0.00009
 200        3PY        -0.00002  -0.00006   0.00009   0.00006   0.00006
 201        3PZ        -0.00024  -0.00090  -0.00189  -0.00010  -0.00018
 202        4S         -0.00122   0.00048   0.00335   0.00133   0.00138
 203        4PX         0.00017   0.00039  -0.00023   0.00067   0.00030
 204        4PY         0.00016   0.00021  -0.00000  -0.00021  -0.00035
 205        4PZ        -0.00035   0.00037   0.00160   0.00049  -0.00000
 206        5S         -0.02408   0.01851   0.02131   0.02680   0.02596
 207        5PX        -0.00064   0.00080   0.00172  -0.00055  -0.00040
 208        5PY         0.00032  -0.00002  -0.00011  -0.00015  -0.00030
 209        5PZ        -0.00512   0.00299   0.00266   0.00523   0.00488
 210        6D 0       -0.00006  -0.00044  -0.00124  -0.00004  -0.00009
 211        6D+1        0.00000   0.00009  -0.00035   0.00004   0.00001
 212        6D-1        0.00001   0.00003   0.00003  -0.00000  -0.00000
 213        6D+2        0.00000   0.00016  -0.00017   0.00002   0.00000
 214        6D-2       -0.00002  -0.00001   0.00005  -0.00000  -0.00001
 215 14  H  1S          0.00003  -0.00006  -0.00007  -0.00001  -0.00000
 216        2S         -0.00028  -0.00028  -0.00084  -0.00009  -0.00019
 217        3S          0.00041   0.00034   0.00077  -0.00041  -0.00063
 218        4PX         0.00004   0.00010   0.00031   0.00001   0.00004
 219        4PY        -0.00002  -0.00011  -0.00014  -0.00002  -0.00004
 220        4PZ        -0.00004  -0.00004  -0.00006   0.00002  -0.00001
 221 15  H  1S          0.00002   0.00006  -0.00015   0.00002  -0.00001
 222        2S         -0.00016  -0.00042  -0.00094  -0.00012   0.00005
 223        3S         -0.00009   0.00020   0.00080   0.00041  -0.00037
[...]
 51875,-0.00009944,-0.00001207,-0.00004356,0.00005967,-0.00000575,0.000
 01374,0.00002542,0.00000024,-0.00000961,0.00000059,-0.00000100,0.00000
 011,-0.00000094,-0.00000015,-0.00000635,0.00000357,0.00001330,-0.00000
 416,0.00000210,-0.00000648,-0.00000163,0.00001834,0.09840146,-0.103972
 58,-0.05627641,-0.10749282,0.10908729,0.00086508,0.00084189,-0.0011844
 1,0.00090361,0.00014467,-0.00064871,-0.00297027,-0.00069292,-0.0035063
 6,0.02712105,-0.01496140,-0.01784917,0.00010567,-0.00047311,0.00088017
 ,-0.00051250,0.00003749,-0.00009137,0.00003909,-0.00002772,-0.00005590
 ,0.00001989,0.00003313,-0.00001057,-0.00000259,-0.00000033,0.00001677,
 -0.00000644,-0.00000151,0.00000207,-0.00000184,0.00001487,0.00004419,0
 .00009507,0.00002992,-0.00009631,0.08597255,-0.05362718,-0.09519231,-0
 .09565580,0.05896125,0.10839866,-0.00048161,0.00027404,-0.00076116,0.0
 0035081,-0.00053853,-0.00000008,-0.00020547,0.00020384,0.00182728,-0.0
 0084520,0.00227274,-0.00127493,-0.00031421,0.00060495,-0.00069974,-0.0
 0001556,0.00001754,0.00002300,0.00001654,-0.00001121,-0.00000555,0.000
 00446,0.00000728,-0.00000404,0.00000107,-0.00000150,0.00000039,-0.0000
 0247,0.00000279,-0.00000136,0.00000395,0.00000127,-0.00000556,0.000012
 03,-0.00000534,0.00000319,-0.04419824,0.00507807,-0.00184164,0.0000223
 0,0.02385043,-0.00885316,0.04384143,0.00003230,-0.00029665,0.00032946,
 0.00016352,-0.00014309,-0.00027177,0.00119048,0.00066476,-0.00119112,-
 0.00015214,0.00409843,0.00295734,-0.00093552,0.00003284,0.00006881,0.0
 0004937,-0.00003317,0.00000719,-0.00001196,0.00001470,0.00001323,-0.00
 000572,-0.00000754,0.00000395,0.00000021,0.00000151,-0.00000551,0.0000
 0156,0.00000002,-0.00000208,-0.00000555,-0.00000298,-0.00000532,-0.000
 00970,-0.00000209,0.00000834,0.00477278,-0.28051871,0.07825587,-0.0001
 8802,-0.01352763,0.00400452,-0.00543269,0.30282494,-0.00120892,-0.0013
 9753,-0.00114052,0.00052013,-0.00055228,-0.00174783,-0.00197304,0.0005
 3393,0.00064831,-0.00008465,0.03001540,-0.01745973,0.00110384,0.000935
 37,0.00006308,-0.00031099,-0.00022815,0.00020486,0.00002705,-0.0000340
 6,-0.00000466,0.00001348,0.00002752,-0.00002565,-0.00000032,-0.0000013
 3,0.00001841,-0.00001032,-0.00000453,0.00000662,0.00004758,0.00002119,
 -0.00000942,0.00005520,0.00003375,-0.00008749,-0.00193601,0.08049930,-
 0.06996421,-0.00087410,-0.01320151,0.00476203,0.00258598,-0.08821196,0
 .08181967,-0.00882276,0.00111103,-0.00986745,0.00111190,-0.00005932,0.
 00138314,-0.21888748,0.00919281,-0.01850785,-0.02265135,0.00198431,0.0
 0141548,0.00012255,0.00048950,0.00109895,-0.00045781,-0.00043387,0.000
 18002,0.00018696,0.00065906,0.00024675,0.00000658,-0.00005511,-0.00001
 559,-0.00004302,-0.00020568,-0.00016130,-0.00011852,-0.00014077,-0.000
 06633,0.00028738,0.00000056,0.00008382,-0.00029849,-0.00000310,0.00032
 463,-0.00009650,0.00061734,-0.00176593,-0.00032250,-0.00020519,-0.0004
 0647,0.00041807,-0.00031096,0.00014535,0.49056571,-0.00147997,-0.00037
 517,-0.00021876,0.00155470,0.00223704,-0.00047633,0.00860976,-0.068027
 57,0.00253048,0.00197987,0.00669388,-0.00129576,-0.00005373,0.00733062
 ,0.00051125,0.00044840,-0.00123623,-0.00014816,-0.00029898,-0.00024648
 ,0.00017113,-0.00001400,-0.00009482,-0.00006013,0.00012028,-0.00035102
 ,0.00060184,-0.00005046,-0.00001222,0.00000308,-0.00039419,0.00052309,
 -0.00112366,0.00015146,-0.00013196,-0.00005283,0.00021849,-0.00342156,
 0.00064326,0.00011502,0.00007581,-0.00020321,0.00006130,-0.00009586,0.
 00044493,0.00775157,0.53981166,-0.03973842,0.00252538,-0.01031124,0.00
 446841,-0.00019031,-0.00780658,-0.01274393,0.00115161,-0.08675063,0.01
 834661,-0.00158343,0.00889495,0.00287295,-0.00041714,0.00077307,-0.002
 01147,-0.00084130,-0.00111516,-0.00010424,0.00006564,0.00002954,-0.000
 02503,-0.00001685,-0.00007706,-0.00015641,-0.00006415,-0.00035116,0.00
 004754,0.00003328,-0.00003523,-0.00169087,0.00080243,-0.00156267,-0.00
 046118,0.00040389,0.00004336,-0.00043574,-0.00017371,0.00038687,-0.000
 23125,0.00011554,-0.00010140,-0.00006046,0.00023590,-0.00020145,-0.011
 79810,-0.00024992,0.58362442,-0.00740539,0.00042657,-0.00079337,0.0004
 4082,0.00004703,-0.00196890,-0.00448960,-0.00261106,-0.03405638,0.0005
 3204,0.00011079,-0.00038620,0.00012114,0.00001127,0.00012978,-0.000701
 21,0.00022742,0.00119202,0.00006779,-0.00002764,-0.00009589,0.00002244
 ,0.00004565,0.00001114,-0.00001699,0.00010487,-0.00001072,0.00001014,-
 0.00002110,0.00003344,0.00020238,-0.00027284,0.00000599,0.00017220,-0.
 00008926,-0.00009378,-0.00076138,-0.00072066,-0.00007164,0.00037524,0.
 00021982,0.00005835,0.00002160,0.00008164,0.00018045,-0.05536019,-0.00
 358765,-0.04398032,0.06312407,0.00103203,0.00063676,-0.00007596,-0.000
 13454,0.00035037,0.00023451,0.00051216,-0.00215885,0.00281610,-0.00005
 648,0.00025488,-0.00001435,-0.00005083,-0.00026255,-0.00005885,-0.0000
 4535,-0.00021237,-0.00018987,-0.00011515,-0.00006548,-0.00008341,0.000
 03287,0.00001565,0.00007076,0.00007182,0.00023259,-0.00001443,0.000053
 38,0.00007169,0.00005947,-0.00013694,-0.00009609,0.00023214,-0.0000356
 5,0.00006610,-0.00001233,0.00024466,0.00012788,-0.00000910,-0.00007279
 ,-0.00007773,0.00001371,-0.00015517,-0.00001921,0.00005698,-0.00423689
 ,-0.04609639,-0.01978023,0.00289690,0.04551855,0.00041089,-0.00043337,
 0.00125398,-0.00005921,-0.00007292,-0.00023531,-0.00159256,0.00015815,
 -0.00411919,0.00071624,0.00018056,-0.00081547,-0.00017980,-0.00000530,
 -0.00010273,0.00027233,-0.00041409,0.00000290,-0.00000477,-0.00001068,
 0.00008276,-0.00000878,0.00000036,-0.00004653,-0.00002639,-0.00011160,
 0.00002090,-0.00002024,0.00003673,-0.00003326,-0.00030626,0.00031327,-
 0.00002309,-0.00007722,0.00011155,0.00001463,0.00159994,-0.00029842,-0
 .00002324,0.00025728,0.00005315,0.00007805,-0.00017262,-0.00006301,-0.
 00000705,-0.04944754,-0.01939920,-0.31155696,0.05078167,0.02184230,0.3
 3713549,0.00204628,-0.00028754,0.00190199,-0.00221455,-0.00025087,0.00
 031746,-0.01754139,0.02899310,0.01125943,-0.00103417,-0.00003353,-0.00
 241110,-0.00068852,-0.00147668,-0.00081705,-0.00034564,0.00041009,0.00
 006944,0.00023641,-0.00022990,-0.00006399,0.00000620,0.00005906,-0.000
 00803,-0.00000102,0.00005029,0.00000554,-0.00000695,-0.00006941,0.0000
 6730,0.00005836,0.00030254,-0.00069364,0.00009138,-0.00007828,0.000000
 45,0.00008205,0.00039154,-0.00014849,0.00002517,0.00002779,0.00010884,
 -0.00001881,0.00000336,0.00009530,-0.07632254,0.08198190,0.02836197,0.
 00171112,-0.00581324,-0.00110935,0.08764880,0.00027858,0.00050096,-0.0
 0101153,0.00044722,-0.00019379,0.00012569,0.00257262,0.00197768,0.0011
 6367,-0.00087471,-0.00002878,0.00095888,-0.00009760,-0.00032990,0.0002
 4681,0.00001740,-0.00042887,-0.00040816,-0.00009939,-0.00015810,-0.000
 05207,0.00001914,0.00002000,0.00002005,0.00005443,0.00012328,-0.000004
 81,0.00002514,0.00011435,0.00003079,-0.00016511,0.00055175,0.00033401,
 -0.00021018,0.00021233,0.00000224,-0.00004609,0.00016854,-0.00022172,-
 0.00002752,-0.00003094,0.00000851,0.00003299,-0.00009774,-0.00002820,0
 .08097982,-0.24871329,-0.07389495,-0.00048591,-0.00102752,-0.00037961,
 -0.09034297,0.26758751,0.00062587,0.00026836,-0.00008025,-0.00088978,-
 0.00046510,0.00033953,-0.00088722,0.00666425,0.00097245,-0.00015567,-0
 .00013114,-0.00024314,0.00009991,-0.00012422,-0.00040333,-0.00090364,0
 .00039578,0.00001178,0.00033258,0.00021607,0.00006526,0.00000549,0.000
 00326,0.00002105,-0.00003506,-0.00005421,-0.00006333,-0.00004843,-0.00
 013123,-0.00002928,-0.00049433,0.00029227,-0.00152000,0.00002555,-0.00
 004379,0.00003166,0.00055336,-0.00017720,0.00011528,0.00023105,0.00013
 576,0.00004559,-0.00010503,-0.00007903,0.00002880,0.02773358,-0.073824
 17,-0.07056757,0.01153613,-0.02798910,-0.00874448,-0.03110522,0.081207
 39,0.07477482,0.00241205,0.00023258,0.00152444,-0.00189463,0.00038665,
 0.00038986,-0.02098602,-0.02307086,0.01666376,-0.00169291,0.00002564,-
 0.00287402,-0.00062687,0.00135177,-0.00056859,-0.00037958,-0.00045126,
 -0.00011943,-0.00025333,-0.00029175,-0.00042185,0.00007805,0.00007586,
 0.00017885,0.00045823,0.00071413,-0.00012093,0.00009718,0.00005190,0.0
 0022215,0.00018897,-0.00020432,-0.00035400,0.00013066,-0.00000215,-0.0
 0006434,-0.00003953,-0.00067855,-0.00012127,0.00004475,0.00004275,0.00
 011947,0.00002087,0.00000631,0.00022095,-0.10944516,-0.09651787,0.0597
 2107,0.00293904,0.00549482,-0.00214199,0.00605694,0.00797364,-0.006194
 63,0.12266607,-0.00011994,0.00026659,0.00052210,-0.00059740,-0.0000775
 7,-0.00010494,0.00188329,0.00456811,-0.00393157,0.00074617,-0.00017194
 ,-0.00011054,0.00041267,-0.00041155,-0.00024851,-0.00037058,0.00052187
 ,0.00044326,0.00036549,0.00014115,0.00022988,-0.00003027,-0.00001063,-
 0.00000854,0.00024091,-0.00017494,0.00064242,0.00000739,-0.00006720,-0
 .00004895,0.00012744,-0.00054010,-0.00012061,0.00009514,-0.00013872,0.
 00000574,0.00003139,0.00001824,-0.00004541,0.00001325,0.00001361,0.000
 02120,0.00000310,0.00000390,0.00000738,-0.09699495,-0.18822406,0.09205
 047,0.00289463,0.00254583,-0.00149505,-0.01361960,-0.02030800,0.013762
 85,0.10475225,0.20200908,0.00048171,-0.00027261,0.00003696,-0.00055287
 ,0.00030811,0.00050450,-0.00190688,-0.00666552,0.00268776,-0.00034196,
 0.00051104,0.00017587,-0.00015256,0.00024581,-0.00039455,-0.00035447,-
 0.00043177,-0.00010312,-0.00039719,-0.00005591,-0.00084267,0.00003616,
 0.00001497,0.00010065,-0.00015849,0.00090350,-0.00031176,0.00008353,0.
 00001439,0.00022794,-0.00059392,-0.00055244,-0.00086712,0.00009117,0.0
 0000077,-0.00002544,-0.00020230,-0.00046919,-0.00032380,0.00010950,0.0
 0006281,0.00005484,0.00006651,0.00008320,0.00013981,0.05966868,0.09249
 338,-0.10383831,0.01567030,0.02331071,-0.01256422,-0.00597477,-0.00806
 679,0.00475645,-0.06603807,-0.10167289,0.11047258,0.00021160,-0.000154
 62,-0.00039960,-0.00065515,-0.00006276,0.00025200,-0.00116126,0.000852
 15,0.00122462,-0.00123493,0.00097373,-0.00336793,0.00156931,-0.0004285
 7,0.00015965,-0.00004448,-0.00002643,0.00006982,0.00001040,-0.00001625
 ,-0.00001913,0.00000423,0.00001535,-0.00000559,-0.00000260,0.00000714,
 -0.00000258,-0.00000485,0.00000040,-0.00000006,0.00002477,-0.00000992,
 -0.00002019,0.00002467,-0.00001196,-0.00001431,-0.23831225,-0.10463682
 ,-0.06333439,-0.01910111,-0.01150104,-0.00688603,0.00137146,0.00072882
 ,0.00122591,0.00005991,-0.00037026,0.00097357,-0.00071592,0.00045833,0
 .00114927,0.00005538,0.00003155,-0.00040859,0.00002003,0.00005255,0.00
 034774,0.25775298,-0.00035075,-0.00016383,-0.00026767,0.00084258,0.000
 00276,-0.00023889,-0.00026312,0.00077896,-0.00003035,0.00287955,0.0002
 9675,0.00136519,0.00007796,0.00009575,0.00110635,-0.00004355,-0.000005
 94,0.00001089,0.00000860,0.00000603,0.00000572,0.00000173,-0.00000257,
 0.00000015,-0.00000184,0.00000683,-0.00000113,0.00000027,-0.00000356,0
 .00000512,0.00001377,-0.00001236,-0.00000696,0.00001542,-0.00000229,-0
 .00000368,-0.10509182,-0.10057117,-0.03629992,0.01322854,0.00761164,0.
 00580233,-0.02611945,-0.01289376,-0.00860330,-0.00012189,-0.00009049,-
 0.00032531,0.00070037,0.00014797,-0.00006281,0.00008070,-0.00000258,0.
 00014821,0.00003787,0.00000851,0.00021738,0.11412123,0.10478905,-0.000
 52218,0.00035675,-0.00021938,-0.00151569,0.00038035,-0.00106807,-0.000
 54106,0.00036778,0.00135386,-0.02883938,-0.01383849,-0.01188957,0.0012
 9709,-0.00110593,-0.00343744,-0.00006413,0.00013435,0.00025217,0.00004
 710,-0.00004672,-0.00004629,0.00001881,0.00003073,-0.00001309,0.000005
 53,0.00001274,0.00000906,-0.00000537,-0.00001276,0.00000993,0.00005796
 ,-0.00001323,-0.00004471,-0.00002265,0.00000373,0.00002158,-0.06187081
 ,-0.03456816,-0.06642580,0.01143665,0.00789572,0.00410368,0.00941584,0
 .00375770,0.00282754,-0.00004951,-0.00022932,-0.00076007,0.00142321,-0
 .00036828,-0.00037220,0.00012935,0.00001308,0.00048806,0.00001697,0.00
 000574,0.00016813,0.06918223,0.03696053,0.07550068,-0.01974235,0.00057
 225,-0.01724294,-0.06151131,-0.00168975,-0.02195740,-0.00420395,0.0006
 0425,0.01013340,0.00542622,0.00056344,0.00363437,0.01172283,-0.0011066
 8,0.01250952,-0.00113019,0.00008852,-0.00078745,0.00015306,-0.00085279
 ,0.00000168,0.00050956,0.00041787,-0.00022870,0.00052776,0.00034741,0.
 00027031,-0.00041129,-0.00110964,0.00025477,0.00111614,0.00034200,0.00
 057888,-0.00372394,0.00135044,0.00078309,0.00123398,-0.00047545,0.0005
 2399,0.00015365,0.00013317,0.00014022,-0.00005629,0.00001929,0.0007731
 0,-0.00004575,-0.00007049,0.00022556,0.00011711,0.00001707,0.00028941,
 0.00029205,0.00004260,-0.00005779,0.00023379,-0.00000526,-0.00014755,0
 .00021989,-0.00000542,0.00071104,0.69462194,0.00131859,-0.00101182,0.0
 0092900,-0.00317473,-0.06681590,0.00285694,0.00051096,0.00456329,0.000
 00747,-0.00034547,0.00039179,-0.00021906,-0.00053398,-0.00028909,-0.00
 105067,-0.00024716,-0.00312463,0.00022218,-0.00050326,0.00010133,0.000
 18658,0.00004308,-0.00022833,0.00008654,-0.00008376,0.00000842,-0.0000
 2234,-0.00029683,0.00000902,0.00012817,-0.00005529,-0.00006797,-0.0004
 6872,0.00089306,-0.00022885,-0.00051700,0.00084982,0.00249158,-0.00006
 127,-0.00012560,-0.00009844,0.00007370,-0.00022024,-0.00001105,-0.0005
 0059,0.00007510,0.00154427,-0.00001747,0.00003586,0.00008227,0.0000445
 4,-0.00025165,0.00003341,-0.00013950,0.00025152,0.00002134,0.00012188,
 -0.00002894,-0.00000463,0.00045721,-0.06484278,0.21699469,-0.01005872,
 -0.00016852,0.01505447,-0.00932161,0.00181102,-0.09605129,0.00306634,0
 .00050259,0.01499343,0.01257602,0.00011904,-0.00322702,-0.00703006,-0.
 00032470,-0.02453945,-0.00663918,0.00246897,0.00231143,0.00108591,-0.0
 0182719,-0.00155759,0.00019247,0.00073583,-0.00024746,-0.00057090,-0.0
 0012342,0.00006059,-0.00011680,0.00112050,0.00029009,-0.00062869,-0.00
 089442,-0.00246309,0.00699432,-0.00196480,0.00007955,0.00048043,-0.000
 94552,0.00013358,-0.00007708,0.00024013,0.00043368,-0.00012541,0.00007
 121,0.00091159,-0.00025987,-0.00034053,0.00098511,0.00074454,-0.000036
 84,0.00022439,0.00080809,-0.00020278,0.00005137,0.00073658,0.00020442,
 -0.00006012,0.00014671,0.00012561,0.00063337,-0.23032259,0.04963726,0.
 64448527,0.00052748,-0.00025807,0.00334002,0.00985473,0.00032105,-0.00
 548232,0.00157885,0.00008120,0.00074698,0.00019638,-0.00015845,-0.0009
 8143,-0.00122658,0.00030811,-0.00572484,-0.00853058,0.00421631,0.00016
 508,0.00055955,0.00014485,-0.00065065,-0.00015493,-0.00000039,0.000090
 93,-0.00046011,-0.00036383,-0.00015261,-0.00015091,0.00073105,0.000136
 04,-0.00148554,-0.00147578,-0.00265522,-0.00236071,-0.00247022,-0.0036
 1422,0.00000342,-0.00003227,-0.00004744,-0.00003652,-0.00000151,-0.000
 02363,0.00000042,0.00001959,-0.00010282,-0.00004447,-0.00004570,-0.000
 33384,0.00005362,0.00000442,-0.00011277,0.00007455,-0.00012120,0.00008
 422,0.00014693,0.00013225,0.00012747,-0.00002392,0.00001800,-0.0000483
 9,-0.15418611,0.01843291,0.14859808,0.20928301,0.00050230,-0.00037700,
 -0.00025507,0.00148241,0.01840491,-0.00494631,-0.00025070,-0.00054733,
 -0.00020184,0.00012837,-0.00009658,-0.00015284,-0.00025535,0.00117923,
 0.00036166,0.00147159,0.00054763,0.00018648,0.00046005,-0.00054456,0.0
 0032235,-0.00019068,0.00009653,-0.00002727,-0.00028984,0.00040610,-0.0
 0014460,-0.00028140,0.00078994,-0.00021014,0.00016841,0.00029644,0.000
 24861,-0.00101200,-0.00025461,0.00074848,-0.00038258,-0.00073179,0.000
 03771,0.00004983,0.00002175,-0.00001639,0.00006046,0.00000813,0.000124
 08,-0.00004233,-0.00023626,0.00004489,-0.00001251,-0.00000452,-0.00000
 583,0.00000392,0.00002224,0.00000867,-0.00006179,-0.00000477,-0.000035
 93,-0.00000038,0.00001193,-0.00018269,0.01855750,-0.07587516,-0.038691
 20,-0.03361626,0.03307852,0.00590851,0.00017718,0.00119786,-0.00032815
 ,-0.00541950,-0.06562726,0.00013369,-0.00018966,-0.00665486,-0.0028924
 8,0.00005141,-0.00210658,-0.00554138,0.00037632,0.00009091,0.00062754,
 -0.00006505,-0.00025421,-0.00051683,0.00101755,0.00106242,-0.00016486,
 -0.00041345,0.00010173,0.00038994,-0.00000712,-0.00001454,0.00023051,-
 0.00067217,-0.00007956,-0.00006048,0.00001785,0.00066232,-0.00531841,0
 .00079385,-0.00173456,-0.00159396,0.00034453,0.00000206,0.00005047,-0.
 00007245,-0.00003383,-0.00001027,0.00000467,-0.00055723,0.00008356,0.0
 0018370,0.00011578,-0.00016629,-0.00000466,-0.00011126,-0.00044601,0.0
 0008107,-0.00002502,-0.00042088,-0.00006194,0.00001866,-0.00019431,0.0
 0005059,-0.00072963,0.15982952,-0.04132873,-0.44323659,-0.21693994,0.0
 5571016,0.54399918,0.00142330,-0.00007395,-0.00967256,-0.07320111,0.00
 866004,-0.01110015,-0.00098734,-0.00031207,-0.00404863,-0.00494587,0.0
 0007121,0.00049130,-0.00177071,-0.00002952,-0.00100434,0.00100457,0.00
 012262,-0.00126900,-0.00029763,0.00061379,-0.00013761,-0.00027238,-0.0
 0029386,0.00019914,-0.00028304,-0.00023611,-0.00016801,0.00018324,0.00
 056911,-0.00007895,-0.00065582,-0.00026500,-0.00038402,0.00229510,-0.0
 0098150,0.00022972,-0.00007822,0.00040307,-0.00015997,-0.00001738,-0.0
 0010960,-0.00023016,0.00005283,-0.00001698,-0.00049315,0.00015748,-0.0
 0010944,-0.00124641,-0.00046007,0.00003456,-0.00021753,-0.00021106,-0.
 00000448,0.00005766,-0.00017554,-0.00001992,0.00013826,-0.00006816,-0.
 00002873,-0.00026262,-0.47131679,0.04829879,0.08972141,-0.05361857,0.0
 1351099,0.06734051,0.60324316,0.00015817,0.00214373,0.00101225,0.00839
 971,0.01789770,0.00032550,0.00017656,-0.00081119,-0.00003408,0.0002942
 2,0.00126864,-0.00009869,-0.00035157,-0.00177643,-0.00011092,0.0000077
 0,0.00043288,0.00035642,0.00002642,-0.00002856,-0.00011519,0.00006170,
 0.00004260,-0.00002699,0.00008409,-0.00002177,0.00003545,0.00000595,-0
 .00018882,-0.00000499,0.00008148,0.00004966,0.00012596,-0.00034852,0.0
 0026056,-0.00007083,-0.00007256,-0.00017630,0.00003622,0.00001822,0.00
 000190,0.00001659,0.00001334,0.00000027,0.00006361,-0.00005104,-0.0008
 6298,0.00012572,0.00002581,-0.00002985,0.00001128,0.00014941,0.0000074
 6,0.00005582,-0.00011914,0.00001124,-0.00006489,0.00000667,-0.00000297
 ,-0.00001085,0.04710246,-0.07848553,-0.01151668,0.01413394,0.02380921,
 -0.01057412,-0.06980301,0.03645854,-0.00213485,0.00035203,-0.00411772,
 -0.02963664,0.00202884,0.00431219,-0.00240703,-0.00008725,-0.00259994,
 -0.00106270,0.00023690,0.00209876,0.00050137,-0.00006496,0.00045505,0.
 00220397,-0.00044926,-0.00117185,-0.00025473,0.00022843,0.00051039,-0.
 00003241,-0.00018765,0.00006853,0.00016430,0.00011287,-0.00001870,-0.0
 0002851,-0.00032047,-0.00008346,0.00015207,0.00022943,0.00076769,-0.00
 199848,0.00071370,0.00000431,-0.00065653,-0.00003403,0.00039072,0.0001
 7132,-0.00001483,-0.00004937,-0.00000117,0.00002839,-0.00022546,-0.000
 01801,0.00003893,0.00018241,-0.00014353,0.00000074,-0.00005808,-0.0003
 4752,0.00007845,-0.00002570,-0.00035411,-0.00004653,-0.00001304,-0.000
 07880,0.00004195,-0.00036178,0.08008555,-0.01042613,-0.10926531,0.0835
 8132,-0.01292298,-0.02608578,-0.12770489,0.02046343,0.13528616\\-0.000
 00122,-0.00000197,0.00000198,0.00000487,0.00000396,0.00000741,-0.00000
 221,-0.00000122,0.00000188,-0.00000279,0.00000643,0.00000024,-0.000001
 80,0.00001622,-0.00000287,0.00000156,-0.00000909,0.00000187,0.00000719
 ,-0.00001165,-0.00000216,0.00000248,-0.00000729,-0.00000092,0.00000313
 ,-0.00000492,-0.00000270,0.00000434,-0.00000418,-0.00000343,0.00000019
 ,-0.00000403,0.00000266,0.00000057,-0.00000403,0.00000215,-0.00001029,
 0.00000976,-0.00005330,-0.00005260,0.00003592,0.00002161,-0.00000325,-
 0.00006268,0.00001936,-0.00000290,-0.00000645,0.00000225,-0.00000080,-
 0.00000194,0.00000321,-0.00000232,-0.00000394,0.00000219,0.00000127,-0
 .00000258,-0.00000036,0.00005578,0.00003236,0.00001374,0.00001985,0.00
 000578,0.00003690,0.00005195,-0.00001142,-0.00008192,-0.00007300,0.000
 02696,0.00003020\\\@
 The archive entry for this job was punched.


 A MATHEMATICIAN IS A MACHINE FOR TURNING COFFEE INTO THEOREMS.
     -- QUOTED BY PAUL ERDOS
 Job cpu time:       0 days  1 hours 38 minutes  6.0 seconds.
 Elapsed time:       0 days  0 hours 50 minutes 44.7 seconds.
 File lengths (MBytes):  RWF=    342 Int=      0 D2E=      0 Chk=     31 Scr=      1
 Normal termination of Gaussian 16 at Fri Jun  2 17:06:46 2023.
