 Entering Gaussian System, Link 0=g16
 Input=indazolide-isolated-freq.gjf
 Output=indazolide-isolated-freq.log
 Initial command:
 /software/commercial/gaussian/g16/AVX/g16/l1.exe "/scratch1/svicchi/G09-659832.pbs02/Gau-80913.inp" -scrdir="/scratch1/svicchi/G09-659832.pbs02/"
 Entering Link 1 = /software/commercial/gaussian/g16/AVX/g16/l1.exe PID=     80916.
  
 Copyright (c) 1988-2019, Gaussian, Inc.  All Rights Reserved.
  
 This is part of the Gaussian(R) 16 program.  It is based on
 the Gaussian(R) 09 system (copyright 2009, Gaussian, Inc.),
 the Gaussian(R) 03 system (copyright 2003, Gaussian, Inc.),
 the Gaussian(R) 98 system (copyright 1998, Gaussian, Inc.),
 the Gaussian(R) 94 system (copyright 1995, Gaussian, Inc.),
 the Gaussian 92(TM) system (copyright 1992, Gaussian, Inc.),
 the Gaussian 90(TM) system (copyright 1990, Gaussian, Inc.),
 the Gaussian 88(TM) system (copyright 1988, Gaussian, Inc.),
 the Gaussian 86(TM) system (copyright 1986, Carnegie Mellon
 University), and the Gaussian 82(TM) system (copyright 1983,
 Carnegie Mellon University). Gaussian is a federally registered
 trademark of Gaussian, Inc.
  
 This software contains proprietary and confidential information,
 including trade secrets, belonging to Gaussian, Inc.
  
 This software is provided under written license and may be
 used, copied, transmitted, or stored only in accord with that
 written license.
  
 The following legend is applicable only to US Government
 contracts under FAR:
  
                    RESTRICTED RIGHTS LEGEND
  
 Use, reproduction and disclosure by the US Government is
 subject to restrictions as set forth in subparagraphs (a)
 and (c) of the Commercial Computer Software - Restricted
 Rights clause in FAR 52.227-19.
  
 Gaussian, Inc.
 340 Quinnipiac St., Bldg. 40, Wallingford CT 06492
  
  
 ---------------------------------------------------------------
 Warning -- This program may not be used in any manner that
 competes with the business of Gaussian, Inc. or will provide
 assistance to any competitor of Gaussian, Inc.  The licensee
 of this program is prohibited from giving any competitor of
 Gaussian, Inc. access to this program.  By using this program,
 the user acknowledges that Gaussian, Inc. is engaged in the
 business of creating and licensing software in the field of
 computational chemistry and represents and warrants to the
 licensee that it is not a competitor of Gaussian, Inc. and that
 it will not use this program in any manner prohibited above.
 ---------------------------------------------------------------
  

 Cite this work as:
 Gaussian 16, Revision C.01,
 M. J. Frisch, G. W. Trucks, H. B. Schlegel, G. E. Scuseria, 
 M. A. Robb, J. R. Cheeseman, G. Scalmani, V. Barone, 
 G. A. Petersson, H. Nakatsuji, X. Li, M. Caricato, A. V. Marenich, 
 J. Bloino, B. G. Janesko, R. Gomperts, B. Mennucci, H. P. Hratchian, 
 J. V. Ortiz, A. F. Izmaylov, J. L. Sonnenberg, D. Williams-Young, 
 F. Ding, F. Lipparini, F. Egidi, J. Goings, B. Peng, A. Petrone, 
 T. Henderson, D. Ranasinghe, V. G. Zakrzewski, J. Gao, N. Rega, 
 G. Zheng, W. Liang, M. Hada, M. Ehara, K. Toyota, R. Fukuda, 
 J. Hasegawa, M. Ishida, T. Nakajima, Y. Honda, O. Kitao, H. Nakai, 
 T. Vreven, K. Throssell, J. A. Montgomery, Jr., J. E. Peralta, 
 F. Ogliaro, M. J. Bearpark, J. J. Heyd, E. N. Brothers, K. N. Kudin, 
 V. N. Staroverov, T. A. Keith, R. Kobayashi, J. Normand, 
 K. Raghavachari, A. P. Rendell, J. C. Burant, S. S. Iyengar, 
 J. Tomasi, M. Cossi, J. M. Millam, M. Klene, C. Adamo, R. Cammi, 
 J. W. Ochterski, R. L. Martin, K. Morokuma, O. Farkas, 
 J. B. Foresman, and D. J. Fox, Gaussian, Inc., Wallingford CT, 2019.
 
 ******************************************
 Gaussian 16:  ES64L-G16RevC.01  3-Jul-2019
                 2-Jun-2023 
 ******************************************
 %NProcShared=2
 Will use up to    2 processors via shared memory.
 %mem=55gb
 %chk=/scratch1/svicchi/G09-659832.pbs02/02-freq/indazolide-isolated-freq.chk
 ----------------------------------------------------------------------
 #p freq=raman scale=0.967 pop=(nbo,full,hirshfeld) guess=read geom=all
 check b3lyp/6-311+G(d,p) int=grid=ultrafine EmpiricalDispersion=GD3BJ 
 SCRF=(Solvent=ethanol) scf=(xqc,intrep,maxconventionalcycle=350) nosym
 m
 ----------------------------------------------------------------------
 1/10=4,29=7,30=1,38=1,114=967000/1,3;
 2/12=2,15=1,40=1/2;
 3/5=4,6=6,7=111,11=2,14=-4,25=1,30=1,70=2201,71=2,72=4,74=-5,75=-5,116=-2,124=41,140=1/1,2,3;
 4/5=1/1;
 5/5=2,8=3,13=1,17=20,38=6,53=4,85=350,98=1/2,8;
 8/6=4,10=90,11=11/1;
 10/13=10,15=4,31=1/2;
 11/6=3,8=1,9=11,15=111,16=1,31=1/1,2,10;
 10/6=1,31=1/2;
 6/7=3,28=1,40=1,79=1/1,7;
 7/8=1,10=1,25=1,30=1/1,2,3,16;
 1/10=4,30=1/3;
 99//99;
 Leave Link    1 at Fri Jun  2 11:29:22 2023, MaxMem=  7381975040 cpu:               1.4 elap:               2.1
 (Enter /software/commercial/gaussian/g16/AVX/g16/l101.exe)
 Structure from the checkpoint file:  "/scratch1/svicchi/G09-659832.pbs02/02-freq/indazolide-isolated-freq.chk"
 -----------------------
 indazolide-isolated.gjf
 -----------------------
 Charge = -1 Multiplicity = 1
 No Z-Matrix found in chk file; cartesian coordinates used.
  N                                                -1.530457622339     -1.112316045825      0.184157541439
  N                                                -2.333373951429     -0.009854104028      0.240746697492
  C                                                -0.248635320223     -0.668663264830      0.085748085229
  C                                                -0.219392020037      0.765740056844      0.079075049679
  C                                                 0.954696108383     -1.403974808902     -0.002779631928
  C                                                 1.010923360920      1.449383877492     -0.015719396587
  C                                                -1.588200117145      1.106507523335      0.181169201861
  C                                                 2.147128504220     -0.709868406849     -0.095286935274
  C                                                 2.178225485090      0.711051992716     -0.101928150993
  H                                                 0.938988280118     -2.489359024444      0.001840208681
  H                                                 1.046399677913      2.534629421460     -0.021492620866
  H                                                -2.049635918296      2.084803172557      0.212587096993
  H                                                 3.082138209925     -1.256088603653     -0.164357014927
  H                                                 3.134633322898      1.217486214127     -0.175568130798
 Recover connectivity data from disk.
 ITRead=  0  0  0  0  0  0  0  0  0  0  0  0  0  0
 MicOpt= -1 -1 -1 -1 -1 -1 -1 -1 -1 -1 -1 -1 -1 -1
 NAtoms=     14 NQM=       14 NQMF=       0 NMMI=      0 NMMIF=      0
                NMic=       0 NMicF=      0.
                    Isotopes and Nuclear Properties:
 (Nuclear quadrupole moments (NQMom) in fm**2, nuclear magnetic moments (NMagM)
  in nuclear magnetons)

  Atom         1           2           3           4           5           6           7           8           9          10
 IAtWgt=          14          14          12          12          12          12          12          12          12           1
 AtmWgt=  14.0030740  14.0030740  12.0000000  12.0000000  12.0000000  12.0000000  12.0000000  12.0000000  12.0000000   1.0078250
 NucSpn=           2           2           0           0           0           0           0           0           0           1
 AtZEff=   4.5500000   4.5500000   3.6000000   3.6000000   3.6000000   3.6000000   3.6000000   3.6000000   3.6000000   1.0000000
 NQMom=    2.0440000   2.0440000   0.0000000   0.0000000   0.0000000   0.0000000   0.0000000   0.0000000   0.0000000   0.0000000
 NMagM=    0.4037610   0.4037610   0.0000000   0.0000000   0.0000000   0.0000000   0.0000000   0.0000000   0.0000000   2.7928460
 AtZNuc=   7.0000000   7.0000000   6.0000000   6.0000000   6.0000000   6.0000000   6.0000000   6.0000000   6.0000000   1.0000000

  Atom        11          12          13          14
 IAtWgt=           1           1           1           1
 AtmWgt=   1.0078250   1.0078250   1.0078250   1.0078250
 NucSpn=           1           1           1           1
 AtZEff=   1.0000000   1.0000000   1.0000000   1.0000000
 NQMom=    0.0000000   0.0000000   0.0000000   0.0000000
 NMagM=    2.7928460   2.7928460   2.7928460   2.7928460
 AtZNuc=   1.0000000   1.0000000   1.0000000   1.0000000
 Leave Link  101 at Fri Jun  2 11:29:25 2023, MaxMem=  7381975040 cpu:               0.3 elap:               1.2
 (Enter /software/commercial/gaussian/g16/AVX/g16/l103.exe)

 GradGradGradGradGradGradGradGradGradGradGradGradGradGradGradGradGradGrad
 Berny optimization.
 Initialization pass.
 Trust Radius=3.00D-01 FncErr=1.00D-07 GrdErr=1.00D-07 EigMax=2.50D+02 EigMin=1.00D-04
 Number of steps in this run=      2 maximum allowed number of steps=      2.
 GradGradGradGradGradGradGradGradGradGradGradGradGradGradGradGradGradGrad

 Leave Link  103 at Fri Jun  2 11:29:27 2023, MaxMem=  7381975040 cpu:               0.1 elap:               1.0
 (Enter /software/commercial/gaussian/g16/AVX/g16/l202.exe)
                          Input orientation:                          
 ---------------------------------------------------------------------
 Center     Atomic      Atomic             Coordinates (Angstroms)
 Number     Number       Type             X           Y           Z
 ---------------------------------------------------------------------
      1          7           0       -1.530458   -1.112316    0.184158
      2          7           0       -2.333374   -0.009854    0.240747
      3          6           0       -0.248635   -0.668663    0.085748
      4          6           0       -0.219392    0.765740    0.079075
      5          6           0        0.954696   -1.403975   -0.002780
      6          6           0        1.010923    1.449384   -0.015719
      7          6           0       -1.588200    1.106508    0.181169
      8          6           0        2.147129   -0.709868   -0.095287
      9          6           0        2.178225    0.711052   -0.101928
     10          1           0        0.938988   -2.489359    0.001840
     11          1           0        1.046400    2.534629   -0.021493
     12          1           0       -2.049636    2.084803    0.212587
     13          1           0        3.082138   -1.256089   -0.164357
     14          1           0        3.134633    1.217486   -0.175568
 ---------------------------------------------------------------------
                    Distance matrix (angstroms):
                    1          2          3          4          5
     1  N    0.000000
     2  N    1.365027   0.000000
     3  C    1.359993   2.191846   0.000000
     4  C    2.292821   2.257566   1.434717   0.000000
     5  C    2.509183   3.579704   1.412985   2.468369   0.000000
     6  C    3.613983   3.657796   2.466355   1.410685   2.853942
     7  C    2.219577   1.343539   2.225931   1.414278   3.578083
     8  C    3.710080   4.547289   2.402947   2.794323   1.382836
     9  C    4.142565   4.581666   2.797944   2.405062   2.445443
    10  H    2.833311   4.112587   2.175413   3.455934   1.085508
    11  H    4.470201   4.238636   3.456834   2.177455   3.939716
    12  H    3.239124   2.113975   3.292608   2.259988   4.609118
    13  H    4.627977   5.571802   3.391412   3.879066   2.138688
    14  H    5.226897   5.619500   3.882313   3.393877   3.413801
                    6          7          8          9         10
     6  C    0.000000
     7  C    2.629025   0.000000
     8  C    2.441242   4.162731   0.000000
     9  C    1.383893   3.797695   1.421276   0.000000
    10  H    3.939439   4.398761   2.153050   3.433527   0.000000
    11  H    1.085841   3.003618   3.426925   2.147774   5.025191
    12  H    3.134151   1.082115   5.051515   4.456560   5.468021
    13  H    3.410514   5.245313   1.085067   2.165779   2.478239
    14  H    2.142305   4.737587   2.167096   1.084719   4.311964
                   11         12         13         14
    11  H    0.000000
    12  H    3.137288   0.000000
    13  H    4.305135   6.135043   0.000000
    14  H    2.473727   5.270631   2.474157   0.000000
 Symmetry turned off by external request.
 Stoichiometry    C7H5N2(1-)
 Framework group  C1[X(C7H5N2)]
 Deg. of freedom    36
 Full point group                 C1      NOp   1
 Rotational constants (GHZ):           4.0249245           1.6654899           1.1780287
 Leave Link  202 at Fri Jun  2 11:29:28 2023, MaxMem=  7381975040 cpu:               0.0 elap:               0.8
 (Enter /software/commercial/gaussian/g16/AVX/g16/l301.exe)
 Standard basis: 6-311+G(d,p) (5D, 7F)
 Ernie: Thresh=  0.10000D-02 Tol=  0.10000D-05 Strict=F.
   228 basis functions,   364 primitive gaussians,   237 cartesian basis functions
    31 alpha electrons       31 beta electrons
       nuclear repulsion energy       389.1717511513 Hartrees.
 IExCor=  402 DFT=T Ex+Corr=B3LYP ExCW=0 ScaHFX=  0.200000
 ScaDFX=  0.800000  0.720000  1.000000  0.810000 ScalE2=  1.000000  1.000000
 IRadAn=      5 IRanWt=     -1 IRanGd=            0 ICorTp=0 IEmpDi=141
 NAtoms=   14 NActive=   14 NUniq=   14 SFac= 1.00D+00 NAtFMM=   60 NAOKFM=F Big=F
 Integral buffers will be    131072 words long.
 Raffenetti 2 integral format.
 Two-electron integral symmetry is turned off.
 R6Disp:  Grimme-D3(BJ) Dispersion energy=       -0.0269455747 Hartrees.
 Nuclear repulsion after empirical dispersion term =      389.1448055767 Hartrees.
 Force inversion solution in PCM.
 ------------------------------------------------------------------------------
 Polarizable Continuum Model (PCM)
 =================================
 Model                : PCM.
 Atomic radii         : UFF (Universal Force Field).
 Polarization charges : Total charges.
 Charge compensation  : None.
 Solution method      : Matrix inversion.
 Cavity type          : Scaled VdW (van der Waals Surface) (Alpha=1.100).
 Cavity algorithm     : GePol (No added spheres)
                        Default sphere list used, NSphG=   14.
                        Lebedev-Laikov grids with approx.  5.0 points / Ang**2.
                        Smoothing algorithm: York/Karplus (Gamma=1.0000).
                        Polarization charges: spherical gaussians, with
                                              point-specific exponents (IZeta= 3).
                        Self-potential: point-specific (ISelfS= 7).
                        Self-field    : sphere-specific E.n sum rule (ISelfD= 2).
 1st derivatives      : Analytical E(r).r(x)/FMM algorithm (CHGder, D1EAlg=3).
                        Cavity 1st derivative terms included.
 2nd derivatives      : Analytical E(r).r(xy)/FMM algorithm (CHGder, D2EAlg=3).
                        Cavity 2nd derivative terms included.
 Solvent              : Ethanol, Eps=  24.852000 Eps(inf)=   1.852593
 ------------------------------------------------------------------------------
 Spheres list:
 ISph  on   Nord     Re0    Alpha      Xe            Ye            Ze
    1   N      1    1.8300  1.100     -1.530458     -1.112316      0.184158
    2   N      2    1.8300  1.100     -2.333374     -0.009854      0.240747
    3   C      3    1.9255  1.100     -0.248635     -0.668663      0.085748
    4   C      4    1.9255  1.100     -0.219392      0.765740      0.079075
    5   C      5    1.9255  1.100      0.954696     -1.403975     -0.002780
    6   C      6    1.9255  1.100      1.010923      1.449384     -0.015719
    7   C      7    1.9255  1.100     -1.588200      1.106508      0.181169
    8   C      8    1.9255  1.100      2.147129     -0.709868     -0.095287
    9   C      9    1.9255  1.100      2.178225      0.711052     -0.101928
   10   H     10    1.4430  1.100      0.938988     -2.489359      0.001840
   11   H     11    1.4430  1.100      1.046400      2.534629     -0.021493
   12   H     12    1.4430  1.100     -2.049636      2.084803      0.212587
   13   H     13    1.4430  1.100      3.082138     -1.256089     -0.164357
   14   H     14    1.4430  1.100      3.134633      1.217486     -0.175568
 ------------------------------------------------------------------------------
 GePol: Number of generator spheres                  =      14
 GePol: Total number of spheres                      =      14
 GePol: Number of exposed spheres                    =      14 (100.00%)
 GePol: Number of points                             =    1292
 GePol: Average weight of points                     =       0.13
 GePol: Minimum weight of points                     =   0.13D-10
 GePol: Maximum weight of points                     =    0.20577
 GePol: Number of points with low weight             =      71
 GePol: Fraction of low-weight points (<1% of avg)   =       5.50%
 GePol: Cavity surface area                          =    170.231 Ang**2
 GePol: Cavity volume                                =    168.193 Ang**3
 Leave Link  301 at Fri Jun  2 11:29:30 2023, MaxMem=  7381975040 cpu:               0.5 elap:               1.3
 (Enter /software/commercial/gaussian/g16/AVX/g16/l302.exe)
 NPDir=0 NMtPBC=     1 NCelOv=     1 NCel=       1 NClECP=     1 NCelD=      1
         NCelK=      1 NCelE2=     1 NClLst=     1 CellRange=     0.0.
 One-electron integrals computed using PRISM.
 NBasis=   228 RedAO= T EigKep=  2.11D-06  NBF=   228
 NBsUse=   228 1.00D-06 EigRej= -1.00D+00 NBFU=   228
 Precomputing XC quadrature grid using
 IXCGrd= 4 IRadAn=           5 IRanWt=          -1 IRanGd=           0 AccXCQ= 0.00D+00.
 Generated NRdTot=       0 NPtTot=           0 NUsed=           0 NTot=          32
 NSgBfM=   237   237   237   237   237 MxSgAt=    14 MxSgA2=    14.
 Leave Link  302 at Fri Jun  2 11:29:32 2023, MaxMem=  7381975040 cpu:               0.6 elap:               0.9
 (Enter /software/commercial/gaussian/g16/AVX/g16/l303.exe)
 DipDrv:  MaxL=1.
 Leave Link  303 at Fri Jun  2 11:29:34 2023, MaxMem=  7381975040 cpu:               0.1 elap:               0.8
 (Enter /software/commercial/gaussian/g16/AVX/g16/l401.exe)
 Initial guess from the checkpoint file:  "/scratch1/svicchi/G09-659832.pbs02/02-freq/indazolide-isolated-freq.chk"
 B after Tr=     0.000000    0.000000    0.000000
         Rot=    1.000000    0.000000    0.000000    0.000000 Ang=   0.00 deg.
 Guess basis will be translated and rotated to current coordinates.
 JPrj=2 DoOrth=T DoCkMO=T.
 Leave Link  401 at Fri Jun  2 11:29:38 2023, MaxMem=  7381975040 cpu:               1.5 elap:               2.2
 (Enter /software/commercial/gaussian/g16/AVX/g16/l502.exe)
 Keep R1 ints in memory in canonical form, NReq=347516227.
 FoFCou: FMM=F IPFlag=           0 FMFlag=           0 FMFlg1=           0
         NFxFlg=           0 DoJE=F BraDBF=F KetDBF=F FulRan=T
         wScrn=  0.000000 ICntrl=       600 IOpCl=  0 I1Cent=           0 NGrid=           0
         NMat0=    1 NMatS0=  26106 NMatT0=    0 NMatD0=    1 NMtDS0=    0 NMtDT0=    0
 Symmetry not used in FoFCou.
 Two-electron integral symmetry not used.
 Closed shell SCF:
 Using DIIS extrapolation, IDIIS=  1040.
 NGot=  7381975040 LenX=  7041084530 LenY=  7041027920
 Requested convergence on RMS density matrix=1.00D-08 within 350 cycles.
 Requested convergence on MAX density matrix=1.00D-06.
 Requested convergence on             energy=1.00D-06.
 No special actions if energy rises.

 Cycle   1  Pass 1  IDiag  1:
 Inv3:  Mode=1 IEnd=     5007792.
 Iteration    1 A*A^-1 deviation from unit magnitude is 4.33D-15 for   1286.
 Iteration    1 A*A^-1 deviation from orthogonality  is 1.83D-15 for   1233    833.
 Iteration    1 A^-1*A deviation from unit magnitude is 4.33D-15 for   1286.
 Iteration    1 A^-1*A deviation from orthogonality  is 4.42D-15 for    694    684.
 E= -379.490058187028    
 DIIS: error= 3.64D-09 at cycle   1 NSaved=   1.
 NSaved= 1 IEnMin= 1 EnMin= -379.490058187028     IErMin= 1 ErrMin= 3.64D-09
 ErrMax= 3.64D-09  0.00D+00 EMaxC= 1.00D-01 BMatC= 1.79D-15 BMatP= 1.79D-15
 IDIUse=1 WtCom= 1.00D+00 WtEn= 0.00D+00
 Coeff-Com:  0.100D+01
 Coeff:      0.100D+01
 Gap=     0.170 Goal=   None    Shift=    0.000
 RMSDP=2.35D-09 MaxDP=1.84D-07              OVMax= 3.05D-08

 Error on total polarization charges =  0.02389
 SCF Done:  E(RB3LYP) =  -379.490058187     A.U. after    1 cycles
            NFock=  1  Conv=0.24D-08     -V/T= 2.0044
 KE= 3.778236147848D+02 PE=-1.672595138278D+03 EE= 5.261366597292D+02
 Leave Link  502 at Fri Jun  2 11:29:59 2023, MaxMem=  7381975040 cpu:              34.1 elap:              20.4
 (Enter /software/commercial/gaussian/g16/AVX/g16/l508.exe)
 QCSCF skips out because SCF is already converged.
 Leave Link  508 at Fri Jun  2 11:30:01 2023, MaxMem=  7381975040 cpu:               0.1 elap:               1.6
 (Enter /software/commercial/gaussian/g16/AVX/g16/l801.exe)
 DoSCS=F DFT=T ScalE2(SS,OS)=  1.000000  1.000000
 Range of M.O.s used for correlation:     1   228
 NBasis=   228 NAE=    31 NBE=    31 NFC=     0 NFV=     0
 NROrb=    228 NOA=    31 NOB=    31 NVA=   197 NVB=   197

 **** Warning!!: The largest alpha MO coefficient is  0.14257645D+03

 Leave Link  801 at Fri Jun  2 11:30:04 2023, MaxMem=  7381975040 cpu:               0.2 elap:               1.2
 (Enter /software/commercial/gaussian/g16/AVX/g16/l1002.exe)
 Minotr:  Closed shell wavefunction.
 NEqPCM:  Using equilibrium solvation (IEInf=0, Eps=  24.8520, EpsInf=   1.8526)
          Direct CPHF calculation.
          Differentiating once with respect to electric field.
                with respect to dipole field.
          Electric field/nuclear overlap derivatives assumed to be zero.
          Requested convergence is 1.0D-08 RMS, and 1.0D-07 maximum.
          Secondary convergence is 1.0D-12 RMS, and 1.0D-12 maximum.
          NewPWx=F KeepS1=T KeepF1=T KeepIn=T MapXYZ=F SortEE=F KeepMc=T.
         4292 words used for storage of precomputed grid.
 Keep R1 ints in memory in canonical form, NReq=347522261.
 FoFCou: FMM=F IPFlag=           0 FMFlag=           0 FMFlg1=           0
         NFxFlg=           0 DoJE=F BraDBF=F KetDBF=F FulRan=T
         wScrn=  0.000000 ICntrl=       600 IOpCl=  0 I1Cent=           0 NGrid=           0
         NMat0=    1 NMatS0=  26106 NMatT0=    0 NMatD0=    1 NMtDS0=    0 NMtDT0=    0
 Symmetry not used in FoFCou.
 Two-electron integral symmetry not used.
          MDV=    7381975040 using IRadAn=       1.
          Solving linear equations simultaneously, MaxMat=       0.
          There are     3 degrees of freedom in the 1st order CPHF.  IDoFFX=0 NUNeed=     3.
      3 vectors produced by pass  0 Test12= 2.04D-13 3.33D-08 XBig12= 2.15D+02 9.88D+00.
 AX will form     3 AO Fock derivatives at one time.
      3 vectors produced by pass  1 Test12= 2.04D-13 3.33D-08 XBig12= 9.17D+01 2.23D+00.
      3 vectors produced by pass  2 Test12= 2.04D-13 3.33D-08 XBig12= 1.02D+01 8.62D-01.
      3 vectors produced by pass  3 Test12= 2.04D-13 3.33D-08 XBig12= 6.06D+00 6.56D-01.
      3 vectors produced by pass  4 Test12= 2.04D-13 3.33D-08 XBig12= 7.30D-01 2.35D-01.
      3 vectors produced by pass  5 Test12= 2.04D-13 3.33D-08 XBig12= 2.72D-01 1.83D-01.
      3 vectors produced by pass  6 Test12= 2.04D-13 3.33D-08 XBig12= 5.77D-02 8.35D-02.
      3 vectors produced by pass  7 Test12= 2.04D-13 3.33D-08 XBig12= 1.56D-02 2.76D-02.
      3 vectors produced by pass  8 Test12= 2.04D-13 3.33D-08 XBig12= 1.79D-03 1.09D-02.
      3 vectors produced by pass  9 Test12= 2.04D-13 3.33D-08 XBig12= 8.15D-05 3.53D-03.
      3 vectors produced by pass 10 Test12= 2.04D-13 3.33D-08 XBig12= 1.98D-06 3.26D-04.
      3 vectors produced by pass 11 Test12= 2.04D-13 3.33D-08 XBig12= 5.31D-08 5.35D-05.
      2 vectors produced by pass 12 Test12= 2.04D-13 3.33D-08 XBig12= 1.30D-09 6.01D-06.
      2 vectors produced by pass 13 Test12= 2.04D-13 3.33D-08 XBig12= 3.59D-11 1.24D-06.
      2 vectors produced by pass 14 Test12= 2.04D-13 3.33D-08 XBig12= 1.14D-12 2.40D-07.
 InvSVY:  IOpt=1 It=  1 EMax= 3.55D-15
 Solved reduced A of dimension    42 with     3 vectors.
 End of Minotr F.D. properties file   721 does not exist.
 End of Minotr F.D. properties file   722 does not exist.
 End of Minotr F.D. properties file   788 does not exist.
 Leave Link 1002 at Fri Jun  2 11:31:55 2023, MaxMem=  7381975040 cpu:             207.6 elap:             111.0
 (Enter /software/commercial/gaussian/g16/AVX/g16/l1101.exe)
 Using compressed storage, NAtomX=    14.
 Will process     15 centers per pass.
 R6Disp: Adding Grimme-D3(BJ) dispersion energy 1st derivatives to the gradient.
 Leave Link 1101 at Fri Jun  2 11:31:58 2023, MaxMem=  7381975040 cpu:               0.9 elap:               1.4
 (Enter /software/commercial/gaussian/g16/AVX/g16/l1102.exe)
 Symmetrizing basis deriv contribution to polar:
 IMax=3 JMax=2 DiffMx= 0.00D+00
 Leave Link 1102 at Fri Jun  2 11:32:00 2023, MaxMem=  7381975040 cpu:               0.1 elap:               0.8
 (Enter /software/commercial/gaussian/g16/AVX/g16/l1110.exe)
 Forming Gx(P) for the SCF density, NAtomX=    14.
 Integral derivatives from FoFJK, PRISM(SPDF).
 Do as many integral derivatives as possible in FoFJK.
 G2DrvN: MDV=    7381973490.
 G2DrvN: will do    15 centers at a time, making    1 passes.
 PxScal for G2LodP:  IOpCl= 0 ISclPx=1 IMOff=     1 NMtTot=     4 NTT=   26106 ScalPx= 4.45D+01
 Calling FoFCou, ICntrl=  3107 FMM=F I1Cent=   0 AccDes= 0.00D+00.
 FoFJK:  IHMeth= 1 ICntrl=    3107 DoSepK=F KAlg= 0 I1Cent=           0 FoldK=F
 IRaf=         0 NMat=       1 IRICut=       1 DoRegI=T DoRafI=F ISym2E= 0 IDoP0=0 IntGTp=1.
 FoFCou: FMM=F IPFlag=           0 FMFlag=      100000 FMFlg1=           0
         NFxFlg=           0 DoJE=F BraDBF=F KetDBF=F FulRan=T
         wScrn=  0.000000 ICntrl=      3107 IOpCl=  0 I1Cent=           0 NGrid=           0
         NMat0=    1 NMatS0=      1 NMatT0=    0 NMatD0=    4 NMtDS0=    3 NMtDT0=    0
 Symmetry not used in FoFCou.
 PxScal for G2LodP:  IOpCl= 0 ISclPx=0 IMOff=     1 NMtTot=     4 NTT=   26106 ScalPx= 1.00D+00
 NEqPCM:  Using equilibrium solvation (IEInf=0, Eps=  24.8520, EpsInf=   1.8526)
 G2PCM: DoFxE=T DoFxN=T DoGrad=T DoDP/DQ/DG/TGxP=TFFF NFrqRd=   0 IEInf=0 SqF1=F DoCFld=F IF1Alg=4.
 GePol: Maximum number of non-zero 1st derivatives   =     206
 End of G2Drv F.D. properties file   721 does not exist.
 End of G2Drv F.D. properties file   722 does not exist.
 End of G2Drv F.D. properties file   788 does not exist.
 Leave Link 1110 at Fri Jun  2 11:36:09 2023, MaxMem=  7381975040 cpu:             492.2 elap:             248.9
 (Enter /software/commercial/gaussian/g16/AVX/g16/l1002.exe)
 Minotr:  Closed shell wavefunction.
          IDoAtm=11111111111111
 NEqPCM:  Using equilibrium solvation (IEInf=0, Eps=  24.8520, EpsInf=   1.8526)
          Direct CPHF calculation.
          Differentiating once with respect to electric field.
                with respect to dipole field.
          Differentiating once with respect to nuclear coordinates.
          Requested convergence is 1.0D-08 RMS, and 1.0D-07 maximum.
          Secondary convergence is 1.0D-12 RMS, and 1.0D-12 maximum.
          NewPWx=T KeepS1=F KeepF1=F KeepIn=T MapXYZ=F SortEE=F KeepMc=T.
         4292 words used for storage of precomputed grid.
 Keep R1 ints in memory in canonical form, NReq=347522583.
 FoFCou: FMM=F IPFlag=           0 FMFlag=           0 FMFlg1=           0
         NFxFlg=           0 DoJE=F BraDBF=F KetDBF=F FulRan=T
         wScrn=  0.000000 ICntrl=       600 IOpCl=  0 I1Cent=           0 NGrid=           0
         NMat0=    1 NMatS0=  26106 NMatT0=    0 NMatD0=    1 NMtDS0=    0 NMtDT0=    0
 Symmetry not used in FoFCou.
 Two-electron integral symmetry not used.
          MDV=    7381975040 using IRadAn=       1.
          Solving linear equations simultaneously, MaxMat=       0.
          There are    45 degrees of freedom in the 1st order CPHF.  IDoFFX=5 NUNeed=    45.
 Will reuse    3 saved solutions.
     39 vectors produced by pass  0 Test12= 1.36D-14 2.22D-09 XBig12= 2.58D-01 1.41D-01.
 AX will form    39 AO Fock derivatives at one time.
     39 vectors produced by pass  1 Test12= 1.36D-14 2.22D-09 XBig12= 2.86D-02 4.76D-02.
     39 vectors produced by pass  2 Test12= 1.36D-14 2.22D-09 XBig12= 4.94D-04 6.17D-03.
     39 vectors produced by pass  3 Test12= 1.36D-14 2.22D-09 XBig12= 4.26D-06 3.32D-04.
     39 vectors produced by pass  4 Test12= 1.36D-14 2.22D-09 XBig12= 1.28D-08 1.40D-05.
     39 vectors produced by pass  5 Test12= 1.36D-14 2.22D-09 XBig12= 2.69D-11 8.06D-07.
     21 vectors produced by pass  6 Test12= 1.36D-14 2.22D-09 XBig12= 4.46D-14 2.82D-08.
 InvSVY:  IOpt=1 It=  1 EMax= 2.00D-15
 Solved reduced A of dimension   255 with    39 vectors.
 FullF1:  Do perturbations      1 to       3.
 Isotropic polarizability for W=    0.000000      146.83 Bohr**3.
 FullF1:  Do perturbations      1 to       6.
 End of Minotr F.D. properties file   721 does not exist.
 End of Minotr F.D. properties file   722 does not exist.
 End of Minotr F.D. properties file   788 does not exist.
 Leave Link 1002 at Fri Jun  2 11:41:37 2023, MaxMem=  7381975040 cpu:             629.7 elap:             325.9
 (Enter /software/commercial/gaussian/g16/AVX/g16/l601.exe)
 Copying SCF densities to generalized density rwf, IOpCl= 0 IROHF=0.

 **********************************************************************

            Population analysis using the SCF Density.

 **********************************************************************

 Alpha  occ. eigenvalues --  -14.29586 -14.28038 -10.16316 -10.16172 -10.15814
 Alpha  occ. eigenvalues --  -10.15753 -10.15548 -10.15497 -10.14644  -0.97368
 Alpha  occ. eigenvalues --   -0.82803  -0.76159  -0.72506  -0.70687  -0.60155
 Alpha  occ. eigenvalues --   -0.56898  -0.54542  -0.48125  -0.46004  -0.44136
 Alpha  occ. eigenvalues --   -0.41951  -0.39755  -0.39230  -0.35234  -0.32674
 Alpha  occ. eigenvalues --   -0.32536  -0.27946  -0.26608  -0.22667  -0.21642
 Alpha  occ. eigenvalues --   -0.18440
 Alpha virt. eigenvalues --   -0.01395   0.01342   0.02741   0.03198   0.03359
 Alpha virt. eigenvalues --    0.04247   0.04889   0.05172   0.06315   0.07310
 Alpha virt. eigenvalues --    0.08106   0.08225   0.08729   0.09320   0.10583
 Alpha virt. eigenvalues --    0.12495   0.13269   0.13835   0.14044   0.14444
 Alpha virt. eigenvalues --    0.15664   0.17063   0.17309   0.18291   0.18461
 Alpha virt. eigenvalues --    0.19238   0.19719   0.20156   0.20296   0.21035
 Alpha virt. eigenvalues --    0.21245   0.22051   0.22342   0.22396   0.23845
 Alpha virt. eigenvalues --    0.24332   0.24580   0.25576   0.26284   0.26625
 Alpha virt. eigenvalues --    0.27693   0.28187   0.29268   0.31105   0.31501
 Alpha virt. eigenvalues --    0.33136   0.33874   0.35397   0.36468   0.39598
 Alpha virt. eigenvalues --    0.43560   0.45449   0.46948   0.50733   0.52614
 Alpha virt. eigenvalues --    0.53495   0.54569   0.54707   0.56581   0.57967
 Alpha virt. eigenvalues --    0.58989   0.59323   0.61745   0.63571   0.64142
 Alpha virt. eigenvalues --    0.65358   0.66429   0.69899   0.71008   0.71480
 Alpha virt. eigenvalues --    0.71991   0.74608   0.77446   0.78660   0.80546
 Alpha virt. eigenvalues --    0.82797   0.83694   0.83768   0.85733   0.86828
 Alpha virt. eigenvalues --    0.88662   0.88848   0.91539   0.92274   0.92934
 Alpha virt. eigenvalues --    0.95996   0.97328   0.98385   0.99471   1.01681
 Alpha virt. eigenvalues --    1.02814   1.03613   1.05089   1.07963   1.09162
 Alpha virt. eigenvalues --    1.11223   1.13623   1.16254   1.22457   1.28009
 Alpha virt. eigenvalues --    1.29430   1.31384   1.40342   1.46342   1.50089
 Alpha virt. eigenvalues --    1.52454   1.52984   1.55483   1.57736   1.60105
 Alpha virt. eigenvalues --    1.61424   1.63863   1.66865   1.71664   1.72673
 Alpha virt. eigenvalues --    1.73934   1.73939   1.76143   1.78561   1.80969
 Alpha virt. eigenvalues --    1.84121   1.86756   1.89359   1.92063   1.95180
 Alpha virt. eigenvalues --    1.95444   1.96530   1.97825   2.00669   2.01775
 Alpha virt. eigenvalues --    2.06077   2.12409   2.13127   2.20190   2.25354
 Alpha virt. eigenvalues --    2.25690   2.28234   2.30342   2.39891   2.41269
 Alpha virt. eigenvalues --    2.44328   2.44337   2.51302   2.54952   2.56955
 Alpha virt. eigenvalues --    2.63772   2.68395   2.69697   2.70517   2.71449
 Alpha virt. eigenvalues --    2.73646   2.75546   2.76545   2.77846   2.79928
 Alpha virt. eigenvalues --    2.79975   2.81013   2.83765   2.85672   2.90234
 Alpha virt. eigenvalues --    2.92398   2.94347   2.99080   3.01013   3.09300
 Alpha virt. eigenvalues --    3.09493   3.15146   3.22518   3.35552   3.39381
 Alpha virt. eigenvalues --    3.40667   3.45295   3.53035   3.58617   3.62333
 Alpha virt. eigenvalues --    3.69398   3.85317   3.89697   4.02403   4.03423
 Alpha virt. eigenvalues --    4.04334   4.07887   4.19296   4.29974   4.60974
 Alpha virt. eigenvalues --    4.67087   4.84712   5.47182  23.63101  23.91698
 Alpha virt. eigenvalues --   23.93899  24.01909  24.10365  24.13451  24.20448
 Alpha virt. eigenvalues --   35.56537  35.63183
     Molecular Orbital Coefficients:
                           1         2         3         4         5
                           O         O         O         O         O
     Eigenvalues --   -14.29586 -14.28038 -10.16316 -10.16172 -10.15814
   1 1   N  1S          0.00377   0.55739  -0.00006   0.00000   0.00000
   2        2S          0.00317   0.46578  -0.00008   0.00002   0.00005
   3        2PX        -0.00018   0.00027   0.00043   0.00003   0.00007
   4        2PY         0.00019   0.00153   0.00024   0.00000  -0.00002
   5        2PZ         0.00001  -0.00003  -0.00003  -0.00000  -0.00001
   6        3S          0.00007   0.01643   0.00128  -0.00014  -0.00039
   7        3PX         0.00030   0.00095  -0.00114  -0.00017  -0.00040
   8        3PY        -0.00015   0.00033  -0.00065  -0.00005   0.00003
   9        3PZ        -0.00002  -0.00007   0.00009   0.00001   0.00003
  10        4S          0.00207  -0.02477  -0.00846  -0.00046   0.00347
  11        4PX        -0.00068  -0.00477  -0.00259   0.00001   0.00151
  12        4PY         0.00083  -0.00460  -0.00113   0.00039   0.00093
  13        4PZ         0.00005   0.00038   0.00020  -0.00000  -0.00012
  14        5S         -0.02401   0.01979   0.02115   0.01108   0.01140
  15        5PX         0.00269  -0.00239   0.00145   0.00164   0.00000
  16        5PY        -0.00621   0.00641   0.00805   0.00392   0.00262
  17        5PZ        -0.00018   0.00016  -0.00014  -0.00014  -0.00001
  18        6D 0        0.00013  -0.00014   0.00070  -0.00001  -0.00001
  19        6D+1        0.00000  -0.00004   0.00014   0.00001   0.00001
  20        6D-1       -0.00002  -0.00001   0.00005   0.00000  -0.00000
  21        6D+2        0.00016   0.00027  -0.00057  -0.00009  -0.00017
  22        6D-2        0.00034   0.00008  -0.00067  -0.00003   0.00001
  23 2   N  1S          0.55738  -0.00378   0.00000   0.00000   0.00000
  24        2S          0.46584  -0.00314   0.00002   0.00001   0.00001
  25        2PX         0.00147   0.00008  -0.00006   0.00001   0.00002
  26        2PY        -0.00017  -0.00023   0.00004   0.00001   0.00000
  27        2PZ        -0.00011  -0.00001   0.00000  -0.00000  -0.00000
  28        3S          0.01570  -0.00026  -0.00021  -0.00005  -0.00001
  29        3PX         0.00066   0.00003   0.00016  -0.00008  -0.00011
  30        3PY         0.00081   0.00033  -0.00028  -0.00006  -0.00003
  31        3PZ        -0.00005  -0.00000  -0.00001   0.00001   0.00001
  32        4S         -0.01673   0.00466   0.00169  -0.00094  -0.00146
  33        4PX        -0.00358   0.00187   0.00060  -0.00035  -0.00049
  34        4PY        -0.00104  -0.00100   0.00088  -0.00006  -0.00018
  35        4PZ         0.00027  -0.00014  -0.00005   0.00003   0.00004
  36        5S          0.02993  -0.01699  -0.01422  -0.00745  -0.00691
  37        5PX         0.00803  -0.00441  -0.00444  -0.00202  -0.00079
  38        5PY        -0.00475   0.00471   0.00151   0.00161   0.00050
  39        5PZ        -0.00059   0.00032   0.00033   0.00015   0.00006
  40        6D 0       -0.00025   0.00009  -0.00006   0.00000   0.00002
  41        6D+1       -0.00001   0.00000  -0.00002  -0.00000   0.00000
  42        6D-1       -0.00002  -0.00003   0.00000   0.00000  -0.00000
  43        6D+2       -0.00028   0.00010   0.00013   0.00001   0.00001
  44        6D-2        0.00028   0.00036  -0.00006  -0.00005   0.00000
  45 3   C  1S         -0.00001   0.00001   0.56225  -0.00057  -0.02052
  46        2S          0.00004  -0.00000   0.46276  -0.00044  -0.01673
  47        2PX        -0.00005  -0.00049  -0.00012   0.00006   0.00059
  48        2PY        -0.00002  -0.00024  -0.00020   0.00011  -0.00036
  49        2PZ         0.00000   0.00004   0.00001  -0.00000  -0.00004
  50        3S         -0.00043   0.00095   0.01913   0.00008  -0.00106
  51        3PX         0.00055   0.00138   0.00037  -0.00034  -0.00241
  52        3PY        -0.00007   0.00078   0.00041  -0.00066   0.00144
  53        3PZ        -0.00004  -0.00011  -0.00003   0.00003   0.00018
  54        4S          0.00399   0.00069  -0.01912  -0.00628   0.00438
  55        4PX        -0.00349  -0.02056  -0.01062  -0.00323   0.00809
  56        4PY         0.00502  -0.00275  -0.00393  -0.00051   0.00156
  57        4PZ         0.00025   0.00156   0.00081   0.00025  -0.00062
  58        5S          0.10003  -0.06539  -0.08209  -0.10500   0.01886
  59        5PX         0.01039  -0.00944   0.00447  -0.02358   0.01132
  60        5PY         0.00686  -0.00816  -0.04211  -0.01204  -0.00764
  61        5PZ        -0.00081   0.00074  -0.00020   0.00181  -0.00083
  62        6D 0       -0.00017   0.00020  -0.00155   0.00005   0.00058
  63        6D+1       -0.00002   0.00009  -0.00024  -0.00002   0.00013
  64        6D-1        0.00003   0.00005   0.00003   0.00001  -0.00009
  65        6D+2       -0.00002  -0.00078   0.00049   0.00040  -0.00073
  66        6D-2       -0.00036  -0.00063  -0.00051  -0.00005   0.00114
  67 4   C  1S         -0.00001  -0.00001   0.00696   0.00879  -0.00070
  68        2S          0.00006   0.00006   0.00583   0.00737  -0.00051
  69        2PX        -0.00008   0.00002  -0.00003   0.00068   0.00005
  70        2PY         0.00007  -0.00008  -0.00074   0.00038  -0.00006
  71        2PZ         0.00001  -0.00000   0.00000  -0.00005  -0.00000
  72        3S         -0.00010  -0.00054   0.00022   0.00024  -0.00026
  73        3PX         0.00079  -0.00003   0.00005  -0.00265  -0.00045
  74        3PY        -0.00029   0.00067   0.00261  -0.00140   0.00051
  75        3PZ        -0.00006   0.00000  -0.00001   0.00020   0.00003
  76        4S         -0.00622   0.00516   0.00611   0.00600  -0.00400
  77        4PX         0.00726   0.01223   0.00945   0.01307   0.00260
  78        4PY         0.00632  -0.00039  -0.00540  -0.00071   0.00197
  79        4PZ        -0.00057  -0.00092  -0.00070  -0.00098  -0.00020
  80        5S          0.00767   0.01208   0.07782   0.05653  -0.01420
  81        5PX         0.01275   0.01036   0.02316   0.04607   0.01858
  82        5PY         0.03943  -0.01578  -0.03996  -0.02058   0.00312
  83        5PZ        -0.00108  -0.00073  -0.00163  -0.00341  -0.00141
  84        6D 0        0.00008  -0.00013   0.00050   0.00062   0.00003
  85        6D+1        0.00003  -0.00005  -0.00004   0.00014  -0.00002
  86        6D-1       -0.00002   0.00000   0.00001   0.00008   0.00000
  87        6D+2       -0.00033   0.00038   0.00139  -0.00077   0.00030
  88        6D-2        0.00026  -0.00003  -0.00010  -0.00110   0.00000
  89 5   C  1S         -0.00000  -0.00001   0.02523  -0.00084   0.44380
  90        2S          0.00002   0.00005   0.02093  -0.00063   0.36529
  91        2PX        -0.00005  -0.00004  -0.00068   0.00001   0.00038
  92        2PY         0.00001  -0.00008   0.00035   0.00002   0.00012
  93        2PZ         0.00000   0.00000   0.00005  -0.00000  -0.00003
  94        3S         -0.00012  -0.00055   0.00045  -0.00049   0.01544
  95        3PX         0.00039   0.00021   0.00283  -0.00011  -0.00156
  96        3PY        -0.00012   0.00029  -0.00136  -0.00026  -0.00075
  97        3PZ        -0.00003  -0.00002  -0.00021   0.00001   0.00012
  98        4S          0.00230   0.01500   0.01022   0.00630  -0.01444
  99        4PX        -0.00295   0.00010  -0.00155  -0.00045   0.00091
 100        4PY        -0.00005   0.00879   0.00713   0.00301  -0.00641
 101        4PZ         0.00022  -0.00004   0.00009   0.00002  -0.00005
 102        5S         -0.04010   0.02653   0.02148   0.08028  -0.02466
 103        5PX         0.00965  -0.00515   0.02432   0.00217   0.00658
 104        5PY        -0.00669   0.00615   0.00773   0.01333  -0.00228
 105        5PZ        -0.00071   0.00037  -0.00186  -0.00021  -0.00049
 106        6D 0       -0.00001  -0.00012   0.00042  -0.00004  -0.00100
 107        6D+1        0.00001   0.00001   0.00009  -0.00000  -0.00008
 108        6D-1       -0.00001  -0.00001  -0.00013   0.00001   0.00005
 109        6D+2       -0.00010  -0.00032  -0.00059  -0.00007  -0.00066
 110        6D-2        0.00018   0.00011   0.00169  -0.00007  -0.00081
 111 6   C  1S         -0.00000  -0.00000   0.00050   0.56230  -0.00096
 112        2S          0.00001   0.00003   0.00044   0.46267  -0.00072
 113        2PX        -0.00007  -0.00008  -0.00010  -0.00014   0.00010
 114        2PY        -0.00002  -0.00008  -0.00008   0.00013  -0.00008
 115        2PZ         0.00001   0.00001   0.00001   0.00001  -0.00001
 116        3S          0.00004   0.00001   0.00018   0.01995  -0.00031
 117        3PX         0.00033   0.00049   0.00060   0.00050  -0.00065
 118        3PY         0.00018   0.00050   0.00068  -0.00023   0.00071
 119        3PZ        -0.00003  -0.00004  -0.00005  -0.00004   0.00005
 120        4S         -0.00576  -0.01085  -0.00996  -0.02451  -0.00144
 121        4PX         0.00257   0.00193  -0.00035   0.00171   0.00117
 122        4PY         0.00100   0.00389   0.00628   0.01172   0.00052
 123        4PZ        -0.00020  -0.00016   0.00001  -0.00016  -0.00009
 124        5S         -0.03398  -0.00015  -0.05936  -0.07265  -0.01865
 125        5PX         0.02004  -0.00368  -0.01636  -0.00271   0.00251
 126        5PY        -0.00059   0.00181   0.01415   0.01205   0.00225
 127        5PZ        -0.00151   0.00027   0.00120   0.00017  -0.00020
 128        6D 0        0.00005   0.00003   0.00002  -0.00173   0.00004
 129        6D+1        0.00002   0.00001   0.00002  -0.00021   0.00002
 130        6D-1        0.00000   0.00001   0.00002   0.00000  -0.00003
 131        6D+2       -0.00016  -0.00009  -0.00026  -0.00025  -0.00022
 132        6D-2       -0.00002  -0.00013  -0.00033  -0.00015   0.00039
 133 7   C  1S          0.00000  -0.00001  -0.00006   0.00008  -0.00063
 134        2S          0.00005   0.00003  -0.00002   0.00008  -0.00048
 135        2PX        -0.00038  -0.00008   0.00002   0.00007   0.00002
 136        2PY        -0.00036  -0.00003   0.00002   0.00003   0.00004
 137        2PZ         0.00003   0.00001  -0.00000  -0.00001  -0.00000
 138        3S          0.00039  -0.00022  -0.00033  -0.00012  -0.00049
 139        3PX         0.00130   0.00031  -0.00029  -0.00036  -0.00018
 140        3PY         0.00092   0.00054   0.00016  -0.00005  -0.00009
 141        3PZ        -0.00010  -0.00002   0.00002   0.00003   0.00001
 142        4S          0.00880   0.00557   0.00556   0.00835   0.00456
 143        4PX         0.00053   0.00199   0.00295   0.00284   0.00165
 144        4PY        -0.00703   0.00099   0.00129  -0.00136  -0.00265
 145        4PZ        -0.00002  -0.00015  -0.00023  -0.00021  -0.00012
 146        5S         -0.01804   0.02293   0.04303   0.05142   0.03906
 147        5PX        -0.00722   0.00657   0.00891   0.01016   0.00644
 148        5PY        -0.00217   0.00012  -0.00116  -0.00086  -0.00557
 149        5PZ         0.00055  -0.00049  -0.00067  -0.00076  -0.00047
 150        6D 0        0.00014  -0.00007  -0.00008  -0.00007  -0.00007
 151        6D+1       -0.00002  -0.00000   0.00002   0.00002   0.00000
 152        6D-1        0.00009   0.00002   0.00000   0.00000  -0.00000
 153        6D+2        0.00052  -0.00010  -0.00041  -0.00040  -0.00015
 154        6D-2       -0.00120  -0.00030  -0.00008  -0.00008   0.00000
 155 8   C  1S         -0.00000  -0.00000   0.00089   0.00088   0.34471
 156        2S          0.00001   0.00002   0.00080   0.00076   0.28381
 157        2PX        -0.00002  -0.00009  -0.00016   0.00003  -0.00039
 158        2PY        -0.00001  -0.00002  -0.00011   0.00019  -0.00029
 159        2PZ         0.00000   0.00001   0.00001  -0.00000   0.00003
 160        3S         -0.00000  -0.00008  -0.00016   0.00009   0.01159
 161        3PX         0.00014   0.00050   0.00127  -0.00002   0.00174
 162        3PY         0.00009   0.00013   0.00063  -0.00118   0.00096
 163        3PZ        -0.00001  -0.00004  -0.00010   0.00000  -0.00013
 164        4S          0.00025  -0.00857  -0.00747  -0.00660  -0.00223
 165        4PX        -0.00043   0.00288   0.00322   0.00354  -0.00136
 166        4PY        -0.00175  -0.00061  -0.00249  -0.00202  -0.00040
 167        4PZ         0.00004  -0.00022  -0.00024  -0.00026   0.00010
 168        5S          0.00216  -0.00633  -0.03744  -0.05030   0.01316
 169        5PX        -0.00144   0.00016   0.01358   0.01158  -0.00181
 170        5PY         0.00267  -0.00325   0.01253   0.00086   0.00603
 171        5PZ         0.00010  -0.00000  -0.00107  -0.00088   0.00012
 172        6D 0        0.00001  -0.00002   0.00003   0.00004  -0.00056
 173        6D+1        0.00000   0.00001   0.00003  -0.00004  -0.00003
 174        6D-1        0.00000   0.00000   0.00005   0.00001   0.00007
 175        6D+2       -0.00004  -0.00014  -0.00030   0.00060  -0.00051
 176        6D-2       -0.00006  -0.00005  -0.00063  -0.00004  -0.00101
 177 9   C  1S         -0.00000  -0.00001  -0.00041   0.02448   0.02411
 178        2S          0.00001   0.00004  -0.00027   0.02034   0.01994
 179        2PX        -0.00001  -0.00001   0.00001  -0.00062   0.00005
 180        2PY        -0.00001  -0.00003  -0.00004   0.00045  -0.00056
 181        2PZ         0.00000   0.00000  -0.00000   0.00005  -0.00000
 182        3S         -0.00008  -0.00034  -0.00061   0.00038   0.00084
 183        3PX         0.00004   0.00007   0.00010   0.00255  -0.00018
 184        3PY         0.00006   0.00017   0.00033  -0.00183   0.00246
 185        3PZ        -0.00000  -0.00001  -0.00001  -0.00019   0.00001
 186        4S          0.00118   0.00464   0.00839   0.00926  -0.00123
 187        4PX        -0.00021  -0.00280  -0.00413  -0.00656   0.00008
 188        4PY        -0.00118  -0.00182  -0.00192  -0.00243  -0.00085
 189        4PZ         0.00002   0.00022   0.00032   0.00050  -0.00000
 190        5S         -0.02179   0.00773   0.03256   0.03756  -0.01636
 191        5PX         0.00326   0.00009  -0.01216  -0.00839   0.00090
 192        5PY        -0.00444  -0.00072   0.01193   0.00084   0.00324
 193        5PZ        -0.00024  -0.00000   0.00089   0.00064  -0.00008
 194        6D 0       -0.00001  -0.00005  -0.00008   0.00059   0.00027
 195        6D+1       -0.00000  -0.00001  -0.00002   0.00013  -0.00006
 196        6D-1        0.00000  -0.00000  -0.00000  -0.00011   0.00002
 197        6D+2        0.00000   0.00004   0.00016  -0.00081   0.00131
 198        6D-2       -0.00001   0.00003   0.00002   0.00148  -0.00013
 199 10  H  1S          0.00001  -0.00019  -0.00021  -0.00007   0.00021
 200        2S         -0.00044   0.00118   0.00013   0.00016  -0.00437
 201        3S          0.00027   0.00215   0.00247   0.00032   0.00132
 202        4PX         0.00010  -0.00001   0.00017   0.00000  -0.00010
 203        4PY        -0.00008  -0.00001  -0.00046  -0.00009  -0.00209
 204        4PZ        -0.00001   0.00000  -0.00001   0.00000   0.00001
 205 11  H  1S         -0.00001  -0.00002   0.00003   0.00043  -0.00005
 206        2S         -0.00000  -0.00022  -0.00129  -0.00556  -0.00045
 207        3S         -0.00027  -0.00063  -0.00042   0.00090   0.00041
 208        4PX        -0.00001  -0.00004   0.00004   0.00003  -0.00004
 209        4PY         0.00007   0.00007   0.00021   0.00234   0.00020
 210        4PZ         0.00000   0.00000  -0.00000  -0.00001   0.00000
 211 12  H  1S         -0.00028  -0.00004  -0.00002  -0.00007  -0.00008
 212        2S          0.00057  -0.00072  -0.00082  -0.00031   0.00042
 213        3S          0.00188  -0.00081   0.00008   0.00028   0.00057
 214        4PX         0.00017  -0.00018  -0.00022  -0.00014  -0.00005
 215        4PY         0.00037   0.00017   0.00014   0.00015   0.00000
 216        4PZ        -0.00001   0.00001   0.00002   0.00001   0.00000
 217 13  H  1S          0.00001  -0.00004  -0.00006  -0.00002   0.00006
 218        2S         -0.00021   0.00009  -0.00080  -0.00089  -0.00275
 219        3S         -0.00002  -0.00030  -0.00022  -0.00012   0.00270
 220        4PX         0.00005  -0.00003   0.00021   0.00017   0.00149
 221        4PY         0.00004  -0.00001  -0.00008  -0.00011  -0.00078
 222        4PZ        -0.00000   0.00000  -0.00002  -0.00001  -0.00011
 223 14  H  1S         -0.00001  -0.00008  -0.00009  -0.00020  -0.00012
 224        2S          0.00001   0.00038   0.00028   0.00014  -0.00059
 225        3S          0.00034   0.00103   0.00146   0.00262   0.00126
 226        4PX         0.00001   0.00002   0.00008   0.00044   0.00032
 227        4PY         0.00001   0.00002   0.00004   0.00012   0.00023
 228        4PZ        -0.00000  -0.00000  -0.00001  -0.00003  -0.00003
                           6         7         8         9        10
                           O         O         O         O         O
     Eigenvalues --   -10.15753 -10.15548 -10.15497 -10.14644  -0.97368
   1 1   N  1S         -0.00000   0.00000   0.00000   0.00000   0.07083
   2        2S         -0.00001   0.00001   0.00003   0.00004   0.11084
   3        2PX         0.00001   0.00002   0.00003   0.00004  -0.00362
   4        2PY         0.00000  -0.00004  -0.00000  -0.00002  -0.05626
   5        2PZ        -0.00000  -0.00000  -0.00000  -0.00000   0.00048
   6        3S          0.00011  -0.00009  -0.00027  -0.00024  -0.30009
   7        3PX        -0.00001  -0.00016  -0.00014  -0.00031  -0.00323
   8        3PY         0.00000   0.00011  -0.00001  -0.00000  -0.09032
   9        3PZ         0.00000   0.00001   0.00001   0.00002   0.00057
  10        4S         -0.00279  -0.00093   0.00317   0.00106  -0.22197
  11        4PX        -0.00064   0.00075   0.00123   0.00091  -0.02130
  12        4PY        -0.00036  -0.00076   0.00051  -0.00024  -0.03563
  13        4PZ         0.00005  -0.00005  -0.00010  -0.00007   0.00174
  14        5S         -0.00265  -0.02431   0.01167   0.00929   0.01654
  15        5PX         0.00024   0.00288   0.00087   0.00245   0.01037
  16        5PY        -0.00073  -0.00667   0.00361   0.00280   0.02505
  17        5PZ        -0.00002  -0.00019  -0.00008  -0.00019  -0.00086
  18        6D 0       -0.00001  -0.00002   0.00001   0.00001   0.01174
  19        6D+1       -0.00000   0.00000   0.00000   0.00001   0.00114
  20        6D-1        0.00000  -0.00000   0.00000   0.00000  -0.00020
  21        6D+2        0.00004  -0.00009  -0.00003  -0.00017   0.00508
  22        6D-2        0.00000   0.00003  -0.00003  -0.00003   0.00391
  23 2   N  1S          0.00000  -0.00006   0.00000   0.00000   0.07334
  24        2S         -0.00001  -0.00005   0.00001   0.00004   0.11493
  25        2PX        -0.00001   0.00032   0.00001  -0.00002  -0.05514
  26        2PY         0.00000   0.00038   0.00000   0.00007   0.01168
  27        2PZ         0.00000  -0.00003  -0.00000   0.00000   0.00410
  28        3S          0.00007   0.00075  -0.00001  -0.00017  -0.31429
  29        3PX         0.00004  -0.00088  -0.00006  -0.00011  -0.08774
  30        3PY        -0.00001  -0.00095  -0.00002  -0.00047   0.02107
  31        3PZ        -0.00000   0.00007   0.00000   0.00001   0.00652
  32        4S         -0.00027  -0.00158  -0.00042  -0.00056  -0.20601
  33        4PX        -0.00036   0.00053  -0.00025  -0.00011  -0.03255
  34        4PY        -0.00014  -0.00118  -0.00004  -0.00014  -0.00186
  35        4PZ         0.00003  -0.00004   0.00002   0.00001   0.00246
  36        5S          0.00095   0.03329  -0.00783  -0.00097   0.06764
  37        5PX         0.00026   0.00881  -0.00154  -0.00100   0.02887
  38        5PY         0.00030  -0.00354   0.00117   0.00095  -0.00769
  39        5PZ        -0.00002  -0.00065   0.00011   0.00007  -0.00215
  40        6D 0        0.00001   0.00067   0.00002   0.00004   0.01143
  41        6D+1        0.00000   0.00007   0.00000  -0.00001   0.00158
  42        6D-1        0.00000   0.00006   0.00000   0.00002  -0.00036
  43        6D+2       -0.00001   0.00022  -0.00001   0.00024  -0.00141
  44        6D-2       -0.00002  -0.00080  -0.00001  -0.00020   0.00561
  45 3   C  1S          0.01487  -0.00016   0.00027  -0.00704   0.04150
  46        2S          0.01219  -0.00009   0.00029  -0.00570   0.06356
  47        2PX        -0.00030   0.00002   0.00004  -0.00002   0.03657
  48        2PY         0.00018   0.00008   0.00003   0.00071  -0.00478
  49        2PZ         0.00002  -0.00000  -0.00000  -0.00000  -0.00275
  50        3S          0.00061  -0.00036  -0.00056  -0.00023  -0.16014
  51        3PX         0.00074   0.00007  -0.00032   0.00020   0.05234
  52        3PY        -0.00051  -0.00058  -0.00023  -0.00236  -0.00692
  53        3PZ        -0.00005  -0.00000   0.00002  -0.00001  -0.00394
  54        4S         -0.01163  -0.00151   0.00709   0.00319  -0.04734
  55        4PX        -0.01012  -0.00332   0.00839   0.00309  -0.05426
  56        4PY        -0.00153   0.00302   0.00247   0.00494  -0.00212
  57        4PZ         0.00077   0.00024  -0.00064  -0.00025   0.00410
  58        5S         -0.02011  -0.00560  -0.02383  -0.10279  -0.18382
  59        5PX        -0.00981  -0.00492  -0.00431  -0.01960   0.01757
  60        5PY         0.00442  -0.00476  -0.00658  -0.01507  -0.16556
  61        5PZ         0.00072   0.00039   0.00034   0.00152  -0.00081
  62        6D 0       -0.00037  -0.00008  -0.00006   0.00053   0.01105
  63        6D+1       -0.00007  -0.00004  -0.00001  -0.00003   0.00213
  64        6D-1        0.00003   0.00002   0.00000  -0.00000  -0.00006
  65        6D+2        0.00025   0.00036   0.00008   0.00127  -0.00900
  66        6D-2       -0.00036  -0.00029  -0.00001   0.00010   0.00130
  67 4   C  1S          0.00005   0.01445  -0.00089   0.56256   0.02684
  68        2S          0.00007   0.01206  -0.00069   0.46293   0.04107
  69        2PX         0.00005  -0.00074   0.00007   0.00012   0.01809
  70        2PY         0.00002   0.00014   0.00007   0.00005   0.01513
  71        2PZ        -0.00000   0.00006  -0.00001  -0.00001  -0.00141
  72        3S         -0.00044   0.00053   0.00003   0.01935  -0.10262
  73        3PX        -0.00035   0.00285  -0.00067  -0.00035   0.02309
  74        3PY        -0.00013  -0.00051  -0.00045  -0.00017   0.02033
  75        3PZ         0.00003  -0.00021   0.00005   0.00003  -0.00181
  76        4S          0.00829   0.00232  -0.01004  -0.01871  -0.03988
  77        4PX         0.00897  -0.00395  -0.00489  -0.00229   0.06594
  78        4PY        -0.00239   0.00106   0.00196   0.00231   0.02361
  79        4PZ        -0.00067   0.00029   0.00036   0.00017  -0.00505
  80        5S          0.01034   0.12216   0.00095   0.12507   0.70102
  81        5PX         0.00930  -0.00652   0.02689   0.03141   0.18999
  82        5PY         0.00117   0.01989  -0.00551  -0.01438   0.01832
  83        5PZ        -0.00070   0.00044  -0.00201  -0.00232  -0.01437
  84        6D 0       -0.00008   0.00075   0.00009  -0.00176   0.00664
  85        6D+1       -0.00000   0.00020   0.00003  -0.00032   0.00098
  86        6D-1        0.00000  -0.00004   0.00003  -0.00006   0.00026
  87        6D+2       -0.00012  -0.00142  -0.00027   0.00110  -0.00128
  88        6D-2       -0.00006   0.00051  -0.00035   0.00078  -0.00307
  89 5   C  1S         -0.34530   0.00051   0.00508   0.00027   0.00827
  90        2S         -0.28395   0.00046   0.00419   0.00025   0.01249
  91        2PX         0.00065  -0.00003   0.00004  -0.00007   0.00633
  92        2PY         0.00037   0.00000   0.00006   0.00006  -0.00447
  93        2PZ        -0.00005   0.00000  -0.00000   0.00000  -0.00046
  94        3S         -0.01264  -0.00040   0.00040  -0.00005  -0.03221
  95        3PX        -0.00284   0.00029  -0.00045   0.00045   0.00730
  96        3PY        -0.00143  -0.00012  -0.00063  -0.00052  -0.00440
  97        3PZ         0.00022  -0.00002   0.00004  -0.00003  -0.00054
  98        4S          0.02160   0.00463  -0.01236  -0.00349   0.02812
  99        4PX        -0.00020  -0.00241   0.00004  -0.00213  -0.00112
 100        4PY         0.01220   0.00204  -0.00750  -0.00340   0.01963
 101        4PZ        -0.00002   0.00018   0.00002   0.00017   0.00002
 102        5S          0.01809   0.04281   0.00832   0.07343   0.04720
 103        5PX        -0.00524   0.01073   0.00285   0.00518   0.09442
 104        5PY         0.00258   0.00853   0.00071   0.01225   0.03150
 105        5PZ         0.00039  -0.00084  -0.00022  -0.00043  -0.00724
 106        6D 0        0.00163  -0.00006  -0.00001  -0.00002   0.00086
 107        6D+1        0.00026  -0.00000   0.00001   0.00000   0.00024
 108        6D-1        0.00011  -0.00001   0.00002  -0.00002   0.00000
 109        6D+2       -0.00055  -0.00006  -0.00019  -0.00011  -0.00171
 110        6D-2       -0.00141   0.00016  -0.00027   0.00029  -0.00007
 111 6   C  1S         -0.00291  -0.00020  -0.02444  -0.00893   0.00547
 112        2S         -0.00239  -0.00015  -0.01990  -0.00719   0.00822
 113        2PX         0.00012  -0.00006   0.00072  -0.00069   0.00332
 114        2PY        -0.00010  -0.00002  -0.00038  -0.00037   0.00347
 115        2PZ        -0.00001   0.00000  -0.00005   0.00005  -0.00026
 116        3S          0.00028   0.00004  -0.00135  -0.00049  -0.01948
 117        3PX        -0.00067   0.00022  -0.00304   0.00299   0.00451
 118        3PY         0.00062   0.00015   0.00155   0.00149   0.00536
 119        3PZ         0.00005  -0.00002   0.00023  -0.00023  -0.00036
 120        4S         -0.01300   0.00085   0.01129   0.00424  -0.06394
 121        4PX         0.00064   0.00095   0.00017  -0.00182   0.01946
 122        4PY         0.00712   0.00020  -0.00773  -0.00329   0.01943
 123        4PZ        -0.00007  -0.00007   0.00001   0.00015  -0.00152
 124        5S         -0.02321  -0.07698  -0.03463  -0.09509  -0.60997
 125        5PX         0.00207   0.01376  -0.00081   0.00472   0.04458
 126        5PY         0.00419   0.01035   0.00457   0.01584   0.08964
 127        5PZ        -0.00017  -0.00107   0.00005  -0.00040  -0.00362
 128        6D 0        0.00013  -0.00002   0.00073   0.00060   0.00100
 129        6D+1        0.00003   0.00003   0.00014   0.00014   0.00015
 130        6D-1       -0.00003   0.00000  -0.00012   0.00013   0.00003
 131        6D+2       -0.00020  -0.00043  -0.00066  -0.00072  -0.00027
 132        6D-2        0.00042  -0.00008   0.00162  -0.00172  -0.00031
 133 7   C  1S          0.00005   0.56270   0.00268  -0.01455   0.04018
 134        2S          0.00004   0.46305   0.00223  -0.01180   0.06139
 135        2PX         0.00000  -0.00021   0.00004   0.00074   0.00559
 136        2PY        -0.00001  -0.00003   0.00003  -0.00020   0.04093
 137        2PZ        -0.00000   0.00002  -0.00000  -0.00006  -0.00055
 138        3S          0.00005   0.01959  -0.00021  -0.00063  -0.15445
 139        3PX        -0.00000   0.00035  -0.00025  -0.00298   0.00848
 140        3PY        -0.00000   0.00002  -0.00006   0.00090   0.05695
 141        3PZ         0.00000  -0.00003   0.00002   0.00022  -0.00082
 142        4S          0.00454  -0.01522   0.00012  -0.00012  -0.01973
 143        4PX         0.00161  -0.00451   0.00028   0.00105   0.00639
 144        4PY        -0.00004   0.00446  -0.00059  -0.00052  -0.01050
 145        4PZ        -0.00012   0.00033  -0.00002  -0.00008  -0.00045
 146        5S          0.00452  -0.07103   0.04264   0.00520   0.02054
 147        5PX         0.00092  -0.01651   0.00826   0.00062  -0.01999
 148        5PY         0.00012   0.00308  -0.00303   0.00191  -0.01339
 149        5PZ        -0.00007   0.00123  -0.00061  -0.00005   0.00155
 150        6D 0       -0.00000  -0.00174  -0.00008   0.00071   0.01054
 151        6D+1        0.00000  -0.00020  -0.00000   0.00019   0.00079
 152        6D-1       -0.00000   0.00006   0.00001  -0.00009   0.00037
 153        6D+2       -0.00002  -0.00034  -0.00010  -0.00132   0.00805
 154        6D-2        0.00004  -0.00088  -0.00009   0.00117  -0.00378
 155 8   C  1S          0.44264   0.00057  -0.04588   0.00027   0.00313
 156        2S          0.36411   0.00049  -0.03763   0.00028   0.00477
 157        2PX         0.00056  -0.00004   0.00007  -0.00000   0.00265
 158        2PY         0.00033   0.00000   0.00070   0.00003  -0.00038
 159        2PZ        -0.00004   0.00000  -0.00001  -0.00000  -0.00020
 160        3S          0.01575  -0.00011  -0.00182  -0.00051  -0.01207
 161        3PX        -0.00215   0.00029  -0.00038   0.00017   0.00433
 162        3PY        -0.00168  -0.00002  -0.00247  -0.00025  -0.00079
 163        3PZ         0.00017  -0.00002   0.00004  -0.00001  -0.00033
 164        4S         -0.02064  -0.00163   0.01302   0.00631  -0.02734
 165        4PX         0.01039   0.00041  -0.00719  -0.00266   0.00607
 166        4PY        -0.00542  -0.00154   0.00492   0.00109  -0.00332
 167        4PZ        -0.00077  -0.00003   0.00053   0.00020  -0.00045
 168        5S         -0.00464  -0.05668  -0.00887  -0.04960  -0.21238
 169        5PX        -0.00060   0.00975   0.00156   0.01044   0.04631
 170        5PY        -0.00291   0.00089   0.00167   0.00228   0.02460
 171        5PZ         0.00005  -0.00074  -0.00012  -0.00080  -0.00359
 172        6D 0       -0.00180  -0.00003   0.00065  -0.00008   0.00058
 173        6D+1       -0.00031  -0.00000  -0.00002  -0.00002   0.00012
 174        6D-1       -0.00008   0.00001   0.00000   0.00000  -0.00002
 175        6D+2        0.00093  -0.00002   0.00134   0.00012  -0.00059
 176        6D-2        0.00097  -0.00009   0.00004  -0.00006   0.00032
 177 9   C  1S          0.03916  -0.00263   0.56048   0.00059   0.00272
 178        2S          0.03230  -0.00214   0.46117   0.00054   0.00419
 179        2PX         0.00006  -0.00003   0.00022  -0.00008   0.00232
 180        2PY        -0.00048   0.00000  -0.00001   0.00009   0.00056
 181        2PZ        -0.00000   0.00000  -0.00002   0.00001  -0.00018
 182        3S          0.00113  -0.00040   0.01963  -0.00017  -0.01127
 183        3PX        -0.00038   0.00013  -0.00065   0.00093   0.00290
 184        3PY         0.00146   0.00000   0.00043  -0.00054   0.00153
 185        3PZ         0.00002  -0.00001   0.00005  -0.00007  -0.00022
 186        4S          0.01210   0.00154  -0.02040  -0.00351   0.00898
 187        4PX        -0.00706  -0.00136   0.00931   0.00198  -0.00937
 188        4PY        -0.00427  -0.00175   0.00509   0.00215  -0.00828
 189        4PZ         0.00055   0.00011  -0.00072  -0.00016   0.00073
 190        5S          0.01552   0.04036   0.01322   0.03944   0.18905
 191        5PX        -0.00300  -0.00932  -0.00390  -0.00873  -0.05025
 192        5PY        -0.00249  -0.00616   0.00091  -0.00002   0.00528
 193        5PZ         0.00023   0.00072   0.00029   0.00066   0.00379
 194        6D 0        0.00024  -0.00004  -0.00187  -0.00000   0.00045
 195        6D+1       -0.00003   0.00000  -0.00026   0.00001   0.00007
 196        6D-1        0.00001   0.00000   0.00001  -0.00004   0.00002
 197        6D+2        0.00080  -0.00007   0.00025  -0.00019  -0.00008
 198        6D-2       -0.00015  -0.00005  -0.00019   0.00055  -0.00024
 199 10  H  1S         -0.00044  -0.00006   0.00004  -0.00000  -0.00336
 200        2S          0.00346   0.00015  -0.00127  -0.00079  -0.00126
 201        3S          0.00167  -0.00001  -0.00152  -0.00127   0.00590
 202        4PX        -0.00004   0.00008  -0.00002   0.00009   0.00011
 203        4PY         0.00112  -0.00005  -0.00021  -0.00017  -0.00075
 204        4PZ        -0.00000  -0.00001   0.00000  -0.00001  -0.00001
 205 11  H  1S          0.00004  -0.00006  -0.00024  -0.00014  -0.00159
 206        2S         -0.00104  -0.00042   0.00052  -0.00044  -0.00272
 207        3S         -0.00126   0.00021   0.00275   0.00245  -0.00058
 208        4PX        -0.00002  -0.00002  -0.00007   0.00021  -0.00015
 209        4PY         0.00014   0.00020   0.00025   0.00037   0.00035
 210        4PZ         0.00000   0.00000   0.00000  -0.00002   0.00001
 211 12  H  1S          0.00001   0.00018  -0.00002  -0.00002  -0.00970
 212        2S         -0.00021  -0.00488  -0.00006  -0.00048  -0.00729
 213        3S         -0.00006   0.00200   0.00006   0.00096   0.00764
 214        4PX        -0.00003  -0.00091  -0.00007  -0.00038   0.00078
 215        4PY         0.00001   0.00233   0.00007   0.00011   0.00157
 216        4PZ         0.00000   0.00006   0.00001   0.00003  -0.00006
 217 13  H  1S          0.00045  -0.00001  -0.00024  -0.00006  -0.00080
 218        2S         -0.00436  -0.00031   0.00101  -0.00002  -0.00008
 219        3S         -0.00080   0.00029   0.00258   0.00125   0.00126
 220        4PX         0.00136   0.00007   0.00002   0.00009  -0.00003
 221        4PY        -0.00088  -0.00001  -0.00009  -0.00005   0.00012
 222        4PZ        -0.00010  -0.00001  -0.00000  -0.00001   0.00000
 223 14  H  1S         -0.00013  -0.00006   0.00043  -0.00004  -0.00080
 224        2S          0.00061   0.00056  -0.00533  -0.00077   0.00137
 225        3S          0.00238   0.00015   0.00048  -0.00040   0.00394
 226        4PX         0.00020  -0.00005   0.00200   0.00021   0.00006
 227        4PY         0.00016  -0.00001   0.00106   0.00005  -0.00001
 228        4PZ        -0.00002   0.00000  -0.00015  -0.00002  -0.00000
                          11        12        13        14        15
                           O         O         O         O         O
     Eigenvalues --    -0.82803  -0.76159  -0.72506  -0.70687  -0.60155
   1 1   N  1S          0.01009  -0.05256  -0.00462   0.04843   0.00597
   2        2S          0.01602  -0.08288  -0.00719   0.07664   0.00942
   3        2PX         0.02155   0.04241   0.05222   0.00469  -0.05507
   4        2PY        -0.01452   0.00408  -0.01164  -0.01771  -0.00030
   5        2PZ        -0.00157  -0.00322  -0.00390  -0.00029   0.00415
   6        3S         -0.04554   0.23263   0.01860  -0.21732  -0.02533
   7        3PX         0.03238   0.06114   0.07876   0.00853  -0.08210
   8        3PY        -0.02315   0.00805  -0.01752  -0.02951  -0.00055
   9        3PZ        -0.00236  -0.00465  -0.00588  -0.00053   0.00619
  10        4S         -0.03190   0.18421   0.02237  -0.18788  -0.02680
  11        4PX         0.00704   0.02562   0.02865  -0.00301  -0.03697
  12        4PY        -0.00880   0.00704  -0.00466  -0.01761  -0.00301
  13        4PZ        -0.00050  -0.00197  -0.00214   0.00029   0.00279
  14        5S         -0.07140  -0.10407  -0.04357   0.07638   0.00637
  15        5PX        -0.01951   0.00635  -0.01640  -0.01354   0.00946
  16        5PY        -0.01970  -0.02624  -0.01009   0.03266   0.00647
  17        5PZ         0.00154  -0.00038   0.00128   0.00092  -0.00074
  18        6D 0        0.00172  -0.00306  -0.00016   0.00282   0.00098
  19        6D+1       -0.00009  -0.00111  -0.00053   0.00050   0.00030
  20        6D-1       -0.00036  -0.00027  -0.00090  -0.00018   0.00102
  21        6D+2        0.00399   0.00910   0.00618  -0.00181  -0.00165
  22        6D-2        0.00504   0.00371   0.01227   0.00258  -0.01351
  23 2   N  1S          0.02924   0.03320   0.04870  -0.00618  -0.03896
  24        2S          0.04609   0.05232   0.07707  -0.00969  -0.06198
  25        2PX        -0.01409  -0.01075  -0.01006   0.00063  -0.01140
  26        2PY         0.00296  -0.05759  -0.00376   0.06921  -0.01169
  27        2PZ         0.00105   0.00100   0.00076  -0.00028   0.00090
  28        3S         -0.12917  -0.14675  -0.21952   0.02622   0.18012
  29        3PX        -0.02221  -0.01642  -0.01634   0.00058  -0.01569
  30        3PY         0.00639  -0.08451  -0.00233   0.10385  -0.02014
  31        3PZ         0.00164   0.00151   0.00123  -0.00039   0.00126
  32        4S         -0.09490  -0.11485  -0.17551   0.02134   0.15985
  33        4PX        -0.01139  -0.00877  -0.01053  -0.00095  -0.00772
  34        4PY        -0.00146  -0.02825  -0.00445   0.03463  -0.00691
  35        4PZ         0.00086   0.00075   0.00080  -0.00004   0.00061
  36        5S          0.03879   0.11818   0.01608  -0.10506   0.02232
  37        5PX         0.01062   0.03112   0.00993  -0.02380   0.00373
  38        5PY        -0.00188  -0.00619  -0.00220   0.00895   0.00037
  39        5PZ        -0.00079  -0.00232  -0.00074   0.00175  -0.00028
  40        6D 0        0.00280   0.00155   0.00224   0.00024   0.00059
  41        6D+1        0.00021   0.00008  -0.00016  -0.00001   0.00066
  42        6D-1       -0.00009   0.00104   0.00001  -0.00113   0.00018
  43        6D+2        0.00197   0.00227   0.00590  -0.00011  -0.00752
  44        6D-2        0.00150  -0.01367   0.00026   0.01508  -0.00267
  45 3   C  1S         -0.03905  -0.04825  -0.04732  -0.01713   0.01149
  46        2S         -0.06026  -0.07458  -0.07340  -0.02667   0.01804
  47        2PX         0.03217  -0.01801  -0.01836   0.05525   0.07045
  48        2PY         0.00770  -0.04550   0.02623   0.01100  -0.04274
  49        2PZ        -0.00245   0.00151   0.00131  -0.00421  -0.00519
  50        3S          0.15712   0.19868   0.19637   0.07146  -0.05016
  51        3PX         0.04633  -0.02601  -0.02756   0.07689   0.09990
  52        3PY         0.01225  -0.06946   0.04076   0.01625  -0.06157
  53        3PZ        -0.00353   0.00220   0.00197  -0.00586  -0.00736
  54        4S          0.08825   0.08982   0.12002   0.04887  -0.03954
  55        4PX        -0.00388   0.00153  -0.00809  -0.00382   0.03521
  56        4PY         0.00520  -0.01090   0.02353   0.00243  -0.03463
  57        4PZ         0.00028  -0.00007   0.00054   0.00028  -0.00255
  58        5S          0.45466  -0.10203   0.53041  -0.13968  -0.28369
  59        5PX         0.10593  -0.11237   0.12841   0.03200  -0.08161
  60        5PY         0.06435   0.04797   0.00607  -0.07734  -0.00995
  61        5PZ        -0.00818   0.00832  -0.00970  -0.00218   0.00619
  62        6D 0       -0.00692  -0.00685  -0.00663  -0.00190   0.00277
  63        6D+1       -0.00084  -0.00201  -0.00027   0.00025   0.00014
  64        6D-1        0.00000  -0.00022  -0.00028   0.00087   0.00021
  65        6D+2       -0.00094   0.01441  -0.00810  -0.00604   0.00305
  66        6D-2       -0.00061   0.00296   0.00294  -0.01187  -0.00239
  67 4   C  1S         -0.04129   0.03935  -0.06331  -0.02005   0.01922
  68        2S         -0.06365   0.06083  -0.09805  -0.03107   0.03003
  69        2PX         0.02826   0.00584   0.00266  -0.04474   0.07454
  70        2PY        -0.00766  -0.02995  -0.01194  -0.01535   0.03448
  71        2PZ        -0.00211  -0.00035  -0.00016   0.00342  -0.00573
  72        3S          0.16370  -0.15855   0.25788   0.08188  -0.08063
  73        3PX         0.04042   0.00858   0.00487  -0.06300   0.10207
  74        3PY        -0.01237  -0.04782  -0.01810  -0.02233   0.04680
  75        3PZ        -0.00301  -0.00049  -0.00030   0.00482  -0.00784
  76        4S          0.08315  -0.08400   0.13063   0.04003  -0.03844
  77        4PX         0.02430  -0.00614   0.00713   0.01509   0.04332
  78        4PY         0.00592  -0.01432   0.00970  -0.00235   0.01367
  79        4PZ        -0.00184   0.00050  -0.00056  -0.00113  -0.00331
  80        5S         -0.34728   0.44338  -0.52073  -0.21339   0.53653
  81        5PX        -0.43107   0.08958  -0.11245  -0.00381   0.00467
  82        5PY         0.06696   0.10212   0.05142  -0.12847   0.01632
  83        5PZ         0.03227  -0.00705   0.00831   0.00068  -0.00040
  84        6D 0       -0.00761   0.00583  -0.00823  -0.00252   0.00239
  85        6D+1       -0.00107   0.00187  -0.00086  -0.00023   0.00020
  86        6D-1       -0.00010   0.00014  -0.00034   0.00049  -0.00014
  87        6D+2        0.00090  -0.01449  -0.00307  -0.00097   0.00146
  88        6D-2        0.00079  -0.00204   0.00374  -0.00676   0.00208
  89 5   C  1S         -0.05170  -0.04248   0.02255  -0.05531  -0.05167
  90        2S         -0.07964  -0.06561   0.03487  -0.08573  -0.08086
  91        2PX         0.00604  -0.01494  -0.04840   0.00626  -0.01958
  92        2PY         0.02848   0.00676  -0.00401   0.01128  -0.01309
  93        2PZ        -0.00055   0.00110   0.00368  -0.00052   0.00152
  94        3S          0.20536   0.17143  -0.09122   0.22552   0.21693
  95        3PX         0.00729  -0.02262  -0.06989   0.00598  -0.03001
  96        3PY         0.04174   0.01027  -0.00558   0.01711  -0.01746
  97        3PZ        -0.00069   0.00167   0.00531  -0.00052   0.00232
  98        4S          0.10830   0.09203  -0.05052   0.14439   0.14464
  99        4PX         0.00200  -0.00944  -0.02461   0.00456  -0.00497
 100        4PY         0.01621   0.00402  -0.00281   0.01268  -0.00173
 101        4PZ        -0.00021   0.00070   0.00187  -0.00039   0.00038
 102        5S         -0.35040   0.29883  -0.46055  -0.09587   0.23890
 103        5PX        -0.03449  -0.01427   0.02574   0.01131  -0.00762
 104        5PY        -0.05797   0.03938  -0.06982  -0.01771   0.02946
 105        5PZ         0.00280   0.00095  -0.00172  -0.00079   0.00048
 106        6D 0       -0.00882  -0.00546   0.00258  -0.00670  -0.00531
 107        6D+1       -0.00122  -0.00118   0.00047  -0.00087  -0.00071
 108        6D-1       -0.00012   0.00011   0.00084   0.00016   0.00030
 109        6D+2        0.00071   0.00615  -0.00124  -0.00004   0.00031
 110        6D-2        0.00092  -0.00167  -0.01098  -0.00260  -0.00430
 111 6   C  1S         -0.05237   0.04531  -0.02282   0.05153  -0.05232
 112        2S         -0.08065   0.06989  -0.03531   0.07990  -0.08191
 113        2PX         0.00432   0.00485  -0.04192  -0.03631  -0.00730
 114        2PY        -0.02859   0.00986  -0.00240   0.00807   0.01429
 115        2PZ        -0.00025  -0.00039   0.00317   0.00272   0.00051
 116        3S          0.20801  -0.18245   0.09269  -0.21039   0.22053
 117        3PX         0.00573   0.00619  -0.06121  -0.04841  -0.01354
 118        3PY        -0.04104   0.01351  -0.00331   0.01303   0.01905
 119        3PZ        -0.00032  -0.00050   0.00463   0.00362   0.00096
 120        4S          0.09083  -0.09106   0.04907  -0.14411   0.13672
 121        4PX         0.00802  -0.00050  -0.01181  -0.01227  -0.00270
 122        4PY        -0.00845   0.00503  -0.00546   0.01087   0.01300
 123        4PZ        -0.00058   0.00003   0.00091   0.00090   0.00017
 124        5S          0.73237  -0.40552   0.44078   0.21008  -0.37265
 125        5PX        -0.03302   0.08315  -0.00330  -0.07983   0.03519
 126        5PY        -0.11423   0.04430  -0.07255  -0.02775   0.07409
 127        5PZ         0.00283  -0.00641   0.00046   0.00610  -0.00287
 128        6D 0       -0.00878   0.00576  -0.00281   0.00613  -0.00540
 129        6D+1       -0.00123   0.00110  -0.00056   0.00089  -0.00073
 130        6D-1        0.00005  -0.00008  -0.00076  -0.00035  -0.00029
 131        6D+2        0.00104  -0.00457   0.00212  -0.00128   0.00014
 132        6D-2       -0.00124   0.00122   0.00998   0.00500   0.00348
 133 7   C  1S          0.00439   0.05942  -0.00188  -0.05220   0.02164
 134        2S          0.00681   0.09159  -0.00299  -0.08095   0.03394
 135        2PX         0.02099   0.00504   0.05450  -0.00134  -0.05168
 136        2PY         0.01252   0.02243   0.01847  -0.01437  -0.00556
 137        2PZ        -0.00162  -0.00044  -0.00416   0.00014   0.00391
 138        3S         -0.01745  -0.24089   0.00702   0.21534  -0.09066
 139        3PX         0.02992   0.00703   0.07833   0.00069  -0.07320
 140        3PY         0.01741   0.03176   0.02501  -0.02192  -0.00707
 141        3PZ        -0.00231  -0.00062  -0.00598   0.00001   0.00554
 142        4S          0.00209  -0.13485   0.01919   0.15547  -0.06948
 143        4PX         0.00589  -0.00505   0.01914   0.01075  -0.02475
 144        4PY        -0.00579   0.01216  -0.00518  -0.01544   0.00208
 145        4PZ        -0.00043   0.00034  -0.00143  -0.00076   0.00186
 146        5S         -0.51235  -0.19241   0.03359   0.20601  -0.20888
 147        5PX        -0.09224  -0.04443   0.01062   0.04566  -0.04795
 148        5PY         0.03015   0.01843  -0.01110  -0.00784   0.01254
 149        5PZ         0.00686   0.00329  -0.00076  -0.00341   0.00357
 150        6D 0        0.00144   0.00855  -0.00032  -0.00753   0.00344
 151        6D+1       -0.00018   0.00122  -0.00066  -0.00115   0.00064
 152        6D-1        0.00038   0.00052   0.00095   0.00007  -0.00108
 153        6D+2        0.00502  -0.00099   0.00860   0.00226  -0.00309
 154        6D-2       -0.00475  -0.00635  -0.01230  -0.00130   0.01451
 155 8   C  1S         -0.05558  -0.01179   0.06546  -0.01835   0.03706
 156        2S         -0.08560  -0.01816   0.10132  -0.02848   0.05788
 157        2PX        -0.02510  -0.01470   0.00445  -0.02828  -0.05519
 158        2PY         0.01341  -0.01983  -0.00790  -0.04282  -0.04958
 159        2PZ         0.00186   0.00117  -0.00032   0.00227   0.00433
 160        3S          0.22106   0.04735  -0.26598   0.07506  -0.15536
 161        3PX        -0.03632  -0.02140   0.00651  -0.04078  -0.07686
 162        3PY         0.02120  -0.02868  -0.01358  -0.06235  -0.07081
 163        3PZ         0.00269   0.00171  -0.00046   0.00328   0.00603
 164        4S          0.09682   0.02467  -0.14485   0.03080  -0.11441
 165        4PX        -0.00695  -0.00330  -0.00088  -0.00855  -0.02774
 166        4PY         0.00353  -0.01107  -0.00617  -0.01711  -0.02550
 167        4PZ         0.00051   0.00028   0.00009   0.00070   0.00218
 168        5S          0.24532  -0.20731   0.24860   0.09074  -0.15834
 169        5PX        -0.05539   0.03352  -0.05849   0.00405   0.01544
 170        5PY        -0.02098  -0.01763   0.01691   0.02091  -0.00505
 171        5PZ         0.00427  -0.00249   0.00438  -0.00038  -0.00116
 172        6D 0       -0.00937  -0.00138   0.00807  -0.00215   0.00341
 173        6D+1       -0.00117  -0.00062   0.00079  -0.00097  -0.00016
 174        6D-1       -0.00018  -0.00024   0.00034  -0.00053  -0.00010
 175        6D+2       -0.00092   0.00560   0.00374   0.00873   0.00797
 176        6D-2        0.00165   0.00326  -0.00378   0.00721   0.00185
 177 9   C  1S         -0.05542   0.02495   0.03973   0.05275   0.03096
 178        2S         -0.08530   0.03846   0.06148   0.08176   0.04833
 179        2PX        -0.02578   0.01613  -0.01289   0.01909  -0.05295
 180        2PY        -0.01243  -0.01569   0.03361  -0.02870   0.05833
 181        2PZ         0.00199  -0.00117   0.00087  -0.00136   0.00383
 182        3S          0.21957  -0.10006  -0.16131  -0.21512  -0.12985
 183        3PX        -0.03718   0.02292  -0.01818   0.02787  -0.07400
[...]
     1          0.42028087          0.05845798          6.34919936

 Electric dipole moment (dipole orientation):
 (Debye = 10**-18 statcoulomb cm , SI units = C m)
                  (au)            (Debye)         (10**-30 SI)
   Tot        0.314860D+01      0.800293D+01      0.266949D+02
   x          0.000000D+00      0.000000D+00      0.000000D+00
   y          0.000000D+00      0.000000D+00      0.000000D+00
   z          0.314860D+01      0.800293D+01      0.266949D+02

 Dipole polarizability, Alpha (dipole orientation).
 (esu units = cm**3 , SI units = C**2 m**2 J**-1)
 Alpha(0;0):
               (au)            (10**-24 esu)      (10**-40 SI)
   iso        0.146828D+03      0.217577D+02      0.242087D+02
   aniso      0.103129D+03      0.152822D+02      0.170037D+02
   xx         0.948719D+02      0.140586D+02      0.156423D+02
   yx         0.275253D+02      0.407883D+01      0.453831D+01
   yy         0.151350D+03      0.224278D+02      0.249543D+02
   zx         0.102077D+02      0.151262D+01      0.168301D+01
   zy         0.140848D+02      0.208715D+01      0.232227D+01
   zz         0.194263D+03      0.287869D+02      0.320297D+02

 First dipole hyperpolarizability, Beta (dipole orientation).
 ||, _|_  parallel and perpendicular components, (z) with respect to z axis,
 vector components x,y,z.  Values do not include the 1/n! factor of 1/2.
 (esu units = statvolt**-1 cm**4 , SI units = C**3 m**3 J**-2)
 Beta(0;0,0):
               (au)            (10**-30 esu)      (10**-50 SI)
   || (z)     0.223666D+03      0.193230D+01      0.717154D+00
   _|_(z)     0.745553D+02      0.644100D+00      0.239051D+00
   x          0.238419D+03      0.205976D+01      0.764458D+00
   y          0.484329D+03      0.418423D+01      0.155293D+01
   z          0.111833D+04      0.966150D+01      0.358577D+01
   ||         0.248361D+03      0.214565D+01      0.796335D+00
   xxx       -0.182801D+02     -0.157925D+00     -0.586125D-01
   xxy       -0.314764D+02     -0.271931D+00     -0.100925D+00
   yxy       -0.126906D+02     -0.109637D+00     -0.406906D-01
   yyy       -0.732786D+02     -0.633070D+00     -0.234958D+00
   xxz        0.961523D+02      0.830681D+00      0.308299D+00
   yxz       -0.735132D+02     -0.635097D+00     -0.235710D+00
   yyz       -0.948303D+02     -0.819260D+00     -0.304060D+00
   zxz        0.110444D+03      0.954147D+00      0.354122D+00
   zyz        0.266198D+03      0.229974D+01      0.853527D+00
   zzz        0.371455D+03      0.320908D+01      0.119102D+01

 ----------------------------------------------------------------------
 Unable to Open any file for archive entry.
 1\1\GINC-NODE1701\Freq\RB3LYP\6-311+G(d,p)\C7H5N2(1-)\SVICCHI\02-Jun-2
 023\0\\#p freq=raman scale=0.967 pop=(nbo,full,hirshfeld) guess=read g
 eom=allcheck b3lyp/6-311+G(d,p) int=grid=ultrafine EmpiricalDispersion
 =GD3BJ SCRF=(Solvent=ethanol) scf=(xqc,intrep,maxconventionalcycle=350
 ) nosymm\\indazolide-isolated.gjf\\-1,1\N,-1.5304576223,-1.1123160458,
 0.1841575414\N,-2.3333739514,-0.009854104,0.2407466975\C,-0.2486353202
 ,-0.6686632648,0.0857480852\C,-0.21939202,0.7657400568,0.0790750497\C,
 0.9546961084,-1.4039748089,-0.0027796319\C,1.0109233609,1.4493838775,-
 0.0157193966\C,-1.5882001171,1.1065075233,0.1811692019\C,2.1471285042,
 -0.7098684068,-0.0952869353\C,2.1782254851,0.7110519927,-0.101928151\H
 ,0.9389882801,-2.4893590244,0.0018402087\H,1.0463996779,2.5346294215,-
 0.0214926209\H,-2.0496359183,2.0848031726,0.212587097\H,3.0821382099,-
 1.2560886037,-0.1643570149\H,3.1346333229,1.2174862141,-0.1755681308\\
 Version=ES64L-G16RevC.01\HF=-379.4900582\RMSD=2.353e-09\RMSF=3.647e-05
 \ZeroPoint=0.1005485\Thermal=0.1065954\ETot=-379.3834628\HTot=-379.382
 5186\GTot=-379.4196872\Dipole=3.0164626,1.2869756,-0.231787\DipoleDeri
 v=-0.6274968,0.3626193,0.0181933,-0.3755246,-0.8286936,0.0287582,0.023
 1431,-0.0242718,-0.3881698,-1.0340624,-0.1811039,0.0442859,-0.0100471,
 0.6027515,-0.0024432,0.0413434,0.010357,-0.4475737,0.3778259,0.1304556
 ,-0.0272591,0.7108422,-0.0719692,-0.0524839,-0.0301939,-0.0125045,0.03
 98655,-0.1414851,0.0985334,0.0070647,-0.6344574,-0.3484238,0.0493309,0
 .0098392,-0.0048752,-0.0404189,0.2810761,-0.1018017,-0.0360189,-0.0043
 103,0.0941685,-0.0006547,-0.0367561,0.0080298,-0.2112975,0.5173712,-0.
 0621669,-0.0514455,0.0388051,0.1083549,-0.0039037,-0.0520604,0.0025011
 ,-0.1704402,0.2923984,-0.4417461,-0.0367306,0.1148523,-0.1693643,-0.00
 91988,-0.0372496,0.0310331,-0.2134974,-0.2228769,0.0121024,-0.0031935,
 -0.1062961,0.1713386,0.0065822,-0.0030956,-0.0021211,-0.2619051,-0.308
 3438,0.0981223,0.0015022,0.1623611,-0.0551576,-0.0126918,0.0040237,-0.
 0076517,-0.276566,0.0846562,-0.0109562,0.0075023,0.0337496,-0.1890713,
 -0.0013177,0.0074381,0.0025055,0.183078,0.0737285,-0.0155999,0.0079948
 ,-0.0494088,-0.2037139,0.0048506,0.0080353,0.0024496,0.1789302,0.00378
 42,0.103681,0.0164298,0.1127059,-0.1367192,-0.0073903,0.0157244,-0.005
 622,0.2261629,-0.1423543,0.1280645,0.0246691,0.1327193,0.0107503,-0.00
 92123,0.0241716,-0.0087389,0.1865481,-0.1542212,-0.1202038,0.0270055,-
 0.1259912,0.0157492,0.0097744,0.0256368,0.0089092,0.195284\Polar=201.0
 244435,-0.1982677,155.2719172,-8.8906935,-0.2032603,84.1890392\PolarDe
 riv=4.6640517,-2.6881397,-6.3179611,-0.7790728,-0.1153183,-2.397122,-6
 .1826474,-11.3391519,-5.980697,0.5099058,0.8417548,0.5159407,-0.803708
 ,-0.0887187,0.4366881,-3.6471211,-4.7488154,0.8040412,-34.3304063,-0.9
 697871,-7.8342594,1.9799893,-0.0422516,-2.4938612,-13.1931294,8.109158
 1,-4.9231853,0.5003996,-0.6276598,-6.1580289,1.733743,-0.0783938,0.557
 7536,-5.3137522,-1.5720759,1.0058788,2.9962229,2.9642005,11.0085114,-0
 .4405049,-0.4861623,-0.4947982,-38.2467943,-1.694378,-3.176365,2.87064
 25,0.1468104,-0.9814555,-0.4842205,-0.4634914,-0.8595036,-2.2891752,-2
 .8081347,0.4295504,-7.0979232,-1.6534767,7.762831,0.5930709,0.2850362,
 1.3042521,36.5751641,-1.3004952,-0.0171355,-2.8092603,0.0768085,-0.416
 315,0.3393178,0.2916614,-0.5851068,-0.5842141,2.1966739,-0.0080175,-18
 .187943,-3.0942141,-16.0265907,1.2060233,-0.3850819,-3.2743397,-2.4110
 865,1.209204,-2.707237,-0.2602195,-0.1313301,-5.9485259,1.4977253,-0.4
 071228,1.204762,0.725154,-8.6467302,0.2034484,-15.1402742,0.7448028,-1
 4.965308,1.0761313,0.5953808,-2.3581977,3.7229466,0.6061141,4.2537613,
 0.1543676,0.0101708,5.8559955,1.3157611,0.5450423,1.2272637,1.0701054,
 8.0003443,-0.054116,22.9832526,-1.3468796,-3.4877985,-2.5026889,0.7478
 958,-2.5507222,16.0868231,-5.5581504,-0.4302273,-0.7084727,0.5000988,7
 .0792556,-2.8641661,0.6927321,0.3815946,-7.3594631,8.924714,1.3188108,
 8.4562117,-0.3827504,15.0172294,0.57146,-0.110755,6.0375153,-11.733957
 5,2.0097922,23.8635196,0.8299843,-0.2564931,-1.5760589,0.9156869,-0.04
 4742,-1.2490275,9.7689791,-1.5243714,-1.9792702,8.8454004,1.8497021,12
 .4243379,0.5620357,-0.0292433,5.7464591,11.5736295,0.4093133,-24.66354
 37,-0.775291,0.0113811,1.4552194,0.7206447,-0.0307729,-0.8950035,10.39
 05518,1.7123605,-2.1409075,-0.4727962,-1.9870851,-0.6260778,0.0254688,
 0.2059166,-0.0331804,-1.2063975,1.6955066,-18.8296304,0.048221,-0.0653
 21,-0.5283052,0.0146558,0.2014311,0.1369022,-0.1427041,0.6965917,0.019
 9122,-0.1642013,2.2616313,0.5728519,-0.0190742,-0.2318278,-0.0868319,1
 .3684643,2.6071497,18.9738099,-0.081499,-0.2525834,0.4330369,-0.021971
 5,-0.2327454,-0.0947969,-0.2392317,-0.7558764,0.0423403,-4.4694667,4.5
 544902,-4.6188364,0.4117966,-0.4249179,0.077398,3.94239,-6.897787,13.9
 536106,-0.2528924,0.4741388,0.2883038,0.4836049,-0.3808611,0.2381403,1
 .1639398,-1.4120935,-0.1974578,15.5090563,-6.1348366,3.6772379,-1.2820
 312,0.459492,0.2621922,-6.7593153,5.2102353,-3.2346489,0.439658,-0.367
 1583,-0.2212287,-1.3980453,0.4199243,-0.2527645,-1.6269546,0.0559596,0
 .2499421,16.4088151,5.8823424,3.4138326,-1.4026039,-0.4681633,0.261236
 7,6.4639103,4.9334891,2.9179686,-0.4655439,-0.3606173,0.2021662,-1.449
 028,-0.4239429,-0.2469017,-1.916114,-0.1185466,0.3058447\HyperPolar=51
 8.0815916,64.2374247,-207.876116,-153.5467999,-24.7418851,1.2017785,16
 .7826536,102.1181482,70.5534571,-23.3414795\Quadrupole=-8.6728152,5.35
 39351,3.3188802,-5.0094967,1.2849431,0.5241034\PG=C01 [X(C7H5N2)]\NIma
 g=0\\0.43217768,0.03885214,0.46480549,-0.02566570,-0.00386237,0.103349
 58,-0.13548029,0.02637117,0.00471975,0.49657137,0.09411190,-0.17348799
 ,-0.00697264,0.04789610,0.43789807,0.00443343,-0.00177338,-0.07889085,
 -0.03015529,-0.00428221,0.10341715,-0.22821011,-0.05802095,0.01215938,
 -0.10894613,0.06396313,0.00937825,0.73333023,-0.10253975,-0.14601769,0
 .00795862,0.03238544,-0.00845204,-0.00237493,-0.08852372,0.62247182,0.
 01239361,0.00445294,-0.07091484,0.00939385,-0.00471191,0.01728753,-0.0
 4378737,0.00542923,0.15568804,-0.02980096,-0.01023222,0.00355332,-0.07
 279667,-0.08115981,0.00712156,-0.10702144,0.01540803,0.00237712,0.7540
 8164,-0.05600261,-0.03943063,0.00441191,-0.02189158,-0.00366905,0.0017
 1969,-0.00182942,-0.22899848,0.00060858,0.08485480,0.57818574,0.003686
 11,0.00097253,0.01639527,0.00694516,0.00616245,0.01785359,0.00240453,-
 0.00071414,-0.07507837,-0.04698601,-0.00778782,0.13819389,-0.05988787,
 0.01514438,0.00420466,0.01097896,-0.01444747,-0.00018211,-0.22154523,0
 .08140712,0.01254446,0.02344679,0.03693506,-0.00181921,0.64804335,0.00
 102476,0.01854592,-0.00011535,-0.00883885,0.00531030,0.00066923,0.0980
 6501,-0.18671661,-0.00706330,0.02880108,-0.01804285,-0.00211494,0.0296
 2215,0.72291758,0.00423358,-0.00119263,-0.00468996,-0.00020845,0.00109
 659,0.00783978,0.01250161,-0.00582127,-0.05562668,-0.00179955,-0.00272
 329,0.00104710,-0.04006214,-0.00412736,0.12831972,0.00430603,-0.003843
 47,-0.00005642,0.00742129,0.02233858,-0.00007218,0.02040675,-0.0471654
 7,-0.00147841,-0.24111613,-0.07979693,0.01444284,-0.03967719,-0.006630
 54,0.00303719,0.63945128,-0.00020868,-0.00591424,0.00004368,0.00824216
 ,0.00354261,-0.00060896,-0.03268594,-0.01643750,0.00250968,-0.09678404
 ,-0.17116987,0.00766733,0.00915288,-0.00010970,-0.00069012,-0.01991742
 ,0.72164993,-0.00006380,0.00030756,0.00348403,-0.00002625,-0.00166247,
 0.00748359,-0.00151648,0.00362237,-0.00081942,0.01446119,0.00634937,-0
 .05581391,0.00299039,0.00050205,-0.00018463,-0.03860622,-0.00001699,0.
 13381764,0.00492383,-0.01045434,0.00124669,-0.19143677,-0.10894692,0.0
 0977584,-0.00979921,0.06178883,0.00115944,-0.24636070,0.05695512,0.013
 85658,-0.00309214,-0.00207851,0.00038734,-0.04886887,0.00065088,0.0034
 0504,0.58974352,0.02669058,-0.11403804,-0.00160158,-0.09852362,-0.2369
 0454,0.00767746,0.01532461,-0.03577327,-0.00101570,0.06591638,-0.12033
 288,-0.00471934,0.00364371,-0.00597102,-0.00023958,-0.01800550,0.01348
 543,0.00131073,-0.10690285,0.77953671,0.00113828,0.00122725,0.02065930
 ,0.00974641,0.00856610,-0.06367032,0.00130751,-0.00458271,0.00828178,0
 .01381535,-0.00407289,-0.05972073,0.00037314,0.00018341,0.00193604,0.0
 0344052,-0.00008833,-0.00398174,-0.03513170,0.00615722,0.11613372,0.01
 752320,0.00506975,-0.00095811,-0.00991016,0.00824636,0.00076698,-0.066
 28802,0.00678402,0.00531534,-0.00957058,-0.01390915,0.00048251,-0.2993
 0509,-0.13012506,0.01888320,0.02090097,0.02461192,-0.00111644,-0.00036
 910,-0.00440538,-0.00004493,0.72194792,0.01375369,0.00307614,-0.001039
 19,-0.00856647,-0.00639172,0.00067436,-0.01740449,0.04665441,0.0011964
 6,-0.03239065,-0.02847720,0.00250968,-0.08086423,-0.18315913,0.0065554
 7,0.06271505,-0.03410308,-0.00459461,0.01539467,-0.00202837,-0.0011659
 6,-0.01656009,0.62794940,-0.00100675,-0.00037839,0.00497164,0.00082630
 ,-0.00060981,0.00060424,0.00539355,-0.00065060,0.00384431,0.00052478,0
 .00112284,-0.00383884,0.01875860,0.01030342,-0.05908118,-0.00121595,-0
 .00174886,0.00731403,-0.00010207,0.00033820,-0.00115232,-0.04517005,-0
 .00032394,0.13010622,-0.00567992,0.00458810,0.00030163,-0.00722708,-0.
 01385440,0.00054291,-0.00615938,0.01773574,0.00005949,-0.06883922,-0.0
 0596060,0.00574813,0.01728256,-0.02708095,-0.00066644,-0.28653725,0.13
 319436,0.01691492,0.01797050,-0.00197207,-0.00089672,-0.11777669,-0.03
 062287,0.00441037,0.72253971,-0.01245365,-0.00537163,0.00095246,0.0096
 9650,0.00353836,-0.00074972,0.02997745,-0.03149159,-0.00218442,0.02235
 392,0.04263471,-0.00180823,-0.06345396,-0.02952320,0.00490181,0.082940
 69,-0.18932332,-0.00608276,-0.01809487,0.00042193,0.00138975,0.0236572
 1,-0.27591418,-0.00113214,0.01510774,0.62539897,0.00036355,-0.00033314
 ,-0.00157920,0.00047993,0.00104511,-0.00067705,0.00002105,-0.00127164,
 -0.00447922,0.00564324,0.00035739,0.00635329,-0.00055369,0.00216085,0.
 00744660,0.01706119,-0.00987877,-0.06081717,-0.00086176,0.00016402,0.0
 0610247,0.00426385,0.00291374,-0.06039548,-0.04543692,-0.00236888,0.12
 700106,0.00192290,-0.00165983,-0.00041273,-0.00001255,-0.00007179,-0.0
 0001195,0.00672167,0.02666764,-0.00028744,-0.00398896,0.00157611,0.000
 70722,-0.05816205,-0.00079367,0.00184646,-0.00118833,-0.00014008,0.000
 02513,0.00006175,0.00154960,-0.00005300,0.00417307,-0.02800935,-0.0000
 0484,-0.00399798,-0.00163125,0.00093802,0.05360790,-0.00078627,0.00140
 294,-0.00000786,0.00095385,-0.00041371,-0.00006805,-0.00293270,-0.0137
 6828,0.00027800,0.00263262,0.00064971,-0.00018081,-0.00282401,-0.32923
 733,0.00115085,0.00062792,0.00035911,-0.00005264,-0.00055797,-0.000934
 26,0.00004125,0.00263025,-0.01167038,-0.00015455,-0.00308749,0.0016198
 4,0.00025801,0.00320148,0.35186433,-0.00037918,0.00008264,-0.00264299,
 -0.00001233,0.00000795,-0.00015307,-0.00019711,-0.00196350,0.00401755,
 0.00070328,-0.00010504,0.00540011,0.00180816,0.00096941,-0.03387367,0.
 00002260,0.00000698,-0.00086571,-0.00004620,-0.00011232,-0.00058542,-0
 .00009769,0.00217146,0.00301961,0.00094390,0.00014316,0.00823661,-0.00
 223560,-0.00123541,0.02325592,-0.00076845,-0.00229456,0.00004358,0.000
 36922,0.00006344,-0.00000477,-0.00409324,-0.00062519,0.00078239,0.0051
 3247,-0.02772535,-0.00004538,-0.00111733,-0.00002352,0.00000804,-0.058
 91624,-0.01076240,0.00183284,0.00123736,0.00099739,-0.00031900,-0.0038
 9477,0.00198734,0.00090256,0.00530086,0.02738045,-0.00021136,0.0001954
 5,-0.00004179,-0.00012456,0.05569666,-0.00046318,-0.00131344,0.0000414
 9,-0.00072985,-0.00046031,0.00005595,-0.00204857,0.00195584,0.00016317
 ,0.00123808,-0.01175137,-0.00004931,-0.00052861,0.00033918,0.00003740,
 -0.00814503,-0.32741122,0.00144282,0.00098722,0.00127243,-0.00008816,0
 .00355354,0.00115592,-0.00024966,-0.00350680,-0.01327590,0.00031616,0.
 00001330,-0.00018861,-0.00000397,0.01008394,0.34964907,0.00003491,0.00
 017510,-0.00032890,-0.00000034,-0.00000255,0.00032438,0.00078911,0.000
 05871,0.00622862,-0.00011954,0.00213892,0.00347167,0.00000445,-0.00000
 132,-0.00101980,0.00181483,0.00164213,-0.03511103,-0.00032466,-0.00008
 664,-0.00298449,0.00090190,-0.00012480,0.00805178,-0.00011339,-0.00202
 828,0.00361681,-0.00012521,-0.00000105,-0.00144585,-0.00244807,-0.0016
 8737,0.02378939,-0.00067575,-0.00466139,0.00070616,0.01279958,-0.01812
 217,-0.00154683,-0.00648409,0.00047703,0.00082297,-0.00045732,0.023207
 80,-0.00014743,0.00122901,0.00167012,-0.00005136,0.00146651,0.00005774
 ,-0.00019714,-0.11447598,0.11678379,0.00654219,-0.00013496,-0.00032026
 ,-0.00002019,-0.00033644,0.00012409,0.00002560,-0.00048748,0.00033472,
 0.00005652,-0.00024485,-0.00058614,0.00001871,0.10800600,-0.00187297,-
 0.00305668,0.00018054,0.01303204,-0.02102504,-0.00093130,-0.00156488,-
 0.00140756,0.00013364,-0.00312839,0.00217506,0.00022469,-0.00015120,0.
 00004181,0.00001481,0.00018111,0.00005813,-0.00001939,0.11131182,-0.27
 942197,-0.00757321,0.00028707,0.00029535,-0.00002377,0.00047613,-0.000
 30589,-0.00003680,0.00002088,0.00006563,-0.00000015,0.00027494,-0.0001
 2737,-0.00001910,-0.11899083,0.30271278,0.00068472,0.00040642,0.008479
 35,-0.00166245,0.00137718,-0.00852305,0.00083653,-0.00000863,0.0043692
 1,-0.00003068,-0.00177409,-0.00126172,-0.00004734,-0.00012488,0.000623
 38,-0.00020289,-0.00000517,-0.00117066,0.00655790,-0.00795941,-0.02249
 266,-0.00002262,0.00002419,-0.00041549,0.00002141,-0.00001163,-0.00002
 462,0.00005744,-0.00002409,0.00027239,0.00001791,0.00004328,-0.0000088
 3,-0.00622935,0.00805853,0.02008090,-0.00056282,0.00144762,0.00015434,
 -0.00111189,-0.00029814,-0.00002270,-0.00215793,-0.00449804,0.00078171
 ,-0.00008274,-0.00051623,-0.00004319,-0.01962431,0.01619475,0.00164387
 ,0.00152580,-0.00038861,0.00024672,0.00038015,0.00015007,-0.00003463,-
 0.25966287,0.11827847,0.01681489,0.00331751,-0.00294146,-0.00012058,0.
 00118074,-0.00024842,-0.00047925,0.00001098,-0.00011093,0.00002738,-0.
 00006081,0.00005646,0.00000917,0.27613995,0.00004116,0.00076524,-0.000
 00151,-0.00025262,0.00020785,0.00001434,-0.00316667,-0.00148539,0.0002
 6913,-0.00079458,-0.00023358,0.00005995,-0.01514006,0.01088773,0.00111
 887,-0.00173710,-0.00543330,0.00015950,0.00002561,0.00006385,-0.000002
 52,0.11893604,-0.12732330,-0.00869423,0.02827804,-0.01090602,-0.002096
 64,0.00063439,0.00097911,-0.00006935,0.00134835,-0.00084394,-0.0000987
 8,0.00000496,-0.00000194,-0.00000002,-0.12766671,0.13211202,0.00015512
 ,-0.00010780,0.00149876,-0.00002265,0.00001792,-0.00140423,0.00077852,
 0.00037235,0.00792059,-0.00003783,0.00003976,-0.00065328,0.00174579,-0
 .00125364,0.00258399,0.00024501,0.00006158,0.00473292,-0.00003579,-0.0
 0001188,-0.00008127,0.01681450,-0.00864729,-0.03403941,-0.00021617,0.0
 0025893,0.00163317,-0.00048416,0.00000125,-0.00510411,0.00002255,0.000
 01242,0.00036707,0.00000954,-0.00000379,0.00006911,-0.01869951,0.00931
 414,0.02541809,0.00021252,-0.00030643,0.00000345,-0.00121888,0.0002811
 9,-0.00002315,0.00024612,0.00069832,-0.00007717,-0.00262619,0.00410297
 ,0.00076813,0.00143056,0.00019321,0.00024667,-0.01917464,-0.01502278,0
 .00165008,0.00008567,-0.00124673,0.00011656,0.00236707,0.00260920,-0.0
 0011121,-0.26985718,-0.11266286,0.01838789,-0.00002613,0.00009780,0.00
 003746,0.00109188,0.00024304,-0.00046009,-0.00014343,0.00006780,0.0000
 1025,0.00070824,-0.00051081,-0.00027492,0.28690439,-0.00014712,0.00003
 462,0.00001179,0.00022570,0.00030723,-0.00002247,0.00084714,-0.0005336
 6,-0.00006549,0.00328478,-0.00153930,-0.00022203,0.00150422,-0.0052826
 8,-0.00008156,0.01643811,0.01080704,-0.00126553,-0.00007869,0.00062399
 ,0.00000881,-0.02877649,-0.01006387,0.00220149,-0.11329494,-0.11750208
 ,0.00877060,-0.00135744,-0.00072808,0.00010814,-0.00066303,0.00099974,
 0.00003503,0.00002053,-0.00000230,-0.00000170,0.00054116,0.00121167,-0
 .00005394,0.12145608,0.12166769,-0.00000787,0.00002326,0.00020880,-0.0
 0002367,-0.00003171,-0.00149169,-0.00006907,-0.00005386,-0.00071910,0.
 00077377,-0.00028532,0.00765194,0.00023482,0.00001243,0.00467932,0.001
 56791,0.00110582,0.00193205,0.00011334,0.00009883,0.00155564,-0.000018
 45,-0.00014955,0.00101089,0.01838688,0.00871994,-0.03241726,0.00004067
 ,-0.00000488,0.00046862,-0.00045673,-0.00003422,-0.00495081,0.00001060
 ,-0.00000472,0.00000269,-0.00027824,0.00002712,-0.00294140,-0.02027395
 ,-0.00942314,0.02501029\\-0.00006541,0.00013475,-0.00000157,0.00010691
 ,-0.00010896,-0.00000868,-0.00005471,0.00003067,-0.00000049,0.00001976
 ,-0.00004775,0.00000227,-0.00000889,0.00002150,-0.00000770,0.00001732,
 0.00000094,0.00000673,0.00001894,-0.00001022,0.00000438,0.00000285,-0.
 00001095,-0.00000514,-0.00000412,0.00000785,0.00000423,-0.00001893,-0.
 00001421,-0.00000509,0.00001465,-0.00000357,0.00000408,-0.00001925,0.0
 0001732,0.00000673,-0.00000603,-0.00001080,-0.00000247,-0.00000309,-0.
 00000657,0.00000272\\\@
 The archive entry for this job was punched.


 TO DETECT ERRORS, THE PROGRAMMER MUST HAVE A CONNIVING MIND,
 ONE THAT DELIGHTS IN UNCOVERING FLAWS WHERE BEAUTY AND
 PERFECTION WERE ONCE THOUGHT TO LIE.

             -- THE PSYCHOLOGY OF COMPUTER PROGRAMMING
                GERALD M. WEINBERG
 Job cpu time:       0 days  0 hours 32 minutes 44.9 seconds.
 Elapsed time:       0 days  0 hours 17 minutes 13.3 seconds.
 File lengths (MBytes):  RWF=    140 Int=      0 D2E=      0 Chk=     18 Scr=      1
 Normal termination of Gaussian 16 at Fri Jun  2 11:46:57 2023.
