 Entering Gaussian System, Link 0=g16
 Input=2CNPyr-isolated-freq.gjf
 Output=2CNPyr-isolated-freq.log
 Initial command:
 /software/commercial/gaussian/g16/AVX/g16/l1.exe "/scratch1/svicchi/G09-659800.pbs02/Gau-1340288.inp" -scrdir="/scratch1/svicchi/G09-659800.pbs02/"
 Entering Link 1 = /software/commercial/gaussian/g16/AVX/g16/l1.exe PID=   1340290.
  
 Copyright (c) 1988-2019, Gaussian, Inc.  All Rights Reserved.
  
 This is part of the Gaussian(R) 16 program.  It is based on
 the Gaussian(R) 09 system (copyright 2009, Gaussian, Inc.),
 the Gaussian(R) 03 system (copyright 2003, Gaussian, Inc.),
 the Gaussian(R) 98 system (copyright 1998, Gaussian, Inc.),
 the Gaussian(R) 94 system (copyright 1995, Gaussian, Inc.),
 the Gaussian 92(TM) system (copyright 1992, Gaussian, Inc.),
 the Gaussian 90(TM) system (copyright 1990, Gaussian, Inc.),
 the Gaussian 88(TM) system (copyright 1988, Gaussian, Inc.),
 the Gaussian 86(TM) system (copyright 1986, Carnegie Mellon
 University), and the Gaussian 82(TM) system (copyright 1983,
 Carnegie Mellon University). Gaussian is a federally registered
 trademark of Gaussian, Inc.
  
 This software contains proprietary and confidential information,
 including trade secrets, belonging to Gaussian, Inc.
  
 This software is provided under written license and may be
 used, copied, transmitted, or stored only in accord with that
 written license.
  
 The following legend is applicable only to US Government
 contracts under FAR:
  
                    RESTRICTED RIGHTS LEGEND
  
 Use, reproduction and disclosure by the US Government is
 subject to restrictions as set forth in subparagraphs (a)
 and (c) of the Commercial Computer Software - Restricted
 Rights clause in FAR 52.227-19.
  
 Gaussian, Inc.
 340 Quinnipiac St., Bldg. 40, Wallingford CT 06492
  
  
 ---------------------------------------------------------------
 Warning -- This program may not be used in any manner that
 competes with the business of Gaussian, Inc. or will provide
 assistance to any competitor of Gaussian, Inc.  The licensee
 of this program is prohibited from giving any competitor of
 Gaussian, Inc. access to this program.  By using this program,
 the user acknowledges that Gaussian, Inc. is engaged in the
 business of creating and licensing software in the field of
 computational chemistry and represents and warrants to the
 licensee that it is not a competitor of Gaussian, Inc. and that
 it will not use this program in any manner prohibited above.
 ---------------------------------------------------------------
  

 Cite this work as:
 Gaussian 16, Revision C.01,
 M. J. Frisch, G. W. Trucks, H. B. Schlegel, G. E. Scuseria, 
 M. A. Robb, J. R. Cheeseman, G. Scalmani, V. Barone, 
 G. A. Petersson, H. Nakatsuji, X. Li, M. Caricato, A. V. Marenich, 
 J. Bloino, B. G. Janesko, R. Gomperts, B. Mennucci, H. P. Hratchian, 
 J. V. Ortiz, A. F. Izmaylov, J. L. Sonnenberg, D. Williams-Young, 
 F. Ding, F. Lipparini, F. Egidi, J. Goings, B. Peng, A. Petrone, 
 T. Henderson, D. Ranasinghe, V. G. Zakrzewski, J. Gao, N. Rega, 
 G. Zheng, W. Liang, M. Hada, M. Ehara, K. Toyota, R. Fukuda, 
 J. Hasegawa, M. Ishida, T. Nakajima, Y. Honda, O. Kitao, H. Nakai, 
 T. Vreven, K. Throssell, J. A. Montgomery, Jr., J. E. Peralta, 
 F. Ogliaro, M. J. Bearpark, J. J. Heyd, E. N. Brothers, K. N. Kudin, 
 V. N. Staroverov, T. A. Keith, R. Kobayashi, J. Normand, 
 K. Raghavachari, A. P. Rendell, J. C. Burant, S. S. Iyengar, 
 J. Tomasi, M. Cossi, J. M. Millam, M. Klene, C. Adamo, R. Cammi, 
 J. W. Ochterski, R. L. Martin, K. Morokuma, O. Farkas, 
 J. B. Foresman, and D. J. Fox, Gaussian, Inc., Wallingford CT, 2019.
 
 ******************************************
 Gaussian 16:  ES64L-G16RevC.01  3-Jul-2019
                 2-Jun-2023 
 ******************************************
 %NProcShared=2
 Will use up to    2 processors via shared memory.
 %mem=55gb
 %chk=/scratch1/svicchi/G09-659800.pbs02/02-freq/2CNPyr-isolated-freq.chk
 ----------------------------------------------------------------------
 #p freq=raman scale=0.967 pop=(nbo,full,hirshfeld) guess=read geom=all
 check b3lyp/6-311+G(d,p) int=grid=ultrafine EmpiricalDispersion=GD3BJ 
 SCRF=(Solvent=ethanol) scf=(xqc,intrep,maxconventionalcycle=350) nosym
 m
 ----------------------------------------------------------------------
 1/10=4,29=7,30=1,38=1,114=967000/1,3;
 2/12=2,15=1,40=1/2;
 3/5=4,6=6,7=111,11=2,14=-4,25=1,30=1,70=2201,71=2,72=4,74=-5,75=-5,116=-2,124=41,140=1/1,2,3;
 4/5=1/1;
 5/5=2,8=3,13=1,17=20,38=6,53=4,85=350,98=1/2,8;
 8/6=4,10=90,11=11/1;
 10/13=10,15=4,31=1/2;
 11/6=3,8=1,9=11,15=111,16=1,31=1/1,2,10;
 10/6=1,31=1/2;
 6/7=3,28=1,40=1,79=1/1,7;
 7/8=1,10=1,25=1,30=1/1,2,3,16;
 1/10=4,30=1/3;
 99//99;
 Leave Link    1 at Fri Jun  2 11:15:33 2023, MaxMem=  7381975040 cpu:               0.9 elap:               1.3
 (Enter /software/commercial/gaussian/g16/AVX/g16/l101.exe)
 Structure from the checkpoint file:  "/scratch1/svicchi/G09-659800.pbs02/02-freq/2CNPyr-isolated-freq.chk"
 -------------------
 2CNPyr-isolated.gjf
 -------------------
 Charge = -1 Multiplicity = 1
 No Z-Matrix found in chk file; cartesian coordinates used.
  C                                                -1.448275478681     -0.804200188420     -0.035683499790
  C                                                -0.442277141635      0.185302740687      0.032779114729
  C                                                -2.316745416190      1.263018688197      0.103924156518
  N                                                -0.980285696505      1.452433510540      0.118182051573
  C                                                -2.661875527432     -0.102393451846      0.011182017618
  H                                                -3.658584989848     -0.521146584761     -0.017635863956
  H                                                -2.992559824929      2.108276213392      0.160664601295
  H                                                -1.297749013176     -1.872052375569     -0.107968535746
  C                                                 0.949727937807     -0.023812611961      0.019017279522
  N                                                 2.099134150590     -0.210245940260      0.006478678237
 Recover connectivity data from disk.
 ITRead=  0  0  0  0  0  0  0  0  0  0
 MicOpt= -1 -1 -1 -1 -1 -1 -1 -1 -1 -1
 NAtoms=     10 NQM=       10 NQMF=       0 NMMI=      0 NMMIF=      0
                NMic=       0 NMicF=      0.
                    Isotopes and Nuclear Properties:
 (Nuclear quadrupole moments (NQMom) in fm**2, nuclear magnetic moments (NMagM)
  in nuclear magnetons)

  Atom         1           2           3           4           5           6           7           8           9          10
 IAtWgt=          12          12          12          14          12           1           1           1          12          14
 AtmWgt=  12.0000000  12.0000000  12.0000000  14.0030740  12.0000000   1.0078250   1.0078250   1.0078250  12.0000000  14.0030740
 NucSpn=           0           0           0           2           0           1           1           1           0           2
 AtZEff=   3.6000000   3.6000000   3.6000000   4.5500000   3.6000000   1.0000000   1.0000000   1.0000000   3.6000000   4.5500000
 NQMom=    0.0000000   0.0000000   0.0000000   2.0440000   0.0000000   0.0000000   0.0000000   0.0000000   0.0000000   2.0440000
 NMagM=    0.0000000   0.0000000   0.0000000   0.4037610   0.0000000   2.7928460   2.7928460   2.7928460   0.0000000   0.4037610
 AtZNuc=   6.0000000   6.0000000   6.0000000   7.0000000   6.0000000   1.0000000   1.0000000   1.0000000   6.0000000   7.0000000
 Leave Link  101 at Fri Jun  2 11:15:36 2023, MaxMem=  7381975040 cpu:               0.6 elap:               1.5
 (Enter /software/commercial/gaussian/g16/AVX/g16/l103.exe)

 GradGradGradGradGradGradGradGradGradGradGradGradGradGradGradGradGradGrad
 Berny optimization.
 Initialization pass.
 Trust Radius=3.00D-01 FncErr=1.00D-07 GrdErr=1.00D-07 EigMax=2.50D+02 EigMin=1.00D-04
 Number of steps in this run=      2 maximum allowed number of steps=      2.
 GradGradGradGradGradGradGradGradGradGradGradGradGradGradGradGradGradGrad

 Leave Link  103 at Fri Jun  2 11:15:38 2023, MaxMem=  7381975040 cpu:               0.1 elap:               0.4
 (Enter /software/commercial/gaussian/g16/AVX/g16/l202.exe)
                          Input orientation:                          
 ---------------------------------------------------------------------
 Center     Atomic      Atomic             Coordinates (Angstroms)
 Number     Number       Type             X           Y           Z
 ---------------------------------------------------------------------
      1          6           0       -1.448275   -0.804200   -0.035683
      2          6           0       -0.442277    0.185303    0.032779
      3          6           0       -2.316745    1.263019    0.103924
      4          7           0       -0.980286    1.452434    0.118182
      5          6           0       -2.661876   -0.102393    0.011182
      6          1           0       -3.658585   -0.521147   -0.017636
      7          1           0       -2.992560    2.108276    0.160665
      8          1           0       -1.297749   -1.872052   -0.107969
      9          6           0        0.949728   -0.023813    0.019017
     10          7           0        2.099134   -0.210246    0.006479
 ---------------------------------------------------------------------
                    Distance matrix (angstroms):
                    1          2          3          4          5
     1  C    0.000000
     2  C    1.412741   0.000000
     3  C    2.246581   2.163369   0.000000
     4  N    2.309780   1.379263   1.349891   0.000000
     5  C    1.402695   2.238270   1.411406   2.292745   0.000000
     6  H    2.228433   3.293364   2.235745   3.329677   1.081487
     7  H    3.302406   3.196580   1.083700   2.116880   2.240258
     8  H    1.080829   2.232566   3.303320   3.347258   2.237573
     9  C    2.522383   1.407692   3.511836   2.431890   3.612467
    10  N    3.597037   2.572143   4.656178   3.501401   4.762233
                    6          7          8          9         10
     6  H    0.000000
     7  H    2.718317   0.000000
     8  H    2.721517   4.334462   0.000000
     9  C    4.635217   4.484139   2.912605   0.000000
    10  N    5.766157   5.596844   3.783321   1.164495   0.000000
 Symmetry turned off by external request.
 Stoichiometry    C5H3N2(1-)
 Framework group  C1[X(C5H3N2)]
 Deg. of freedom    24
 Full point group                 C1      NOp   1
 Rotational constants (GHZ):           9.1783523           2.0365661           1.6667372
 Leave Link  202 at Fri Jun  2 11:15:39 2023, MaxMem=  7381975040 cpu:               0.0 elap:               0.4
 (Enter /software/commercial/gaussian/g16/AVX/g16/l301.exe)
 Standard basis: 6-311+G(d,p) (5D, 7F)
 Ernie: Thresh=  0.10000D-02 Tol=  0.10000D-05 Strict=F.
   172 basis functions,   276 primitive gaussians,   179 cartesian basis functions
    24 alpha electrons       24 beta electrons
       nuclear repulsion energy       238.9625805957 Hartrees.
 IExCor=  402 DFT=T Ex+Corr=B3LYP ExCW=0 ScaHFX=  0.200000
 ScaDFX=  0.800000  0.720000  1.000000  0.810000 ScalE2=  1.000000  1.000000
 IRadAn=      5 IRanWt=     -1 IRanGd=            0 ICorTp=0 IEmpDi=141
 NAtoms=   10 NActive=   10 NUniq=   10 SFac= 1.00D+00 NAtFMM=   60 NAOKFM=F Big=F
 Integral buffers will be    131072 words long.
 Raffenetti 2 integral format.
 Two-electron integral symmetry is turned off.
 R6Disp:  Grimme-D3(BJ) Dispersion energy=       -0.0159406769 Hartrees.
 Nuclear repulsion after empirical dispersion term =      238.9466399189 Hartrees.
 Force inversion solution in PCM.
 ------------------------------------------------------------------------------
 Polarizable Continuum Model (PCM)
 =================================
 Model                : PCM.
 Atomic radii         : UFF (Universal Force Field).
 Polarization charges : Total charges.
 Charge compensation  : None.
 Solution method      : Matrix inversion.
 Cavity type          : Scaled VdW (van der Waals Surface) (Alpha=1.100).
 Cavity algorithm     : GePol (No added spheres)
                        Default sphere list used, NSphG=   10.
                        Lebedev-Laikov grids with approx.  5.0 points / Ang**2.
                        Smoothing algorithm: York/Karplus (Gamma=1.0000).
                        Polarization charges: spherical gaussians, with
                                              point-specific exponents (IZeta= 3).
                        Self-potential: point-specific (ISelfS= 7).
                        Self-field    : sphere-specific E.n sum rule (ISelfD= 2).
 1st derivatives      : Analytical E(r).r(x)/FMM algorithm (CHGder, D1EAlg=3).
                        Cavity 1st derivative terms included.
 2nd derivatives      : Analytical E(r).r(xy)/FMM algorithm (CHGder, D2EAlg=3).
                        Cavity 2nd derivative terms included.
 Solvent              : Ethanol, Eps=  24.852000 Eps(inf)=   1.852593
 ------------------------------------------------------------------------------
 Spheres list:
 ISph  on   Nord     Re0    Alpha      Xe            Ye            Ze
    1   C      1    1.9255  1.100     -1.448275     -0.804200     -0.035683
    2   C      2    1.9255  1.100     -0.442277      0.185303      0.032779
    3   C      3    1.9255  1.100     -2.316745      1.263019      0.103924
    4   N      4    1.8300  1.100     -0.980286      1.452434      0.118182
    5   C      5    1.9255  1.100     -2.661876     -0.102393      0.011182
    6   H      6    1.4430  1.100     -3.658585     -0.521147     -0.017636
    7   H      7    1.4430  1.100     -2.992560      2.108276      0.160665
    8   H      8    1.4430  1.100     -1.297749     -1.872052     -0.107969
    9   C      9    1.9255  1.100      0.949728     -0.023813      0.019017
   10   N     10    1.8300  1.100      2.099134     -0.210246      0.006479
 ------------------------------------------------------------------------------
 GePol: Number of generator spheres                  =      10
 GePol: Total number of spheres                      =      10
 GePol: Number of exposed spheres                    =      10 (100.00%)
 GePol: Number of points                             =    1088
 GePol: Average weight of points                     =       0.14
 GePol: Minimum weight of points                     =   0.86D-09
 GePol: Maximum weight of points                     =    0.20577
 GePol: Number of points with low weight             =      52
 GePol: Fraction of low-weight points (<1% of avg)   =       4.78%
 GePol: Cavity surface area                          =    148.310 Ang**2
 GePol: Cavity volume                                =    138.229 Ang**3
 Leave Link  301 at Fri Jun  2 11:15:42 2023, MaxMem=  7381975040 cpu:               1.2 elap:               1.8
 (Enter /software/commercial/gaussian/g16/AVX/g16/l302.exe)
 NPDir=0 NMtPBC=     1 NCelOv=     1 NCel=       1 NClECP=     1 NCelD=      1
         NCelK=      1 NCelE2=     1 NClLst=     1 CellRange=     0.0.
 One-electron integrals computed using PRISM.
 NBasis=   172 RedAO= T EigKep=  4.71D-06  NBF=   172
 NBsUse=   172 1.00D-06 EigRej= -1.00D+00 NBFU=   172
 Precomputing XC quadrature grid using
 IXCGrd= 4 IRadAn=           5 IRanWt=          -1 IRanGd=           0 AccXCQ= 0.00D+00.
 Generated NRdTot=       0 NPtTot=           0 NUsed=           0 NTot=          32
 NSgBfM=   179   179   179   179   179 MxSgAt=    10 MxSgA2=    10.
 Leave Link  302 at Fri Jun  2 11:15:45 2023, MaxMem=  7381975040 cpu:               0.5 elap:               0.8
 (Enter /software/commercial/gaussian/g16/AVX/g16/l303.exe)
 DipDrv:  MaxL=1.
 Leave Link  303 at Fri Jun  2 11:15:47 2023, MaxMem=  7381975040 cpu:               0.2 elap:               1.0
 (Enter /software/commercial/gaussian/g16/AVX/g16/l401.exe)
 Initial guess from the checkpoint file:  "/scratch1/svicchi/G09-659800.pbs02/02-freq/2CNPyr-isolated-freq.chk"
 B after Tr=     0.000000    0.000000    0.000000
         Rot=    1.000000    0.000000    0.000000    0.000000 Ang=   0.00 deg.
 Guess basis will be translated and rotated to current coordinates.
 JPrj=2 DoOrth=T DoCkMO=T.
 Leave Link  401 at Fri Jun  2 11:15:50 2023, MaxMem=  7381975040 cpu:               0.7 elap:               1.1
 (Enter /software/commercial/gaussian/g16/AVX/g16/l502.exe)
 Keep R1 ints in memory in canonical form, NReq=113601572.
 FoFCou: FMM=F IPFlag=           0 FMFlag=           0 FMFlg1=           0
         NFxFlg=           0 DoJE=F BraDBF=F KetDBF=F FulRan=T
         wScrn=  0.000000 ICntrl=       600 IOpCl=  0 I1Cent=           0 NGrid=           0
         NMat0=    1 NMatS0=  14878 NMatT0=    0 NMatD0=    1 NMtDS0=    0 NMtDT0=    0
 Symmetry not used in FoFCou.
 Two-electron integral symmetry not used.
 Closed shell SCF:
 Using DIIS extrapolation, IDIIS=  1040.
 NGot=  7381975040 LenX=  7271223422 LenY=  7271190940
 Requested convergence on RMS density matrix=1.00D-08 within 350 cycles.
 Requested convergence on MAX density matrix=1.00D-06.
 Requested convergence on             energy=1.00D-06.
 No special actions if energy rises.

 Cycle   1  Pass 1  IDiag  1:
 Inv3:  Mode=1 IEnd=     3551232.
 Iteration    1 A*A^-1 deviation from unit magnitude is 3.33D-15 for   1088.
 Iteration    1 A*A^-1 deviation from orthogonality  is 2.26D-15 for   1059    200.
 Iteration    1 A^-1*A deviation from unit magnitude is 3.33D-15 for   1088.
 Iteration    1 A^-1*A deviation from orthogonality  is 1.44D-15 for   1072    218.
 E= -302.046811081526    
 DIIS: error= 9.53D-09 at cycle   1 NSaved=   1.
 NSaved= 1 IEnMin= 1 EnMin= -302.046811081526     IErMin= 1 ErrMin= 9.53D-09
 ErrMax= 9.53D-09  0.00D+00 EMaxC= 1.00D-01 BMatC= 5.18D-15 BMatP= 5.18D-15
 IDIUse=1 WtCom= 1.00D+00 WtEn= 0.00D+00
 Coeff-Com:  0.100D+01
 Coeff:      0.100D+01
 Gap=     0.201 Goal=   None    Shift=    0.000
 RMSDP=1.70D-09 MaxDP=8.83D-08              OVMax= 9.78D-08

 Error on total polarization charges =  0.02218
 SCF Done:  E(RB3LYP) =  -302.046811082     A.U. after    1 cycles
            NFock=  1  Conv=0.17D-08     -V/T= 2.0044
 KE= 3.007352521288D+02 PE=-1.190456504556D+03 EE= 3.487278014263D+02
 Leave Link  502 at Fri Jun  2 11:16:01 2023, MaxMem=  7381975040 cpu:              16.0 elap:              10.7
 (Enter /software/commercial/gaussian/g16/AVX/g16/l508.exe)
 QCSCF skips out because SCF is already converged.
 Leave Link  508 at Fri Jun  2 11:16:04 2023, MaxMem=  7381975040 cpu:               0.0 elap:               0.7
 (Enter /software/commercial/gaussian/g16/AVX/g16/l801.exe)
 DoSCS=F DFT=T ScalE2(SS,OS)=  1.000000  1.000000
 Range of M.O.s used for correlation:     1   172
 NBasis=   172 NAE=    24 NBE=    24 NFC=     0 NFV=     0
 NROrb=    172 NOA=    24 NOB=    24 NVA=   148 NVB=   148

 **** Warning!!: The largest alpha MO coefficient is  0.18400978D+03

 Leave Link  801 at Fri Jun  2 11:16:05 2023, MaxMem=  7381975040 cpu:               0.2 elap:               0.7
 (Enter /software/commercial/gaussian/g16/AVX/g16/l1002.exe)
 Minotr:  Closed shell wavefunction.
 NEqPCM:  Using equilibrium solvation (IEInf=0, Eps=  24.8520, EpsInf=   1.8526)
          Direct CPHF calculation.
          Differentiating once with respect to electric field.
                with respect to dipole field.
          Electric field/nuclear overlap derivatives assumed to be zero.
          Requested convergence is 1.0D-08 RMS, and 1.0D-07 maximum.
          Secondary convergence is 1.0D-12 RMS, and 1.0D-12 maximum.
          NewPWx=F KeepS1=T KeepF1=T KeepIn=T MapXYZ=F SortEE=F KeepMc=T.
         3058 words used for storage of precomputed grid.
 Keep R1 ints in memory in canonical form, NReq=114839485.
 FoFCou: FMM=F IPFlag=           0 FMFlag=           0 FMFlg1=           0
         NFxFlg=           0 DoJE=F BraDBF=F KetDBF=F FulRan=T
         wScrn=  0.000000 ICntrl=       600 IOpCl=  0 I1Cent=           0 NGrid=           0
         NMat0=    1 NMatS0=  14878 NMatT0=    0 NMatD0=    1 NMtDS0=    0 NMtDT0=    0
 Symmetry not used in FoFCou.
 Two-electron integral symmetry not used.
          MDV=    7381975040 using IRadAn=       1.
          Solving linear equations simultaneously, MaxMat=       0.
          There are     3 degrees of freedom in the 1st order CPHF.  IDoFFX=0 NUNeed=     3.
      3 vectors produced by pass  0 Test12= 1.18D-13 3.33D-08 XBig12= 1.75D+02 1.06D+01.
 AX will form     3 AO Fock derivatives at one time.
      3 vectors produced by pass  1 Test12= 1.18D-13 3.33D-08 XBig12= 7.25D+01 2.16D+00.
      3 vectors produced by pass  2 Test12= 1.18D-13 3.33D-08 XBig12= 2.11D+01 1.51D+00.
      3 vectors produced by pass  3 Test12= 1.18D-13 3.33D-08 XBig12= 1.16D+01 8.96D-01.
      3 vectors produced by pass  4 Test12= 1.18D-13 3.33D-08 XBig12= 1.22D+00 2.76D-01.
      3 vectors produced by pass  5 Test12= 1.18D-13 3.33D-08 XBig12= 1.96D-01 9.35D-02.
      3 vectors produced by pass  6 Test12= 1.18D-13 3.33D-08 XBig12= 9.21D-03 2.43D-02.
      3 vectors produced by pass  7 Test12= 1.18D-13 3.33D-08 XBig12= 4.44D-04 3.99D-03.
      3 vectors produced by pass  8 Test12= 1.18D-13 3.33D-08 XBig12= 1.30D-05 1.09D-03.
      3 vectors produced by pass  9 Test12= 1.18D-13 3.33D-08 XBig12= 3.62D-07 1.74D-04.
      3 vectors produced by pass 10 Test12= 1.18D-13 3.33D-08 XBig12= 1.38D-08 2.92D-05.
      3 vectors produced by pass 11 Test12= 1.18D-13 3.33D-08 XBig12= 3.14D-10 3.12D-06.
      2 vectors produced by pass 12 Test12= 1.18D-13 3.33D-08 XBig12= 6.93D-12 4.83D-07.
      2 vectors produced by pass 13 Test12= 1.18D-13 3.33D-08 XBig12= 9.77D-14 6.29D-08.
 InvSVY:  IOpt=1 It=  1 EMax= 2.66D-15
 Solved reduced A of dimension    40 with     3 vectors.
 End of Minotr F.D. properties file   721 does not exist.
 End of Minotr F.D. properties file   722 does not exist.
 End of Minotr F.D. properties file   788 does not exist.
 Leave Link 1002 at Fri Jun  2 11:16:58 2023, MaxMem=  7381975040 cpu:              92.1 elap:              52.2
 (Enter /software/commercial/gaussian/g16/AVX/g16/l1101.exe)
 Using compressed storage, NAtomX=    10.
 Will process     11 centers per pass.
 R6Disp: Adding Grimme-D3(BJ) dispersion energy 1st derivatives to the gradient.
 Leave Link 1101 at Fri Jun  2 11:17:01 2023, MaxMem=  7381975040 cpu:               0.7 elap:               1.1
 (Enter /software/commercial/gaussian/g16/AVX/g16/l1102.exe)
 Symmetrizing basis deriv contribution to polar:
 IMax=3 JMax=2 DiffMx= 0.00D+00
 Leave Link 1102 at Fri Jun  2 11:17:03 2023, MaxMem=  7381975040 cpu:               0.4 elap:               0.9
 (Enter /software/commercial/gaussian/g16/AVX/g16/l1110.exe)
 Forming Gx(P) for the SCF density, NAtomX=    10.
 Integral derivatives from FoFJK, PRISM(SPDF).
 Do as many integral derivatives as possible in FoFJK.
 G2DrvN: MDV=    7381973894.
 G2DrvN: will do    11 centers at a time, making    1 passes.
 PxScal for G2LodP:  IOpCl= 0 ISclPx=1 IMOff=     1 NMtTot=     4 NTT=   14878 ScalPx= 3.33D+01
 Calling FoFCou, ICntrl=  3107 FMM=F I1Cent=   0 AccDes= 0.00D+00.
 FoFJK:  IHMeth= 1 ICntrl=    3107 DoSepK=F KAlg= 0 I1Cent=           0 FoldK=F
 IRaf=         0 NMat=       1 IRICut=       1 DoRegI=T DoRafI=F ISym2E= 0 IDoP0=0 IntGTp=1.
 FoFCou: FMM=F IPFlag=           0 FMFlag=      100000 FMFlg1=           0
         NFxFlg=           0 DoJE=F BraDBF=F KetDBF=F FulRan=T
         wScrn=  0.000000 ICntrl=      3107 IOpCl=  0 I1Cent=           0 NGrid=           0
         NMat0=    1 NMatS0=      1 NMatT0=    0 NMatD0=    4 NMtDS0=    3 NMtDT0=    0
 Symmetry not used in FoFCou.
 PxScal for G2LodP:  IOpCl= 0 ISclPx=0 IMOff=     1 NMtTot=     4 NTT=   14878 ScalPx= 1.00D+00
 NEqPCM:  Using equilibrium solvation (IEInf=0, Eps=  24.8520, EpsInf=   1.8526)
 G2PCM: DoFxE=T DoFxN=T DoGrad=T DoDP/DQ/DG/TGxP=TFFF NFrqRd=   0 IEInf=0 SqF1=F DoCFld=F IF1Alg=4.
 GePol: Maximum number of non-zero 1st derivatives   =     240
 End of G2Drv F.D. properties file   721 does not exist.
 End of G2Drv F.D. properties file   722 does not exist.
 End of G2Drv F.D. properties file   788 does not exist.
 Leave Link 1110 at Fri Jun  2 11:18:55 2023, MaxMem=  7381975040 cpu:             214.7 elap:             110.7
 (Enter /software/commercial/gaussian/g16/AVX/g16/l1002.exe)
 Minotr:  Closed shell wavefunction.
          IDoAtm=1111111111
 NEqPCM:  Using equilibrium solvation (IEInf=0, Eps=  24.8520, EpsInf=   1.8526)
          Direct CPHF calculation.
          Differentiating once with respect to electric field.
                with respect to dipole field.
          Differentiating once with respect to nuclear coordinates.
          Requested convergence is 1.0D-08 RMS, and 1.0D-07 maximum.
          Secondary convergence is 1.0D-12 RMS, and 1.0D-12 maximum.
          NewPWx=T KeepS1=F KeepF1=F KeepIn=T MapXYZ=F SortEE=F KeepMc=T.
         3058 words used for storage of precomputed grid.
 Keep R1 ints in memory in canonical form, NReq=114839715.
 FoFCou: FMM=F IPFlag=           0 FMFlag=           0 FMFlg1=           0
         NFxFlg=           0 DoJE=F BraDBF=F KetDBF=F FulRan=T
         wScrn=  0.000000 ICntrl=       600 IOpCl=  0 I1Cent=           0 NGrid=           0
         NMat0=    1 NMatS0=  14878 NMatT0=    0 NMatD0=    1 NMtDS0=    0 NMtDT0=    0
 Symmetry not used in FoFCou.
 Two-electron integral symmetry not used.
          MDV=    7381975040 using IRadAn=       1.
          Solving linear equations simultaneously, MaxMat=       0.
          There are    33 degrees of freedom in the 1st order CPHF.  IDoFFX=5 NUNeed=    33.
 Will reuse    3 saved solutions.
     27 vectors produced by pass  0 Test12= 1.08D-14 3.03D-09 XBig12= 2.20D-01 1.84D-01.
 AX will form    27 AO Fock derivatives at one time.
     27 vectors produced by pass  1 Test12= 1.08D-14 3.03D-09 XBig12= 6.92D-02 8.10D-02.
     27 vectors produced by pass  2 Test12= 1.08D-14 3.03D-09 XBig12= 3.45D-03 1.36D-02.
     27 vectors produced by pass  3 Test12= 1.08D-14 3.03D-09 XBig12= 3.26D-05 9.87D-04.
     27 vectors produced by pass  4 Test12= 1.08D-14 3.03D-09 XBig12= 1.18D-07 6.04D-05.
     27 vectors produced by pass  5 Test12= 1.08D-14 3.03D-09 XBig12= 2.98D-10 2.84D-06.
     16 vectors produced by pass  6 Test12= 1.08D-14 3.03D-09 XBig12= 4.83D-13 1.13D-07.
      1 vectors produced by pass  7 Test12= 1.08D-14 3.03D-09 XBig12= 8.68D-16 5.57D-09.
 InvSVY:  IOpt=1 It=  1 EMax= 1.55D-15
 Solved reduced A of dimension   179 with    27 vectors.
 FullF1:  Do perturbations      1 to       3.
 Isotropic polarizability for W=    0.000000      109.68 Bohr**3.
 FullF1:  Do perturbations      1 to       6.
 End of Minotr F.D. properties file   721 does not exist.
 End of Minotr F.D. properties file   722 does not exist.
 End of Minotr F.D. properties file   788 does not exist.
 Leave Link 1002 at Fri Jun  2 11:20:57 2023, MaxMem=  7381975040 cpu:             224.9 elap:             120.4
 (Enter /software/commercial/gaussian/g16/AVX/g16/l601.exe)
 Copying SCF densities to generalized density rwf, IOpCl= 0 IROHF=0.

 **********************************************************************

            Population analysis using the SCF Density.

 **********************************************************************

 Alpha  occ. eigenvalues --  -14.29309 -14.27293 -10.19854 -10.17887 -10.15906
 Alpha  occ. eigenvalues --  -10.14638 -10.13749  -0.92204  -0.89028  -0.72970
 Alpha  occ. eigenvalues --   -0.71362  -0.58331  -0.53772  -0.49123  -0.41263
 Alpha  occ. eigenvalues --   -0.38768  -0.38729  -0.36554  -0.35965  -0.33087
 Alpha  occ. eigenvalues --   -0.32227  -0.25524  -0.21821  -0.19480
 Alpha virt. eigenvalues --    0.00654   0.01140   0.02844   0.03251   0.04131
 Alpha virt. eigenvalues --    0.05068   0.05669   0.06251   0.06716   0.07619
 Alpha virt. eigenvalues --    0.09051   0.09204   0.09773   0.10648   0.12675
 Alpha virt. eigenvalues --    0.12886   0.15204   0.15805   0.16007   0.16538
 Alpha virt. eigenvalues --    0.17206   0.18325   0.19134   0.21394   0.21683
 Alpha virt. eigenvalues --    0.22099   0.22614   0.23686   0.24250   0.24888
 Alpha virt. eigenvalues --    0.26222   0.26528   0.27033   0.28812   0.29196
 Alpha virt. eigenvalues --    0.31504   0.34165   0.35110   0.40757   0.47366
 Alpha virt. eigenvalues --    0.48142   0.50221   0.53890   0.56045   0.57169
 Alpha virt. eigenvalues --    0.59491   0.60816   0.62325   0.63513   0.66688
 Alpha virt. eigenvalues --    0.66785   0.67650   0.70983   0.74689   0.76327
 Alpha virt. eigenvalues --    0.78153   0.79762   0.81881   0.85867   0.87235
 Alpha virt. eigenvalues --    0.88268   0.90076   0.90116   0.91407   0.91908
 Alpha virt. eigenvalues --    0.95260   0.96593   1.02637   1.03204   1.04742
 Alpha virt. eigenvalues --    1.11101   1.11841   1.12818   1.14501   1.21004
 Alpha virt. eigenvalues --    1.28679   1.30086   1.34089   1.34497   1.43804
 Alpha virt. eigenvalues --    1.53311   1.56028   1.57617   1.58468   1.61773
 Alpha virt. eigenvalues --    1.69547   1.70497   1.70848   1.76343   1.78295
 Alpha virt. eigenvalues --    1.84092   1.84845   1.90478   1.97270   1.97962
 Alpha virt. eigenvalues --    1.99556   2.01130   2.06748   2.10087   2.10971
 Alpha virt. eigenvalues --    2.11943   2.26708   2.35152   2.40412   2.41004
 Alpha virt. eigenvalues --    2.47967   2.50357   2.50936   2.62281   2.69123
 Alpha virt. eigenvalues --    2.70279   2.72005   2.74733   2.75341   2.77932
 Alpha virt. eigenvalues --    2.79613   2.82999   2.86986   2.89896   2.93654
 Alpha virt. eigenvalues --    2.99406   3.03820   3.05029   3.07646   3.11167
 Alpha virt. eigenvalues --    3.23110   3.31380   3.32548   3.40249   3.46901
 Alpha virt. eigenvalues --    3.69238   3.75455   3.94857   4.00344   4.04079
 Alpha virt. eigenvalues --    4.09101   4.10816   4.30408   4.51595   4.63645
 Alpha virt. eigenvalues --    5.14498  23.70932  23.92669  24.03198  24.17441
 Alpha virt. eigenvalues --   24.53525  35.63658  35.90006
     Molecular Orbital Coefficients:
                           1         2         3         4         5
                           O         O         O         O         O
     Eigenvalues --   -14.29309 -14.27293 -10.19854 -10.17887 -10.15906
   1 1   C  1S         -0.00000  -0.00001  -0.00006   0.00405   0.00009
   2        2S          0.00001   0.00005   0.00005   0.00349   0.00008
   3        2PX         0.00002   0.00007   0.00027   0.00056  -0.00011
   4        2PY        -0.00006   0.00006   0.00006   0.00055   0.00003
   5        2PZ        -0.00000   0.00000   0.00000   0.00004   0.00000
   6        3S         -0.00012  -0.00032  -0.00047   0.00016   0.00016
   7        3PX        -0.00008  -0.00050  -0.00149  -0.00236   0.00073
   8        3PY         0.00031  -0.00077  -0.00064  -0.00225  -0.00046
   9        3PZ         0.00002  -0.00005  -0.00004  -0.00016  -0.00003
  10        4S          0.00150   0.00229   0.00728   0.00088  -0.00931
  11        4PX         0.00043   0.00270  -0.00002   0.00289   0.00037
  12        4PY         0.00123  -0.00232   0.00442  -0.00033  -0.00609
  13        4PZ         0.00008  -0.00015   0.00030  -0.00002  -0.00042
  14        5S         -0.00881   0.00231   0.00108   0.01389   0.03328
  15        5PX        -0.00315  -0.00243  -0.00158  -0.00460   0.00507
  16        5PY        -0.00128  -0.00027   0.00058   0.00162   0.00478
  17        5PZ        -0.00009  -0.00002   0.00004   0.00011   0.00034
  18        6D 0       -0.00005  -0.00012   0.00002   0.00064  -0.00000
  19        6D+1        0.00001  -0.00003  -0.00006  -0.00012   0.00002
  20        6D-1        0.00001   0.00002   0.00003  -0.00009   0.00003
  21        6D+2        0.00001  -0.00011  -0.00055   0.00020  -0.00044
  22        6D-2        0.00011  -0.00039  -0.00090  -0.00181   0.00029
  23 2   C  1S          0.00002   0.00001   0.00633   0.56288   0.00005
  24        2S         -0.00009  -0.00000   0.00565   0.46316   0.00004
  25        2PX        -0.00010  -0.00016   0.00119   0.00068  -0.00004
  26        2PY         0.00001   0.00047  -0.00016   0.00028  -0.00002
  27        2PZ         0.00000   0.00003  -0.00001   0.00002  -0.00000
  28        3S         -0.00011   0.00058  -0.00168   0.01909   0.00003
  29        3PX         0.00133   0.00040  -0.00675  -0.00048   0.00037
  30        3PY        -0.00017  -0.00125   0.00075  -0.00083   0.00019
  31        3PZ        -0.00001  -0.00008   0.00005  -0.00006   0.00001
  32        4S          0.03038   0.00035   0.02109  -0.01579  -0.00434
  33        4PX         0.01949  -0.00822   0.02502  -0.00419  -0.01554
  34        4PY        -0.00227   0.00822  -0.00183   0.00378   0.00011
  35        4PZ        -0.00014   0.00055  -0.00011   0.00026  -0.00000
  36        5S          0.00979   0.00149   0.06051   0.07523  -0.03428
  37        5PX         0.00067   0.00029   0.02902   0.04270   0.01386
  38        5PY        -0.00524  -0.00197  -0.00578  -0.00986   0.00978
  39        5PZ        -0.00035  -0.00013  -0.00037  -0.00065   0.00068
  40        6D 0       -0.00040   0.00007   0.00081  -0.00164  -0.00005
  41        6D+1       -0.00002   0.00005   0.00006   0.00003  -0.00001
  42        6D-1       -0.00001  -0.00005   0.00009   0.00015   0.00000
  43        6D+2        0.00078   0.00060  -0.00274   0.00072   0.00002
  44        6D-2       -0.00025   0.00068   0.00092   0.00037  -0.00017
  45 3   C  1S         -0.00000   0.00001  -0.00007  -0.00006   0.56289
  46        2S          0.00002   0.00004   0.00001  -0.00005   0.46317
  47        2PX        -0.00006   0.00047  -0.00005  -0.00009   0.00015
  48        2PY         0.00002   0.00015   0.00005   0.00001   0.00025
  49        2PZ         0.00000   0.00001   0.00000   0.00000   0.00002
  50        3S         -0.00033   0.00034  -0.00089  -0.00001   0.01965
  51        3PX         0.00025  -0.00135   0.00009   0.00055  -0.00000
  52        3PY        -0.00003  -0.00053  -0.00007   0.00004  -0.00031
  53        3PZ        -0.00000  -0.00004  -0.00001   0.00000  -0.00002
  54        4S          0.00217   0.00666   0.00451   0.00231  -0.01368
  55        4PX         0.00126   0.00413   0.00290   0.00051  -0.00332
  56        4PY        -0.00097  -0.00164  -0.00403  -0.00201   0.00587
  57        4PZ        -0.00006  -0.00011  -0.00027  -0.00014   0.00039
  58        5S          0.00167   0.00312   0.00496  -0.00435  -0.00719
  59        5PX         0.00132   0.00053   0.00201   0.00583  -0.00092
  60        5PY         0.00002  -0.00120  -0.00084   0.00414   0.00026
  61        5PZ         0.00000  -0.00008  -0.00006   0.00029   0.00002
  62        6D 0       -0.00009   0.00011  -0.00019  -0.00006  -0.00170
  63        6D+1       -0.00000  -0.00002  -0.00001  -0.00001  -0.00004
  64        6D-1        0.00001   0.00007   0.00002  -0.00001   0.00024
  65        6D+2        0.00008  -0.00120  -0.00001   0.00024  -0.00057
  66        6D-2       -0.00007  -0.00033  -0.00022  -0.00017  -0.00059
  67 4   N  1S         -0.00003   0.55739   0.00000  -0.00005  -0.00006
  68        2S         -0.00002   0.46578   0.00008  -0.00007  -0.00005
  69        2PX        -0.00000  -0.00058   0.00012   0.00008  -0.00042
  70        2PY         0.00002  -0.00116  -0.00014  -0.00039  -0.00012
  71        2PZ         0.00000  -0.00008  -0.00001  -0.00003  -0.00001
  72        3S         -0.00006   0.01615  -0.00022   0.00111   0.00086
  73        3PX         0.00001  -0.00061  -0.00048  -0.00002   0.00092
  74        3PY        -0.00007  -0.00083   0.00070   0.00085   0.00039
  75        3PZ        -0.00000  -0.00006   0.00005   0.00006   0.00003
  76        4S         -0.00019  -0.01901  -0.00064  -0.00570  -0.00389
  77        4PX        -0.00017   0.00120  -0.00082  -0.00017   0.00236
  78        4PY        -0.00033   0.00452  -0.00016   0.00237   0.00072
  79        4PZ        -0.00002   0.00031  -0.00001   0.00016   0.00005
  80        5S          0.00070   0.00059   0.00164   0.00817   0.01081
  81        5PX         0.00172   0.00102   0.00028   0.00045  -0.00584
  82        5PY        -0.00014   0.00028  -0.00046  -0.00504  -0.00312
  83        5PZ        -0.00001   0.00002  -0.00003  -0.00034  -0.00022
  84        6D 0       -0.00004  -0.00030   0.00019   0.00065   0.00070
  85        6D+1       -0.00000  -0.00001   0.00003   0.00002  -0.00003
  86        6D-1        0.00001   0.00002  -0.00003  -0.00011  -0.00004
  87        6D+2       -0.00009   0.00024   0.00015   0.00054  -0.00067
  88        6D-2       -0.00005  -0.00014   0.00045   0.00034  -0.00036
  89 5   C  1S         -0.00000  -0.00001  -0.00006  -0.00001   0.00626
  90        2S          0.00002   0.00004   0.00003   0.00001   0.00529
  91        2PX        -0.00003   0.00001   0.00005   0.00004   0.00013
  92        2PY        -0.00001   0.00013  -0.00002  -0.00011   0.00074
  93        2PZ        -0.00000   0.00001  -0.00000  -0.00001   0.00005
  94        3S         -0.00032   0.00000  -0.00059   0.00000   0.00040
  95        3PX         0.00012  -0.00043  -0.00052  -0.00055  -0.00037
  96        3PY         0.00001  -0.00097   0.00007   0.00063  -0.00291
  97        3PZ         0.00000  -0.00007   0.00000   0.00004  -0.00020
  98        4S          0.00097  -0.00092  -0.00377  -0.00078   0.00614
  99        4PX         0.00129  -0.00330  -0.00003  -0.00110   0.00279
 100        4PY         0.00009  -0.00171  -0.00037  -0.00232   0.00215
 101        4PZ         0.00001  -0.00012  -0.00002  -0.00016   0.00015
 102        5S          0.00003  -0.00727   0.00490   0.01158   0.00554
 103        5PX        -0.00009  -0.00163   0.00119  -0.00084   0.00132
 104        5PY         0.00132   0.00095   0.00132   0.00721   0.00100
 105        5PZ         0.00009   0.00006   0.00009   0.00049   0.00007
 106        6D 0       -0.00008   0.00003  -0.00003   0.00001   0.00071
 107        6D+1        0.00000  -0.00000   0.00001   0.00004  -0.00007
 108        6D-1        0.00001  -0.00003   0.00001   0.00000  -0.00017
 109        6D+2        0.00006   0.00045  -0.00005  -0.00004   0.00132
 110        6D-2        0.00002  -0.00007   0.00020   0.00055  -0.00101
 111 6   H  1S         -0.00003   0.00007  -0.00007  -0.00003  -0.00009
 112        2S          0.00021  -0.00157   0.00017  -0.00069  -0.00014
 113        3S          0.00053  -0.00093   0.00040  -0.00093   0.00077
 114        4PX         0.00000  -0.00030  -0.00007  -0.00022  -0.00019
 115        4PY         0.00003  -0.00016   0.00002  -0.00001  -0.00029
 116        4PZ         0.00000  -0.00001   0.00000  -0.00000  -0.00002
 117 7   H  1S         -0.00002  -0.00019  -0.00016  -0.00006   0.00022
 118        2S          0.00015  -0.00019   0.00090   0.00038  -0.00488
 119        3S          0.00080   0.00129   0.00180   0.00085   0.00001
 120        4PX        -0.00000  -0.00046   0.00000   0.00008  -0.00164
 121        4PY        -0.00002   0.00009  -0.00001   0.00000   0.00181
 122        4PZ        -0.00000   0.00001  -0.00000   0.00000   0.00012
 123 8   H  1S          0.00001   0.00003  -0.00017  -0.00005  -0.00002
 124        2S          0.00015  -0.00150  -0.00010  -0.00109  -0.00105
 125        3S          0.00071  -0.00102   0.00140  -0.00059  -0.00201
 126        4PX        -0.00004  -0.00006  -0.00002  -0.00024   0.00009
 127        4PY         0.00008  -0.00037  -0.00034  -0.00051  -0.00025
 128        4PZ         0.00001  -0.00002  -0.00002  -0.00003  -0.00002
 129 9   C  1S         -0.00006  -0.00002   0.56272  -0.00648   0.00006
 130        2S          0.00053   0.00009   0.46262  -0.00503   0.00011
 131        2PX         0.00027   0.00000  -0.00002  -0.00056   0.00006
 132        2PY        -0.00005   0.00004  -0.00002   0.00010  -0.00004
 133        2PZ        -0.00000   0.00000  -0.00000   0.00001  -0.00000
 134        3S          0.00012  -0.00052   0.02321  -0.00066  -0.00059
 135        3PX        -0.00309   0.00009   0.00373   0.00171  -0.00036
 136        3PY         0.00051  -0.00022  -0.00064  -0.00032   0.00019
 137        3PZ         0.00003  -0.00001  -0.00004  -0.00002   0.00001
 138        4S         -0.00461   0.00477  -0.01338   0.00094   0.01037
 139        4PX         0.03909  -0.00585   0.03081  -0.00639  -0.01005
 140        4PY        -0.00631  -0.00094  -0.00526   0.00006   0.00171
 141        4PZ        -0.00042  -0.00006  -0.00035   0.00000   0.00012
 142        5S          0.00074  -0.00160  -0.07199  -0.10243  -0.00378
 143        5PX         0.00164   0.00044   0.02019   0.02591  -0.00194
 144        5PY         0.00043   0.00014  -0.00295  -0.00267  -0.00108
 145        5PZ         0.00003   0.00001  -0.00020  -0.00018  -0.00008
 146        6D 0        0.00176   0.00008  -0.00365   0.00117   0.00002
 147        6D+1        0.00006   0.00002  -0.00013   0.00004  -0.00000
 148        6D-1       -0.00001   0.00000   0.00001  -0.00002   0.00000
 149        6D+2       -0.00288  -0.00017   0.00611  -0.00171  -0.00004
 150        6D-2        0.00094   0.00035  -0.00196   0.00066  -0.00006
 151 10  N  1S          0.55733   0.00003  -0.00030   0.00001   0.00000
 152        2S          0.46558   0.00003   0.00016  -0.00007   0.00001
 153        2PX        -0.00104   0.00002  -0.00089   0.00006   0.00002
 154        2PY         0.00017   0.00003   0.00015   0.00001  -0.00000
 155        2PZ         0.00001   0.00000   0.00001   0.00000  -0.00000
 156        3S          0.01894  -0.00010  -0.00199   0.00068  -0.00020
 157        3PX        -0.00374  -0.00018   0.00659  -0.00085  -0.00012
 158        3PY         0.00061  -0.00013  -0.00111   0.00005   0.00003
 159        3PZ         0.00004  -0.00001  -0.00007   0.00000   0.00000
 160        4S         -0.03401   0.00271  -0.02647   0.00284   0.00427
 161        4PX         0.00982  -0.00050   0.00804   0.00002  -0.00097
 162        4PY        -0.00158   0.00073  -0.00120   0.00040   0.00013
 163        4PZ        -0.00011   0.00005  -0.00008   0.00003   0.00001
 164        5S         -0.01058   0.00145  -0.00321   0.00564   0.00264
 165        5PX         0.00275  -0.00055  -0.00186  -0.00437  -0.00014
 166        5PY        -0.00048   0.00009   0.00027   0.00021  -0.00006
 167        5PZ        -0.00003   0.00001   0.00002   0.00001  -0.00000
 168        6D 0       -0.00069  -0.00002   0.00146  -0.00013  -0.00003
 169        6D+1       -0.00003  -0.00000   0.00005  -0.00001  -0.00000
 170        6D-1        0.00000  -0.00000  -0.00001   0.00000   0.00000
 171        6D+2        0.00114   0.00006  -0.00241   0.00019   0.00004
 172        6D-2       -0.00039  -0.00002   0.00081  -0.00007  -0.00002
                           6         7         8         9        10
                           O         O         O         O         O
     Eigenvalues --   -10.14638 -10.13749  -0.92204  -0.89028  -0.72970
   1 1   C  1S          0.56266  -0.01615  -0.03180   0.00897  -0.08052
   2        2S          0.46296  -0.01311  -0.04878   0.01389  -0.12456
   3        2PX         0.00013  -0.00063   0.00229   0.00399  -0.01731
   4        2PY        -0.00019   0.00043   0.02807  -0.00915   0.02335
   5        2PZ        -0.00001   0.00003   0.00192  -0.00062   0.00159
   6        3S          0.01968  -0.00077   0.12399  -0.03560   0.32583
   7        3PX        -0.00019   0.00235   0.00439   0.00277  -0.02517
   8        3PY         0.00039  -0.00171   0.03951  -0.01480   0.03205
   9        3PZ         0.00003  -0.00011   0.00270  -0.00101   0.00218
  10        4S         -0.01968   0.00358   0.05119  -0.01194   0.18192
  11        4PX         0.00139  -0.00058  -0.00756   0.00510  -0.00543
  12        4PY        -0.01001   0.00280   0.01437  -0.00392   0.00770
  13        4PZ        -0.00068   0.00019   0.00097  -0.00026   0.00053
  14        5S          0.01302   0.01605  -0.10513   0.04642  -0.14866
  15        5PX        -0.00123   0.00312   0.00961  -0.01418  -0.00708
  16        5PY         0.00292   0.00322  -0.01860   0.00738  -0.03440
  17        5PZ         0.00020   0.00022  -0.00127   0.00049  -0.00237
  18        6D 0       -0.00188   0.00076  -0.00704   0.00224  -0.01118
  19        6D+1       -0.00002   0.00010   0.00008  -0.00007  -0.00033
  20        6D-1        0.00029  -0.00006   0.00106  -0.00035   0.00116
  21        6D+2       -0.00103  -0.00042  -0.00336   0.00120   0.00229
  22        6D-2       -0.00037   0.00154   0.00109  -0.00099  -0.00520
  23 2   C  1S         -0.00415   0.00012  -0.05861   0.00606  -0.01719
  24        2S         -0.00327   0.00012  -0.08990   0.01023  -0.02669
  25        2PX        -0.00060   0.00002  -0.02392   0.02662  -0.01370
  26        2PY        -0.00050  -0.00011   0.02803  -0.01334  -0.07042
  27        2PZ        -0.00003  -0.00001   0.00186  -0.00089  -0.00480
  28        3S         -0.00002  -0.00003   0.23131  -0.02661   0.06978
  29        3PX         0.00234   0.00025  -0.04115   0.02230  -0.01996
  30        3PY         0.00175   0.00067   0.04323  -0.01756  -0.10401
  31        3PZ         0.00012   0.00005   0.00287  -0.00117  -0.00709
  32        4S         -0.00108  -0.00718   0.09639  -0.07332   0.05358
  33        4PX        -0.01330  -0.00573   0.01172  -0.02426   0.00278
  34        4PY        -0.00077   0.00158  -0.01116   0.00617  -0.02450
  35        4PZ        -0.00006   0.00011  -0.00075   0.00041  -0.00167
  36        5S         -0.00401  -0.03264  -0.09939  -0.35099  -0.00224
  37        5PX        -0.00311  -0.00137  -0.14247  -0.13497  -0.09107
  38        5PY         0.00069   0.00695   0.02685   0.01018  -0.01441
  39        5PZ         0.00004   0.00047   0.00173   0.00063  -0.00103
  40        6D 0        0.00072  -0.00003  -0.01306   0.00522  -0.00239
  41        6D+1       -0.00010  -0.00002  -0.00058   0.00033   0.00102
  42        6D-1       -0.00006  -0.00001   0.00164  -0.00032  -0.00043
  43        6D+2       -0.00036   0.00024  -0.00157  -0.00432   0.01078
  44        6D-2       -0.00143  -0.00037  -0.00877   0.00505   0.01486
  45 3   C  1S         -0.00028  -0.00635  -0.04986   0.02063   0.00911
  46        2S         -0.00022  -0.00509  -0.07648   0.03171   0.01397
  47        2PX        -0.00014  -0.00021   0.04482  -0.01712  -0.04831
  48        2PY        -0.00010  -0.00073  -0.01320   0.00513  -0.04622
  49        2PZ        -0.00001  -0.00005  -0.00085   0.00033  -0.00318
  50        3S          0.00014  -0.00001   0.19585  -0.08153  -0.03853
  51        3PX         0.00059   0.00081   0.06438  -0.02505  -0.07053
  52        3PY         0.00085   0.00266  -0.02043   0.00793  -0.06797
  53        3PZ         0.00006   0.00018  -0.00132   0.00051  -0.00468
  54        4S         -0.00314   0.00363   0.07811  -0.03736  -0.01503
  55        4PX        -0.00163   0.00100   0.00586  -0.00472  -0.01218
  56        4PY         0.00239  -0.00342  -0.00263   0.00116  -0.01091
  57        4PZ         0.00016  -0.00023  -0.00017   0.00007  -0.00075
  58        5S         -0.01429  -0.01500   0.04086  -0.05462   0.03082
  59        5PX         0.00029  -0.00124  -0.01402   0.00026  -0.00682
  60        5PY         0.00413   0.00257  -0.01526   0.01263  -0.01326
  61        5PZ         0.00028   0.00017  -0.00105   0.00085  -0.00092
  62        6D 0       -0.00000   0.00072  -0.01208   0.00476   0.00105
  63        6D+1       -0.00004  -0.00002  -0.00021   0.00005  -0.00021
  64        6D-1       -0.00002  -0.00019   0.00079  -0.00032   0.00118
  65        6D+2        0.00028   0.00152   0.00920  -0.00346  -0.01916
  66        6D-2       -0.00055  -0.00037  -0.00353   0.00086  -0.00282
  67 4   N  1S          0.00000   0.00000  -0.07741   0.02687   0.06132
  68        2S          0.00003   0.00003  -0.12125   0.04220   0.09689
  69        2PX         0.00003  -0.00006  -0.02531   0.01462   0.01889
  70        2PY        -0.00005   0.00000  -0.04814   0.01435   0.00872
  71        2PZ        -0.00000   0.00000  -0.00329   0.00099   0.00061
  72        3S         -0.00002   0.00011   0.32952  -0.11518  -0.27282
  73        3PX        -0.00010   0.00040  -0.03823   0.02104   0.02727
  74        3PY         0.00036   0.00007  -0.07313   0.02344   0.01328
  75        3PZ         0.00002   0.00001  -0.00500   0.00161   0.00093
  76        4S         -0.00200  -0.00322   0.22695  -0.08028  -0.20208
  77        4PX         0.00054   0.00105  -0.01194   0.00626   0.00913
  78        4PY         0.00086   0.00095  -0.03106   0.00992   0.00379
  79        4PZ         0.00006   0.00006  -0.00212   0.00068   0.00027
  80        5S          0.00254   0.00355  -0.07920   0.03810  -0.01708
  81        5PX         0.00098  -0.00290   0.00741  -0.00081   0.00746
  82        5PY        -0.00142  -0.00049   0.02522  -0.01035   0.00955
  83        5PZ        -0.00009  -0.00004   0.00171  -0.00070   0.00066
  84        6D 0        0.00007   0.00010  -0.00969   0.00356   0.00286
  85        6D+1        0.00001  -0.00000   0.00007  -0.00005   0.00022
  86        6D-1       -0.00001   0.00000   0.00118  -0.00043   0.00000
  87        6D+2        0.00009  -0.00020  -0.00047   0.00014  -0.00496
  88        6D-2        0.00012  -0.00002   0.00077  -0.00070   0.00334
  89 5   C  1S          0.01604   0.56263  -0.02963   0.01220  -0.06697
  90        2S          0.01338   0.46294  -0.04544   0.01875  -0.10353
  91        2PX         0.00064  -0.00026   0.02383  -0.00875   0.03352
  92        2PY        -0.00035  -0.00013   0.01307  -0.00591  -0.01847
  93        2PZ        -0.00002  -0.00001   0.00090  -0.00041  -0.00123
  94        3S          0.00034   0.01965   0.11465  -0.04725   0.26945
  95        3PX        -0.00247   0.00075   0.03282  -0.01285   0.04767
  96        3PY         0.00135   0.00019   0.01954  -0.00845  -0.02894
  97        3PZ         0.00009   0.00001   0.00135  -0.00058  -0.00193
  98        4S          0.00730  -0.01429   0.04465  -0.02400   0.15416
  99        4PX         0.00496  -0.00685   0.00912  -0.00638   0.01333
 100        4PY         0.00083  -0.00316   0.00656  -0.00345  -0.00366
 101        4PZ         0.00006  -0.00022   0.00046  -0.00024  -0.00024
 102        5S          0.00246   0.01198  -0.05304  -0.03878  -0.02157
 103        5PX        -0.00095   0.00273  -0.00338  -0.01518  -0.00320
 104        5PY         0.00427   0.00232  -0.02798   0.01488  -0.01452
 105        5PZ         0.00029   0.00016  -0.00190   0.00099  -0.00098
 106        6D 0        0.00068  -0.00192  -0.00694   0.00285  -0.00948
 107        6D+1        0.00008   0.00005   0.00025  -0.00009  -0.00045
 108        6D-1       -0.00000   0.00017   0.00073  -0.00031   0.00064
 109        6D+2       -0.00114   0.00077   0.00134  -0.00040   0.00694
 110        6D-2        0.00121   0.00069   0.00350  -0.00120  -0.00690
 111 6   H  1S         -0.00008   0.00023   0.00702  -0.00330   0.03973
 112        2S         -0.00005  -0.00525   0.00832  -0.00446   0.04497
 113        3S          0.00191   0.00077   0.00138  -0.00011   0.00038
 114        4PX        -0.00038  -0.00233   0.00087  -0.00052   0.00731
 115        4PY         0.00008  -0.00098   0.00049  -0.00032   0.00105
 116        4PZ         0.00001  -0.00007   0.00003  -0.00002   0.00007
 117 7   H  1S         -0.00003  -0.00010   0.01442  -0.00673  -0.00957
 118        2S         -0.00094   0.00022   0.01395  -0.00682  -0.01267
 119        3S         -0.00006   0.00089  -0.00318   0.00145  -0.00065
 120        4PX        -0.00014   0.00007   0.00271  -0.00117  -0.00446
 121        4PY         0.00018   0.00026  -0.00099   0.00070  -0.00002
 122        4PZ         0.00001   0.00002  -0.00006   0.00005  -0.00001
 123 8   H  1S          0.00024  -0.00009   0.00824  -0.00160   0.04965
 124        2S         -0.00562  -0.00001   0.01049  -0.00344   0.05586
 125        3S          0.00021   0.00107   0.00333   0.00043  -0.00013
 126        4PX         0.00035   0.00022   0.00026   0.00011  -0.00218
 127        4PY        -0.00258  -0.00019   0.00142  -0.00076   0.00871
 128        4PZ        -0.00017  -0.00001   0.00010  -0.00005   0.00059
 129 9   C  1S          0.00009   0.00004  -0.03442  -0.07828  -0.00452
 130        2S          0.00015   0.00010  -0.05261  -0.11922  -0.00707
 131        2PX        -0.00001   0.00000   0.00931   0.10288  -0.01739
 132        2PY        -0.00002  -0.00000   0.00002  -0.01761  -0.00677
 133        2PZ        -0.00000  -0.00000  -0.00000  -0.00118  -0.00047
 134        3S         -0.00048  -0.00062   0.13479   0.30036   0.01929
 135        3PX         0.00007   0.00009   0.00250   0.09784  -0.02088
 136        3PY         0.00010   0.00001   0.00233  -0.01774  -0.01230
 137        3PZ         0.00001   0.00000   0.00015  -0.00120  -0.00084
 138        4S          0.00706   0.00485   0.03614   0.11914   0.00727
 139        4PX        -0.00810  -0.00699  -0.00119  -0.05534   0.00383
 140        4PY         0.00185   0.00077   0.00579   0.00587  -0.00491
 141        4PZ         0.00013   0.00005   0.00038   0.00039  -0.00033
 142        5S          0.00028   0.01651   0.26477   0.39918   0.14879
 143        5PX         0.00121  -0.00550  -0.06156  -0.09432  -0.03422
 144        5PY        -0.00012   0.00004   0.00365   0.01667   0.00648
 145        5PZ        -0.00000   0.00000   0.00024   0.00112   0.00043
 146        6D 0        0.00008  -0.00001  -0.00670  -0.01502  -0.00062
 147        6D+1       -0.00001   0.00000  -0.00035  -0.00047   0.00035
 148        6D-1        0.00001   0.00000   0.00008   0.00014  -0.00009
 149        6D+2       -0.00031  -0.00001   0.01046   0.02402   0.00245
 150        6D-2       -0.00015   0.00003  -0.00533  -0.00697   0.00514
 151 10  N  1S          0.00000   0.00000  -0.02609  -0.09565   0.00452
 152        2S          0.00001   0.00002  -0.04073  -0.14984   0.00718
 153        2PX         0.00002   0.00000  -0.02582  -0.09200   0.00289
 154        2PY        -0.00002   0.00001   0.00430   0.01477  -0.00250
 155        2PZ        -0.00000   0.00000   0.00029   0.00099  -0.00017
 156        3S         -0.00014  -0.00022   0.10768   0.40000  -0.02012
 157        3PX        -0.00014   0.00000  -0.03282  -0.12127   0.00404
 158        3PY         0.00012  -0.00004   0.00621   0.01906  -0.00481
 159        3PZ         0.00001  -0.00000   0.00042   0.00128  -0.00033
 160        4S          0.00372   0.00332   0.07342   0.30428  -0.01853
 161        4PX        -0.00081  -0.00086  -0.01550  -0.05727   0.00207
 162        4PY        -0.00004   0.00028   0.00061   0.01007  -0.00181
 163        4PZ        -0.00000   0.00002   0.00004   0.00068  -0.00013
 164        5S          0.00271   0.00217  -0.01544  -0.03138  -0.00868
 165        5PX        -0.00146  -0.00012   0.01116   0.01999   0.00569
 166        5PY         0.00011  -0.00004   0.00045  -0.00375   0.00092
 167        5PZ         0.00000  -0.00000   0.00003  -0.00026   0.00007
 168        6D 0       -0.00002   0.00000  -0.00295  -0.01126   0.00053
 169        6D+1       -0.00000  -0.00000  -0.00012  -0.00039   0.00012
 170        6D-1       -0.00000  -0.00000   0.00004   0.00011  -0.00004
 171        6D+2        0.00003   0.00000   0.00450   0.01791  -0.00034
 172        6D-2       -0.00006  -0.00000  -0.00181  -0.00575   0.00179
                          11        12        13        14        15
                           O         O         O         O         O
     Eigenvalues --    -0.71362  -0.58331  -0.53772  -0.49123  -0.41263
   1 1   C  1S         -0.01254   0.04767  -0.03695   0.01997   0.00701
   2        2S         -0.01931   0.07457  -0.05793   0.03105   0.01098
   3        2PX         0.04938   0.00221   0.07417   0.05145  -0.07618
   4        2PY        -0.00027  -0.00294  -0.03882   0.13127   0.03169
   5        2PZ         0.00003  -0.00022  -0.00257   0.00896   0.00204
   6        3S          0.05101  -0.19999   0.15488  -0.08089  -0.02939
   7        3PX         0.07346   0.00193   0.10735   0.07461  -0.10752
   8        3PY         0.00090  -0.00243  -0.04989   0.17759   0.04147
   9        3PZ         0.00013  -0.00019  -0.00329   0.01213   0.00266
  10        4S          0.01965  -0.12349   0.14366  -0.12008  -0.05508
  11        4PX         0.01796   0.00007   0.04670   0.03348  -0.05274
  12        4PY        -0.00126   0.00885  -0.01193   0.06954   0.02384
  13        4PZ        -0.00007   0.00060  -0.00077   0.00474   0.00153
  14        5S          0.08199   0.10979   0.09885  -0.07318   0.01871
  15        5PX         0.02858   0.02466  -0.04620  -0.01815  -0.03531
  16        5PY         0.00809   0.02666   0.00473  -0.00208   0.00199
  17        5PZ         0.00059   0.00183   0.00028  -0.00017   0.00010
  18        6D 0       -0.00081   0.00554  -0.00346  -0.00116  -0.00026
  19        6D+1        0.00089  -0.00013   0.00052   0.00036  -0.00071
  20        6D-1       -0.00004  -0.00136   0.00069   0.00059  -0.00093
  21        6D+2        0.00219   0.01030  -0.00404  -0.00638   0.01380
  22        6D-2        0.01301  -0.00184   0.00756   0.00527  -0.01058
  23 2   C  1S         -0.07654  -0.01648   0.00354  -0.02533   0.02632
  24        2S         -0.11879  -0.02566   0.00560  -0.04014   0.04160
  25        2PX         0.04660   0.12200  -0.00056  -0.07069   0.08075
  26        2PY        -0.00670  -0.01540  -0.10907  -0.04033  -0.05617
  27        2PZ        -0.00045  -0.00097  -0.00742  -0.00281  -0.00382
  28        3S          0.31782   0.06755  -0.01813   0.11178  -0.12203
  29        3PX         0.07060   0.17338  -0.00060  -0.09867   0.11127
  30        3PY        -0.00726  -0.02220  -0.15545  -0.05718  -0.08269
  31        3PZ        -0.00049  -0.00140  -0.01058  -0.00399  -0.00563
  32        4S          0.20956   0.08757  -0.01316   0.06039  -0.12195
  33        4PX         0.02209   0.10158   0.03180  -0.11373   0.03755
  34        4PY        -0.00950  -0.00571  -0.06907  -0.02038  -0.03891
  35        4PZ        -0.00065  -0.00032  -0.00467  -0.00147  -0.00267
  36        5S         -0.75468  -0.77169  -0.42155   0.31586  -0.27100
  37        5PX        -0.34500  -0.39229  -0.14032   0.07789  -0.12344
  38        5PY         0.11744   0.09957   0.00532  -0.00947  -0.01974
  39        5PZ         0.00780   0.00656   0.00032  -0.00062  -0.00142
  40        6D 0       -0.01032  -0.00166   0.00223  -0.00385  -0.00002
  41        6D+1        0.00003  -0.00022   0.00023   0.00013  -0.00060
  42        6D-1        0.00104  -0.00092  -0.00041  -0.00029  -0.00192
  43        6D+2        0.00263   0.01629   0.00232   0.01110   0.02806
  44        6D-2        0.00033  -0.00326   0.00341   0.00153  -0.00921
  45 3   C  1S          0.06145  -0.05080  -0.04560  -0.01502   0.00432
  46        2S          0.09512  -0.07923  -0.07123  -0.02394   0.00683
  47        2PX        -0.00067  -0.07302   0.01118  -0.01826   0.14313
  48        2PY         0.01593  -0.00300   0.08448  -0.07925  -0.03457
  49        2PZ         0.00107  -0.00027   0.00574  -0.00539  -0.00224
  50        3S         -0.25281   0.21385   0.19436   0.06578  -0.01036
  51        3PX        -0.00140  -0.10009   0.01682  -0.02502   0.20055
  52        3PY         0.02387  -0.00469   0.11698  -0.11209  -0.04638
  53        3PZ         0.00160  -0.00041   0.00794  -0.00763  -0.00301
  54        4S         -0.15008   0.15793   0.16246   0.04611  -0.02768
  55        4PX        -0.00452  -0.03650   0.00729  -0.00422   0.11612
  56        4PY         0.01280  -0.00871   0.03716  -0.04134  -0.03011
  57        4PZ         0.00086  -0.00063   0.00252  -0.00281  -0.00197
  58        5S         -0.11167  -0.08912  -0.04533   0.07707   0.05730
  59        5PX        -0.03994  -0.04005   0.02720  -0.01119   0.03443
  60        5PY         0.00088   0.01375   0.02842  -0.02702  -0.01267
  61        5PZ         0.00002   0.00088   0.00194  -0.00184  -0.00084
  62        6D 0        0.00831  -0.00229  -0.00389  -0.00365  -0.00138
  63        6D+1       -0.00027   0.00039  -0.00013  -0.00081   0.00084
  64        6D-1       -0.00122   0.00086   0.00024   0.00113  -0.00024
  65        6D+2        0.00345  -0.00855   0.00324  -0.01051   0.00623
  66        6D-2       -0.00379   0.00588  -0.00204  -0.01191   0.01230
  67 4   N  1S          0.00006   0.02555   0.01230   0.03721  -0.00332
  68        2S          0.00010   0.04064   0.01965   0.05937  -0.00539
  69        2PX         0.06356   0.00160  -0.09167  -0.00980  -0.12934
  70        2PY        -0.02712   0.02676   0.06095  -0.05302   0.06113
  71        2PZ        -0.00178   0.00181   0.00403  -0.00361   0.00395
  72        3S         -0.00047  -0.11594  -0.05666  -0.17135   0.01627
  73        3PX         0.09469   0.00383  -0.13387  -0.01486  -0.18695
  74        3PY        -0.04073   0.03984   0.09103  -0.07694   0.08965
  75        3PZ        -0.00268   0.00269   0.00603  -0.00523   0.00579
  76        4S          0.00569  -0.10132  -0.04971  -0.18480   0.00266
  77        4PX         0.03865  -0.00108  -0.07320  -0.00675  -0.11120
  78        4PY        -0.01682   0.02068   0.04522  -0.04435   0.05692
  79        4PZ        -0.00111   0.00140   0.00299  -0.00301   0.00368
  80        5S         -0.00440  -0.00581   0.02209  -0.09188  -0.02455
  81        5PX        -0.02302  -0.00819   0.02780   0.00939   0.01821
  82        5PY         0.01337   0.00530  -0.02416   0.02422   0.00116
  83        5PZ         0.00087   0.00034  -0.00161   0.00166   0.00011
  84        6D 0        0.00025   0.00164   0.00090  -0.00302  -0.00073
  85        6D+1       -0.00071  -0.00025   0.00039   0.00065   0.00092
  86        6D-1        0.00064  -0.00069  -0.00106   0.00099  -0.00119
  87        6D+2       -0.00991   0.00728   0.01408  -0.00914   0.01910
  88        6D-2       -0.01025  -0.00377   0.00551   0.00963   0.01313
  89 5   C  1S          0.04855  -0.03000   0.05332   0.01265  -0.01513
  90        2S          0.07506  -0.04674   0.08354   0.01957  -0.02404
  91        2PX        -0.00280  -0.05556   0.02850   0.07061   0.06813
  92        2PY        -0.02859   0.05652   0.02003   0.10135  -0.03602
  93        2PZ        -0.00194   0.00379   0.00137   0.00691  -0.00243
  94        3S         -0.19588   0.12517  -0.22327  -0.05129   0.06875
  95        3PX        -0.00124  -0.07685   0.03929   0.09455   0.09526
  96        3PY        -0.04161   0.08319   0.02575   0.14045  -0.05176
  97        3PZ        -0.00282   0.00558   0.00176   0.00958  -0.00349
  98        4S         -0.10658   0.07917  -0.18987  -0.03964   0.06298
  99        4PX        -0.00011  -0.03779   0.00907   0.05560   0.05311
 100        4PY        -0.00895   0.02791   0.00569   0.07301  -0.03214
 101        4PZ        -0.00061   0.00186   0.00039   0.00498  -0.00217
 102        5S         -0.07742  -0.15161  -0.06228  -0.04859  -0.12743
 103        5PX        -0.01081  -0.03921  -0.02462   0.01674  -0.03140
 104        5PY        -0.01086  -0.02426   0.04747  -0.01475   0.01324
 105        5PZ        -0.00077  -0.00170   0.00320  -0.00098   0.00088
 106        6D 0        0.00620  -0.00177   0.00531  -0.00173  -0.00148
 107        6D+1       -0.00030   0.00044  -0.00037   0.00050   0.00046
 108        6D-1       -0.00114   0.00089  -0.00030   0.00008  -0.00036
 109        6D+2        0.00593  -0.01003  -0.00482   0.00188   0.00793
 110        6D-2       -0.00442   0.00659  -0.00540   0.00724   0.00673
 111 6   H  1S         -0.03132   0.04622  -0.07751  -0.08784  -0.02058
 112        2S         -0.03612   0.05623  -0.10069  -0.11750  -0.03306
 113        3S          0.00274   0.00889  -0.02279  -0.02353  -0.00693
 114        4PX        -0.00457   0.00558  -0.00995  -0.01371  -0.00280
 115        4PY        -0.00353   0.00640  -0.00382  -0.00226  -0.00490
 116        4PZ        -0.00024   0.00044  -0.00026  -0.00016  -0.00033
 117 7   H  1S         -0.04121   0.07433   0.08442  -0.01780  -0.10289
 118        2S         -0.04878   0.09537   0.10896  -0.02555  -0.14512
 119        3S         -0.00550   0.01562   0.03332  -0.00328  -0.04836
 120        4PX        -0.00401   0.00558   0.00917  -0.00545  -0.00318
 121        4PY         0.00667  -0.01191  -0.00775   0.00125   0.01142
 122        4PZ         0.00045  -0.00080  -0.00052   0.00008   0.00077
 123 8   H  1S          0.01352  -0.04413   0.07046  -0.10986  -0.04353
 124        2S          0.01765  -0.05198   0.09253  -0.15091  -0.05808
 125        3S          0.00138  -0.00562   0.02136  -0.03765  -0.02372
 126        4PX         0.00212   0.00044   0.00218   0.00588  -0.00392
 127        4PY         0.00394  -0.00503   0.01086  -0.01609  -0.00391
 128        4PZ         0.00027  -0.00034   0.00074  -0.00108  -0.00027
 129 9   C  1S         -0.03274  -0.04692  -0.00404   0.00962  -0.04357
 130        2S         -0.05221  -0.07491  -0.00650   0.01584  -0.06949
 131        2PX        -0.10430  -0.10538  -0.01299   0.01494  -0.04098
 132        2PY         0.01608   0.01745  -0.02855  -0.01620  -0.01808
 133        2PZ         0.00106   0.00116  -0.00195  -0.00111  -0.00125
 134        3S          0.14521   0.21181   0.01806  -0.04715   0.19987
 135        3PX        -0.12708  -0.12831  -0.01791   0.01869  -0.05295
 136        3PY         0.01913   0.02109  -0.04271  -0.02487  -0.02856
 137        3PZ         0.00126   0.00141  -0.00291  -0.00170  -0.00198
 138        4S          0.11470   0.15324  -0.00007  -0.00943   0.20643
 139        4PX        -0.00834  -0.00023   0.01480  -0.05396  -0.04409
 140        4PY         0.00188  -0.00180  -0.02495   0.00248  -0.01631
 141        4PZ         0.00013  -0.00013  -0.00170   0.00016  -0.00113
 142        5S          0.87841   0.93514   0.43647  -0.27517   0.33680
 143        5PX        -0.21756  -0.21811  -0.10759   0.06230  -0.08058
 144        5PY         0.01989   0.02689   0.00196  -0.02650   0.01158
 145        5PZ         0.00134   0.00182   0.00010  -0.00179   0.00078
 146        6D 0       -0.00730  -0.00693  -0.00097   0.00277  -0.00146
 147        6D+1       -0.00018  -0.00023   0.00041   0.00028  -0.00001
 148        6D-1        0.00006   0.00003  -0.00007  -0.00020  -0.00010
 149        6D+2        0.01176   0.01162   0.00281  -0.00189   0.00392
 150        6D-2       -0.00283  -0.00344   0.00606   0.00412  -0.00024
 151 10  N  1S          0.02759   0.02478   0.00248  -0.00561   0.02967
 152        2S          0.04410   0.03991   0.00399  -0.00904   0.04776
 153        2PX         0.01842   0.00453  -0.00221   0.00200  -0.05858
 154        2PY        -0.00313  -0.00048  -0.01181  -0.00660  -0.00691
 155        2PZ        -0.00021  -0.00003  -0.00080  -0.00045  -0.00049
 156        3S         -0.12550  -0.11592  -0.01157   0.02558  -0.13943
 157        3PX         0.03065   0.01274  -0.00285   0.00008  -0.07845
 158        3PY        -0.00539  -0.00184  -0.01861  -0.00961  -0.01188
 159        3PZ        -0.00037  -0.00013  -0.00127  -0.00066  -0.00084
 160        4S         -0.11292  -0.13022  -0.01889   0.06111  -0.17033
 161        4PX         0.01407   0.00914  -0.00008  -0.00804  -0.05209
 162        4PY        -0.00285  -0.00066  -0.01050  -0.00632  -0.00787
 163        4PZ        -0.00019  -0.00004  -0.00071  -0.00044  -0.00055
 164        5S         -0.04360  -0.06035  -0.03255   0.04325  -0.05684
 165        5PX         0.03070   0.03175   0.01767  -0.01621   0.00769
 166        5PY        -0.00300  -0.00443   0.00345   0.00959  -0.00003
 167        5PZ        -0.00022  -0.00031   0.00024   0.00065  -0.00001
 168        6D 0        0.00384   0.00283   0.00019  -0.00052  -0.00192
 169        6D+1        0.00016   0.00010   0.00026   0.00011   0.00014
 170        6D-1       -0.00004  -0.00003  -0.00009  -0.00004  -0.00008
 171        6D+2       -0.00609  -0.00448   0.00094   0.00148   0.00446
 172        6D-2        0.00231   0.00147   0.00380   0.00160   0.00203
                          16        17        18        19        20
                           O         O         O         O         O
     Eigenvalues --    -0.38768  -0.38729  -0.36554  -0.35965  -0.33087
   1 1   C  1S          0.00052   0.01492   0.01199   0.00354  -0.00000
   2        2S          0.00082   0.02352   0.01898   0.00561  -0.00000
   3        2PX         0.00349   0.10503   0.08249  -0.03691   0.00007
   4        2PY        -0.00351   0.04706  -0.13244  -0.03001   0.00331
   5        2PZ         0.07506   0.00077  -0.00896  -0.00208  -0.04856
   6        3S         -0.00219  -0.06293  -0.05950  -0.01703   0.00000
   7        3PX         0.00507   0.15286   0.11345  -0.05161   0.00009
   8        3PY        -0.00564   0.06606  -0.17935  -0.04036   0.00505
   9        3PZ         0.11562   0.00074  -0.01214  -0.00280  -0.07404
  10        4S         -0.00359  -0.09561  -0.04220  -0.01126   0.00017
  11        4PX         0.00269   0.07996   0.07934  -0.03131   0.00004
  12        4PY        -0.00425   0.03107  -0.12227  -0.02128   0.00358
  13        4PZ         0.07505  -0.00035  -0.00828  -0.00148  -0.05118
  14        5S          0.01106   0.32301   0.01720   0.01582  -0.00177
  15        5PX        -0.00093  -0.03678   0.00559   0.03433  -0.00020
  16        5PY         0.00168   0.05738  -0.01352  -0.00224  -0.00066
  17        5PZ         0.00379   0.00376  -0.00091  -0.00011   0.00505
  18        6D 0        0.00163   0.00075  -0.00123  -0.00007  -0.00082
  19        6D+1        0.00326   0.00155  -0.00025  -0.00060   0.00612
  20        6D-1        0.01343  -0.00136   0.00138  -0.00018  -0.00698
  21        6D+2        0.00134   0.01222  -0.01824   0.00265  -0.00048
  22        6D-2        0.00059   0.02423  -0.00349  -0.00884  -0.00041
  23 2   C  1S         -0.00066  -0.01924   0.01169   0.00347  -0.00000
  24        2S         -0.00105  -0.03058   0.01881   0.00512  -0.00001
  25        2PX        -0.00182  -0.05152   0.01103   0.08046  -0.00003
  26        2PY        -0.01172  -0.09223   0.01829  -0.00129   0.00107
  27        2PZ         0.12563  -0.01061   0.00123   0.00000  -0.01553
  28        3S          0.00299   0.08669  -0.05529  -0.01577   0.00001
  29        3PX        -0.00248  -0.06988   0.01513   0.12301  -0.00006
  30        3PY        -0.01796  -0.13119   0.02438  -0.00444   0.00137
  31        3PZ         0.19758  -0.01574   0.00163  -0.00017  -0.01968
  32        4S          0.00268   0.08522  -0.08762  -0.02269   0.00023
  33        4PX        -0.00189  -0.03922  -0.01496   0.06210   0.00027
  34        4PY        -0.01220  -0.09248   0.00070   0.00039   0.00218
  35        4PZ         0.13287  -0.01087   0.00002   0.00011  -0.03225
  36        5S         -0.01097  -0.30434  -0.17407   0.16048  -0.00068
  37        5PX         0.00014   0.02547  -0.07916   0.04796  -0.00146
  38        5PY         0.00147   0.03276   0.03706   0.03513   0.00202
  39        5PZ         0.00288   0.00222   0.00247   0.00239  -0.03440
  40        6D 0        0.00064   0.00073  -0.00048  -0.00253  -0.00092
  41        6D+1       -0.00060  -0.00056  -0.00090  -0.00028   0.02500
  42        6D-1        0.00540   0.00000   0.00101  -0.00070  -0.00804
  43        6D+2        0.00025  -0.00398  -0.01418   0.01459  -0.00059
  44        6D-2       -0.00026  -0.00838  -0.01307  -0.00425  -0.00171
  45 3   C  1S          0.00053   0.01573  -0.01305  -0.00741   0.00001
  46        2S          0.00085   0.02514  -0.02074  -0.01180   0.00001
  47        2PX         0.00187   0.05571   0.02428   0.03392   0.00004
  48        2PY        -0.00428   0.02842  -0.14625  -0.04167   0.00604
  49        2PZ         0.07687  -0.00061  -0.00988  -0.00280  -0.08896
  50        3S         -0.00233  -0.06930   0.06471   0.03726  -0.00004
  51        3PX         0.00252   0.07527   0.03308   0.04806   0.00007
  52        3PY        -0.00668   0.04098  -0.20203  -0.05717   0.00932
  53        3PZ         0.11862  -0.00114  -0.01364  -0.00384  -0.13747
  54        4S         -0.00329  -0.09333   0.03583   0.03344   0.00007
  55        4PX         0.00117   0.03694   0.01579   0.03374   0.00008
  56        4PY        -0.00453   0.02254  -0.12958  -0.03820   0.00712
  57        4PZ         0.07904  -0.00110  -0.00875  -0.00256  -0.10524
  58        5S          0.00011   0.02012  -0.06580   0.01120  -0.00035
  59        5PX         0.00084   0.03160  -0.01368  -0.01151   0.00003
  60        5PY        -0.00073   0.00629  -0.00517  -0.01595   0.00082
  61        5PZ         0.01480  -0.00005  -0.00036  -0.00109  -0.01082
  62        6D 0       -0.00083   0.00021   0.00017   0.00014   0.00087
  63        6D+1        0.01407   0.00055   0.00085   0.00037  -0.01114
  64        6D-1       -0.00737  -0.00085  -0.00029   0.00012   0.00761
  65        6D+2        0.00003   0.01591   0.00413  -0.00198   0.00053
  66        6D-2       -0.00044   0.01489   0.01248   0.00542   0.00074
  67 4   N  1S         -0.00030  -0.00885  -0.00262   0.00182  -0.00001
  68        2S         -0.00047  -0.01404  -0.00409   0.00287  -0.00002
  69        2PX        -0.00223  -0.06061  -0.01517  -0.02950   0.00015
  70        2PY        -0.00690   0.01976  -0.04447   0.02022   0.00575
  71        2PZ         0.11170  -0.00252  -0.00303   0.00135  -0.08518
  72        3S          0.00138   0.04087   0.01268  -0.00849   0.00006
  73        3PX        -0.00321  -0.08695  -0.02441  -0.04204   0.00022
  74        3PY        -0.01048   0.02800  -0.06545   0.02882   0.00862
  75        3PZ         0.16880  -0.00393  -0.00447   0.00192  -0.12773
  76        4S          0.00194   0.05833   0.02274  -0.01171   0.00010
  77        4PX        -0.00231  -0.06340  -0.01046  -0.02384   0.00016
  78        4PY        -0.00827   0.01554  -0.05380   0.01909   0.00710
  79        4PZ         0.13007  -0.00343  -0.00367   0.00128  -0.10536
  80        5S          0.00164   0.05302   0.02770  -0.03453  -0.00001
  81        5PX         0.00038   0.01305  -0.01038  -0.01665   0.00016
  82        5PY        -0.00090  -0.02698  -0.00473   0.01477   0.00028
  83        5PZ         0.00017  -0.00183  -0.00033   0.00098  -0.00359
  84        6D 0       -0.00188   0.00102  -0.00080  -0.00041   0.00093
  85        6D+1       -0.00589   0.00060   0.00082   0.00018   0.00997
  86        6D-1       -0.01614   0.00033   0.00018  -0.00048   0.00773
  87        6D+2       -0.00103   0.00165  -0.00107   0.00773   0.00051
  88        6D-2        0.00063   0.00598   0.01208   0.00247  -0.00069
  89 5   C  1S         -0.00017  -0.00501   0.00166  -0.00580   0.00000
  90        2S         -0.00027  -0.00795   0.00268  -0.00924   0.00000
  91        2PX        -0.00475  -0.13945  -0.06040   0.04076   0.00000
  92        2PY        -0.00534  -0.03507   0.14011   0.02257   0.00485
  93        2PZ         0.06126  -0.00450   0.00945   0.00154  -0.07160
  94        3S          0.00056   0.01617  -0.00742   0.02838   0.00000
  95        3PX        -0.00637  -0.18701  -0.08732   0.05553   0.00001
  96        3PY        -0.00798  -0.04807   0.20020   0.03186   0.00743
  97        3PZ         0.09367  -0.00649   0.01351   0.00217  -0.10970
  98        4S          0.00242   0.06452  -0.00233   0.01349  -0.00010
  99        4PX        -0.00367  -0.11067  -0.04356   0.03301  -0.00006
 100        4PY        -0.00502  -0.02539   0.10777   0.01537   0.00568
 101        4PZ         0.06170  -0.00385   0.00726   0.00105  -0.08409
 102        5S         -0.00540  -0.16627  -0.00111   0.01511   0.00023
 103        5PX        -0.00192  -0.05839  -0.00216   0.01300  -0.00001
 104        5PY         0.00101   0.03060   0.00951  -0.01825   0.00052
 105        5PZ        -0.00139   0.00209   0.00064  -0.00123  -0.00676
 106        6D 0        0.00046  -0.00144   0.00030   0.00025  -0.00076
 107        6D+1        0.01054   0.00075   0.00113   0.00008  -0.00860
 108        6D-1        0.00418  -0.00113   0.00139   0.00039  -0.00639
 109        6D+2        0.00085   0.01705  -0.02068  -0.00615  -0.00042
 110        6D-2       -0.00017   0.01605   0.01684   0.00129   0.00059
 111 6   H  1S          0.00448   0.13240  -0.00123  -0.03527   0.00003
 112        2S          0.00644   0.19033  -0.00144  -0.05349   0.00004
 113        3S          0.00291   0.08538  -0.00017  -0.02570   0.00001
 114        4PX         0.00035   0.01049  -0.00382  -0.00331   0.00000
 115        4PY        -0.00012   0.00568   0.00963  -0.00093   0.00039
 116        4PZ         0.00468   0.00023   0.00065  -0.00007  -0.00573
 117 7   H  1S         -0.00120  -0.03404  -0.10046  -0.03962   0.00002
 118        2S         -0.00168  -0.04740  -0.14801  -0.05828   0.00002
 119        3S         -0.00074  -0.02048  -0.06983  -0.02848   0.00005
 120        4PX         0.00006   0.00211  -0.00855  -0.00231   0.00001
 121        4PY        -0.00028   0.00361   0.00448   0.00266   0.00048
 122        4PZ         0.00593   0.00005   0.00030   0.00018  -0.00709
 123 8   H  1S         -0.00168  -0.04948   0.11667   0.01782  -0.00001
 124        2S         -0.00234  -0.06843   0.17203   0.02969  -0.00000
 125        3S         -0.00129  -0.03600   0.07907   0.01132   0.00006
 126        4PX         0.00027   0.00815   0.00267  -0.00325   0.00001
 127        4PY        -0.00046  -0.00148   0.01048   0.00208   0.00025
 128        4PZ         0.00597  -0.00029   0.00071   0.00014  -0.00375
 129 9   C  1S          0.00061   0.01872  -0.00511   0.02417   0.00001
 130        2S          0.00097   0.02999  -0.00816   0.03790   0.00001
 131        2PX        -0.00056  -0.01635   0.01708  -0.13447   0.00000
 132        2PY        -0.01059  -0.08215  -0.02655   0.03160  -0.01024
 133        2PZ         0.11403  -0.00954  -0.00184   0.00220   0.14823
 134        3S         -0.00285  -0.08740   0.02214  -0.10900  -0.00002
 135        3PX        -0.00078  -0.02244   0.01823  -0.16126  -0.00001
 136        3PY        -0.01613  -0.12358  -0.03657   0.04131  -0.01518
 137        3PZ         0.17449  -0.01445  -0.00254   0.00289   0.21979
 138        4S         -0.00261  -0.09017   0.04384  -0.09063  -0.00017
 139        4PX        -0.00080  -0.01058  -0.01414  -0.09474   0.00028
 140        4PY        -0.00970  -0.07771  -0.02315   0.02542  -0.01157
 141        4PZ         0.10440  -0.00890  -0.00161   0.00179   0.16689
 142        5S          0.00432   0.10197   0.20610  -0.22588   0.00271
 143        5PX        -0.00138  -0.03522  -0.05255   0.05334  -0.00058
 144        5PY        -0.00266  -0.03630  -0.00838  -0.00973  -0.00255
 145        5PZ         0.01989  -0.00319  -0.00057  -0.00062   0.03973
 146        6D 0        0.00004   0.00114  -0.00119   0.00166  -0.00058
 147        6D+1       -0.00173   0.00005  -0.00037   0.00007   0.02716
 148        6D-1        0.00008   0.00004   0.00022  -0.00007  -0.00496
 149        6D+2       -0.00007  -0.00252  -0.00110  -0.00181  -0.00035
 150        6D-2        0.00012  -0.00001  -0.00539   0.00095  -0.00187
 151 10  N  1S         -0.00055  -0.01708   0.00983  -0.05260   0.00001
 152        2S         -0.00089  -0.02744   0.01577  -0.08409   0.00001
 153        2PX         0.00111   0.03558  -0.03994   0.21779  -0.00009
 154        2PY        -0.00846  -0.07177  -0.01667  -0.02641  -0.01183
 155        2PZ         0.08826  -0.00794  -0.00117  -0.00170   0.17162
 156        3S          0.00256   0.07948  -0.04593   0.23984  -0.00002
 157        3PX         0.00144   0.04629  -0.05488   0.30150  -0.00012
 158        3PY        -0.01256  -0.10563  -0.02425  -0.03558  -0.01736
 159        3PZ         0.13164  -0.01175  -0.00170  -0.00229   0.25169
 160        4S          0.00386   0.11334  -0.05945   0.38608  -0.00020
 161        4PX         0.00083   0.02854  -0.03991   0.19782  -0.00005
 162        4PY        -0.00907  -0.07682  -0.01988  -0.02221  -0.01374
 163        4PZ         0.09483  -0.00852  -0.00139  -0.00141   0.19916
 164        5S          0.00102   0.02443  -0.02267   0.17020  -0.00028
[...]
 Second derivative matrix not updated -- analytic derivatives used.
 ITU=  0
     Eigenvalues ---    0.00733   0.01037   0.02430   0.04388   0.04668
     Eigenvalues ---    0.05316   0.06179   0.10844   0.13406   0.13903
     Eigenvalues ---    0.17858   0.20978   0.22380   0.23400   0.27812
     Eigenvalues ---    0.37739   0.59556   0.74486   0.81695   0.84832
     Eigenvalues ---    1.05561   1.11545   1.18681   2.43779
 Angle between quadratic step and forces=  74.12 degrees.
 Linear search not attempted -- first point.
 B after Tr=     0.000013    0.000022    0.000001
         Rot=    1.000000   -0.000000    0.000000   -0.000006 Ang=  -0.00 deg.
 Variable       Old X    -DE/DX   Delta X   Delta X   Delta X     New X
                                 (Linear)    (Quad)   (Total)
    X1       -2.73684   0.00000   0.00000  -0.00012  -0.00009  -2.73693
    Y1       -1.51972   0.00000   0.00000  -0.00008  -0.00009  -1.51981
    Z1       -0.06743  -0.00001   0.00000  -0.00000  -0.00000  -0.06744
    X2       -0.83578   0.00000   0.00000  -0.00002  -0.00001  -0.83579
    Y2        0.35017  -0.00000   0.00000  -0.00019  -0.00018   0.34999
    Z2        0.06194   0.00000   0.00000  -0.00001  -0.00001   0.06194
    X3       -4.37801  -0.00000   0.00000   0.00009   0.00007  -4.37794
    Y3        2.38676  -0.00000   0.00000   0.00001  -0.00002   2.38674
    Z3        0.19639   0.00000   0.00000  -0.00000  -0.00000   0.19639
    X4       -1.85247  -0.00000   0.00000   0.00010   0.00008  -1.85239
    Y4        2.74470   0.00000   0.00000  -0.00012  -0.00012   2.74458
    Z4        0.22333   0.00001   0.00000  -0.00001  -0.00000   0.22333
    X5       -5.03022  -0.00000   0.00000  -0.00005  -0.00004  -5.03025
    Y5       -0.19350   0.00000   0.00000   0.00005   0.00001  -0.19349
    Z5        0.02113  -0.00001   0.00000   0.00000  -0.00000   0.02113
    X6       -6.91372   0.00000   0.00000  -0.00009  -0.00007  -6.91379
    Y6       -0.98482  -0.00000   0.00000   0.00015   0.00009  -0.98474
    Z6       -0.03333  -0.00001   0.00000   0.00000   0.00000  -0.03333
    X7       -5.65512  -0.00000   0.00000   0.00017   0.00014  -5.65498
    Y7        3.98406  -0.00000   0.00000   0.00008   0.00004   3.98410
    Z7        0.30361   0.00000   0.00000   0.00000   0.00000   0.30361
    X8       -2.45239   0.00000   0.00000  -0.00022  -0.00017  -2.45256
    Y8       -3.53767   0.00000   0.00000  -0.00009  -0.00010  -3.53776
    Z8       -0.20403  -0.00001   0.00000  -0.00000  -0.00000  -0.20403
    X9        1.79473  -0.00001   0.00000  -0.00002  -0.00001   1.79472
    Y9       -0.04500  -0.00001   0.00000  -0.00015  -0.00011  -0.04511
    Z9        0.03594   0.00001   0.00000  -0.00001  -0.00000   0.03593
   X10        3.96679   0.00001   0.00000   0.00007   0.00009   3.96688
   Y10       -0.39731   0.00001   0.00000   0.00041   0.00047  -0.39683
   Z10        0.01224   0.00002   0.00000   0.00002   0.00002   0.01227
         Item               Value     Threshold  Converged?
 Maximum Force            0.000015     0.000450     YES
 RMS     Force            0.000007     0.000300     YES
 Maximum Displacement     0.000474     0.001800     YES
 RMS     Displacement     0.000115     0.001200     YES
 Predicted change in Energy=-3.887980D-09
 Optimization completed.
    -- Stationary point found.
 GradGradGradGradGradGradGradGradGradGradGradGradGradGradGradGradGradGrad

 Leave Link  103 at Fri Jun  2 11:23:23 2023, MaxMem=  7381975040 cpu:               2.9 elap:               4.4
 (Enter /software/commercial/gaussian/g16/AVX/g16/l9999.exe)

 ----------------------------------------------------------------------

 Electric dipole moment (input orientation):
 (Debye = 10**-18 statcoulomb cm , SI units = C m)
                  (au)            (Debye)         (10**-30 SI)
   Tot        0.137455D+01      0.349377D+01      0.116540D+02
   x         -0.490395D+00     -0.124646D+01     -0.415774D+01
   y         -0.127806D+01     -0.324850D+01     -0.108358D+02
   z         -0.124425D+00     -0.316257D+00     -0.105492D+01

 Dipole polarizability, Alpha (input orientation).
 (esu units = cm**3 , SI units = C**2 m**2 J**-1)
 Alpha(0;0):
               (au)            (10**-24 esu)      (10**-40 SI)
   iso        0.109682D+03      0.162532D+02      0.180842D+02
   aniso      0.898020D+02      0.133073D+02      0.148063D+02
   xx         0.165004D+03      0.244511D+02      0.272055D+02
   yx        -0.968669D+01     -0.143542D+01     -0.159712D+01
   yy         0.991435D+02      0.146916D+02      0.163466D+02
   zx        -0.589762D+00     -0.873937D-01     -0.972387D-01
   zy         0.231956D+01      0.343724D+00      0.382444D+00
   zz         0.648988D+02      0.961701D+01      0.107004D+02

 First dipole hyperpolarizability, Beta (input orientation).
 ||, _|_  parallel and perpendicular components, (z) with respect to z axis,
 vector components x,y,z.  Values do not include the 1/n! factor of 1/2.
 (esu units = statvolt**-1 cm**4 , SI units = C**3 m**3 J**-2)
 Beta(0;0,0):
               (au)            (10**-30 esu)      (10**-50 SI)
   || (z)    -0.102049D+02     -0.881621D-01     -0.327205D-01
   _|_(z)    -0.340162D+01     -0.293874D-01     -0.109068D-01
   x          0.210998D+04      0.182286D+02      0.676537D+01
   y         -0.721725D+03     -0.623515D+01     -0.231411D+01
   z         -0.510243D+02     -0.440810D+00     -0.163602D+00
   ||         0.446118D+03      0.385411D+01      0.143041D+01
   xxx        0.121372D+04      0.104856D+02      0.389161D+01
   xxy       -0.264112D+03     -0.228172D+01     -0.846838D+00
   yxy       -0.165128D+03     -0.142657D+01     -0.529458D+00
   yyy        0.610427D+02      0.527362D+00      0.195725D+00
   xxz       -0.175802D+02     -0.151879D+00     -0.563683D-01
   yxz        0.124964D+02      0.107960D+00      0.400681D-01
   yyz        0.908913D+01      0.785230D-01      0.291431D-01
   zxz       -0.345260D+03     -0.298278D+01     -0.110703D+01
   zyz       -0.375059D+02     -0.324022D+00     -0.120258D+00
   zzz       -0.851708D+01     -0.735810D-01     -0.273088D-01

 ----------------------------------------------------------------------

 Dipole orientation:
     6         -1.82358184          0.86040880          2.39554823
     6         -0.82443536          0.37974457         -0.03301665
     6         -4.56578250          1.89740152         -0.67505259
     7         -2.51463286          1.01898889         -1.91133396
     6         -4.24812044          1.84478661          1.97261054
     1         -5.59883256          2.44202037          3.38528796
     1         -6.20849695          2.54185996         -1.71430160
     1         -0.89165190          0.52990091          4.18271336
     6          1.57278698         -0.62341187         -0.60171049
     7          3.56091466         -1.45508848         -1.04690944

 Electric dipole moment (dipole orientation):
 (Debye = 10**-18 statcoulomb cm , SI units = C m)
                  (au)            (Debye)         (10**-30 SI)
   Tot        0.137455D+01      0.349377D+01      0.116540D+02
   x          0.000000D+00      0.000000D+00      0.000000D+00
   y          0.000000D+00      0.000000D+00      0.000000D+00
   z          0.137455D+01      0.349377D+01      0.116540D+02

 Dipole polarizability, Alpha (dipole orientation).
 (esu units = cm**3 , SI units = C**2 m**2 J**-1)
 Alpha(0;0):
               (au)            (10**-24 esu)      (10**-40 SI)
   iso        0.109682D+03      0.162532D+02      0.180842D+02
   aniso      0.898020D+02      0.133073D+02      0.148063D+02
   xx         0.148613D+03      0.220221D+02      0.245029D+02
   yx        -0.348607D+02     -0.516582D+01     -0.574775D+01
   yy         0.792623D+02      0.117455D+02      0.130686D+02
   zx        -0.131887D+02     -0.195437D+01     -0.217453D+01
   zy         0.649863D+01      0.962997D+00      0.107148D+01
   zz         0.101172D+03      0.149921D+02      0.166810D+02

 First dipole hyperpolarizability, Beta (dipole orientation).
 ||, _|_  parallel and perpendicular components, (z) with respect to z axis,
 vector components x,y,z.  Values do not include the 1/n! factor of 1/2.
 (esu units = statvolt**-1 cm**4 , SI units = C**3 m**3 J**-2)
 Beta(0;0,0):
               (au)            (10**-30 esu)      (10**-50 SI)
   || (z)    -0.154187D+02     -0.133206D+00     -0.494380D-01
   _|_(z)    -0.513958D+01     -0.444020D-01     -0.164793D-01
   x          0.205973D+04      0.177944D+02      0.660423D+01
   y         -0.852706D+03     -0.736671D+01     -0.273408D+01
   z         -0.770937D+02     -0.666029D+00     -0.247190D+00
   ||         0.446118D+03      0.385411D+01      0.143041D+01
   xxx        0.796684D+03      0.688273D+01      0.255446D+01
   xxy       -0.570023D+03     -0.492455D+01     -0.182770D+01
   yxy        0.514584D+01      0.444561D-01      0.164994D-01
   yyy        0.243580D+03      0.210434D+01      0.781004D+00
   xxz       -0.253437D+03     -0.218949D+01     -0.812609D+00
   yxz        0.174659D+03      0.150892D+01      0.560019D+00
   yyz        0.852451D+02      0.736451D+00      0.273327D+00
   zxz       -0.115254D+03     -0.995706D+00     -0.369546D+00
   zyz        0.422080D+02      0.364644D+00      0.135334D+00
   zzz        0.142494D+03      0.123103D+01      0.456886D+00

 ----------------------------------------------------------------------
 Unable to Open any file for archive entry.
 1\1\GINC-NODE1913\Freq\RB3LYP\6-311+G(d,p)\C5H3N2(1-)\SVICCHI\02-Jun-2
 023\0\\#p freq=raman scale=0.967 pop=(nbo,full,hirshfeld) guess=read g
 eom=allcheck b3lyp/6-311+G(d,p) int=grid=ultrafine EmpiricalDispersion
 =GD3BJ SCRF=(Solvent=ethanol) scf=(xqc,intrep,maxconventionalcycle=350
 ) nosymm\\2CNPyr-isolated.gjf\\-1,1\C,-1.4482754787,-0.8042001884,-0.0
 356834998\C,-0.4422771416,0.1853027407,0.0327791147\C,-2.3167454162,1.
 2630186882,0.1039241565\N,-0.9802856965,1.4524335105,0.1181820516\C,-2
 .6618755274,-0.1023934518,0.0111820176\H,-3.6585849898,-0.5211465848,-
 0.017635864\H,-2.9925598249,2.1082762134,0.1606646013\H,-1.2977490132,
 -1.8720523756,-0.1079685357\C,0.9497279378,-0.023812612,0.0190172795\N
 ,2.0991341506,-0.2102459403,0.0064786782\\Version=ES64L-G16RevC.01\HF=
 -302.0468111\RMSD=1.696e-09\RMSF=6.714e-06\ZeroPoint=0.0653924\Thermal
 =0.070812\ETot=-301.9759991\HTot=-301.9750549\GTot=-302.0106101\Dipole
 =-1.9231139,-0.814959,-0.0562743\DipoleDeriv=0.7415825,-0.0409373,-0.0
 014044,0.0940152,-0.2655389,0.0026177,0.0080257,0.0003141,-0.3055291,-
 1.4067819,0.2522938,0.0153501,0.3136658,0.4579367,0.0373737,0.0202961,
 0.0398612,-0.0827793,-0.3195379,0.3710958,0.0255574,-0.1099847,0.37787
 27,0.041264,-0.0098832,0.0425127,-0.2323495,-0.0381208,-0.4841857,-0.0
 326281,-0.6546888,-0.8007638,-0.0281464,-0.0436489,-0.0286746,-0.39564
 13,-0.4781556,-0.0403525,-0.0033756,0.4142316,-0.1684314,0.014945,0.02
 71548,0.0145154,-0.3844546,-0.1645978,-0.0974192,-0.0069404,-0.102423,
 0.0573761,-0.0131209,-0.0056653,-0.0127,0.2496478,-0.0574144,0.1187053
 ,0.0082078,0.1633581,-0.0878371,-0.0191604,0.0114975,-0.0195023,0.2012
 617,0.1093535,0.037668,0.0025458,0.0204208,-0.1471434,-0.027274,0.0012
 048,-0.0274085,0.2501639,2.5591965,-0.3220655,-0.0203654,-0.3741333,0.
 0965388,-0.006339,-0.0243228,-0.0067516,0.1885929,-1.945524,0.2051972,
 0.0130528,0.2355383,-0.5200097,-0.0021598,0.0153414,-0.0021664,-0.4889
 126\Polar=165.0042257,-9.6866917,99.1435497,-0.5897622,2.3195634,64.89
 88281\PolarDeriv=-27.8405542,13.7222116,6.003037,0.897666,0.0870768,5.
 0836646,-11.5832109,-1.6782741,-1.7521716,0.0324956,1.007292,-7.82071,
 -0.7509826,0.0422346,1.0523613,-2.1211787,-8.4921602,-1.8371899,66.574
 2642,-9.9866628,3.3995571,-0.6404955,0.3364748,-1.63186,-5.9190748,-4.
 1771786,3.3043031,-0.7327128,-0.0631968,4.2627224,-0.4364863,-0.73693,
 0.2409133,6.5957993,-0.0402944,0.4009051,19.4751896,-4.7149659,-16.011
 1014,-0.3053277,-0.7863472,-4.1447168,27.5167784,-8.5619909,-2.950385,
 0.053989,-1.2307287,7.8431386,1.8723249,0.0408704,-1.1532298,-9.070539
 6,7.1064675,1.3643541,-20.9235753,4.4103346,16.438619,0.2978629,0.7844
 017,4.6607139,15.7282883,1.7666585,6.500663,0.0273882,0.2109487,-1.277
 1951,1.0220764,0.0118836,-0.190406,1.4193066,4.7012197,0.6148475,6.762
 317,-7.4998423,-6.1650291,-0.5084249,0.2043497,-9.1745304,-30.0366274,
 14.108014,7.2792992,1.6421775,0.8416403,-1.9609274,-2.0791285,1.661446
 4,0.8420895,-10.8109463,-2.4298733,-0.4093512,-16.8978411,-5.0214342,-
 2.6799838,-0.3563115,-0.1850958,-0.0439984,-5.2118834,-3.6854813,-2.35
 09223,-0.4188402,-0.1819366,0.014939,-0.285108,-0.3954676,-0.1987752,2
 .5296357,0.2998792,0.0721528,-8.3027392,6.0677723,-4.8516226,0.4318119
 ,-0.3425356,-0.1505903,5.666769,-6.9712383,8.8834642,-0.5870672,0.6529
 918,-0.0535737,0.4163715,-0.6133432,0.7160115,2.0131713,-1.028006,-0.1
 364108,-0.3996652,-1.4387478,1.7123364,-0.0975498,0.1195195,-0.0188047
 ,-0.1695988,-0.0860136,-15.9820854,-0.0303667,-1.1915594,-0.2954842,-0
 .0057149,-0.0342776,-1.2984959,0.3529106,1.4179835,0.1739377,-117.6345
 536,18.3135364,0.2099687,1.1850378,-0.3465641,5.379824,15.9757846,-4.4
 465065,1.1972862,-0.2340338,0.1441956,-0.7572944,1.0361361,-0.2228882,
 0.0908591,-1.0467807,-0.2090248,-0.0716941,99.1871578,-13.8522018,1.94
 42186,-0.9042691,0.1287201,0.040298,-11.9672249,13.7320107,-4.1294513,
 0.2469703,-0.1896468,0.0443848,-0.7894885,0.2464716,-0.1013278,10.1386
 218,-1.3261913,-0.1715512\HyperPolar=1213.7157305,-264.1119486,-165.12
 75139,61.0427387,-17.5801581,12.4964494,9.0891345,-345.2603459,-37.505
 9274,-8.5170837\Quadrupole=-5.7755391,1.9228423,3.8526968,2.5326632,0.
 1496774,-0.1797798\PG=C01 [X(C5H3N2)]\NImag=0\\0.54227972,-0.04819339,
 0.80418632,-0.00347664,0.04684303,0.11521474,-0.16457108,-0.11093153,-
 0.00746892,0.74767536,-0.10383393,-0.18946987,-0.00857715,-0.00777106,
 0.52319338,-0.00695685,-0.00853868,-0.06084625,-0.00029931,0.02703710,
 0.12415336,0.01424160,0.00934418,0.00064146,-0.10326292,0.06044564,0.0
 0392769,0.65927456,0.06422002,-0.05985175,-0.00475031,0.02575141,-0.02
 589175,-0.00255566,-0.13148507,0.70909097,0.00443363,-0.00493496,0.011
 32869,0.00167078,-0.00247822,0.01139172,-0.00854183,0.03916923,0.13033
 608,-0.01625151,0.01187098,0.00075754,-0.07409428,0.07114469,0.0048864
 2,-0.31293666,-0.04672453,-0.00338988,0.50716439,-0.02437862,-0.079336
 51,-0.00670986,0.01847756,-0.24161364,-0.01192695,-0.02495281,-0.10085
 913,-0.00211611,0.01166525,0.44994737,-0.00168639,-0.00667720,0.018621
 26,0.00122592,-0.01186178,-0.06730602,-0.00186396,-0.00214566,-0.06842
 173,0.00103109,0.02350899,0.10113762,-0.26424205,0.10700358,0.00743816
 ,-0.08218067,-0.03043499,-0.00208806,-0.10736633,-0.05555912,-0.003824
 03,-0.04438958,-0.02048501,-0.00144926,0.77963161,0.07532937,-0.153485
 20,-0.00661103,0.03051891,0.00954229,-0.00014662,-0.02357510,-0.281222
 17,-0.01478296,-0.07661595,-0.02419235,-0.00298784,0.09247653,0.564036
 98,0.00530111,-0.00653943,-0.05931149,0.00195144,-0.00021145,0.0120919
 9,-0.00151198,-0.01485291,-0.06297295,-0.00530936,-0.00293457,0.018681
 90,0.00638446,0.03106266,0.11154473,-0.01087446,-0.01373140,-0.0009306
 4,-0.00364755,0.00163002,0.00009977,0.00043725,0.00343770,0.00023718,-
 0.00020696,-0.00038740,-0.00003076,-0.29907792,-0.10197263,-0.00708311
 ,0.31364794,0.01519977,0.01146386,0.00083015,0.00364840,-0.00298546,-0
 .00049686,-0.02459021,0.00267516,0.00035057,-0.00418266,-0.00598350,-0
 .00081219,-0.10237388,-0.09985390,-0.00526043,0.11201684,0.09352122,0.
 00100243,0.00081727,-0.00054860,0.00025765,-0.00048597,0.00433653,-0.0
 0167605,0.00034630,-0.00266072,-0.00027376,-0.00080790,0.00584952,-0.0
 0710022,-0.00525627,-0.02390178,0.00777479,0.00508502,0.02020165,-0.00
 045107,-0.00238084,-0.00016076,-0.00582621,-0.00108273,-0.00008713,-0.
 15400364,0.12900436,0.00862415,-0.01992177,0.02545972,0.00171485,0.009
 27484,-0.00726852,-0.00048379,-0.00018144,0.00095953,0.00006582,0.1709
 6864,-0.00194399,-0.00527135,-0.00060054,-0.00143091,0.00131818,-0.000
 32295,0.13295144,-0.23425296,-0.01398405,-0.00324126,0.00879970,0.0010
 2231,0.01906053,-0.00890462,-0.00063378,-0.00069179,0.00019941,0.00014
 775,-0.14597547,0.23799732,-0.00013416,-0.00059082,0.00344790,-0.00009
 402,-0.00034105,0.00613827,0.00889363,-0.01398978,-0.02731623,-0.00024
 206,0.00104817,-0.00628854,0.00129818,-0.00064993,0.00064251,-0.000045
 47,0.00014976,-0.00197920,-0.00975463,0.01456105,0.02245365,-0.0624967
 8,0.04009272,0.00269295,0.00944581,-0.01885692,-0.00126390,-0.00556255
 ,0.00288523,0.00018700,-0.00260597,-0.00496311,-0.00034619,0.00644120,
 0.02350429,0.00159647,0.00054349,-0.00128362,-0.00008347,0.00076303,0.
 00135356,0.00009116,0.05277800,0.03896558,-0.33823400,-0.02126470,0.00
 849503,-0.00793544,-0.00036984,0.00062527,-0.00132593,-0.00036999,-0.0
 0102889,-0.00319912,-0.00063235,-0.00438306,-0.00411416,-0.00028227,0.
 00045409,0.00007427,0.00020388,-0.00013937,-0.00031149,-0.00009833,-0.
 04320676,0.35516565,0.00261270,-0.02123456,-0.02540962,0.00059511,-0.0
 0040968,-0.00231156,0.00003721,-0.00037463,0.00418153,-0.00007890,-0.0
 0063378,0.00601051,-0.00029720,-0.00026924,0.00004071,0.00003210,0.000
 20360,-0.00292201,-0.00001071,-0.00009849,0.00113002,-0.00290225,0.022
 68227,0.02126822,-0.05846458,-0.00067029,0.00002607,-0.27651442,0.0210
 8183,0.00121470,0.02553389,0.01495625,0.00110337,-0.05247086,0.0335830
 0,0.00232749,0.01080699,-0.02594909,-0.00176238,0.00010682,0.00044806,
 0.00001210,0.00013091,-0.00030659,-0.00003233,0.00063119,0.00122863,0.
 00008390,1.42535695,-0.01349250,0.01404559,0.00134139,0.02140707,-0.08
 882006,-0.00310591,-0.00109245,-0.01141701,-0.00112607,0.04335289,-0.0
 0398146,0.00087289,-0.00803102,-0.00061249,-0.00031030,-0.00103874,0.0
 0118723,-0.00007768,0.00161471,0.00062829,-0.00013181,0.00040550,-0.00
 042445,0.00013064,-0.21199507,0.15955715,-0.00097659,0.00135703,-0.005
 81926,0.00138390,-0.00310850,-0.04400967,-0.00005734,-0.00110600,0.004
 94888,0.00303742,0.00086333,-0.01284914,-0.00054365,-0.00032572,0.0037
 8891,-0.00007327,-0.00007759,0.00234006,0.00010403,-0.00013550,0.00262
 043,0.00002307,0.00012770,-0.00223226,-0.01422397,0.00397812,0.0977615
 5,0.02083022,0.00759598,0.00048077,-0.04702403,0.00767745,0.00056667,-
 0.01635519,-0.00648624,-0.00050038,0.01571320,-0.01401858,-0.00092279,
 -0.00889808,0.01355221,0.00091714,-0.00074717,0.00015776,0.00002071,-0
 .00075328,0.00022448,0.00001970,0.00006257,-0.00101053,-0.00007194,-1.
 07511688,0.16886960,0.01132639,1.11228864,-0.00187232,-0.00404708,-0.0
 0050099,0.01183512,0.02266237,0.00042637,0.00232912,0.00305457,0.00027
 257,-0.00624052,0.00041863,-0.00028717,0.00272644,-0.00119438,-0.00003
 752,0.00028330,-0.00029830,0.00002760,-0.00019140,-0.00020248,0.000042
 76,0.00006912,0.00030467,0.00000386,0.16762327,-0.07016279,-0.00157286
 ,-0.17656213,0.04946479,-0.00011924,-0.00050167,0.00332264,0.00077744,
 0.00043669,0.01636164,0.00015117,0.00025942,-0.00081525,-0.00041851,-0
 .00029132,0.00456462,0.00018162,-0.00003303,-0.00060453,0.00001941,0.0
 0002798,-0.00071544,-0.00001183,0.00004420,-0.00084881,0.00000514,0.00
 000363,0.00024446,0.01125105,-0.00157128,-0.04654949,-0.01183625,0.001
 62538,0.02504016\\-0.00000121,-0.00000062,0.00001107,-0.00000395,0.000
 00113,-0.00000250,0.00000128,0.00000076,-0.00000101,0.00000132,-0.0000
 0093,-0.00001090,0.00000005,-0.00000004,0.00001209,-0.00000018,0.00000
 047,0.00000864,0.00000072,0.00000071,-0.00000172,-0.00000124,-0.000001
 63,0.00000766,0.00001220,0.00001161,-0.00000821,-0.00000899,-0.0000114
 7,-0.00001512\\\@
 The archive entry for this job was punched.


 A DANDELION FROM A LOVER MEANS MORE THAN AN ORCHID FROM A FRIEND.
 Job cpu time:       0 days  0 hours 13 minutes 28.6 seconds.
 Elapsed time:       0 days  0 hours  7 minutes 26.7 seconds.
 File lengths (MBytes):  RWF=     84 Int=      0 D2E=      0 Chk=     12 Scr=      1
 Normal termination of Gaussian 16 at Fri Jun  2 11:23:26 2023.
