 Entering Gaussian System, Link 0=g16
 Input=123triz-H_dissociation-site_index-3-freq.gjf
 Output=123triz-H_dissociation-site_index-3-freq.log
 Initial command:
 /software/commercial/gaussian/g16/AVX/g16/l1.exe "/scratch1/svicchi/G09-659758.pbs02/Gau-3272263.inp" -scrdir="/scratch1/svicchi/G09-659758.pbs02/"
 Entering Link 1 = /software/commercial/gaussian/g16/AVX/g16/l1.exe PID=   3272264.
  
 Copyright (c) 1988-2019, Gaussian, Inc.  All Rights Reserved.
  
 This is part of the Gaussian(R) 16 program.  It is based on
 the Gaussian(R) 09 system (copyright 2009, Gaussian, Inc.),
 the Gaussian(R) 03 system (copyright 2003, Gaussian, Inc.),
 the Gaussian(R) 98 system (copyright 1998, Gaussian, Inc.),
 the Gaussian(R) 94 system (copyright 1995, Gaussian, Inc.),
 the Gaussian 92(TM) system (copyright 1992, Gaussian, Inc.),
 the Gaussian 90(TM) system (copyright 1990, Gaussian, Inc.),
 the Gaussian 88(TM) system (copyright 1988, Gaussian, Inc.),
 the Gaussian 86(TM) system (copyright 1986, Carnegie Mellon
 University), and the Gaussian 82(TM) system (copyright 1983,
 Carnegie Mellon University). Gaussian is a federally registered
 trademark of Gaussian, Inc.
  
 This software contains proprietary and confidential information,
 including trade secrets, belonging to Gaussian, Inc.
  
 This software is provided under written license and may be
 used, copied, transmitted, or stored only in accord with that
 written license.
  
 The following legend is applicable only to US Government
 contracts under FAR:
  
                    RESTRICTED RIGHTS LEGEND
  
 Use, reproduction and disclosure by the US Government is
 subject to restrictions as set forth in subparagraphs (a)
 and (c) of the Commercial Computer Software - Restricted
 Rights clause in FAR 52.227-19.
  
 Gaussian, Inc.
 340 Quinnipiac St., Bldg. 40, Wallingford CT 06492
  
  
 ---------------------------------------------------------------
 Warning -- This program may not be used in any manner that
 competes with the business of Gaussian, Inc. or will provide
 assistance to any competitor of Gaussian, Inc.  The licensee
 of this program is prohibited from giving any competitor of
 Gaussian, Inc. access to this program.  By using this program,
 the user acknowledges that Gaussian, Inc. is engaged in the
 business of creating and licensing software in the field of
 computational chemistry and represents and warrants to the
 licensee that it is not a competitor of Gaussian, Inc. and that
 it will not use this program in any manner prohibited above.
 ---------------------------------------------------------------
  

 Cite this work as:
 Gaussian 16, Revision C.01,
 M. J. Frisch, G. W. Trucks, H. B. Schlegel, G. E. Scuseria, 
 M. A. Robb, J. R. Cheeseman, G. Scalmani, V. Barone, 
 G. A. Petersson, H. Nakatsuji, X. Li, M. Caricato, A. V. Marenich, 
 J. Bloino, B. G. Janesko, R. Gomperts, B. Mennucci, H. P. Hratchian, 
 J. V. Ortiz, A. F. Izmaylov, J. L. Sonnenberg, D. Williams-Young, 
 F. Ding, F. Lipparini, F. Egidi, J. Goings, B. Peng, A. Petrone, 
 T. Henderson, D. Ranasinghe, V. G. Zakrzewski, J. Gao, N. Rega, 
 G. Zheng, W. Liang, M. Hada, M. Ehara, K. Toyota, R. Fukuda, 
 J. Hasegawa, M. Ishida, T. Nakajima, Y. Honda, O. Kitao, H. Nakai, 
 T. Vreven, K. Throssell, J. A. Montgomery, Jr., J. E. Peralta, 
 F. Ogliaro, M. J. Bearpark, J. J. Heyd, E. N. Brothers, K. N. Kudin, 
 V. N. Staroverov, T. A. Keith, R. Kobayashi, J. Normand, 
 K. Raghavachari, A. P. Rendell, J. C. Burant, S. S. Iyengar, 
 J. Tomasi, M. Cossi, J. M. Millam, M. Klene, C. Adamo, R. Cammi, 
 J. W. Ochterski, R. L. Martin, K. Morokuma, O. Farkas, 
 J. B. Foresman, and D. J. Fox, Gaussian, Inc., Wallingford CT, 2019.
 
 ******************************************
 Gaussian 16:  ES64L-G16RevC.01  3-Jul-2019
                 2-Jun-2023 
 ******************************************
 %NProcShared=2
 Will use up to    2 processors via shared memory.
 %mem=55gb
 %chk=/scratch1/svicchi/G09-659758.pbs02/02-freq/123triz-H_dissociation-site_inde
 x-3-freq.chk
 ----------------------------------------------------------------------
 #p freq=raman scale=0.967 pop=(nbo,full,hirshfeld) guess=read geom=all
 check b3lyp/6-311+G(d,p) int=grid=ultrafine EmpiricalDispersion=GD3BJ 
 SCRF=(Solvent=ethanol) scf=(xqc,intrep,maxconventionalcycle=350) nosym
 m
 ----------------------------------------------------------------------
 1/10=4,29=7,30=1,38=1,114=967000/1,3;
 2/12=2,15=1,40=1/2;
 3/5=4,6=6,7=111,11=2,14=-4,25=1,30=1,70=2201,71=2,72=4,74=-5,75=-5,116=-2,124=41,140=1/1,2,3;
 4/5=1/1;
 5/5=2,8=3,13=1,17=20,38=6,53=4,85=350,98=1/2,8;
 8/6=4,10=90,11=11/1;
 10/13=10,15=4,31=1/2;
 11/6=3,8=1,9=11,15=111,16=1,31=1/1,2,10;
 10/6=1,31=1/2;
 6/7=3,28=1,40=1,79=1/1,7;
 7/8=1,10=1,25=1,30=1/1,2,3,16;
 1/10=4,30=1/3;
 99//99;
 Leave Link    1 at Fri Jun  2 11:06:46 2023, MaxMem=  7381975040 cpu:               1.4 elap:               1.6
 (Enter /software/commercial/gaussian/g16/AVX/g16/l101.exe)
 Structure from the checkpoint file:  "/scratch1/svicchi/G09-659758.pbs02/02-freq/123triz-H_dissociation-site_index-3-freq.chk"
 ---------------------------------------
 123triz-H_dissociation-site_index-3.gjf
 ---------------------------------------
 Charge =  0 Multiplicity = 1
 No Z-Matrix found in chk file; cartesian coordinates used.
  C                                                -3.658778251356      0.604195320047      0.000000000000
  C                                                -3.736925766919     -0.797770561253     -0.000000000000
  N                                                -2.370494296220      0.956688748027      0.000000000000
  N                                                -1.731898380491     -0.206356683339     -0.000000000000
  N                                                -2.495764075445     -1.291265539866     -0.000000000000
  H                                                -4.442255754433      1.343868961887     -0.000000000000
  H                                                -4.597766430471     -1.445749567649      0.000000000000
  H                                                -0.723315044666     -0.262385677854      0.000000000000
 Recover connectivity data from disk.
 ITRead=  0  0  0  0  0  0  0  0
 MicOpt= -1 -1 -1 -1 -1 -1 -1 -1
 NAtoms=      8 NQM=        8 NQMF=       0 NMMI=      0 NMMIF=      0
                NMic=       0 NMicF=      0.
                    Isotopes and Nuclear Properties:
 (Nuclear quadrupole moments (NQMom) in fm**2, nuclear magnetic moments (NMagM)
  in nuclear magnetons)

  Atom         1           2           3           4           5           6           7           8
 IAtWgt=          12          12          14          14          14           1           1           1
 AtmWgt=  12.0000000  12.0000000  14.0030740  14.0030740  14.0030740   1.0078250   1.0078250   1.0078250
 NucSpn=           0           0           2           2           2           1           1           1
 AtZEff=   3.6000000   3.6000000   4.5500000   4.5500000   4.5500000   1.0000000   1.0000000   1.0000000
 NQMom=    0.0000000   0.0000000   2.0440000   2.0440000   2.0440000   0.0000000   0.0000000   0.0000000
 NMagM=    0.0000000   0.0000000   0.4037610   0.4037610   0.4037610   2.7928460   2.7928460   2.7928460
 AtZNuc=   6.0000000   6.0000000   7.0000000   7.0000000   7.0000000   1.0000000   1.0000000   1.0000000
 Leave Link  101 at Fri Jun  2 11:06:48 2023, MaxMem=  7381975040 cpu:               0.3 elap:               0.7
 (Enter /software/commercial/gaussian/g16/AVX/g16/l103.exe)

 GradGradGradGradGradGradGradGradGradGradGradGradGradGradGradGradGradGrad
 Berny optimization.
 Initialization pass.
 Trust Radius=3.00D-01 FncErr=1.00D-07 GrdErr=1.00D-07 EigMax=2.50D+02 EigMin=1.00D-04
 Number of steps in this run=      2 maximum allowed number of steps=      2.
 GradGradGradGradGradGradGradGradGradGradGradGradGradGradGradGradGradGrad

 Leave Link  103 at Fri Jun  2 11:06:50 2023, MaxMem=  7381975040 cpu:               0.2 elap:               1.0
 (Enter /software/commercial/gaussian/g16/AVX/g16/l202.exe)
                          Input orientation:                          
 ---------------------------------------------------------------------
 Center     Atomic      Atomic             Coordinates (Angstroms)
 Number     Number       Type             X           Y           Z
 ---------------------------------------------------------------------
      1          6           0       -3.658778    0.604195    0.000000
      2          6           0       -3.736926   -0.797771   -0.000000
      3          7           0       -2.370494    0.956689    0.000000
      4          7           0       -1.731898   -0.206357   -0.000000
      5          7           0       -2.495764   -1.291266   -0.000000
      6          1           0       -4.442256    1.343869   -0.000000
      7          1           0       -4.597766   -1.445750    0.000000
      8          1           0       -0.723315   -0.262386    0.000000
 ---------------------------------------------------------------------
                    Distance matrix (angstroms):
                    1          2          3          4          5
     1  C    0.000000
     2  C    1.404142   0.000000
     3  N    1.335637   2.223795   0.000000
     4  N    2.090421   2.090432   1.326831   0.000000
     5  N    2.223820   1.335672   2.251442   1.326845   0.000000
     6  H    1.077476   2.254797   2.107630   3.122377   3.276090
     7  H    2.254767   1.077462   3.276042   3.122386   2.107672
     8  H    3.060704   3.060798   2.049230   1.010138   2.049431
                    6          7          8
     6  H    0.000000
     7  H    2.793950   0.000000
     8  H    4.050997   4.051139   0.000000
 Symmetry turned off by external request.
 Stoichiometry    C2H3N3
 Framework group  CS[SG(C2H3N3)]
 Deg. of freedom    13
 Full point group                 CS      NOp   2
 Rotational constants (GHZ):          10.2143039           9.8602766           5.0170843
 Leave Link  202 at Fri Jun  2 11:06:52 2023, MaxMem=  7381975040 cpu:               0.0 elap:               0.7
 (Enter /software/commercial/gaussian/g16/AVX/g16/l301.exe)
 Standard basis: 6-311+G(d,p) (5D, 7F)
 Ernie: Thresh=  0.10000D-02 Tol=  0.10000D-05 Strict=F.
   128 basis functions,   204 primitive gaussians,   133 cartesian basis functions
    18 alpha electrons       18 beta electrons
       nuclear repulsion energy       165.3684980131 Hartrees.
 IExCor=  402 DFT=T Ex+Corr=B3LYP ExCW=0 ScaHFX=  0.200000
 ScaDFX=  0.800000  0.720000  1.000000  0.810000 ScalE2=  1.000000  1.000000
 IRadAn=      5 IRanWt=     -1 IRanGd=            0 ICorTp=0 IEmpDi=141
 NAtoms=    8 NActive=    8 NUniq=    8 SFac= 1.00D+00 NAtFMM=   60 NAOKFM=F Big=F
 Integral buffers will be    131072 words long.
 Raffenetti 2 integral format.
 Two-electron integral symmetry is turned off.
 R6Disp:  Grimme-D3(BJ) Dispersion energy=       -0.0099595970 Hartrees.
 Nuclear repulsion after empirical dispersion term =      165.3585384160 Hartrees.
 Force inversion solution in PCM.
 ------------------------------------------------------------------------------
 Polarizable Continuum Model (PCM)
 =================================
 Model                : PCM.
 Atomic radii         : UFF (Universal Force Field).
 Polarization charges : Total charges.
 Charge compensation  : None.
 Solution method      : Matrix inversion.
 Cavity type          : Scaled VdW (van der Waals Surface) (Alpha=1.100).
 Cavity algorithm     : GePol (No added spheres)
                        Default sphere list used, NSphG=    8.
                        Lebedev-Laikov grids with approx.  5.0 points / Ang**2.
                        Smoothing algorithm: York/Karplus (Gamma=1.0000).
                        Polarization charges: spherical gaussians, with
                                              point-specific exponents (IZeta= 3).
                        Self-potential: point-specific (ISelfS= 7).
                        Self-field    : sphere-specific E.n sum rule (ISelfD= 2).
 1st derivatives      : Analytical E(r).r(x)/FMM algorithm (CHGder, D1EAlg=3).
                        Cavity 1st derivative terms included.
 2nd derivatives      : Analytical E(r).r(xy)/FMM algorithm (CHGder, D2EAlg=3).
                        Cavity 2nd derivative terms included.
 Solvent              : Ethanol, Eps=  24.852000 Eps(inf)=   1.852593
 ------------------------------------------------------------------------------
 Spheres list:
 ISph  on   Nord     Re0    Alpha      Xe            Ye            Ze
    1   C      1    1.9255  1.100     -3.658778      0.604195      0.000000
    2   C      2    1.9255  1.100     -3.736926     -0.797771     -0.000000
    3   N      3    1.8300  1.100     -2.370494      0.956689      0.000000
    4   N      4    1.8300  1.100     -1.731898     -0.206357     -0.000000
    5   N      5    1.8300  1.100     -2.495764     -1.291266     -0.000000
    6   H      6    1.4430  1.100     -4.442256      1.343869     -0.000000
    7   H      7    1.4430  1.100     -4.597766     -1.445750      0.000000
    8   H      8    1.4430  1.100     -0.723315     -0.262386      0.000000
 ------------------------------------------------------------------------------
 GePol: Number of generator spheres                  =       8
 GePol: Total number of spheres                      =       8
 GePol: Number of exposed spheres                    =       8 (100.00%)
 GePol: Number of points                             =     840
 GePol: Average weight of points                     =       0.13
 GePol: Minimum weight of points                     =   0.14D-07
 GePol: Maximum weight of points                     =    0.20577
 GePol: Number of points with low weight             =      33
 GePol: Fraction of low-weight points (<1% of avg)   =       3.93%
 GePol: Cavity surface area                          =    113.361 Ang**2
 GePol: Cavity volume                                =    100.740 Ang**3
 Leave Link  301 at Fri Jun  2 11:06:54 2023, MaxMem=  7381975040 cpu:               0.4 elap:               0.9
 (Enter /software/commercial/gaussian/g16/AVX/g16/l302.exe)
 NPDir=0 NMtPBC=     1 NCelOv=     1 NCel=       1 NClECP=     1 NCelD=      1
         NCelK=      1 NCelE2=     1 NClLst=     1 CellRange=     0.0.
 One-electron integrals computed using PRISM.
 NBasis=   128 RedAO= T EigKep=  6.53D-05  NBF=   128
 NBsUse=   128 1.00D-06 EigRej= -1.00D+00 NBFU=   128
 Precomputing XC quadrature grid using
 IXCGrd= 4 IRadAn=           5 IRanWt=          -1 IRanGd=           0 AccXCQ= 0.00D+00.
 Generated NRdTot=       0 NPtTot=           0 NUsed=           0 NTot=          32
 NSgBfM=   133   133   133   133   133 MxSgAt=     8 MxSgA2=     8.
 Leave Link  302 at Fri Jun  2 11:06:57 2023, MaxMem=  7381975040 cpu:               0.5 elap:               1.0
 (Enter /software/commercial/gaussian/g16/AVX/g16/l303.exe)
 DipDrv:  MaxL=1.
 Leave Link  303 at Fri Jun  2 11:06:59 2023, MaxMem=  7381975040 cpu:               0.1 elap:               1.0
 (Enter /software/commercial/gaussian/g16/AVX/g16/l401.exe)
 Initial guess from the checkpoint file:  "/scratch1/svicchi/G09-659758.pbs02/02-freq/123triz-H_dissociation-site_index-3-freq.chk"
 B after Tr=     0.000000    0.000000    0.000000
         Rot=    1.000000    0.000000    0.000000    0.000000 Ang=   0.00 deg.
 Guess basis will be translated and rotated to current coordinates.
 JPrj=2 DoOrth=T DoCkMO=T.
 Leave Link  401 at Fri Jun  2 11:07:01 2023, MaxMem=  7381975040 cpu:               0.9 elap:               1.3
 (Enter /software/commercial/gaussian/g16/AVX/g16/l502.exe)
 Keep R1 ints in memory in canonical form, NReq=36005155.
 FoFCou: FMM=F IPFlag=           0 FMFlag=           0 FMFlg1=           0
         NFxFlg=           0 DoJE=F BraDBF=F KetDBF=F FulRan=T
         wScrn=  0.000000 ICntrl=       600 IOpCl=  0 I1Cent=           0 NGrid=           0
         NMat0=    1 NMatS0=   8256 NMatT0=    0 NMatD0=    1 NMtDS0=    0 NMtDT0=    0
 Symmetry not used in FoFCou.
 Two-electron integral symmetry not used.
 Closed shell SCF:
 Using DIIS extrapolation, IDIIS=  1040.
 NGot=  7381975040 LenX=  7347852721 LenY=  7347834591
 Requested convergence on RMS density matrix=1.00D-08 within 350 cycles.
 Requested convergence on MAX density matrix=1.00D-06.
 Requested convergence on             energy=1.00D-06.
 No special actions if energy rises.

 Cycle   1  Pass 1  IDiag  1:
 Inv3:  Mode=1 IEnd=     2116800.
 Iteration    1 A*A^-1 deviation from unit magnitude is 3.55D-15 for    825.
 Iteration    1 A*A^-1 deviation from orthogonality  is 1.44D-15 for    803    590.
 Iteration    1 A^-1*A deviation from unit magnitude is 3.55D-15 for    825.
 Iteration    1 A^-1*A deviation from orthogonality  is 9.79D-16 for    680    118.
 E= -242.317711631319    
 DIIS: error= 1.84D-08 at cycle   1 NSaved=   1.
 NSaved= 1 IEnMin= 1 EnMin= -242.317711631319     IErMin= 1 ErrMin= 1.84D-08
 ErrMax= 1.84D-08  0.00D+00 EMaxC= 1.00D-01 BMatC= 2.96D-14 BMatP= 2.96D-14
 IDIUse=1 WtCom= 1.00D+00 WtEn= 0.00D+00
 Coeff-Com:  0.100D+01
 Coeff:      0.100D+01
 Gap=     0.261 Goal=   None    Shift=    0.000
 RMSDP=3.16D-09 MaxDP=7.23D-08              OVMax= 1.66D-07

 Error on total polarization charges =  0.01063
 SCF Done:  E(RB3LYP) =  -242.317711631     A.U. after    1 cycles
            NFock=  1  Conv=0.32D-08     -V/T= 2.0039
 KE= 2.413834482174D+02 PE=-8.957986553211D+02 EE= 2.467389570564D+02
 Leave Link  502 at Fri Jun  2 11:07:08 2023, MaxMem=  7381975040 cpu:               8.0 elap:               5.6
 (Enter /software/commercial/gaussian/g16/AVX/g16/l508.exe)
 QCSCF skips out because SCF is already converged.
 Leave Link  508 at Fri Jun  2 11:07:10 2023, MaxMem=  7381975040 cpu:               0.0 elap:               0.6
 (Enter /software/commercial/gaussian/g16/AVX/g16/l801.exe)
 DoSCS=F DFT=T ScalE2(SS,OS)=  1.000000  1.000000
 Range of M.O.s used for correlation:     1   128
 NBasis=   128 NAE=    18 NBE=    18 NFC=     0 NFV=     0
 NROrb=    128 NOA=    18 NOB=    18 NVA=   110 NVB=   110

 **** Warning!!: The largest alpha MO coefficient is  0.48785301D+02

 Leave Link  801 at Fri Jun  2 11:07:13 2023, MaxMem=  7381975040 cpu:               0.1 elap:               1.2
 (Enter /software/commercial/gaussian/g16/AVX/g16/l1002.exe)
 Minotr:  Closed shell wavefunction.
 NEqPCM:  Using equilibrium solvation (IEInf=0, Eps=  24.8520, EpsInf=   1.8526)
          Direct CPHF calculation.
          Differentiating once with respect to electric field.
                with respect to dipole field.
          Electric field/nuclear overlap derivatives assumed to be zero.
          Requested convergence is 1.0D-08 RMS, and 1.0D-07 maximum.
          Secondary convergence is 1.0D-12 RMS, and 1.0D-12 maximum.
          NewPWx=F KeepS1=T KeepF1=T KeepIn=T MapXYZ=F SortEE=F KeepMc=T.
         2427 words used for storage of precomputed grid.
 Keep R1 ints in memory in canonical form, NReq=37179182.
 FoFCou: FMM=F IPFlag=           0 FMFlag=           0 FMFlg1=           0
         NFxFlg=           0 DoJE=F BraDBF=F KetDBF=F FulRan=T
         wScrn=  0.000000 ICntrl=       600 IOpCl=  0 I1Cent=           0 NGrid=           0
         NMat0=    1 NMatS0=   8256 NMatT0=    0 NMatD0=    1 NMtDS0=    0 NMtDT0=    0
 Symmetry not used in FoFCou.
 Two-electron integral symmetry not used.
          MDV=    7381975040 using IRadAn=       1.
          Solving linear equations simultaneously, MaxMat=       0.
          There are     3 degrees of freedom in the 1st order CPHF.  IDoFFX=0 NUNeed=     3.
      3 vectors produced by pass  0 Test12= 6.60D-14 3.33D-08 XBig12= 5.14D+01 5.02D+00.
 AX will form     3 AO Fock derivatives at one time.
      3 vectors produced by pass  1 Test12= 6.60D-14 3.33D-08 XBig12= 3.29D+01 2.26D+00.
      3 vectors produced by pass  2 Test12= 6.60D-14 3.33D-08 XBig12= 4.08D+00 9.10D-01.
      3 vectors produced by pass  3 Test12= 6.60D-14 3.33D-08 XBig12= 1.43D+00 3.65D-01.
      3 vectors produced by pass  4 Test12= 6.60D-14 3.33D-08 XBig12= 5.59D-02 6.31D-02.
      3 vectors produced by pass  5 Test12= 6.60D-14 3.33D-08 XBig12= 4.15D-03 1.67D-02.
      3 vectors produced by pass  6 Test12= 6.60D-14 3.33D-08 XBig12= 7.38D-04 8.47D-03.
      3 vectors produced by pass  7 Test12= 6.60D-14 3.33D-08 XBig12= 2.35D-05 1.27D-03.
      3 vectors produced by pass  8 Test12= 6.60D-14 3.33D-08 XBig12= 1.07D-06 3.20D-04.
      2 vectors produced by pass  9 Test12= 6.60D-14 3.33D-08 XBig12= 3.15D-08 6.60D-05.
      2 vectors produced by pass 10 Test12= 6.60D-14 3.33D-08 XBig12= 7.14D-10 4.06D-06.
      1 vectors produced by pass 11 Test12= 6.60D-14 3.33D-08 XBig12= 6.60D-12 4.73D-07.
      1 vectors produced by pass 12 Test12= 6.60D-14 3.33D-08 XBig12= 3.61D-14 3.66D-08.
 InvSVY:  IOpt=1 It=  1 EMax= 8.88D-16
 Solved reduced A of dimension    33 with     3 vectors.
 End of Minotr F.D. properties file   721 does not exist.
 End of Minotr F.D. properties file   722 does not exist.
 End of Minotr F.D. properties file   788 does not exist.
 Leave Link 1002 at Fri Jun  2 11:07:39 2023, MaxMem=  7381975040 cpu:              42.2 elap:              24.5
 (Enter /software/commercial/gaussian/g16/AVX/g16/l1101.exe)
 Using compressed storage, NAtomX=     8.
 Will process      9 centers per pass.
 R6Disp: Adding Grimme-D3(BJ) dispersion energy 1st derivatives to the gradient.
 Leave Link 1101 at Fri Jun  2 11:07:41 2023, MaxMem=  7381975040 cpu:               0.5 elap:               1.6
 (Enter /software/commercial/gaussian/g16/AVX/g16/l1102.exe)
 Symmetrizing basis deriv contribution to polar:
 IMax=3 JMax=2 DiffMx= 0.00D+00
 Leave Link 1102 at Fri Jun  2 11:07:43 2023, MaxMem=  7381975040 cpu:               0.1 elap:               0.9
 (Enter /software/commercial/gaussian/g16/AVX/g16/l1110.exe)
 Forming Gx(P) for the SCF density, NAtomX=     8.
 Integral derivatives from FoFJK, PRISM(SPDF).
 Do as many integral derivatives as possible in FoFJK.
 G2DrvN: MDV=    7381974096.
 G2DrvN: will do     9 centers at a time, making    1 passes.
 PxScal for G2LodP:  IOpCl= 0 ISclPx=1 IMOff=     1 NMtTot=     4 NTT=    8256 ScalPx= 9.33D+00
 Calling FoFCou, ICntrl=  3107 FMM=F I1Cent=   0 AccDes= 0.00D+00.
 FoFJK:  IHMeth= 1 ICntrl=    3107 DoSepK=F KAlg= 0 I1Cent=           0 FoldK=F
 IRaf=         0 NMat=       1 IRICut=       1 DoRegI=T DoRafI=F ISym2E= 0 IDoP0=0 IntGTp=1.
 FoFCou: FMM=F IPFlag=           0 FMFlag=      100000 FMFlg1=           0
         NFxFlg=           0 DoJE=F BraDBF=F KetDBF=F FulRan=T
         wScrn=  0.000000 ICntrl=      3107 IOpCl=  0 I1Cent=           0 NGrid=           0
         NMat0=    1 NMatS0=      1 NMatT0=    0 NMatD0=    4 NMtDS0=    3 NMtDT0=    0
 Symmetry not used in FoFCou.
 PxScal for G2LodP:  IOpCl= 0 ISclPx=0 IMOff=     1 NMtTot=     4 NTT=    8256 ScalPx= 1.00D+00
 NEqPCM:  Using equilibrium solvation (IEInf=0, Eps=  24.8520, EpsInf=   1.8526)
 G2PCM: DoFxE=T DoFxN=T DoGrad=T DoDP/DQ/DG/TGxP=TFFF NFrqRd=   0 IEInf=0 SqF1=F DoCFld=F IF1Alg=4.
 GePol: Maximum number of non-zero 1st derivatives   =     198
 End of G2Drv F.D. properties file   721 does not exist.
 End of G2Drv F.D. properties file   722 does not exist.
 End of G2Drv F.D. properties file   788 does not exist.
 Leave Link 1110 at Fri Jun  2 11:08:43 2023, MaxMem=  7381975040 cpu:             112.5 elap:              58.5
 (Enter /software/commercial/gaussian/g16/AVX/g16/l1002.exe)
 Minotr:  Closed shell wavefunction.
          IDoAtm=11111111
 NEqPCM:  Using equilibrium solvation (IEInf=0, Eps=  24.8520, EpsInf=   1.8526)
          Direct CPHF calculation.
          Differentiating once with respect to electric field.
                with respect to dipole field.
          Differentiating once with respect to nuclear coordinates.
          Requested convergence is 1.0D-08 RMS, and 1.0D-07 maximum.
          Secondary convergence is 1.0D-12 RMS, and 1.0D-12 maximum.
          NewPWx=T KeepS1=F KeepF1=F KeepIn=T MapXYZ=F SortEE=F KeepMc=T.
         2427 words used for storage of precomputed grid.
 Keep R1 ints in memory in canonical form, NReq=37179366.
 FoFCou: FMM=F IPFlag=           0 FMFlag=           0 FMFlg1=           0
         NFxFlg=           0 DoJE=F BraDBF=F KetDBF=F FulRan=T
         wScrn=  0.000000 ICntrl=       600 IOpCl=  0 I1Cent=           0 NGrid=           0
         NMat0=    1 NMatS0=   8256 NMatT0=    0 NMatD0=    1 NMtDS0=    0 NMtDT0=    0
 Symmetry not used in FoFCou.
 Two-electron integral symmetry not used.
          MDV=    7381975040 using IRadAn=       1.
          Solving linear equations simultaneously, MaxMat=       0.
          There are    27 degrees of freedom in the 1st order CPHF.  IDoFFX=5 NUNeed=    27.
 Will reuse    3 saved solutions.
     21 vectors produced by pass  0 Test12= 7.33D-15 3.70D-09 XBig12= 1.18D-01 1.34D-01.
 AX will form    21 AO Fock derivatives at one time.
     21 vectors produced by pass  1 Test12= 7.33D-15 3.70D-09 XBig12= 5.83D-02 1.33D-01.
     21 vectors produced by pass  2 Test12= 7.33D-15 3.70D-09 XBig12= 5.48D-04 4.37D-03.
     21 vectors produced by pass  3 Test12= 7.33D-15 3.70D-09 XBig12= 3.39D-06 3.39D-04.
     21 vectors produced by pass  4 Test12= 7.33D-15 3.70D-09 XBig12= 2.20D-08 3.26D-05.
     21 vectors produced by pass  5 Test12= 7.33D-15 3.70D-09 XBig12= 7.41D-11 1.58D-06.
      9 vectors produced by pass  6 Test12= 7.33D-15 3.70D-09 XBig12= 1.22D-13 6.43D-08.
 InvSVY:  IOpt=1 It=  1 EMax= 1.11D-15
 Solved reduced A of dimension   135 with    21 vectors.
 FullF1:  Do perturbations      1 to       3.
 Isotropic polarizability for W=    0.000000       53.11 Bohr**3.
 FullF1:  Do perturbations      1 to       6.
 End of Minotr F.D. properties file   721 does not exist.
 End of Minotr F.D. properties file   722 does not exist.
 End of Minotr F.D. properties file   788 does not exist.
 Leave Link 1002 at Fri Jun  2 11:09:52 2023, MaxMem=  7381975040 cpu:             112.7 elap:              66.7
 (Enter /software/commercial/gaussian/g16/AVX/g16/l601.exe)
 Copying SCF densities to generalized density rwf, IOpCl= 0 IROHF=0.

 **********************************************************************

            Population analysis using the SCF Density.

 **********************************************************************

 Alpha  occ. eigenvalues --  -14.43328 -14.36578 -14.36574 -10.21283 -10.21233
 Alpha  occ. eigenvalues --   -1.12356  -0.90986  -0.84043  -0.64926  -0.64277
 Alpha  occ. eigenvalues --   -0.55834  -0.48819  -0.46824  -0.46089  -0.34828
 Alpha  occ. eigenvalues --   -0.31914  -0.31053  -0.28999
 Alpha virt. eigenvalues --   -0.02905   0.01130   0.02689   0.03429   0.03679
 Alpha virt. eigenvalues --    0.05435   0.05827   0.06786   0.08068   0.10387
 Alpha virt. eigenvalues --    0.12437   0.13288   0.15278   0.15840   0.18003
 Alpha virt. eigenvalues --    0.19046   0.19478   0.19606   0.20090   0.20093
 Alpha virt. eigenvalues --    0.20132   0.23660   0.24160   0.24419   0.29066
 Alpha virt. eigenvalues --    0.29094   0.32844   0.34038   0.40763   0.44643
 Alpha virt. eigenvalues --    0.47789   0.52924   0.55215   0.57138   0.59447
 Alpha virt. eigenvalues --    0.60047   0.70141   0.72151   0.74929   0.76787
 Alpha virt. eigenvalues --    0.80889   0.81305   0.82362   0.83549   0.84071
 Alpha virt. eigenvalues --    0.84649   0.85688   0.93128   0.98068   1.00274
 Alpha virt. eigenvalues --    1.02562   1.09264   1.18456   1.23560   1.24315
 Alpha virt. eigenvalues --    1.28128   1.31722   1.37333   1.51682   1.52554
 Alpha virt. eigenvalues --    1.66165   1.67999   1.70512   1.73250   1.75329
 Alpha virt. eigenvalues --    1.78846   1.83738   1.98061   2.01438   2.01450
 Alpha virt. eigenvalues --    2.08190   2.20075   2.23241   2.28118   2.34718
 Alpha virt. eigenvalues --    2.35850   2.43074   2.56811   2.59513   2.64393
 Alpha virt. eigenvalues --    2.65578   2.67201   2.71126   2.72751   2.75641
 Alpha virt. eigenvalues --    2.76166   2.82696   2.92097   3.01495   3.06098
 Alpha virt. eigenvalues --    3.17977   3.24242   3.30705   3.55124   3.62099
 Alpha virt. eigenvalues --    3.66961   3.88361   3.94858   3.96595   4.08601
 Alpha virt. eigenvalues --    4.13444   4.57320   4.63433   5.02771   5.58171
 Alpha virt. eigenvalues --   23.82148  24.06524  35.40904  35.50801  35.60406
     Molecular Orbital Coefficients:
                           1         2         3         4         5
                           O         O         O         O         O
     Eigenvalues --   -14.43328 -14.36578 -14.36574 -10.21283 -10.21233
   1 1   C  1S         -0.00001  -0.00001  -0.00000   0.39641   0.39961
   2        2S          0.00004  -0.00000   0.00008   0.32634   0.32872
   3        2PX         0.00000  -0.00031   0.00036   0.00016   0.00030
   4        2PY         0.00005  -0.00022   0.00012  -0.00041   0.00071
   5        2PZ         0.00000   0.00000  -0.00000   0.00000   0.00000
   6        3S         -0.00050  -0.00022   0.00021   0.01372   0.01382
   7        3PX        -0.00028   0.00077  -0.00116   0.00028  -0.00040
   8        3PY        -0.00005   0.00140  -0.00012   0.00191  -0.00252
   9        3PZ        -0.00000   0.00000  -0.00000  -0.00000   0.00000
  10        4S         -0.00011  -0.00739   0.00359  -0.00626  -0.00986
  11        4PX         0.00041  -0.00553   0.00230  -0.00127  -0.00253
  12        4PY        -0.00048   0.00354  -0.00025   0.00075   0.00491
  13        4PZ        -0.00000  -0.00000   0.00000   0.00000   0.00000
  14        5S         -0.00137   0.02014  -0.00687  -0.00358  -0.01021
  15        5PX        -0.00055   0.00064  -0.00130  -0.00063   0.00004
  16        5PY        -0.00034  -0.00467   0.00132  -0.00015   0.00219
  17        5PZ        -0.00000  -0.00000   0.00000   0.00000   0.00000
  18        6D 0       -0.00017  -0.00008   0.00013  -0.00082  -0.00194
  19        6D+1       -0.00000  -0.00000   0.00000   0.00000   0.00000
  20        6D-1       -0.00000   0.00000   0.00000  -0.00000   0.00000
  21        6D+2       -0.00000   0.00110  -0.00076   0.00098  -0.00153
  22        6D-2       -0.00030   0.00012  -0.00070  -0.00061  -0.00086
  23 2   C  1S         -0.00001   0.00001  -0.00001   0.39953  -0.39649
  24        2S          0.00004   0.00003   0.00007   0.32890  -0.32616
  25        2PX        -0.00000   0.00039   0.00021   0.00020  -0.00021
  26        2PY        -0.00005  -0.00030  -0.00005   0.00038   0.00074
  27        2PZ         0.00000   0.00000  -0.00000  -0.00000   0.00000
  28        3S         -0.00050   0.00029   0.00011   0.01383  -0.01371
  29        3PX        -0.00028  -0.00101  -0.00080   0.00006   0.00011
  30        3PY         0.00008   0.00145  -0.00036  -0.00191  -0.00256
  31        3PZ        -0.00000  -0.00000  -0.00000   0.00000   0.00000
  32        4S         -0.00011   0.00821   0.00038  -0.00634   0.00981
  33        4PX         0.00046   0.00632  -0.00020  -0.00137   0.00305
  34        4PY         0.00044   0.00267  -0.00115  -0.00064   0.00460
  35        4PZ         0.00000   0.00000   0.00000  -0.00000  -0.00000
  36        5S         -0.00137  -0.02122   0.00164  -0.00366   0.01019
  37        5PX        -0.00051  -0.00163  -0.00087  -0.00061   0.00020
  38        5PY         0.00040  -0.00466   0.00073   0.00020   0.00218
  39        5PZ         0.00000   0.00000  -0.00000   0.00000  -0.00000
  40        6D 0       -0.00017   0.00013   0.00009  -0.00083   0.00193
  41        6D+1        0.00000   0.00000   0.00000  -0.00000  -0.00000
  42        6D-1        0.00000  -0.00000  -0.00000  -0.00000  -0.00000
  43        6D+2        0.00006  -0.00119  -0.00012   0.00108   0.00131
  44        6D-2        0.00029   0.00067   0.00064   0.00039  -0.00117
  45 3   N  1S          0.00108  -0.30655   0.46549  -0.00005  -0.00005
  46        2S          0.00094  -0.25615   0.38910  -0.00001  -0.00005
  47        2PX         0.00019   0.00017  -0.00025  -0.00039  -0.00027
  48        2PY        -0.00028   0.00091  -0.00147  -0.00015  -0.00019
  49        2PZ         0.00000  -0.00000   0.00000  -0.00000  -0.00000
  50        3S          0.00012  -0.00909   0.01279   0.00053   0.00048
  51        3PX        -0.00039   0.00054  -0.00080   0.00122   0.00046
  52        3PY         0.00051   0.00048  -0.00016   0.00057   0.00051
  53        3PZ        -0.00000   0.00000  -0.00000   0.00000   0.00000
  54        4S          0.00231   0.01102  -0.01222  -0.00442   0.00022
  55        4PX        -0.00014  -0.00082   0.00105   0.00083   0.00068
  56        4PY        -0.00159  -0.00232   0.00237   0.00088  -0.00088
  57        4PZ         0.00000  -0.00000   0.00000  -0.00000  -0.00000
  58        5S         -0.00838  -0.01463   0.01093   0.01964   0.01172
  59        5PX        -0.00063  -0.00164   0.00099  -0.00101   0.00046
  60        5PY         0.00307   0.00363  -0.00241  -0.00512  -0.00344
  61        5PZ         0.00000   0.00000  -0.00000  -0.00000  -0.00000
  62        6D 0        0.00030   0.00018  -0.00026   0.00059   0.00046
  63        6D+1        0.00000  -0.00000   0.00000   0.00000   0.00000
  64        6D-1       -0.00000   0.00000  -0.00000   0.00000   0.00000
  65        6D+2        0.00028  -0.00012   0.00031  -0.00060  -0.00018
  66        6D-2        0.00048   0.00000   0.00004  -0.00043  -0.00034
  67 4   N  1S          0.55737  -0.00031  -0.00153   0.00000   0.00000
  68        2S          0.46571  -0.00025  -0.00124   0.00004   0.00000
  69        2PX        -0.00030  -0.00008  -0.00026   0.00006  -0.00000
  70        2PY         0.00002  -0.00039   0.00010  -0.00000  -0.00005
  71        2PZ        -0.00000   0.00000   0.00000   0.00000   0.00000
  72        3S          0.01581  -0.00001  -0.00005  -0.00048  -0.00000
  73        3PX         0.00057   0.00017   0.00064  -0.00022   0.00001
  74        3PY        -0.00003   0.00072  -0.00018   0.00001   0.00024
  75        3PZ         0.00000  -0.00000   0.00000  -0.00000  -0.00000
  76        4S         -0.01068   0.00082   0.00400   0.00302   0.00001
  77        4PX         0.00469  -0.00068  -0.00241  -0.00341  -0.00009
  78        4PY        -0.00026  -0.00314   0.00079   0.00019  -0.00135
  79        4PZ        -0.00000   0.00000  -0.00000   0.00000   0.00000
  80        5S          0.01981  -0.00148  -0.00718  -0.02662  -0.00010
  81        5PX        -0.00641   0.00035  -0.00025   0.00538  -0.00020
  82        5PY         0.00036   0.00687  -0.00141  -0.00029  -0.00393
  83        5PZ        -0.00000   0.00000  -0.00000   0.00000   0.00000
  84        6D 0       -0.00071   0.00005   0.00023  -0.00009  -0.00000
  85        6D+1       -0.00000  -0.00000   0.00000   0.00000   0.00000
  86        6D-1       -0.00000   0.00000  -0.00000   0.00000   0.00000
  87        6D+2        0.00055   0.00001   0.00044   0.00019  -0.00001
  88        6D-2       -0.00006  -0.00069   0.00009  -0.00002  -0.00010
  89 5   N  1S          0.00108   0.46550   0.30655  -0.00005   0.00005
  90        2S          0.00094   0.38902   0.25628  -0.00001   0.00005
  91        2PX         0.00022  -0.00010  -0.00005  -0.00037   0.00025
  92        2PY         0.00026   0.00144   0.00100   0.00020  -0.00022
  93        2PZ        -0.00000  -0.00000  -0.00000  -0.00000   0.00000
  94        3S          0.00012   0.01341   0.00816   0.00054  -0.00048
  95        3PX        -0.00045  -0.00075  -0.00052   0.00115  -0.00039
  96        3PY        -0.00046   0.00059   0.00002  -0.00071   0.00056
  97        3PZ         0.00000   0.00000   0.00000  -0.00000  -0.00000
  98        4S          0.00231  -0.01495  -0.00687  -0.00441  -0.00025
  99        4PX         0.00004   0.00082   0.00050   0.00074  -0.00077
 100        4PY         0.00160  -0.00318  -0.00132  -0.00096  -0.00081
 101        4PZ        -0.00000  -0.00000   0.00000   0.00000   0.00000
 102        5S         -0.00838   0.01776   0.00426   0.01972  -0.01156
 103        5PX        -0.00097   0.00236   0.00034  -0.00043  -0.00084
 104        5PY        -0.00298   0.00405   0.00075   0.00522  -0.00332
 105        5PZ         0.00000  -0.00000   0.00000  -0.00000   0.00000
 106        6D 0        0.00030  -0.00027  -0.00017   0.00059  -0.00045
 107        6D+1       -0.00000   0.00000   0.00000   0.00000  -0.00000
 108        6D-1       -0.00000  -0.00000  -0.00000  -0.00000   0.00000
 109        6D+2        0.00017   0.00023   0.00022  -0.00050   0.00009
 110        6D-2       -0.00053  -0.00007  -0.00009   0.00055  -0.00036
 111 6   H  1S         -0.00011   0.00014  -0.00017   0.00004   0.00015
 112        2S          0.00006  -0.00116  -0.00063  -0.00346  -0.00361
 113        3S          0.00058  -0.00230   0.00084   0.00164   0.00074
 114        4PX        -0.00006   0.00009  -0.00045  -0.00138  -0.00144
 115        4PY         0.00009   0.00024   0.00014   0.00140   0.00096
 116        4PZ         0.00000  -0.00000  -0.00000  -0.00000  -0.00000
 117 7   H  1S         -0.00011  -0.00020  -0.00011   0.00004  -0.00015
 118        2S          0.00006   0.00082  -0.00104  -0.00348   0.00358
 119        3S          0.00058   0.00245  -0.00014   0.00165  -0.00073
 120        4PX        -0.00007  -0.00024  -0.00041  -0.00154   0.00153
 121        4PY        -0.00009   0.00020  -0.00018  -0.00124   0.00078
 122        4PZ        -0.00000  -0.00000   0.00000   0.00000  -0.00000
 123 8   H  1S          0.00015  -0.00004  -0.00017  -0.00014  -0.00000
 124        2S         -0.00397   0.00000   0.00002   0.00133   0.00001
 125        3S          0.00275   0.00024   0.00119   0.00097   0.00000
 126        4PX         0.00199   0.00007   0.00024  -0.00013   0.00001
 127        4PY        -0.00011   0.00032  -0.00008   0.00001   0.00011
 128        4PZ         0.00000  -0.00000   0.00000  -0.00000   0.00000
                           6         7         8         9        10
                           O         O         O         O         O
     Eigenvalues --    -1.12356  -0.90986  -0.84043  -0.64926  -0.64277
   1 1   C  1S         -0.02809   0.03290   0.06363  -0.05152  -0.05297
   2        2S         -0.04282   0.05051   0.09814  -0.08054  -0.08263
   3        2PX         0.03041  -0.04437  -0.02612  -0.07402   0.01381
   4        2PY        -0.00937  -0.02262   0.02093  -0.03818   0.05808
   5        2PZ         0.00000  -0.00000  -0.00000   0.00000   0.00000
   6        3S          0.10664  -0.13175  -0.25815   0.21909   0.22626
   7        3PX         0.04299  -0.06389  -0.03607  -0.10162   0.02149
   8        3PY        -0.01388  -0.03386   0.03127  -0.05617   0.07991
   9        3PZ         0.00000  -0.00000  -0.00000   0.00000   0.00000
  10        4S          0.04468  -0.03747  -0.13227   0.14851   0.17405
  11        4PX         0.00457   0.00541  -0.01152  -0.03406   0.01481
  12        4PY        -0.00002  -0.01178   0.00988  -0.01847   0.01314
  13        4PZ         0.00000  -0.00000  -0.00000   0.00000   0.00000
  14        5S          0.03152  -0.21084  -0.01654  -0.00871  -0.15536
  15        5PX         0.01208  -0.01162  -0.00337  -0.00715  -0.00335
  16        5PY        -0.00385   0.04834  -0.00105   0.01023   0.04850
  17        5PZ         0.00000  -0.00000   0.00000   0.00000   0.00000
  18        6D 0       -0.00911   0.00656   0.01138  -0.00234  -0.00562
  19        6D+1        0.00000  -0.00000  -0.00000  -0.00000   0.00000
  20        6D-1       -0.00000  -0.00000   0.00000  -0.00000   0.00000
  21        6D+2        0.00674  -0.01678   0.00196  -0.01532   0.00419
  22        6D-2       -0.00325  -0.00488   0.00066   0.00202   0.00412
  23 2   C  1S         -0.02809  -0.03290   0.06362  -0.05163   0.05286
  24        2S         -0.04282  -0.05051   0.09813  -0.08071   0.08248
  25        2PX         0.03126   0.04158  -0.02828  -0.06930  -0.00742
  26        2PY         0.00594  -0.02741  -0.01790   0.04605   0.05934
  27        2PZ         0.00000   0.00000   0.00000  -0.00000  -0.00000
  28        3S          0.10663   0.13174  -0.25814   0.21956  -0.22583
  29        3PX         0.04427   0.05973  -0.03932  -0.09472  -0.01268
  30        3PY         0.00902  -0.04075  -0.02707   0.06695   0.08193
  31        3PZ        -0.00000  -0.00000   0.00000   0.00000   0.00000
  32        4S          0.04471   0.03747  -0.13224   0.14888  -0.17375
  33        4PX         0.00456  -0.00668  -0.01253  -0.03175  -0.01332
  34        4PY        -0.00047  -0.01110  -0.00853   0.02213   0.01474
  35        4PZ        -0.00000   0.00000   0.00000  -0.00000  -0.00000
  36        5S          0.03153   0.21085  -0.01652  -0.00903   0.15534
  37        5PX         0.01244   0.01692  -0.00322  -0.00825   0.00870
  38        5PY         0.00248   0.04675   0.00142  -0.00947   0.04781
  39        5PZ        -0.00000  -0.00000  -0.00000   0.00000  -0.00000
  40        6D 0       -0.00911  -0.00657   0.01138  -0.00235   0.00561
  41        6D+1       -0.00000  -0.00000  -0.00000   0.00000  -0.00000
  42        6D-1       -0.00000   0.00000   0.00000   0.00000  -0.00000
  43        6D+2        0.00729   0.01529   0.00177  -0.01538  -0.00321
  44        6D-2        0.00168  -0.00847  -0.00108   0.00140   0.00495
  45 3   N  1S         -0.05555   0.07854   0.01762   0.03118   0.00753
  46        2S         -0.08685   0.12369   0.02771   0.04968   0.01202
  47        2PX        -0.00093   0.01585   0.07227   0.00875  -0.11284
  48        2PY        -0.05240   0.03992  -0.01062   0.02236   0.04837
  49        2PZ         0.00000  -0.00000   0.00000  -0.00000  -0.00000
  50        3S          0.23726  -0.34749  -0.07634  -0.14538  -0.03776
  51        3PX        -0.00009   0.02109   0.10870   0.01192  -0.16795
  52        3PY        -0.08231   0.06424  -0.01503   0.03508   0.07374
  53        3PZ        -0.00000  -0.00000  -0.00000  -0.00000  -0.00000
  54        4S          0.11839  -0.24832  -0.06507  -0.11661  -0.02768
  55        4PX        -0.00116   0.01171   0.03613   0.00610  -0.06926
  56        4PY        -0.01488   0.02743   0.00112   0.01346   0.02979
  57        4PZ         0.00000   0.00000   0.00000   0.00000   0.00000
  58        5S         -0.05450   0.11904   0.12812   0.03536   0.02206
  59        5PX         0.00605   0.00168  -0.01172  -0.00735   0.00840
  60        5PY         0.01064  -0.03291  -0.03376  -0.01183  -0.01668
  61        5PZ        -0.00000   0.00000  -0.00000  -0.00000  -0.00000
  62        6D 0       -0.01050   0.00802   0.00144   0.00187   0.00157
  63        6D+1        0.00000  -0.00000   0.00000  -0.00000  -0.00000
  64        6D-1       -0.00000   0.00000  -0.00000   0.00000   0.00000
  65        6D+2       -0.00706  -0.00234  -0.00783   0.00751   0.01260
  66        6D-2       -0.00388   0.00283  -0.01605  -0.00182   0.01545
  67 4   N  1S         -0.08323  -0.00000  -0.07165  -0.02681  -0.00003
  68        2S         -0.13068  -0.00000  -0.11356  -0.04265  -0.00005
  69        2PX        -0.04220  -0.00593   0.05430   0.13835  -0.00795
  70        2PY         0.00235  -0.10632  -0.00302  -0.00756  -0.14531
  71        2PZ        -0.00000   0.00000  -0.00000   0.00000  -0.00000
  72        3S          0.36333   0.00001   0.32835   0.12168   0.00014
  73        3PX        -0.07100  -0.00903   0.08032   0.20430  -0.01191
  74        3PY         0.00396  -0.16205  -0.00446  -0.01116  -0.21760
  75        3PZ         0.00000  -0.00000  -0.00000  -0.00000   0.00000
  76        4S          0.21245   0.00001   0.25781   0.11892   0.00013
  77        4PX        -0.03843  -0.00241   0.02656   0.12131  -0.00651
  78        4PY         0.00213  -0.04345  -0.00150  -0.00666  -0.11935
  79        4PZ        -0.00000  -0.00000  -0.00000  -0.00000  -0.00000
  80        5S         -0.00028  -0.00002  -0.17210  -0.01020  -0.00005
  81        5PX         0.01935  -0.00159   0.06508   0.03495  -0.00018
  82        5PY        -0.00107  -0.02854  -0.00362  -0.00194  -0.00387
  83        5PZ         0.00000  -0.00000   0.00000   0.00000   0.00000
  84        6D 0       -0.01460  -0.00000  -0.00397   0.00081   0.00000
  85        6D+1        0.00000  -0.00000  -0.00000  -0.00000  -0.00000
  86        6D-1        0.00000  -0.00000   0.00000   0.00000   0.00000
  87        6D+2       -0.00033   0.00244  -0.00494   0.00844   0.00093
  88        6D-2        0.00004   0.02183   0.00055  -0.00095   0.00829
  89 5   N  1S         -0.05554  -0.07854   0.01762   0.03119  -0.00746
  90        2S         -0.08684  -0.12370   0.02772   0.04970  -0.01192
  91        2PX         0.00490  -0.01131   0.07299   0.00597   0.11753
  92        2PY         0.05217   0.04143   0.00252  -0.02326   0.03548
  93        2PZ        -0.00000  -0.00000   0.00000   0.00000  -0.00000
  94        3S          0.23725   0.34751  -0.07634  -0.14544   0.03747
  95        3PX         0.00906  -0.01381   0.10968   0.00759   0.17513
  96        3PY         0.08181   0.06619   0.00285  -0.03629   0.05454
  97        3PZ        -0.00000  -0.00000  -0.00000   0.00000  -0.00000
  98        4S          0.11836   0.24833  -0.06511  -0.11669   0.02745
  99        4PX         0.00050  -0.00858   0.03577   0.00441   0.07216
 100        4PY         0.01491   0.02856  -0.00514  -0.01411   0.02189
 101        4PZ         0.00000  -0.00000   0.00000   0.00000   0.00000
 102        5S         -0.05450  -0.11903   0.12812   0.03541  -0.02196
 103        5PX         0.00483  -0.00532  -0.00789  -0.00596  -0.01021
 104        5PY        -0.01124  -0.03252   0.03485   0.01261  -0.01561
 105        5PZ         0.00000   0.00000   0.00000  -0.00000   0.00000
 106        6D 0       -0.01050  -0.00802   0.00144   0.00188  -0.00157
 107        6D+1       -0.00000   0.00000  -0.00000  -0.00000  -0.00000
 108        6D-1       -0.00000  -0.00000  -0.00000   0.00000  -0.00000
 109        6D+2       -0.00603   0.00291  -0.00409   0.00775  -0.00886
 110        6D-2        0.00535   0.00224   0.01738   0.00008   0.01786
 111 6   H  1S          0.00437  -0.01386  -0.02904   0.06323   0.06546
 112        2S          0.00157  -0.01267  -0.03119   0.08020   0.08331
 113        3S         -0.00224   0.00954  -0.00330   0.00007   0.01369
 114        4PX         0.00044  -0.00402  -0.00345   0.00598   0.00945
 115        4PY         0.00078   0.00004   0.00375  -0.01124  -0.00668
 116        4PZ        -0.00000   0.00000   0.00000  -0.00000  -0.00000
 117 7   H  1S          0.00437   0.01386  -0.02904   0.06336  -0.06532
 118        2S          0.00157   0.01267  -0.03118   0.08037  -0.08314
 119        3S         -0.00223  -0.00953  -0.00330   0.00010  -0.01368
 120        4PX         0.00035   0.00400  -0.00384   0.00722  -0.01012
 121        4PY        -0.00082  -0.00041  -0.00334   0.01052  -0.00557
 122        4PZ         0.00000   0.00000  -0.00000   0.00000  -0.00000
 123 8   H  1S          0.03413  -0.00001   0.08769   0.12069   0.00012
 124        2S          0.04123  -0.00001   0.08652   0.13149   0.00012
 125        3S         -0.01732   0.00000  -0.02311  -0.01715  -0.00001
 126        4PX        -0.01096  -0.00026  -0.01737  -0.01688  -0.00036
 127        4PY         0.00061  -0.00468   0.00096   0.00094  -0.00624
 128        4PZ         0.00000   0.00000   0.00000   0.00000   0.00000
                          11        12        13        14        15
                           O         O         O         O         O
     Eigenvalues --    -0.55834  -0.48819  -0.46824  -0.46089  -0.34828
   1 1   C  1S          0.00744   0.00000  -0.00582  -0.02335  -0.00005
   2        2S          0.01199   0.00000  -0.00943  -0.03724  -0.00021
   3        2PX         0.03513  -0.00000   0.11313  -0.12497  -0.04369
   4        2PY         0.12209  -0.00000  -0.09039   0.04302  -0.11985
   5        2PZ        -0.00000   0.07098  -0.00000  -0.00000   0.00000
   6        3S         -0.03063  -0.00000   0.03467   0.09789   0.00153
   7        3PX         0.04974   0.00000   0.16069  -0.17121  -0.07117
   8        3PY         0.17153  -0.00000  -0.12488   0.05814  -0.17156
   9        3PZ         0.00000   0.11063  -0.00000  -0.00000   0.00000
  10        4S         -0.03784   0.00000   0.01160   0.14037  -0.02231
  11        4PX         0.00633   0.00000   0.09583  -0.08414  -0.04462
  12        4PY         0.07262  -0.00000  -0.06821   0.03622  -0.09805
  13        4PZ         0.00000   0.06558  -0.00000  -0.00000   0.00000
  14        5S         -0.00509  -0.00000   0.00625   0.06626  -0.03192
  15        5PX        -0.00354  -0.00000   0.00843  -0.00197  -0.00968
  16        5PY         0.00951   0.00000  -0.01246  -0.00781  -0.00840
  17        5PZ        -0.00000   0.00385  -0.00000   0.00000  -0.00000
  18        6D 0        0.00335  -0.00000  -0.00264  -0.00071   0.00461
  19        6D+1        0.00000   0.01755   0.00000  -0.00000  -0.00000
  20        6D-1        0.00000  -0.00702  -0.00000   0.00000  -0.00000
  21        6D+2        0.00952  -0.00000  -0.00355  -0.00904  -0.01835
  22        6D-2        0.01448   0.00000  -0.00108  -0.02763   0.01454
  23 2   C  1S          0.00744   0.00000  -0.00580   0.02335  -0.00004
  24        2S          0.01199  -0.00000  -0.00940   0.03725  -0.00020
  25        2PX         0.02135   0.00000   0.12255   0.12890  -0.03011
  26        2PY        -0.12524   0.00000   0.07728   0.02883   0.12396
  27        2PZ         0.00000   0.07098  -0.00000  -0.00000   0.00000
  28        3S         -0.03063   0.00000   0.03459  -0.09792   0.00149
  29        3PX         0.03038  -0.00000   0.17369   0.17651  -0.05169
  30        3PY        -0.17600  -0.00000   0.10628   0.03869   0.17841
  31        3PZ        -0.00000   0.11063  -0.00000  -0.00000   0.00000
  32        4S         -0.03782  -0.00000   0.01152  -0.14039  -0.02234
  33        4PX        -0.00177  -0.00000   0.10287   0.08758  -0.03344
  34        4PY        -0.07287  -0.00000   0.05718   0.02662   0.10237
  35        4PZ        -0.00000   0.06557   0.00000   0.00000  -0.00000
  36        5S         -0.00507   0.00000   0.00617  -0.06626  -0.03193
  37        5PX        -0.00457   0.00000   0.00976   0.00109  -0.00868
  38        5PY        -0.00905   0.00000   0.01143  -0.00798   0.00942
  39        5PZ         0.00000   0.00384   0.00000  -0.00000   0.00000
  40        6D 0        0.00335   0.00000  -0.00264   0.00072   0.00461
  41        6D+1       -0.00000   0.01822  -0.00000  -0.00000   0.00000
  42        6D-1        0.00000   0.00503  -0.00000  -0.00000  -0.00000
  43        6D+2        0.00609   0.00000  -0.00322   0.00272  -0.02112
  44        6D-2       -0.01623   0.00000   0.00182  -0.02894  -0.01014
  45 3   N  1S         -0.03940   0.00000   0.00945   0.01791  -0.03799
  46        2S         -0.06303   0.00000   0.01513   0.02876  -0.06111
  47        2PX        -0.04623  -0.00000  -0.08252   0.09307   0.10850
  48        2PY         0.08950   0.00000   0.00562  -0.01842   0.09945
  49        2PZ        -0.00000   0.11929  -0.00000  -0.00000  -0.00000
  50        3S          0.18182  -0.00000  -0.04656  -0.08311   0.17538
  51        3PX        -0.06519  -0.00000  -0.12279   0.13670   0.15706
  52        3PY         0.13088  -0.00000   0.01128  -0.02358   0.13919
  53        3PZ        -0.00000   0.18308  -0.00000  -0.00000   0.00000
  54        4S          0.22031  -0.00000  -0.06430  -0.12331   0.31765
  55        4PX        -0.03547   0.00000  -0.06034   0.07448   0.12477
  56        4PY         0.05459   0.00000   0.00058   0.00081   0.08363
  57        4PZ        -0.00000   0.12439  -0.00000  -0.00000  -0.00000
  58        5S          0.09635  -0.00000  -0.07678  -0.03576   0.18956
  59        5PX        -0.00028  -0.00000  -0.00076   0.01146  -0.00208
  60        5PY        -0.02689   0.00000   0.02156   0.00489   0.00105
  61        5PZ         0.00000  -0.00352  -0.00000   0.00000   0.00000
  62        6D 0        0.00434  -0.00000  -0.00139  -0.00071   0.00865
  63        6D+1        0.00000  -0.00230  -0.00000   0.00000  -0.00000
  64        6D-1        0.00000  -0.02380   0.00000   0.00000   0.00000
  65        6D+2        0.02183  -0.00000   0.01038  -0.00327   0.00401
  66        6D-2       -0.00401  -0.00000   0.01763  -0.01725  -0.00385
  67 4   N  1S          0.01567  -0.00000   0.00829  -0.00000   0.02694
  68        2S          0.02509  -0.00000   0.01367  -0.00000   0.04373
  69        2PX         0.11967   0.00000   0.12459   0.00501   0.01696
  70        2PY        -0.00666  -0.00000  -0.00692   0.09081  -0.00092
  71        2PZ        -0.00000   0.17754  -0.00000  -0.00000  -0.00000
  72        3S         -0.07724   0.00000  -0.05181   0.00001  -0.13412
  73        3PX         0.17925   0.00000   0.17976   0.00756   0.03696
  74        3PY        -0.00998   0.00000  -0.00998   0.13692  -0.00202
  75        3PZ        -0.00000   0.27365  -0.00000  -0.00000  -0.00000
  76        4S         -0.10320  -0.00000  -0.04516   0.00001  -0.22879
  77        4PX         0.15662   0.00000   0.10061   0.00668   0.09280
  78        4PY        -0.00873  -0.00000  -0.00560   0.12082  -0.00515
  79        4PZ         0.00000   0.21396  -0.00000   0.00000   0.00000
  80        5S         -0.10999   0.00000   0.08916   0.00003  -0.14097
  81        5PX         0.03146  -0.00000  -0.00249  -0.00009   0.04292
  82        5PY        -0.00175   0.00000   0.00011  -0.00149  -0.00239
  83        5PZ        -0.00000   0.01440   0.00000  -0.00000  -0.00000
  84        6D 0        0.00253   0.00000  -0.00119   0.00000   0.00010
  85        6D+1       -0.00000  -0.01783   0.00000   0.00000  -0.00000
  86        6D-1       -0.00000   0.00099   0.00000  -0.00000  -0.00000
  87        6D+2       -0.00164  -0.00000   0.02298   0.00024  -0.02709
  88        6D-2        0.00019   0.00000  -0.00257   0.00216   0.00302
  89 5   N  1S         -0.03940  -0.00000   0.00944  -0.01791  -0.03800
  90        2S         -0.06304  -0.00000   0.01511  -0.02876  -0.06113
  91        2PX        -0.05590  -0.00000  -0.08268  -0.09449   0.09679
  92        2PY        -0.08380   0.00000   0.00358  -0.00796  -0.11096
  93        2PZ        -0.00000   0.11929  -0.00000  -0.00000   0.00000
  94        3S          0.18184  -0.00000  -0.04649   0.08314   0.17543
  95        3PX        -0.07934  -0.00000  -0.12335  -0.13840   0.14064
  96        3PY        -0.12283  -0.00000   0.00243  -0.00824  -0.15589
  97        3PZ        -0.00000   0.18307  -0.00000  -0.00000   0.00000
  98        4S          0.22032   0.00000  -0.06424   0.12333   0.31772
  99        4PX        -0.04132  -0.00000  -0.06008  -0.07390   0.11475
 100        4PY        -0.05032   0.00000   0.00612   0.00908  -0.09707
 101        4PZ        -0.00000   0.12439  -0.00000  -0.00000   0.00000
 102        5S          0.09636   0.00000  -0.07680   0.03576   0.18955
 103        5PX         0.00272   0.00000  -0.00318  -0.01085  -0.00217
 104        5PY         0.02676   0.00000  -0.02135   0.00613  -0.00082
 105        5PZ        -0.00000  -0.00352  -0.00000   0.00000   0.00000
 106        6D 0        0.00434  -0.00000  -0.00139   0.00071   0.00866
 107        6D+1        0.00000   0.00036   0.00000   0.00000  -0.00000
 108        6D-1        0.00000   0.02390  -0.00000  -0.00000   0.00000
 109        6D+2        0.02218   0.00000   0.00622  -0.00062   0.00476
 110        6D-2       -0.00092  -0.00000  -0.01949  -0.01753   0.00288
 111 6   H  1S          0.02928  -0.00000  -0.10587   0.12768  -0.05236
 112        2S          0.03917   0.00000  -0.14689   0.17593  -0.08268
 113        3S         -0.00105   0.00000  -0.02936   0.05225  -0.05227
 114        4PX         0.00829   0.00000  -0.01038   0.00695  -0.00721
 115        4PY        -0.00037   0.00000   0.00986  -0.01126  -0.00316
 116        4PZ        -0.00000   0.00510   0.00000  -0.00000  -0.00000
 117 7   H  1S          0.02928   0.00000  -0.10595  -0.12762  -0.05236
 118        2S          0.03916  -0.00000  -0.14700  -0.17583  -0.08268
 119        3S         -0.00105  -0.00000  -0.02937  -0.05222  -0.05226
 120        4PX         0.00828  -0.00000  -0.01141  -0.00815  -0.00681
 121        4PY        -0.00056  -0.00000  -0.00865  -0.01041   0.00395
 122        4PZ         0.00000   0.00510  -0.00000  -0.00000  -0.00000
 123 8   H  1S          0.07268   0.00000   0.10128  -0.00003  -0.03103
 124        2S          0.06699   0.00000   0.15435  -0.00004  -0.07815
 125        3S         -0.00000  -0.00000   0.03334  -0.00002  -0.04086
 126        4PX        -0.00716  -0.00000  -0.01171   0.00025   0.00622
 127        4PY         0.00040  -0.00000   0.00065   0.00451  -0.00034
 128        4PZ        -0.00000   0.01144   0.00000  -0.00000  -0.00000
                          16        17        18        19        20
                           O         O         O         V         V
     Eigenvalues --    -0.31914  -0.31053  -0.28999  -0.02905   0.01130
   1 1   C  1S          0.02199  -0.00000   0.00000  -0.00000   0.01522
   2        2S          0.03527  -0.00000   0.00000  -0.00000   0.02592
   3        2PX        -0.04149   0.00000   0.00000   0.00000   0.02863
   4        2PY         0.00558   0.00000   0.00000   0.00000  -0.02009
   5        2PZ        -0.00000  -0.08659  -0.15438   0.07746   0.00000
   6        3S         -0.10745   0.00000  -0.00000  -0.00000  -0.10422
   7        3PX        -0.06702   0.00000  -0.00000  -0.00000   0.04023
   8        3PY         0.00757  -0.00000  -0.00000  -0.00000  -0.03737
   9        3PZ        -0.00000  -0.13549  -0.24231   0.11602   0.00000
  10        4S         -0.12257   0.00000   0.00000   0.00000  -0.01192
  11        4PX        -0.00931   0.00000   0.00000   0.00000   0.12619
  12        4PY         0.03832  -0.00000  -0.00000  -0.00000  -0.02299
  13        4PZ        -0.00000  -0.11365  -0.21176   0.20548   0.00000
  14        5S         -0.08602   0.00000   0.00000   0.00000   1.65388
  15        5PX         0.01691   0.00000   0.00000   0.00000   0.22975
  16        5PY         0.03294  -0.00000  -0.00000  -0.00000   0.60118
  17        5PZ        -0.00000  -0.02653  -0.02626   0.16798   0.00000
  18        6D 0        0.00134  -0.00000  -0.00000  -0.00000   0.00849
  19        6D+1       -0.00000  -0.02335  -0.00487  -0.02817  -0.00000
  20        6D-1       -0.00000  -0.01356   0.01613  -0.02200  -0.00000
  21        6D+2       -0.02084  -0.00000  -0.00000  -0.00000   0.00231
  22        6D-2        0.01154   0.00000   0.00000   0.00000  -0.01052
  23 2   C  1S         -0.02199  -0.00000  -0.00000   0.00000   0.01521
  24        2S         -0.03527  -0.00000  -0.00000   0.00000   0.02590
  25        2PX         0.04184  -0.00000  -0.00000   0.00000   0.03067
  26        2PY         0.00098  -0.00000   0.00000   0.00000   0.01677
  27        2PZ         0.00000   0.08656  -0.15440   0.07749   0.00000
  28        3S          0.10746   0.00000   0.00000  -0.00000  -0.10417
  29        3PX         0.06743  -0.00000  -0.00000   0.00000   0.04411
  30        3PY         0.00015   0.00000  -0.00000  -0.00000   0.03265
  31        3PZ         0.00000   0.13545  -0.24233   0.11607  -0.00000
  32        4S          0.12253  -0.00000  -0.00000  -0.00000  -0.01160
  33        4PX         0.01350  -0.00000  -0.00000  -0.00000   0.12806
  34        4PY         0.03710  -0.00000  -0.00000  -0.00000   0.00895
  35        4PZ         0.00000   0.11362  -0.21178   0.20556  -0.00000
  36        5S          0.08599  -0.00000  -0.00000  -0.00000   1.65845
  37        5PX        -0.01315  -0.00000  -0.00000  -0.00000   0.16190
  38        5PY         0.03462  -0.00000  -0.00000  -0.00000  -0.62127
  39        5PZ         0.00000   0.02653  -0.02626   0.16801   0.00000
  40        6D 0       -0.00134   0.00000   0.00000  -0.00000   0.00849
  41        6D+1        0.00000   0.02169  -0.00664  -0.02555  -0.00000
  42        6D-1       -0.00000  -0.01607  -0.01548   0.02499   0.00000
  43        6D+2        0.02286  -0.00000   0.00000   0.00000   0.00458
  44        6D-2        0.00664   0.00000   0.00000   0.00000   0.00975
  45 3   N  1S         -0.02868   0.00000  -0.00000   0.00000   0.01022
  46        2S         -0.04603   0.00000  -0.00000   0.00000   0.01709
  47        2PX         0.06939  -0.00000   0.00000   0.00000   0.00063
  48        2PY         0.17931  -0.00000   0.00000   0.00000  -0.01928
  49        2PZ        -0.00000  -0.18430  -0.01053  -0.17740  -0.00000
  50        3S          0.12608  -0.00000  -0.00000  -0.00000  -0.06160
  51        3PX         0.09930   0.00000  -0.00000  -0.00000   0.00524
  52        3PY         0.26545  -0.00000  -0.00000  -0.00000  -0.02659
  53        3PZ        -0.00000  -0.27952  -0.01425  -0.26242  -0.00000
  54        4S          0.18755  -0.00000  -0.00000  -0.00000  -0.14303
  55        4PX         0.08145   0.00000   0.00000   0.00000  -0.00927
  56        4PY         0.21857  -0.00000   0.00000   0.00000   0.01563
  57        4PZ        -0.00000  -0.25873  -0.02139  -0.36376  -0.00000
  58        5S          0.11869   0.00000  -0.00000  -0.00000  -0.26992
  59        5PX         0.03088   0.00000  -0.00000  -0.00000   0.46581
  60        5PY         0.00974  -0.00000   0.00000   0.00000  -0.34222
  61        5PZ         0.00000  -0.03107   0.00418  -0.37358  -0.00000
  62        6D 0        0.01032  -0.00000   0.00000   0.00000   0.00415
  63        6D+1       -0.00000   0.01036   0.02136   0.00667   0.00000
  64        6D-1        0.00000   0.01665  -0.00783  -0.00397  -0.00000
  65        6D+2        0.00854  -0.00000  -0.00000  -0.00000  -0.00424
  66        6D-2       -0.00795   0.00000  -0.00000  -0.00000   0.00854
  67 4   N  1S          0.00001  -0.00000  -0.00000  -0.00000   0.01883
  68        2S          0.00001   0.00000  -0.00000  -0.00000   0.03175
  69        2PX        -0.00448   0.00000  -0.00000   0.00000  -0.04209
  70        2PY        -0.08046   0.00000   0.00000   0.00000   0.00235
  71        2PZ        -0.00000   0.00002   0.18363   0.17381   0.00000
  72        3S         -0.00003  -0.00000   0.00000   0.00000  -0.12032
  73        3PX        -0.00720  -0.00000   0.00000   0.00000  -0.06017
  74        3PY        -0.12942   0.00000  -0.00000  -0.00000   0.00336
  75        3PZ        -0.00000   0.00002   0.27948   0.25716   0.00000
  76        4S         -0.00003   0.00000  -0.00000  -0.00000  -0.10015
  77        4PX        -0.00212   0.00000  -0.00000  -0.00000  -0.18533
  78        4PY        -0.03843   0.00000   0.00000   0.00000   0.01027
  79        4PZ        -0.00000   0.00002   0.27933   0.36962   0.00000
  80        5S          0.00001  -0.00000   0.00000   0.00000  -1.32557
  81        5PX        -0.00169   0.00000  -0.00000  -0.00000   0.68309
  82        5PY        -0.03065   0.00000   0.00000   0.00000  -0.03829
  83        5PZ        -0.00000   0.00001   0.05453   0.37963   0.00000
  84        6D 0       -0.00000  -0.00000   0.00000   0.00000   0.00284
  85        6D+1        0.00000  -0.00170   0.00236   0.01659   0.00000
  86        6D-1       -0.00000  -0.03046  -0.00013  -0.00092  -0.00000
  87        6D+2        0.00262   0.00000  -0.00000  -0.00000   0.00633
  88        6D-2        0.02352  -0.00000  -0.00000   0.00000  -0.00071
  89 5   N  1S          0.02866  -0.00000  -0.00000  -0.00000   0.01022
  90        2S          0.04600  -0.00000  -0.00000  -0.00000   0.01709
  91        2PX        -0.04899  -0.00000  -0.00000  -0.00000   0.00277
  92        2PY         0.18586   0.00000   0.00000  -0.00000   0.01908
  93        2PZ         0.00000   0.18430  -0.01056  -0.17742  -0.00000
  94        3S         -0.12601  -0.00000   0.00000   0.00000  -0.06159
  95        3PX        -0.06913   0.00000   0.00000   0.00000   0.00817
  96        3PY         0.27477  -0.00000  -0.00000  -0.00000   0.02583
  97        3PZ         0.00000   0.27953  -0.01430  -0.26244  -0.00000
  98        4S         -0.18741   0.00000   0.00000   0.00000  -0.14320
  99        4PX        -0.05663  -0.00000  -0.00000  -0.00000  -0.01095
 100        4PY         0.22622   0.00000   0.00000   0.00000  -0.01457
 101        4PZ         0.00000   0.25874  -0.02144  -0.36379   0.00000
 102        5S         -0.11861   0.00000   0.00000   0.00000  -0.27059
 103        5PX        -0.02964   0.00000   0.00000   0.00000   0.50072
 104        5PY         0.01311   0.00000   0.00000   0.00000   0.28804
 105        5PZ         0.00000   0.03107   0.00418  -0.37359  -0.00000
 106        6D 0       -0.01031  -0.00000   0.00000   0.00000   0.00416
 107        6D+1       -0.00000  -0.00844   0.02210   0.00707   0.00000
 108        6D-1       -0.00000   0.01770   0.00540   0.00321   0.00000
 109        6D+2       -0.01008   0.00000   0.00000  -0.00000  -0.00602
 110        6D-2       -0.00587  -0.00000  -0.00000   0.00000  -0.00739
 111 6   H  1S         -0.00123  -0.00000  -0.00000  -0.00000  -0.00625
 112        2S         -0.00188   0.00000   0.00000   0.00000   0.06038
 113        3S          0.00034  -0.00000  -0.00000  -0.00000  -0.18263
 114        4PX        -0.00100   0.00000   0.00000  -0.00000  -0.00774
 115        4PY        -0.00186  -0.00000  -0.00000  -0.00000   0.00836
 116        4PZ        -0.00000  -0.00721  -0.01302   0.01029   0.00000
 117 7   H  1S          0.00120   0.00000   0.00000   0.00000  -0.00625
 118        2S          0.00185  -0.00000  -0.00000  -0.00000   0.06039
 119        3S         -0.00038  -0.00000   0.00000   0.00000  -0.18255
 120        4PX         0.00079   0.00000  -0.00000  -0.00000  -0.00861
 121        4PY        -0.00196  -0.00000  -0.00000  -0.00000  -0.00744
 122        4PZ         0.00000   0.00721  -0.01302   0.01029   0.00000
 123 8   H  1S         -0.00001   0.00000  -0.00000  -0.00000   0.00827
 124        2S         -0.00002  -0.00000   0.00000   0.00000   0.13519
 125        3S         -0.00003   0.00000  -0.00000  -0.00000  -0.25033
 126        4PX        -0.00022   0.00000  -0.00000  -0.00000   0.01375
 127        4PY        -0.00410  -0.00000  -0.00000   0.00000  -0.00077
 128        4PZ         0.00000   0.00000   0.01722   0.02482   0.00000
                          21        22        23        24        25
                           V         V         V         V         V
     Eigenvalues --     0.02689   0.03429   0.03679   0.05435   0.05827
   1 1   C  1S         -0.00000  -0.00871  -0.01595   0.00871   0.00000
   2        2S         -0.00000  -0.01419  -0.02661   0.01351   0.00000
   3        2PX        -0.00000  -0.02595  -0.03670   0.01131  -0.00000
   4        2PY         0.00000   0.03013   0.01542  -0.01432  -0.00000
   5        2PZ         0.17214  -0.00000  -0.00000  -0.00000  -0.06814
   6        3S          0.00000   0.04500   0.09562  -0.01808   0.00000
   7        3PX        -0.00000  -0.05846  -0.05412   0.02740  -0.00000
   8        3PY         0.00000   0.06460   0.04626  -0.02383   0.00000
   9        3PZ         0.25896  -0.00000  -0.00000  -0.00000  -0.08029
  10        4S          0.00000   0.01448   0.26030  -0.40528  -0.00000
  11        4PX         0.00000   0.03163  -0.02694  -0.05044  -0.00000
  12        4PY        -0.00000  -0.04834  -0.20400  -0.13696   0.00000
  13        4PZ         0.53954  -0.00000  -0.00000  -0.00000  -0.24768
  14        5S          0.00000  -0.14712   8.51808  -1.67991  -0.00000
  15        5PX         0.00000   0.60113  -0.39701  -1.08800  -0.00000
  16        5PY        -0.00000  -0.72602  -3.78741  -0.03316   0.00000
  17        5PZ         0.96603  -0.00000  -0.00000  -0.00000   0.67852
  18        6D 0        0.00000  -0.00027   0.00098  -0.01246   0.00000
  19        6D+1       -0.00891  -0.00000   0.00000  -0.00000  -0.00895
  20        6D-1        0.02283  -0.00000  -0.00000  -0.00000   0.01255
  21        6D+2       -0.00000  -0.00259   0.00214   0.01491  -0.00000
  22        6D-2        0.00000  -0.00366   0.00247  -0.00101  -0.00000
  23 2   C  1S          0.00000  -0.00865   0.01599   0.00871  -0.00000
  24        2S          0.00000  -0.01409   0.02668   0.01351  -0.00000
  25        2PX         0.00000  -0.02898   0.03830   0.01283   0.00000
  26        2PY         0.00000  -0.02702   0.01134   0.01298  -0.00000
  27        2PZ        -0.17214   0.00000   0.00000   0.00000  -0.06809
  28        3S         -0.00000   0.04464  -0.09585  -0.01807   0.00000
  29        3PX         0.00000  -0.06505   0.05918   0.02987  -0.00000
  30        3PY         0.00000  -0.05755   0.04018   0.02064   0.00000
  31        3PZ        -0.25896   0.00000   0.00000   0.00000  -0.08021
  32        4S         -0.00000   0.01353  -0.26039  -0.40511   0.00000
  33        4PX        -0.00000   0.03686   0.00401  -0.03483   0.00000
  34        4PY        -0.00000   0.04378  -0.20593   0.14172   0.00000
  35        4PZ        -0.53955   0.00000   0.00000   0.00000  -0.24751
  36        5S         -0.00000  -0.17876  -8.51657  -1.68122   0.00000
  37        5PX        -0.00000   0.67784  -0.02889  -1.07700   0.00000
  38        5PY        -0.00000   0.64048  -3.81044   0.15335   0.00000
  39        5PZ        -0.96583   0.00000   0.00000   0.00000   0.67832
  40        6D 0        0.00000  -0.00027  -0.00097  -0.01246   0.00000
  41        6D+1        0.01138  -0.00000  -0.00000  -0.00000  -0.01029
  42        6D-1        0.02170  -0.00000  -0.00000  -0.00000  -0.01148
  43        6D+2        0.00000  -0.00172  -0.00153   0.01477  -0.00000
  44        6D-2        0.00000   0.00416   0.00287  -0.00231  -0.00000
  45 3   N  1S         -0.00000   0.00286  -0.00763  -0.02155  -0.00000
  46        2S         -0.00000   0.00505  -0.01257  -0.03563  -0.00000
  47        2PX         0.00000   0.01120   0.01920   0.00254   0.00000
  48        2PY         0.00000  -0.02406   0.03011  -0.02025   0.00000
  49        2PZ        -0.10625   0.00000   0.00000   0.00000  -0.00412
  50        3S          0.00000  -0.02507   0.04259   0.12050   0.00000
  51        3PX         0.00000   0.01436   0.02233   0.00747   0.00000
  52        3PY         0.00000  -0.02960   0.04974  -0.03256   0.00000
  53        3PZ        -0.15796   0.00000   0.00000   0.00000  -0.01037
  54        4S         -0.00000   0.05243   0.05310   0.26670   0.00000
  55        4PX         0.00000   0.02249   0.08127  -0.02163  -0.00000
  56        4PY         0.00000  -0.08916   0.03134  -0.09161  -0.00000
  57        4PZ        -0.24199   0.00000   0.00000   0.00000   0.02875
  58        5S          0.00000   0.85537  -1.83523   4.44134   0.00000
  59        5PX        -0.00000  -0.28935  -1.20256  -0.29880   0.00000
  60        5PY        -0.00000  -0.07253   1.04447  -0.94820  -0.00000
  61        5PZ        -0.38291  -0.00000   0.00000   0.00000  -0.16747
  62        6D 0       -0.00000  -0.00033   0.00083  -0.00403   0.00000
  63        6D+1       -0.01893   0.00000   0.00000   0.00000   0.00472
  64        6D-1        0.00772  -0.00000  -0.00000  -0.00000   0.00740
  65        6D+2        0.00000  -0.00109   0.00359  -0.00010  -0.00000
  66        6D-2        0.00000   0.00357  -0.00377   0.00750  -0.00000
  67 4   N  1S          0.00000   0.02322  -0.00004   0.02987  -0.00000
  68        2S          0.00000   0.03900  -0.00007   0.04907  -0.00000
  69        2PX        -0.00000  -0.07226  -0.00038  -0.02855   0.00000
  70        2PY        -0.00000   0.00401  -0.00924   0.00159  -0.00000
  71        2PZ         0.00001   0.00000  -0.00000   0.00000  -0.04088
  72        3S         -0.00000  -0.14188   0.00024  -0.15059   0.00000
  73        3PX        -0.00000  -0.10964  -0.00072  -0.05145   0.00000
  74        3PY        -0.00000   0.00609  -0.01654   0.00287  -0.00000
  75        3PZ         0.00001   0.00000  -0.00000  -0.00000  -0.05442
  76        4S          0.00000  -0.19056   0.00035  -0.45981   0.00000
  77        4PX         0.00000  -0.09683  -0.00177  -0.06406   0.00000
  78        4PY         0.00000   0.00530  -0.03463   0.00354  -0.00000
  79        4PZ         0.00003   0.00000   0.00000   0.00000  -0.12672
  80        5S         -0.00000  -1.52059   0.00264  -4.14107  -0.00000
  81        5PX         0.00000   1.88047   0.10182   2.22419   0.00000
  82        5PY         0.00000  -0.10102   1.88996  -0.12377  -0.00000
  83        5PZ         0.00006   0.00000  -0.00000  -0.00000   0.24421
  84        6D 0       -0.00000  -0.00049   0.00000  -0.01614   0.00000
  85        6D+1       -0.00151   0.00000  -0.00000   0.00000   0.00539
  86        6D-1       -0.02714   0.00000   0.00000   0.00000  -0.00030
  87        6D+2        0.00000   0.00260   0.00034   0.00191  -0.00000
  88        6D-2        0.00000  -0.00028   0.00310  -0.00021  -0.00000
  89 5   N  1S         -0.00000   0.00289   0.00762  -0.02155   0.00000
  90        2S         -0.00000   0.00510   0.01256  -0.03563   0.00000
  91        2PX        -0.00000   0.01374  -0.01579   0.00478  -0.00000
  92        2PY         0.00000   0.02279   0.03198   0.01985   0.00000
  93        2PZ         0.10622  -0.00000  -0.00000  -0.00000  -0.00415
  94        3S          0.00000  -0.02523  -0.04252   0.12051  -0.00000
  95        3PX         0.00000   0.01749  -0.01673   0.01104  -0.00000
  96        3PY         0.00000   0.02802   0.05182   0.03155   0.00000
  97        3PZ         0.15791  -0.00000  -0.00000  -0.00000  -0.01041
  98        4S          0.00000   0.05215  -0.05336   0.26661  -0.00000
  99        4PX        -0.00000   0.03194  -0.07745  -0.01128   0.00000
 100        4PY         0.00000   0.08625   0.03983   0.09343  -0.00000
 101        4PZ         0.24193  -0.00000  -0.00000  -0.00000   0.02867
 102        5S          0.00000   0.86274   1.83170   4.44127  -0.00000
 103        5PX         0.00000  -0.27433   1.31256  -0.19155   0.00000
 104        5PY         0.00000   0.10770   0.90405   0.97561  -0.00000
 105        5PZ         0.38277  -0.00000  -0.00000  -0.00000  -0.16743
 106        6D 0       -0.00000  -0.00033  -0.00082  -0.00403  -0.00000
 107        6D+1        0.01968  -0.00000  -0.00000  -0.00000   0.00386
 108        6D-1        0.00557  -0.00000  -0.00000  -0.00000  -0.00788
 109        6D+2       -0.00000  -0.00187  -0.00433  -0.00175   0.00000
 110        6D-2       -0.00000  -0.00325  -0.00287  -0.00729   0.00000
 111 6   H  1S         -0.00000   0.01885   0.00780   0.01187   0.00000
 112        2S          0.00000   0.00661  -0.00227   0.10022  -0.00000
 113        3S         -0.00000   0.28279   0.09612   0.03758  -0.00000
 114        4PX         0.00000   0.00991   0.00755  -0.00937   0.00000
 115        4PY        -0.00000  -0.00472  -0.01444  -0.00533   0.00000
 116        4PZ         0.02699  -0.00000  -0.00000  -0.00000   0.00488
 117 7   H  1S          0.00000   0.01882  -0.00789   0.01187  -0.00000
 118        2S         -0.00000   0.00660   0.00227   0.10022   0.00000
 119        3S         -0.00000   0.28249  -0.09739   0.03764   0.00000
 120        4PX        -0.00000   0.01034  -0.00915  -0.00871   0.00000
 121        4PY        -0.00000   0.00354  -0.01353   0.00634   0.00000
 122        4PZ        -0.02699   0.00000   0.00000   0.00000   0.00488
 123 8   H  1S          0.00000   0.00814  -0.00002   0.04056  -0.00000
 124        2S         -0.00000   0.13388  -0.00025   0.23647  -0.00000
 125        3S          0.00000  -0.61290   0.00109  -0.33259   0.00000
 126        4PX         0.00000   0.02850  -0.00017   0.01528  -0.00000
 127        4PY        -0.00000  -0.00159  -0.00218  -0.00085  -0.00000
 128        4PZ         0.00000   0.00000  -0.00000  -0.00000   0.00354
                          26        27        28        29        30
                           V         V         V         V         V
     Eigenvalues --     0.06786   0.08068   0.10387   0.12437   0.13288
   1 1   C  1S         -0.01836   0.00747  -0.00000  -0.00000   0.00034
   2        2S         -0.02937   0.01216  -0.00000  -0.00000   0.00131
   3        2PX        -0.00175  -0.00752  -0.00000  -0.00000   0.02955
   4        2PY         0.01657   0.03779   0.00000   0.00000  -0.02093
   5        2PZ        -0.00000   0.00000  -0.10418   0.02601  -0.00000
   6        3S          0.05979  -0.03618   0.00000   0.00000  -0.01440
   7        3PX        -0.02127  -0.02905   0.00000  -0.00000   0.03460
   8        3PY         0.01580   0.04366   0.00000   0.00000  -0.04739
   9        3PZ        -0.00000   0.00000  -0.13294   0.05239  -0.00000
  10        4S          0.84455  -0.19360  -0.00000  -0.00000   0.16061
  11        4PX         0.35177  -0.01925  -0.00000  -0.00000   0.14742
  12        4PY        -0.09396   0.12495  -0.00000   0.00000  -0.04472
  13        4PZ        -0.00000   0.00000  -0.47186   0.03613  -0.00000
  14        5S         11.78313   0.77587  -0.00000  -0.00000  27.67346
  15        5PX         3.41133   0.09434   0.00000   0.00000  -2.38773
  16        5PY        -2.46223  -1.45405   0.00000   0.00000  -7.92041
  17        5PZ        -0.00000   0.00000   2.01953  -0.58197  -0.00000
  18        6D 0       -0.00169   0.02314  -0.00000  -0.00000   0.00424
  19        6D+1        0.00000   0.00000  -0.00682   0.00211   0.00000
  20        6D-1        0.00000   0.00000  -0.00477  -0.00672   0.00000
  21        6D+2       -0.00309   0.01340   0.00000   0.00000   0.00959
  22        6D-2       -0.00432   0.01975   0.00000  -0.00000   0.00285
  23 2   C  1S          0.01836   0.00746   0.00000   0.00000  -0.00034
  24        2S          0.02938   0.01216   0.00000   0.00000  -0.00130
  25        2PX         0.00357  -0.01168   0.00000   0.00000  -0.03170
  26        2PY         0.01628  -0.03673   0.00000   0.00000  -0.01750
  27        2PZ        -0.00000  -0.00000   0.10418   0.02604   0.00000
  28        3S         -0.05982  -0.03615  -0.00000  -0.00000   0.01440
  29        3PX         0.02289  -0.03374   0.00000   0.00000  -0.03967
  30        3PY         0.01335  -0.04018   0.00000   0.00000  -0.04323
  31        3PZ        -0.00000  -0.00000   0.13293   0.05243   0.00000
  32        4S         -0.84463  -0.19370  -0.00000   0.00000  -0.16070
  33        4PX        -0.36008  -0.03302  -0.00000   0.00000  -0.15147
  34        4PY        -0.05424  -0.12202  -0.00000   0.00000  -0.02798
  35        4PZ        -0.00000  -0.00000   0.47186   0.03626   0.00000
  36        5S        -11.78283   0.76998   0.00000   0.00000 -27.67315
  37        5PX        -3.66381   0.25547  -0.00000  -0.00000   1.49303
  38        5PY        -2.06789   1.43342   0.00000   0.00000  -8.13689
  39        5PZ         0.00000  -0.00000  -2.01947  -0.58281  -0.00000
  40        6D 0        0.00169   0.02314   0.00000  -0.00000  -0.00424
  41        6D+1        0.00000   0.00000   0.00625   0.00285   0.00000
  42        6D-1       -0.00000   0.00000  -0.00550   0.00644  -0.00000
  43        6D+2        0.00206   0.00871  -0.00000   0.00000  -0.00873
  44        6D-2       -0.00490  -0.02222  -0.00000  -0.00000   0.00490
  45 3   N  1S          0.02028  -0.00306   0.00000  -0.00000   0.00195
  46        2S          0.03372  -0.00476   0.00000  -0.00000   0.00360
  47        2PX        -0.01359  -0.01275   0.00000   0.00000  -0.02360
  48        2PY        -0.01833   0.00741   0.00000  -0.00000  -0.00063
  49        2PZ         0.00000  -0.00000  -0.00121  -0.04864   0.00000
  50        3S         -0.11499   0.00711   0.00000   0.00000  -0.02307
  51        3PX        -0.02145  -0.02211   0.00000   0.00000  -0.03009
  52        3PY        -0.02889   0.00894   0.00000  -0.00000   0.00837
  53        3PZ         0.00000  -0.00000  -0.00579  -0.05004   0.00000
  54        4S         -0.32508   0.08907  -0.00000  -0.00000   0.04139
  55        4PX         0.05111  -0.01330  -0.00000   0.00000  -0.03811
  56        4PY         0.08642  -0.01497   0.00000   0.00000  -0.06498
  57        4PZ        -0.00000   0.00000   0.03960  -0.19381  -0.00000
  58        5S         -5.13493  -1.93999   0.00000   0.00000  -5.22958
[...]
      1  0.768895D+00
      2 -0.169574D+00  0.703574D+00
      3  0.000000D+00  0.000000D+00  0.135428D+00
      4 -0.115892D+00 -0.308605D-01  0.000000D+00  0.805663D+00
      5  0.114099D-01 -0.289731D+00  0.000000D+00  0.158175D+00  0.667042D+00
      6  0.000000D+00  0.000000D+00 -0.701144D-01  0.000000D+00  0.000000D+00
      7 -0.327706D+00 -0.761623D-01  0.000000D+00 -0.968980D-02 -0.108398D+00
      8 -0.622887D-01 -0.134470D+00  0.000000D+00 -0.185567D-01 -0.282103D-01
      9  0.000000D+00  0.000000D+00 -0.729073D-01  0.000000D+00  0.000000D+00
     10 -0.131892D+00  0.168819D-01  0.000000D+00 -0.139720D+00 -0.363383D-02
     11  0.666431D-01 -0.208483D-01  0.000000D+00 -0.533527D-01 -0.129573D-01
     12  0.000000D+00  0.000000D+00  0.138716D-01  0.000000D+00  0.000000D+00
     13  0.410066D-02  0.104795D+00  0.000000D+00 -0.309943D+00  0.957465D-01
     14  0.149255D-01 -0.420213D-01  0.000000D+00  0.818856D-01 -0.152149D+00
     15  0.000000D+00  0.000000D+00  0.194459D-01  0.000000D+00  0.000000D+00
     16 -0.208657D+00  0.147020D+00  0.000000D+00  0.897877D-02 -0.477097D-02
     17  0.155224D+00 -0.206925D+00  0.000000D+00  0.189930D-01 -0.361364D-02
     18  0.000000D+00  0.000000D+00 -0.298019D-01  0.000000D+00  0.000000D+00
     19  0.724798D-02  0.356097D-02  0.000000D+00 -0.242269D+00 -0.143033D+00
     20 -0.202133D-01 -0.188317D-02  0.000000D+00 -0.151252D+00 -0.173724D+00
     21  0.000000D+00  0.000000D+00 -0.966123D-03  0.000000D+00  0.000000D+00
     22  0.390350D-02  0.433952D-02  0.000000D+00  0.287234D-02 -0.549618D-02
     23  0.387370D-02 -0.769376D-02  0.000000D+00 -0.503150D-02 -0.665666D-02
     24  0.000000D+00  0.000000D+00  0.504410D-02  0.000000D+00  0.000000D+00
                6             7             8             9            10 
      6  0.135371D+00
      7  0.000000D+00  0.547087D+00
      8  0.000000D+00  0.422202D-01  0.508991D+00
      9  0.194581D-01  0.000000D+00  0.000000D+00  0.105152D+00
     10  0.000000D+00 -0.145389D+00  0.375492D-01  0.000000D+00  0.104703D+01
     11  0.000000D+00  0.105251D+00 -0.244645D+00  0.000000D+00 -0.261474D-01
     12  0.139335D-01  0.000000D+00  0.000000D+00 -0.693972D-01  0.000000D+00
     13  0.000000D+00 -0.397956D-01 -0.234532D-01  0.000000D+00 -0.161971D+00
     14  0.000000D+00  0.152748D-01 -0.113011D+00  0.000000D+00 -0.468462D-01
     15 -0.728805D-01  0.000000D+00  0.000000D+00  0.306182D-01  0.000000D+00
     16  0.000000D+00 -0.174507D-01  0.213722D-01  0.000000D+00 -0.616741D-02
     17  0.000000D+00 -0.930675D-02  0.122432D-01  0.000000D+00 -0.527258D-02
     18 -0.968404D-03  0.000000D+00  0.000000D+00 -0.723856D-02  0.000000D+00
     19  0.000000D+00  0.843534D-03  0.271643D-02  0.000000D+00 -0.536740D-02
     20  0.000000D+00 -0.241350D-02 -0.565981D-02  0.000000D+00  0.586934D-02
     21 -0.298415D-01  0.000000D+00  0.000000D+00  0.642483D-02  0.000000D+00
     22  0.000000D+00 -0.789895D-02  0.440580D-03  0.000000D+00 -0.456521D+00
     23  0.000000D+00  0.335340D-01  0.476212D-02  0.000000D+00  0.215996D-01
     24  0.504197D-02  0.000000D+00  0.000000D+00 -0.121100D-01  0.000000D+00
               11            12            13            14            15 
     11  0.578583D+00
     12  0.000000D+00  0.100477D+00
     13 -0.114553D+00  0.000000D+00  0.536543D+00
     14 -0.227520D+00  0.000000D+00 -0.451982D-01  0.518682D+00
     15  0.000000D+00 -0.693053D-01  0.000000D+00  0.000000D+00  0.105021D+00
     16 -0.139044D-02  0.000000D+00  0.734035D-03 -0.343803D-02  0.000000D+00
     17  0.185178D-04  0.000000D+00  0.169477D-02 -0.554031D-02  0.000000D+00
     18  0.000000D+00  0.701545D-02  0.000000D+00  0.000000D+00  0.642714D-02
     19  0.198203D-02  0.000000D+00 -0.184098D-01 -0.179547D-01  0.000000D+00
     20 -0.798802D-03  0.000000D+00  0.127406D-01  0.132242D-01  0.000000D+00
     21  0.000000D+00  0.701570D-02  0.000000D+00  0.000000D+00 -0.724180D-02
     22  0.215678D-01  0.000000D+00 -0.112583D-01  0.135125D-02  0.000000D+00
     23 -0.718332D-01  0.000000D+00 -0.317714D-01  0.833490D-02  0.000000D+00
     24  0.000000D+00 -0.361077D-02  0.000000D+00  0.000000D+00 -0.120849D-01
               16            17            18            19            20 
     16  0.222955D+00
     17 -0.160651D+00  0.202907D+00
     18  0.000000D+00  0.000000D+00  0.240572D-01
     19 -0.374225D-03 -0.469365D-03  0.000000D+00  0.258459D+00
     20  0.506992D-03 -0.466594D-04  0.000000D+00  0.154426D+00  0.167818D+00
     21  0.000000D+00  0.000000D+00 -0.144946D-02  0.000000D+00  0.000000D+00
     22 -0.183543D-04 -0.212684D-03  0.000000D+00 -0.129807D-03  0.335989D-03
     23  0.135053D-02  0.957485D-03  0.000000D+00 -0.122867D-02  0.107046D-02
     24  0.000000D+00  0.000000D+00  0.195857D-02  0.000000D+00  0.000000D+00
               21            22            23            24 
     21  0.240980D-01
     22  0.000000D+00  0.469051D+00
     23  0.000000D+00 -0.223263D-01  0.710587D-01
     24  0.196038D-02  0.000000D+00  0.000000D+00  0.138006D-01
 Leave Link  716 at Fri Jun  2 11:11:18 2023, MaxMem=  7381975040 cpu:               0.2 elap:               1.6
 (Enter /software/commercial/gaussian/g16/AVX/g16/l103.exe)

 GradGradGradGradGradGradGradGradGradGradGradGradGradGradGradGradGradGrad
 Berny optimization.
 Search for a local minimum.
 Step number   1 out of a maximum of    2
 All quantities printed in internal units (Hartrees-Bohrs-Radians)
 Second derivative matrix not updated -- analytic derivatives used.
 ITU=  0
     Eigenvalues ---    0.02248   0.04203   0.05098   0.06320   0.07392
     Eigenvalues ---    0.14194   0.22176   0.23527   0.23879   0.25478
     Eigenvalues ---    0.35793   0.55960   0.80705   0.86522   0.86702
     Eigenvalues ---    1.18018   1.21170   1.37184
 Angle between quadratic step and forces=  49.50 degrees.
 Linear search not attempted -- first point.
 B after Tr=     0.000007   -0.000000   -0.000000
         Rot=    1.000000   -0.000000   -0.000000    0.000000 Ang=   0.00 deg.
 Variable       Old X    -DE/DX   Delta X   Delta X   Delta X     New X
                                 (Linear)    (Quad)   (Total)
    X1       -6.91409  -0.00003   0.00000  -0.00004  -0.00003  -6.91412
    Y1        1.14176   0.00001   0.00000   0.00001   0.00001   1.14177
    Z1        0.00000  -0.00000   0.00000  -0.00000  -0.00000  -0.00000
    X2       -7.06177  -0.00003   0.00000  -0.00004  -0.00003  -7.06180
    Y2       -1.50757  -0.00001   0.00000  -0.00001  -0.00001  -1.50757
    Z2       -0.00000  -0.00000   0.00000  -0.00000  -0.00000  -0.00000
    X3       -4.47958   0.00001   0.00000   0.00002   0.00003  -4.47955
    Y3        1.80788   0.00002   0.00000   0.00002   0.00002   1.80790
    Z3        0.00000   0.00000   0.00000   0.00000   0.00000   0.00000
    X4       -3.27281   0.00002   0.00000   0.00005   0.00006  -3.27276
    Y4       -0.38996   0.00000   0.00000  -0.00000  -0.00000  -0.38996
    Z4       -0.00000  -0.00000   0.00000  -0.00000  -0.00000  -0.00000
    X5       -4.71631   0.00002   0.00000   0.00002   0.00003  -4.71628
    Y5       -2.44014  -0.00002   0.00000  -0.00002  -0.00002  -2.44016
    Z5       -0.00000   0.00000   0.00000   0.00000  -0.00000  -0.00000
    X6       -8.39465  -0.00001   0.00000  -0.00008  -0.00007  -8.39472
    Y6        2.53954  -0.00000   0.00000  -0.00003  -0.00003   2.53952
    Z6       -0.00000  -0.00000   0.00000   0.00000   0.00000   0.00000
    X7       -8.68852  -0.00000   0.00000  -0.00007  -0.00007  -8.68859
    Y7       -2.73207  -0.00000   0.00000   0.00004   0.00004  -2.73204
    Z7        0.00000   0.00000   0.00000   0.00000   0.00000   0.00000
    X8       -1.36687   0.00001   0.00000   0.00007   0.00008  -1.36679
    Y8       -0.49584   0.00000   0.00000  -0.00001  -0.00001  -0.49584
    Z8        0.00000   0.00000   0.00000   0.00000   0.00000   0.00000
         Item               Value     Threshold  Converged?
 Maximum Force            0.000034     0.000450     YES
 RMS     Force            0.000013     0.000300     YES
 Maximum Displacement     0.000081     0.001800     YES
 RMS     Displacement     0.000033     0.001200     YES
 Predicted change in Energy=-3.447975D-09
 Optimization completed.
    -- Stationary point found.
 GradGradGradGradGradGradGradGradGradGradGradGradGradGradGradGradGradGrad

 Leave Link  103 at Fri Jun  2 11:11:22 2023, MaxMem=  7381975040 cpu:               1.5 elap:               3.0
 (Enter /software/commercial/gaussian/g16/AVX/g16/l9999.exe)

 ----------------------------------------------------------------------

 Electric dipole moment (input orientation):
 (Debye = 10**-18 statcoulomb cm , SI units = C m)
                  (au)            (Debye)         (10**-30 SI)
   Tot        0.123539D+00      0.314004D+00      0.104741D+01
   x         -0.123337D+00     -0.313492D+00     -0.104570D+01
   y          0.705284D-02      0.179265D-01      0.597965D-01
   z          0.000000D+00      0.000000D+00      0.000000D+00

 Dipole polarizability, Alpha (input orientation).
 (esu units = cm**3 , SI units = C**2 m**2 J**-1)
 Alpha(0;0):
               (au)            (10**-24 esu)      (10**-40 SI)
   iso        0.531132D+02      0.787057D+01      0.875718D+01
   aniso      0.280327D+02      0.415402D+01      0.462197D+01
   xx         0.629192D+02      0.932366D+01      0.103740D+02
   yx        -0.487443D-01     -0.722315D-02     -0.803684D-02
   yy         0.619879D+02      0.918566D+01      0.102204D+02
   zx         0.000000D+00      0.000000D+00      0.000000D+00
   zy         0.000000D+00      0.000000D+00      0.000000D+00
   zz         0.344325D+02      0.510238D+01      0.567716D+01

 First dipole hyperpolarizability, Beta (input orientation).
 ||, _|_  parallel and perpendicular components, (z) with respect to z axis,
 vector components x,y,z.  Values do not include the 1/n! factor of 1/2.
 (esu units = statvolt**-1 cm**4 , SI units = C**3 m**3 J**-2)
 Beta(0;0,0):
               (au)            (10**-30 esu)      (10**-50 SI)
   || (z)     0.000000D+00      0.000000D+00      0.000000D+00
   _|_(z)     0.000000D+00      0.000000D+00      0.000000D+00
   x         -0.102667D+03     -0.886964D+00     -0.329188D+00
   y          0.551765D+01      0.476682D-01      0.176916D-01
   z          0.000000D+00      0.000000D+00      0.000000D+00
   ||         0.205631D+02      0.177649D+00      0.659326D-01
   xxx        0.437020D+02      0.377551D+00      0.140124D+00
   xxy       -0.482655D+01     -0.416976D-01     -0.154757D-01
   yxy       -0.207430D+02     -0.179203D+00     -0.665096D-01
   yyy        0.350777D+01      0.303044D-01      0.112472D-01
   xxz        0.000000D+00      0.000000D+00      0.000000D+00
   yxz        0.000000D+00      0.000000D+00      0.000000D+00
   yyz        0.000000D+00      0.000000D+00      0.000000D+00
   zxz       -0.571813D+02     -0.494002D+00     -0.183344D+00
   zyz        0.315800D+01      0.272826D-01      0.101257D-01
   zzz        0.000000D+00      0.000000D+00      0.000000D+00

 ----------------------------------------------------------------------

 Dipole orientation:
     6          0.04254215          0.74396007          6.96799558
     6         -0.10894311         -1.90515373          6.96418151
     7          0.08844349          1.54666445          4.57549098
     7         -0.03289343         -0.57522717          3.24521303
     7         -0.15445232         -2.70100066          4.56931066
     1          0.11738589          2.05279757          8.52593819
     1         -0.18403814         -3.21838563          8.51837441
     1         -0.03271623         -0.57212833          1.33633063

 Electric dipole moment (dipole orientation):
 (Debye = 10**-18 statcoulomb cm , SI units = C m)
                  (au)            (Debye)         (10**-30 SI)
   Tot        0.123539D+00      0.314004D+00      0.104741D+01
   x          0.000000D+00      0.000000D+00      0.000000D+00
   y          0.000000D+00      0.000000D+00      0.000000D+00
   z          0.123539D+00      0.314004D+00      0.104741D+01

 Dipole polarizability, Alpha (dipole orientation).
 (esu units = cm**3 , SI units = C**2 m**2 J**-1)
 Alpha(0;0):
               (au)            (10**-24 esu)      (10**-40 SI)
   iso        0.531132D+02      0.787057D+01      0.875718D+01
   aniso      0.280327D+02      0.415402D+01      0.462197D+01
   xx         0.345223D+02      0.511568D+01      0.569197D+01
   yx         0.157043D+01      0.232713D+00      0.258929D+00
   yy         0.618956D+02      0.917197D+01      0.102052D+02
   zx        -0.265819D-03     -0.393903D-04     -0.438276D-04
   zy        -0.464860D-02     -0.688852D-03     -0.766451D-03
   zz         0.629217D+02      0.932404D+01      0.103744D+02

 First dipole hyperpolarizability, Beta (dipole orientation).
 ||, _|_  parallel and perpendicular components, (z) with respect to z axis,
 vector components x,y,z.  Values do not include the 1/n! factor of 1/2.
 (esu units = statvolt**-1 cm**4 , SI units = C**3 m**3 J**-2)
 Beta(0;0,0):
               (au)            (10**-30 esu)      (10**-50 SI)
   || (z)     0.205629D+02      0.177648D+00      0.659322D-01
   _|_(z)     0.685431D+01      0.592159D-01      0.219774D-01
   x         -0.201314D-01     -0.173920D-03     -0.645487D-04
   y         -0.352051D+00     -0.304145D-02     -0.112880D-02
   z          0.102815D+03      0.888239D+00      0.329661D+00
   ||         0.205631D+02      0.177649D+00      0.659326D-01
   xxx       -0.190750D-01     -0.164794D-03     -0.611615D-04
   xxy       -0.110660D+00     -0.956015D-03     -0.354815D-03
   yxy        0.759578D-02      0.656216D-04      0.243548D-04
   yyy       -0.900855D-01     -0.778269D-03     -0.288847D-03
   xxz        0.571505D+02      0.493736D+00      0.183245D+00
   yxz       -0.206078D+01     -0.178035D-01     -0.660759D-02
   yyz        0.212303D+02      0.183413D+00      0.680721D-01
   zxz        0.476878D-02      0.411985D-04      0.152904D-04
   zyz        0.833949D-01      0.720467D-03      0.267394D-03
   zzz       -0.441093D+02     -0.381070D+00     -0.141430D+00

 ----------------------------------------------------------------------
 Unable to Open any file for archive entry.
 1\1\GINC-NODE1742\Freq\RB3LYP\6-311+G(d,p)\C2H3N3\SVICCHI\02-Jun-2023\
 0\\#p freq=raman scale=0.967 pop=(nbo,full,hirshfeld) guess=read geom=
 allcheck b3lyp/6-311+G(d,p) int=grid=ultrafine EmpiricalDispersion=GD3
 BJ SCRF=(Solvent=ethanol) scf=(xqc,intrep,maxconventionalcycle=350) no
 symm\\123triz-H_dissociation-site_index-3.gjf\\0,1\C,-3.6587782514,0.6
 0419532,0.\C,-3.7369257669,-0.7977705613,0.\N,-2.3704942962,0.95668874
 8,0.\N,-1.7318983805,-0.2063566833,0.\N,-2.4957640754,-1.2912655399,0.
 \H,-4.4422557544,1.3438689619,0.\H,-4.5977664305,-1.4457495676,0.\H,-0
 .7233150447,-0.2623856779,0.\\Version=ES64L-G16RevC.01\HF=-242.3177116
 \RMSD=3.161e-09\RMSF=1.330e-05\ZeroPoint=0.0576461\Thermal=0.0612701\E
 Tot=-242.2564415\HTot=-242.2554973\GTot=-242.2862425\Dipole=-0.1233373
 ,0.0070528,0.\DipoleDeriv=-0.0513463,0.0236497,0.,-0.2384274,0.2498168
 ,0.,0.,0.,-0.0847762,-0.0229199,0.0076983,0.,0.2694916,0.2236917,0.,0.
 ,0.,-0.0854186,0.0965807,-0.1602894,0.,-0.3970978,-0.5904243,0.,0.,0.,
 -0.2307285,-0.7261086,0.0615699,0.,0.0620767,0.4019792,0.,0.,0.,-0.144
 0754,0.1489004,0.0779237,0.,0.3143425,-0.6443392,0.,0.,0.,-0.2308777,0
 .0747875,0.0398623,0.,0.0789522,0.0605739,0.,0.,0.,0.1983034,0.0606055
 ,-0.0405245,0.,-0.0793788,0.0733752,0.,0.,0.,0.1979873,0.4195007,-0.00
 98899,0.,-0.0099591,0.2253266,0.,0.,0.,0.3795857\Polar=62.9192014,-0.0
 487443,61.9878766,0.,0.,34.4325403\PolarDeriv=0.7159689,-1.9673882,-8.
 7542396,0.,0.,-2.983447,6.6367082,0.8577246,-5.513826,0.,0.,3.5415503,
 0.,0.,0.,-4.531709,4.0531139,0.,0.2527722,1.0880539,-8.4543543,0.,0.,-
 3.4295678,-6.376838,2.0568884,6.1659179,0.,0.,-3.1960829,0.,0.,0.,-4.9
 825993,-3.5403141,0.,-0.7878015,3.1070351,11.7452975,0.,0.,3.239129,5.
 6916815,2.7682027,10.7313328,0.,0.,1.4562053,0.,0.,0.,2.7646165,3.6531
 427,0.,4.5377992,-0.4202551,-0.1759014,0.,0.,0.6510912,-0.4810872,-1.6
 527736,0.1817957,0.,0.,-0.053453,0.,0.,0.,4.019942,-0.2351323,0.,-1.97
 3875,-1.3494395,10.907415,0.,0.,3.0648985,-4.9200775,2.2792677,-12.580
 0258,0.,0.,-1.783461,0.,0.,0.,2.3300737,-3.9317972,0.,-7.1833329,4.327
 4414,-3.898789,0.,0.,-0.835747,4.2568982,-4.2882458,5.9234104,0.,0.,0.
 6126336,0.,0.,0.,0.067282,0.2581708,0.,-8.5609615,-4.2930863,-3.495744
 7,0.,0.,-0.8923179,-4.288296,-3.8936712,-4.5833117,0.,0.,-0.5123231,0.
 ,0.,0.,0.0719039,-0.2408751,0.,12.9994306,-0.4923615,2.1263164,0.,0.,1
 .1859608,-0.5189893,1.8726071,-0.3252933,0.,0.,-0.0650692,0.,0.,0.,0.2
 604902,-0.0163087,0.\HyperPolar=43.7019525,-4.8265498,-20.7430012,3.50
 77685,0.,0.,0.,-57.1813215,3.1579976,0.\Quadrupole=7.1478573,-4.996461
 9,-2.1513954,-0.6077459,0.,0.\PG=CS [SG(C2H3N3)]\NImag=0\\0.76889455,-
 0.16957448,0.70357364,0.,0.,0.13542818,-0.11589200,-0.03086052,0.,0.80
 566313,0.01140986,-0.28973132,0.,0.15817508,0.66704227,0.,0.,-0.070114
 45,0.,0.,0.13537135,-0.32770626,-0.07616235,0.,-0.00968980,-0.10839759
 ,0.,0.54708704,-0.06228867,-0.13447050,0.,-0.01855672,-0.02821032,0.,0
 .04222023,0.50899089,0.,0.,-0.07290728,0.,0.,0.01945808,0.,0.,0.105151
 94,-0.13189173,0.01688186,0.,-0.13972019,-0.00363383,0.,-0.14538926,0.
 03754915,0.,1.04702840,0.06664308,-0.02084834,0.,-0.05335274,-0.012957
 26,0.,0.10525112,-0.24464468,0.,-0.02614738,0.57858332,0.,0.,0.0138716
 2,0.,0.,0.01393348,0.,0.,-0.06939719,0.,0.,0.10047696,0.00410066,0.104
 79451,0.,-0.30994288,0.09574645,0.,-0.03979563,-0.02345322,0.,-0.16197
 111,-0.11455349,0.,0.53654305,0.01492546,-0.04202128,0.,0.08188563,-0.
 15214899,0.,0.01527481,-0.11301093,0.,-0.04684619,-0.22751955,0.,-0.04
 519822,0.51868195,0.,0.,0.01944585,0.,0.,-0.07288048,0.,0.,0.03061816,
 0.,0.,-0.06930526,0.,0.,0.10502125,-0.20865669,0.14702049,0.,0.0089787
 7,-0.00477097,0.,-0.01745068,0.02137221,0.,-0.00616741,-0.00139044,0.,
 0.00073403,-0.00343803,0.,0.22295456,0.15522439,-0.20692526,0.,0.01899
 299,-0.00361364,0.,-0.00930675,0.01224322,0.,-0.00527258,0.00001852,0.
 ,0.00169477,-0.00554031,0.,-0.16065078,0.20290666,0.,0.,-0.02980190,0.
 ,0.,-0.00096840,0.,0.,-0.00723856,0.,0.,0.00701545,0.,0.,0.00642714,0.
 ,0.,0.02405716,0.00724798,0.00356097,0.,-0.24226937,-0.14303283,0.,0.0
 0084353,0.00271643,0.,-0.00536740,0.00198203,0.,-0.01840979,-0.0179547
 0,0.,-0.00037422,-0.00046937,0.,0.25845908,-0.02021334,-0.00188317,0.,
 -0.15125222,-0.17372407,0.,-0.00241350,-0.00565981,0.,0.00586934,-0.00
 079880,0.,0.01274062,0.01322423,0.,0.00050699,-0.00004666,0.,0.1544261
 2,0.16781782,0.,0.,-0.00096612,0.,0.,-0.02984155,0.,0.,0.00642483,0.,0
 .,0.00701570,0.,0.,-0.00724180,0.,0.,-0.00144946,0.,0.,0.02409802,0.00
 390350,0.00433952,0.,0.00287234,-0.00549618,0.,-0.00789895,0.00044058,
 0.,-0.45652129,0.02156782,0.,-0.01125834,0.00135125,0.,-0.00001835,-0.
 00021268,0.,-0.00012981,0.00033599,0.,0.46905090,0.00387370,-0.0076937
 6,0.,-0.00503150,-0.00665666,0.,0.03353403,0.00476212,0.,0.02159962,-0
 .07183322,0.,-0.03177142,0.00833490,0.,0.00135053,0.00095748,0.,-0.001
 22867,0.00107046,0.,-0.02232629,0.07105867,0.,0.,0.00504410,0.,0.,0.00
 504197,0.,0.,-0.01210999,0.,0.,-0.00361077,0.,0.,-0.01208487,0.,0.,0.0
 0195857,0.,0.,0.00196038,0.,0.,0.01380062\\0.00003377,-0.00000699,0.,0
 .00002978,0.00000963,0.,-0.00001397,-0.00001805,0.,-0.00002474,-0.0000
 0331,0.,-0.00002123,0.00001662,0.,0.00000638,0.00000415,0.,0.00000184,
 0.00000047,0.,-0.00001184,-0.00000252,0.\\\@
 The archive entry for this job was punched.


 THE REASON MAN'S BEST FRIEND IS A DOG IS BECAUSE
 HE WAGS HIS TAIL INSTEAD OF HIS TONGUE.
 Job cpu time:       0 days  0 hours  7 minutes  6.6 seconds.
 Elapsed time:       0 days  0 hours  4 minutes 13.8 seconds.
 File lengths (MBytes):  RWF=     68 Int=      0 D2E=      0 Chk=      8 Scr=      1
 Normal termination of Gaussian 16 at Fri Jun  2 11:11:26 2023.
