 Entering Gaussian System, Link 0=g16
 Input=choline-H_dissociation-site_index-17-freq.gjf
 Output=choline-H_dissociation-site_index-17-freq.log
 Initial command:
 /software/commercial/gaussian/g16/AVX/g16/l1.exe "/scratch1/svicchi/G09-659739.pbs02/Gau-2076957.inp" -scrdir="/scratch1/svicchi/G09-659739.pbs02/"
 Entering Link 1 = /software/commercial/gaussian/g16/AVX/g16/l1.exe PID=   2076958.
  
 Copyright (c) 1988-2019, Gaussian, Inc.  All Rights Reserved.
  
 This is part of the Gaussian(R) 16 program.  It is based on
 the Gaussian(R) 09 system (copyright 2009, Gaussian, Inc.),
 the Gaussian(R) 03 system (copyright 2003, Gaussian, Inc.),
 the Gaussian(R) 98 system (copyright 1998, Gaussian, Inc.),
 the Gaussian(R) 94 system (copyright 1995, Gaussian, Inc.),
 the Gaussian 92(TM) system (copyright 1992, Gaussian, Inc.),
 the Gaussian 90(TM) system (copyright 1990, Gaussian, Inc.),
 the Gaussian 88(TM) system (copyright 1988, Gaussian, Inc.),
 the Gaussian 86(TM) system (copyright 1986, Carnegie Mellon
 University), and the Gaussian 82(TM) system (copyright 1983,
 Carnegie Mellon University). Gaussian is a federally registered
 trademark of Gaussian, Inc.
  
 This software contains proprietary and confidential information,
 including trade secrets, belonging to Gaussian, Inc.
  
 This software is provided under written license and may be
 used, copied, transmitted, or stored only in accord with that
 written license.
  
 The following legend is applicable only to US Government
 contracts under FAR:
  
                    RESTRICTED RIGHTS LEGEND
  
 Use, reproduction and disclosure by the US Government is
 subject to restrictions as set forth in subparagraphs (a)
 and (c) of the Commercial Computer Software - Restricted
 Rights clause in FAR 52.227-19.
  
 Gaussian, Inc.
 340 Quinnipiac St., Bldg. 40, Wallingford CT 06492
  
  
 ---------------------------------------------------------------
 Warning -- This program may not be used in any manner that
 competes with the business of Gaussian, Inc. or will provide
 assistance to any competitor of Gaussian, Inc.  The licensee
 of this program is prohibited from giving any competitor of
 Gaussian, Inc. access to this program.  By using this program,
 the user acknowledges that Gaussian, Inc. is engaged in the
 business of creating and licensing software in the field of
 computational chemistry and represents and warrants to the
 licensee that it is not a competitor of Gaussian, Inc. and that
 it will not use this program in any manner prohibited above.
 ---------------------------------------------------------------
  

 Cite this work as:
 Gaussian 16, Revision C.01,
 M. J. Frisch, G. W. Trucks, H. B. Schlegel, G. E. Scuseria, 
 M. A. Robb, J. R. Cheeseman, G. Scalmani, V. Barone, 
 G. A. Petersson, H. Nakatsuji, X. Li, M. Caricato, A. V. Marenich, 
 J. Bloino, B. G. Janesko, R. Gomperts, B. Mennucci, H. P. Hratchian, 
 J. V. Ortiz, A. F. Izmaylov, J. L. Sonnenberg, D. Williams-Young, 
 F. Ding, F. Lipparini, F. Egidi, J. Goings, B. Peng, A. Petrone, 
 T. Henderson, D. Ranasinghe, V. G. Zakrzewski, J. Gao, N. Rega, 
 G. Zheng, W. Liang, M. Hada, M. Ehara, K. Toyota, R. Fukuda, 
 J. Hasegawa, M. Ishida, T. Nakajima, Y. Honda, O. Kitao, H. Nakai, 
 T. Vreven, K. Throssell, J. A. Montgomery, Jr., J. E. Peralta, 
 F. Ogliaro, M. J. Bearpark, J. J. Heyd, E. N. Brothers, K. N. Kudin, 
 V. N. Staroverov, T. A. Keith, R. Kobayashi, J. Normand, 
 K. Raghavachari, A. P. Rendell, J. C. Burant, S. S. Iyengar, 
 J. Tomasi, M. Cossi, J. M. Millam, M. Klene, C. Adamo, R. Cammi, 
 J. W. Ochterski, R. L. Martin, K. Morokuma, O. Farkas, 
 J. B. Foresman, and D. J. Fox, Gaussian, Inc., Wallingford CT, 2019.
 
 ******************************************
 Gaussian 16:  ES64L-G16RevC.01  3-Jul-2019
                 2-Jun-2023 
 ******************************************
 %NProcShared=2
 Will use up to    2 processors via shared memory.
 %mem=55gb
 %chk=/scratch1/svicchi/G09-659739.pbs02/02-freq/choline-H_dissociation-site_inde
 x-17-freq.chk
 ----------------------------------------------------------------------
 #p freq=raman scale=0.967 pop=(nbo,full,hirshfeld) guess=read geom=all
 check b3lyp/6-311+G(d,p) int=grid=ultrafine EmpiricalDispersion=GD3BJ 
 SCRF=(Solvent=ethanol) scf=(xqc,intrep,maxconventionalcycle=350) nosym
 m
 ----------------------------------------------------------------------
 1/10=4,29=7,30=1,38=1,114=967000/1,3;
 2/12=2,15=1,40=1/2;
 3/5=4,6=6,7=111,11=2,14=-4,25=1,30=1,70=2201,71=2,72=4,74=-5,75=-5,116=-2,124=41,140=1/1,2,3;
 4/5=1/1;
 5/5=2,8=3,13=1,17=20,38=6,53=4,85=350,98=1/2,8;
 8/6=4,10=90,11=11/1;
 10/13=10,15=4,31=1/2;
 11/6=3,8=1,9=11,15=111,16=1,31=1/1,2,10;
 10/6=1,31=1/2;
 6/7=3,28=1,40=1,79=1/1,7;
 7/8=1,10=1,25=1,30=1/1,2,3,16;
 1/10=4,30=1/3;
 99//99;
 Leave Link    1 at Fri Jun  2 11:15:23 2023, MaxMem=  7381975040 cpu:               1.0 elap:               1.7
 (Enter /software/commercial/gaussian/g16/AVX/g16/l101.exe)
 Structure from the checkpoint file:  "/scratch1/svicchi/G09-659739.pbs02/02-freq/choline-H_dissociation-site_index-17-freq.chk"
 ----------------------------------------
 choline-H_dissociation-site_index-17.gjf
 ----------------------------------------
 Charge =  0 Multiplicity = 1
 No Z-Matrix found in chk file; cartesian coordinates used.
  N                                                -4.920173737168      1.801704274408      0.028980417526
  C                                                -6.161585837755      1.725166389757     -0.804463422010
  H                                                -6.307962292461      2.682534028916     -1.300071044652
  H                                                -7.008096612978      1.507748522802     -0.154955017467
  H                                                -6.043054470582      0.936264090103     -1.544240101720
  C                                                -5.118727511877      2.816563177162      1.124182325890
  H                                                -5.892717722003      2.448936718405      1.796296836396
  H                                                -5.434640115498      3.751865795846      0.665895752295
  H                                                -4.150439513010      2.931806414546      1.610907966691
  C                                                -4.654404999742      0.461754281735      0.646647677191
  H                                                -3.801594504585      0.563458179725      1.311826866596
  H                                                -4.443685492718     -0.254702302167     -0.144247507080
  H                                                -5.541125271526      0.158358025078      1.199582782361
  C                                                -3.748892808764      2.231177850138     -0.855813269133
  C                                                -2.355472037163      1.995656287205     -0.227499219576
  H                                                -3.918740199426      3.290020723816     -1.057023147615
  H                                                -3.847003442540      1.668671957669     -1.787251979521
  O                                                -2.172566270404      2.528235818561      1.009650155684
  H                                                -1.676998737767      2.402116727707     -1.018072363443
  H                                                -2.179958422033      0.894585038590     -0.273300708412
 Recover connectivity data from disk.
 ITRead=  0  0  0  0  0  0  0  0  0  0  0  0  0  0  0  0  0  0  0  0
 MicOpt= -1 -1 -1 -1 -1 -1 -1 -1 -1 -1 -1 -1 -1 -1 -1 -1 -1 -1 -1 -1
 NAtoms=     20 NQM=       20 NQMF=       0 NMMI=      0 NMMIF=      0
                NMic=       0 NMicF=      0.
                    Isotopes and Nuclear Properties:
 (Nuclear quadrupole moments (NQMom) in fm**2, nuclear magnetic moments (NMagM)
  in nuclear magnetons)

  Atom         1           2           3           4           5           6           7           8           9          10
 IAtWgt=          14          12           1           1           1          12           1           1           1          12
 AtmWgt=  14.0030740  12.0000000   1.0078250   1.0078250   1.0078250  12.0000000   1.0078250   1.0078250   1.0078250  12.0000000
 NucSpn=           2           0           1           1           1           0           1           1           1           0
 AtZEff=   4.5500000   3.6000000   1.0000000   1.0000000   1.0000000   3.6000000   1.0000000   1.0000000   1.0000000   3.6000000
 NQMom=    2.0440000   0.0000000   0.0000000   0.0000000   0.0000000   0.0000000   0.0000000   0.0000000   0.0000000   0.0000000
 NMagM=    0.4037610   0.0000000   2.7928460   2.7928460   2.7928460   0.0000000   2.7928460   2.7928460   2.7928460   0.0000000
 AtZNuc=   7.0000000   6.0000000   1.0000000   1.0000000   1.0000000   6.0000000   1.0000000   1.0000000   1.0000000   6.0000000

  Atom        11          12          13          14          15          16          17          18          19          20
 IAtWgt=           1           1           1          12          12           1           1          16           1           1
 AtmWgt=   1.0078250   1.0078250   1.0078250  12.0000000  12.0000000   1.0078250   1.0078250  15.9949146   1.0078250   1.0078250
 NucSpn=           1           1           1           0           0           1           1           0           1           1
 AtZEff=   1.0000000   1.0000000   1.0000000   3.6000000   3.6000000   1.0000000   1.0000000   5.6000000   1.0000000   1.0000000
 NQMom=    0.0000000   0.0000000   0.0000000   0.0000000   0.0000000   0.0000000   0.0000000   0.0000000   0.0000000   0.0000000
 NMagM=    2.7928460   2.7928460   2.7928460   0.0000000   0.0000000   2.7928460   2.7928460   0.0000000   2.7928460   2.7928460
 AtZNuc=   1.0000000   1.0000000   1.0000000   6.0000000   6.0000000   1.0000000   1.0000000   8.0000000   1.0000000   1.0000000
 Leave Link  101 at Fri Jun  2 11:15:25 2023, MaxMem=  7381975040 cpu:               0.3 elap:               0.7
 (Enter /software/commercial/gaussian/g16/AVX/g16/l103.exe)

 GradGradGradGradGradGradGradGradGradGradGradGradGradGradGradGradGradGrad
 Berny optimization.
 Initialization pass.
 Trust Radius=3.00D-01 FncErr=1.00D-07 GrdErr=1.00D-07 EigMax=2.50D+02 EigMin=1.00D-04
 Number of steps in this run=      2 maximum allowed number of steps=      2.
 GradGradGradGradGradGradGradGradGradGradGradGradGradGradGradGradGradGrad

 Leave Link  103 at Fri Jun  2 11:15:27 2023, MaxMem=  7381975040 cpu:               0.1 elap:               1.5
 (Enter /software/commercial/gaussian/g16/AVX/g16/l202.exe)
                          Input orientation:                          
 ---------------------------------------------------------------------
 Center     Atomic      Atomic             Coordinates (Angstroms)
 Number     Number       Type             X           Y           Z
 ---------------------------------------------------------------------
      1          7           0       -4.920174    1.801704    0.028980
      2          6           0       -6.161586    1.725166   -0.804463
      3          1           0       -6.307962    2.682534   -1.300071
      4          1           0       -7.008097    1.507749   -0.154955
      5          1           0       -6.043054    0.936264   -1.544240
      6          6           0       -5.118728    2.816563    1.124182
      7          1           0       -5.892718    2.448937    1.796297
      8          1           0       -5.434640    3.751866    0.665896
      9          1           0       -4.150440    2.931806    1.610908
     10          6           0       -4.654405    0.461754    0.646648
     11          1           0       -3.801595    0.563458    1.311827
     12          1           0       -4.443685   -0.254702   -0.144248
     13          1           0       -5.541125    0.158358    1.199583
     14          6           0       -3.748893    2.231178   -0.855813
     15          6           0       -2.355472    1.995656   -0.227499
     16          1           0       -3.918740    3.290021   -1.057023
     17          1           0       -3.847003    1.668672   -1.787252
     18          8           0       -2.172566    2.528236    1.009650
     19          1           0       -1.676999    2.402117   -1.018072
     20          1           0       -2.179958    0.894585   -0.273301
 ---------------------------------------------------------------------
                    Distance matrix (angstroms):
                    1          2          3          4          5
     1  N    0.000000
     2  C    1.497194   0.000000
     3  H    2.113811   1.087936   0.000000
     4  H    2.116522   1.088904   1.783704   0.000000
     5  H    2.117751   1.087973   1.783046   1.785501   0.000000
     6  C    1.506263   2.449158   2.703562   2.630381   3.392696
     7  H    2.118528   2.712948   3.132809   2.436655   3.670145
     8  H    2.115057   2.607281   2.402330   2.861053   3.630769
     9  H    2.090961   3.366706   3.631920   3.648619   4.185587
    10  C    1.499204   2.444080   3.384646   2.697505   2.636948
    11  H    2.104796   3.376064   4.194565   3.650314   3.649691
    12  H    2.117984   2.703136   3.665899   3.111680   2.436465
    13  H    2.111037   2.618408   3.634250   2.409903   2.895796
    14  C    1.529446   2.465719   2.636271   3.411299   2.722850
    15  C    2.584781   3.859087   4.152637   4.678700   4.056400
    16  H    2.096988   2.746436   2.477195   3.678905   3.207844
    17  H    2.113786   2.515225   2.705842   3.561292   2.327685
    18  O    3.006478   4.455133   4.739211   5.077406   4.902796
    19  H    3.460491   4.540420   4.648008   5.474073   4.635517
    20  H    2.902244   4.101872   4.614264   4.868356   4.067006
                    6          7          8          9         10
     6  C    0.000000
     7  H    1.089012   0.000000
     8  H    1.088402   1.784731   0.000000
     9  H    1.089846   1.817434   1.792963   0.000000
    10  C    2.447194   2.608449   3.381416   2.699062   0.000000
    11  H    2.616588   2.857015   3.640056   2.412512   1.086321
    12  H    3.390762   3.629748   4.206056   3.649713   1.087763
    13  H    2.692612   2.392997   3.634482   3.129730   1.088145
    14  C    2.477803   3.417176   2.733100   2.595541   2.491626
    15  C    3.183789   4.100405   3.655640   2.734598   2.898634
    16  H    2.534125   3.570076   2.340877   2.701825   3.382719
    17  H    3.378074   4.199474   3.588624   3.638004   2.834152
    18  O    2.962451   3.803239   3.500937   2.106267   3.249868
    19  H    4.075110   5.069039   4.333294   3.648290   3.924442
    20  H    3.779328   4.525906   4.431602   3.403426   2.675170
                   11         12         13         14         15
    11  H    0.000000
    12  H    1.789363   0.000000
    13  H    1.789601   1.783500   0.000000
    14  C    2.735458   2.677436   3.425395   0.000000
    15  C    2.551859   3.071104   3.944694   1.546567   0.000000
    16  H    3.613768   3.697809   4.187089   1.091092   2.192555
    17  H    3.290570   2.599012   3.751304   1.092528   2.182754
    18  O    2.570096   3.772825   4.123055   2.460285   1.359277
    19  H    3.650069   3.934058   4.988379   2.085256   1.118276
    20  H    2.291719   2.542042   3.742841   2.141811   1.115912
                   16         17         18         19         20
    16  H    0.000000
    17  H    1.779649   0.000000
    18  O    2.810797   3.371239   0.000000
    19  H    2.411492   2.416299   2.091208   0.000000
    20  H    3.061976   2.381239   2.077217   1.755080   0.000000
 Symmetry turned off by external request.
 Stoichiometry    C5H13NO
 Framework group  C1[X(C5H13NO)]
 Deg. of freedom    54
 Full point group                 C1      NOp   1
 Rotational constants (GHZ):           4.0581476           1.8551666           1.7722134
 Leave Link  202 at Fri Jun  2 11:15:29 2023, MaxMem=  7381975040 cpu:               0.0 elap:               1.1
 (Enter /software/commercial/gaussian/g16/AVX/g16/l301.exe)
 Standard basis: 6-311+G(d,p) (5D, 7F)
 Ernie: Thresh=  0.10000D-02 Tol=  0.10000D-05 Strict=F.
   232 basis functions,   356 primitive gaussians,   239 cartesian basis functions
    29 alpha electrons       29 beta electrons
       nuclear repulsion energy       351.3227641112 Hartrees.
 IExCor=  402 DFT=T Ex+Corr=B3LYP ExCW=0 ScaHFX=  0.200000
 ScaDFX=  0.800000  0.720000  1.000000  0.810000 ScalE2=  1.000000  1.000000
 IRadAn=      5 IRanWt=     -1 IRanGd=            0 ICorTp=0 IEmpDi=141
 NAtoms=   20 NActive=   20 NUniq=   20 SFac= 1.00D+00 NAtFMM=   60 NAOKFM=F Big=F
 Integral buffers will be    131072 words long.
 Raffenetti 2 integral format.
 Two-electron integral symmetry is turned off.
 R6Disp:  Grimme-D3(BJ) Dispersion energy=       -0.0305930617 Hartrees.
 Nuclear repulsion after empirical dispersion term =      351.2921710495 Hartrees.
 Force inversion solution in PCM.
 ------------------------------------------------------------------------------
 Polarizable Continuum Model (PCM)
 =================================
 Model                : PCM.
 Atomic radii         : UFF (Universal Force Field).
 Polarization charges : Total charges.
 Charge compensation  : None.
 Solution method      : Matrix inversion.
 Cavity type          : Scaled VdW (van der Waals Surface) (Alpha=1.100).
 Cavity algorithm     : GePol (No added spheres)
                        Default sphere list used, NSphG=   20.
                        Lebedev-Laikov grids with approx.  5.0 points / Ang**2.
                        Smoothing algorithm: York/Karplus (Gamma=1.0000).
                        Polarization charges: spherical gaussians, with
                                              point-specific exponents (IZeta= 3).
                        Self-potential: point-specific (ISelfS= 7).
                        Self-field    : sphere-specific E.n sum rule (ISelfD= 2).
 1st derivatives      : Analytical E(r).r(x)/FMM algorithm (CHGder, D1EAlg=3).
                        Cavity 1st derivative terms included.
 2nd derivatives      : Analytical E(r).r(xy)/FMM algorithm (CHGder, D2EAlg=3).
                        Cavity 2nd derivative terms included.
 Solvent              : Ethanol, Eps=  24.852000 Eps(inf)=   1.852593
 ------------------------------------------------------------------------------
 Spheres list:
 ISph  on   Nord     Re0    Alpha      Xe            Ye            Ze
    1   N      1    1.8300  1.100     -4.920174      1.801704      0.028980
    2   C      2    1.9255  1.100     -6.161586      1.725166     -0.804463
    3   H      3    1.4430  1.100     -6.307962      2.682534     -1.300071
    4   H      4    1.4430  1.100     -7.008097      1.507749     -0.154955
    5   H      5    1.4430  1.100     -6.043054      0.936264     -1.544240
    6   C      6    1.9255  1.100     -5.118728      2.816563      1.124182
    7   H      7    1.4430  1.100     -5.892718      2.448937      1.796297
    8   H      8    1.4430  1.100     -5.434640      3.751866      0.665896
    9   H      9    1.4430  1.100     -4.150440      2.931806      1.610908
   10   C     10    1.9255  1.100     -4.654405      0.461754      0.646648
   11   H     11    1.4430  1.100     -3.801595      0.563458      1.311827
   12   H     12    1.4430  1.100     -4.443685     -0.254702     -0.144248
   13   H     13    1.4430  1.100     -5.541125      0.158358      1.199583
   14   C     14    1.9255  1.100     -3.748893      2.231178     -0.855813
   15   C     15    1.9255  1.100     -2.355472      1.995656     -0.227499
   16   H     16    1.4430  1.100     -3.918740      3.290021     -1.057023
   17   H     17    1.4430  1.100     -3.847003      1.668672     -1.787252
   18   O     18    1.7500  1.100     -2.172566      2.528236      1.009650
   19   H     19    1.4430  1.100     -1.676999      2.402117     -1.018072
   20   H     20    1.4430  1.100     -2.179958      0.894585     -0.273301
 ------------------------------------------------------------------------------
 GePol: Number of generator spheres                  =      20
 GePol: Total number of spheres                      =      20
 GePol: Number of exposed spheres                    =      19 ( 95.00%)
 GePol: Number of points                             =    1313
 GePol: Average weight of points                     =       0.14
 GePol: Minimum weight of points                     =   0.75D-11
 GePol: Maximum weight of points                     =    0.20577
 GePol: Number of points with low weight             =      66
 GePol: Fraction of low-weight points (<1% of avg)   =       5.03%
 GePol: Cavity surface area                          =    178.464 Ang**2
 GePol: Cavity volume                                =    180.046 Ang**3
 Leave Link  301 at Fri Jun  2 11:15:31 2023, MaxMem=  7381975040 cpu:               0.6 elap:               1.2
 (Enter /software/commercial/gaussian/g16/AVX/g16/l302.exe)
 NPDir=0 NMtPBC=     1 NCelOv=     1 NCel=       1 NClECP=     1 NCelD=      1
         NCelK=      1 NCelE2=     1 NClLst=     1 CellRange=     0.0.
 One-electron integrals computed using PRISM.
 NBasis=   232 RedAO= T EigKep=  4.07D-05  NBF=   232
 NBsUse=   232 1.00D-06 EigRej= -1.00D+00 NBFU=   232
 Precomputing XC quadrature grid using
 IXCGrd= 4 IRadAn=           5 IRanWt=          -1 IRanGd=           0 AccXCQ= 0.00D+00.
 Generated NRdTot=       0 NPtTot=           0 NUsed=           0 NTot=          32
 NSgBfM=   239   239   239   239   239 MxSgAt=    20 MxSgA2=    20.
 Leave Link  302 at Fri Jun  2 11:15:34 2023, MaxMem=  7381975040 cpu:               1.1 elap:               1.5
 (Enter /software/commercial/gaussian/g16/AVX/g16/l303.exe)
 DipDrv:  MaxL=1.
 Leave Link  303 at Fri Jun  2 11:15:37 2023, MaxMem=  7381975040 cpu:               0.5 elap:               1.5
 (Enter /software/commercial/gaussian/g16/AVX/g16/l401.exe)
 Initial guess from the checkpoint file:  "/scratch1/svicchi/G09-659739.pbs02/02-freq/choline-H_dissociation-site_index-17-freq.chk"
 B after Tr=     0.000000    0.000000    0.000000
         Rot=    1.000000    0.000000    0.000000    0.000000 Ang=   0.00 deg.
 Guess basis will be translated and rotated to current coordinates.
 JPrj=2 DoOrth=T DoCkMO=T.
 Leave Link  401 at Fri Jun  2 11:15:39 2023, MaxMem=  7381975040 cpu:               0.7 elap:               1.2
 (Enter /software/commercial/gaussian/g16/AVX/g16/l502.exe)
 Keep R1 ints in memory in canonical form, NReq=372183167.
 FoFCou: FMM=F IPFlag=           0 FMFlag=           0 FMFlg1=           0
         NFxFlg=           0 DoJE=F BraDBF=F KetDBF=F FulRan=T
         wScrn=  0.000000 ICntrl=       600 IOpCl=  0 I1Cent=           0 NGrid=           0
         NMat0=    1 NMatS0=  27028 NMatT0=    0 NMatD0=    1 NMtDS0=    0 NMtDT0=    0
 Symmetry not used in FoFCou.
 Two-electron integral symmetry not used.
 Closed shell SCF:
 Using DIIS extrapolation, IDIIS=  1040.
 NGot=  7381975040 LenX=  7016587017 LenY=  7016529455
 Requested convergence on RMS density matrix=1.00D-08 within 350 cycles.
 Requested convergence on MAX density matrix=1.00D-06.
 Requested convergence on             energy=1.00D-06.
 No special actions if energy rises.

 Cycle   1  Pass 1  IDiag  1:
 Inv3:  Mode=1 IEnd=     5171907.
 Iteration    1 A*A^-1 deviation from unit magnitude is 5.55D-15 for   1300.
 Iteration    1 A*A^-1 deviation from orthogonality  is 1.95D-15 for   1097    790.
 Iteration    1 A^-1*A deviation from unit magnitude is 5.55D-15 for   1300.
 Iteration    1 A^-1*A deviation from orthogonality  is 3.35D-12 for   1306   1238.
 E= -328.401478499948    
 DIIS: error= 2.97D-08 at cycle   1 NSaved=   1.
 NSaved= 1 IEnMin= 1 EnMin= -328.401478499948     IErMin= 1 ErrMin= 2.97D-08
 ErrMax= 2.97D-08  0.00D+00 EMaxC= 1.00D-01 BMatC= 1.06D-13 BMatP= 1.06D-13
 IDIUse=1 WtCom= 1.00D+00 WtEn= 0.00D+00
 Coeff-Com:  0.100D+01
 Coeff:      0.100D+01
 Gap=     0.190 Goal=   None    Shift=    0.000
 RMSDP=3.33D-09 MaxDP=1.50D-07              OVMax= 1.28D-07

 Error on total polarization charges =  0.01623
 SCF Done:  E(RB3LYP) =  -328.401478500     A.U. after    1 cycles
            NFock=  1  Conv=0.33D-08     -V/T= 2.0047
 KE= 3.268588836675D+02 PE=-1.466806521542D+03 EE= 4.602539883249D+02
 Leave Link  502 at Fri Jun  2 11:16:03 2023, MaxMem=  7381975040 cpu:              42.2 elap:              23.4
 (Enter /software/commercial/gaussian/g16/AVX/g16/l508.exe)
 QCSCF skips out because SCF is already converged.
 Leave Link  508 at Fri Jun  2 11:16:06 2023, MaxMem=  7381975040 cpu:               0.0 elap:               1.0
 (Enter /software/commercial/gaussian/g16/AVX/g16/l801.exe)
 DoSCS=F DFT=T ScalE2(SS,OS)=  1.000000  1.000000
 Range of M.O.s used for correlation:     1   232
 NBasis=   232 NAE=    29 NBE=    29 NFC=     0 NFV=     0
 NROrb=    232 NOA=    29 NOB=    29 NVA=   203 NVB=   203

 **** Warning!!: The largest alpha MO coefficient is  0.40451502D+02

 Leave Link  801 at Fri Jun  2 11:16:08 2023, MaxMem=  7381975040 cpu:               0.2 elap:               0.9
 (Enter /software/commercial/gaussian/g16/AVX/g16/l1002.exe)
 Minotr:  Closed shell wavefunction.
 NEqPCM:  Using equilibrium solvation (IEInf=0, Eps=  24.8520, EpsInf=   1.8526)
          Direct CPHF calculation.
          Differentiating once with respect to electric field.
                with respect to dipole field.
          Electric field/nuclear overlap derivatives assumed to be zero.
          Requested convergence is 1.0D-08 RMS, and 1.0D-07 maximum.
          Secondary convergence is 1.0D-12 RMS, and 1.0D-12 maximum.
          NewPWx=F KeepS1=T KeepF1=T KeepIn=T MapXYZ=F SortEE=F KeepMc=T.
         6122 words used for storage of precomputed grid.
 Keep R1 ints in memory in canonical form, NReq=372191409.
 FoFCou: FMM=F IPFlag=           0 FMFlag=           0 FMFlg1=           0
         NFxFlg=           0 DoJE=F BraDBF=F KetDBF=F FulRan=T
         wScrn=  0.000000 ICntrl=       600 IOpCl=  0 I1Cent=           0 NGrid=           0
         NMat0=    1 NMatS0=  27028 NMatT0=    0 NMatD0=    1 NMtDS0=    0 NMtDT0=    0
 Symmetry not used in FoFCou.
 Two-electron integral symmetry not used.
          MDV=    7381975040 using IRadAn=       1.
          Solving linear equations simultaneously, MaxMat=       0.
          There are     3 degrees of freedom in the 1st order CPHF.  IDoFFX=0 NUNeed=     3.
      3 vectors produced by pass  0 Test12= 1.96D-13 3.33D-08 XBig12= 5.38D+01 1.85D+00.
 AX will form     3 AO Fock derivatives at one time.
      3 vectors produced by pass  1 Test12= 1.96D-13 3.33D-08 XBig12= 8.00D+00 4.41D-01.
      3 vectors produced by pass  2 Test12= 1.96D-13 3.33D-08 XBig12= 2.22D+00 2.66D-01.
      3 vectors produced by pass  3 Test12= 1.96D-13 3.33D-08 XBig12= 3.10D-01 9.10D-02.
      3 vectors produced by pass  4 Test12= 1.96D-13 3.33D-08 XBig12= 6.48D-02 4.43D-02.
      3 vectors produced by pass  5 Test12= 1.96D-13 3.33D-08 XBig12= 7.34D-03 1.48D-02.
      3 vectors produced by pass  6 Test12= 1.96D-13 3.33D-08 XBig12= 9.14D-04 4.31D-03.
      3 vectors produced by pass  7 Test12= 1.96D-13 3.33D-08 XBig12= 1.34D-04 1.49D-03.
      3 vectors produced by pass  8 Test12= 1.96D-13 3.33D-08 XBig12= 4.70D-06 2.91D-04.
      3 vectors produced by pass  9 Test12= 1.96D-13 3.33D-08 XBig12= 1.34D-07 5.87D-05.
      3 vectors produced by pass 10 Test12= 1.96D-13 3.33D-08 XBig12= 4.88D-09 9.74D-06.
      3 vectors produced by pass 11 Test12= 1.96D-13 3.33D-08 XBig12= 7.50D-11 9.79D-07.
      3 vectors produced by pass 12 Test12= 1.96D-13 3.33D-08 XBig12= 2.42D-12 1.77D-07.
 InvSVY:  IOpt=1 It=  1 EMax= 4.44D-15
 Solved reduced A of dimension    39 with     3 vectors.
 End of Minotr F.D. properties file   721 does not exist.
 End of Minotr F.D. properties file   722 does not exist.
 End of Minotr F.D. properties file   788 does not exist.
 Leave Link 1002 at Fri Jun  2 11:18:21 2023, MaxMem=  7381975040 cpu:             250.0 elap:             131.6
 (Enter /software/commercial/gaussian/g16/AVX/g16/l1101.exe)
 Using compressed storage, NAtomX=    20.
 Will process     21 centers per pass.
 R6Disp: Adding Grimme-D3(BJ) dispersion energy 1st derivatives to the gradient.
 Leave Link 1101 at Fri Jun  2 11:18:24 2023, MaxMem=  7381975040 cpu:               1.5 elap:               2.0
 (Enter /software/commercial/gaussian/g16/AVX/g16/l1102.exe)
 Symmetrizing basis deriv contribution to polar:
 IMax=3 JMax=2 DiffMx= 0.00D+00
 Leave Link 1102 at Fri Jun  2 11:18:26 2023, MaxMem=  7381975040 cpu:               0.2 elap:               0.8
 (Enter /software/commercial/gaussian/g16/AVX/g16/l1110.exe)
 Forming Gx(P) for the SCF density, NAtomX=    20.
 Integral derivatives from FoFJK, PRISM(SPDF).
 Do as many integral derivatives as possible in FoFJK.
 G2DrvN: MDV=    7381972844.
 G2DrvN: will do    21 centers at a time, making    1 passes.
 PxScal for G2LodP:  IOpCl= 0 ISclPx=1 IMOff=     1 NMtTot=     4 NTT=   27028 ScalPx= 2.45D+01
 Calling FoFCou, ICntrl=  3107 FMM=F I1Cent=   0 AccDes= 0.00D+00.
 FoFJK:  IHMeth= 1 ICntrl=    3107 DoSepK=F KAlg= 0 I1Cent=           0 FoldK=F
 IRaf=         0 NMat=       1 IRICut=       1 DoRegI=T DoRafI=F ISym2E= 0 IDoP0=0 IntGTp=1.
 FoFCou: FMM=F IPFlag=           0 FMFlag=      100000 FMFlg1=           0
         NFxFlg=           0 DoJE=F BraDBF=F KetDBF=F FulRan=T
         wScrn=  0.000000 ICntrl=      3107 IOpCl=  0 I1Cent=           0 NGrid=           0
         NMat0=    1 NMatS0=      1 NMatT0=    0 NMatD0=    4 NMtDS0=    3 NMtDT0=    0
 Symmetry not used in FoFCou.
 PxScal for G2LodP:  IOpCl= 0 ISclPx=0 IMOff=     1 NMtTot=     4 NTT=   27028 ScalPx= 1.00D+00
 NEqPCM:  Using equilibrium solvation (IEInf=0, Eps=  24.8520, EpsInf=   1.8526)
 G2PCM: DoFxE=T DoFxN=T DoGrad=T DoDP/DQ/DG/TGxP=TFFF NFrqRd=   0 IEInf=0 SqF1=F DoCFld=F IF1Alg=4.
 GePol: Maximum number of non-zero 1st derivatives   =     189
 End of G2Drv F.D. properties file   721 does not exist.
 End of G2Drv F.D. properties file   722 does not exist.
 End of G2Drv F.D. properties file   788 does not exist.
 Leave Link 1110 at Fri Jun  2 11:24:59 2023, MaxMem=  7381975040 cpu:             775.8 elap:             392.0
 (Enter /software/commercial/gaussian/g16/AVX/g16/l1002.exe)
 Minotr:  Closed shell wavefunction.
          IDoAtm=11111111111111111111
 NEqPCM:  Using equilibrium solvation (IEInf=0, Eps=  24.8520, EpsInf=   1.8526)
          Direct CPHF calculation.
          Differentiating once with respect to electric field.
                with respect to dipole field.
          Differentiating once with respect to nuclear coordinates.
          Requested convergence is 1.0D-08 RMS, and 1.0D-07 maximum.
          Secondary convergence is 1.0D-12 RMS, and 1.0D-12 maximum.
          NewPWx=T KeepS1=F KeepF1=F KeepIn=T MapXYZ=F SortEE=F KeepMc=T.
         6122 words used for storage of precomputed grid.
 Keep R1 ints in memory in canonical form, NReq=372191869.
 FoFCou: FMM=F IPFlag=           0 FMFlag=           0 FMFlg1=           0
         NFxFlg=           0 DoJE=F BraDBF=F KetDBF=F FulRan=T
         wScrn=  0.000000 ICntrl=       600 IOpCl=  0 I1Cent=           0 NGrid=           0
         NMat0=    1 NMatS0=  27028 NMatT0=    0 NMatD0=    1 NMtDS0=    0 NMtDT0=    0
 Symmetry not used in FoFCou.
 Two-electron integral symmetry not used.
          MDV=    7381975040 using IRadAn=       1.
          Solving linear equations simultaneously, MaxMat=       0.
          There are    63 degrees of freedom in the 1st order CPHF.  IDoFFX=5 NUNeed=    63.
 Will reuse    3 saved solutions.
     57 vectors produced by pass  0 Test12= 9.34D-15 1.59D-09 XBig12= 1.54D-01 7.95D-02.
 AX will form    57 AO Fock derivatives at one time.
     57 vectors produced by pass  1 Test12= 9.34D-15 1.59D-09 XBig12= 4.18D-03 1.13D-02.
     57 vectors produced by pass  2 Test12= 9.34D-15 1.59D-09 XBig12= 5.49D-05 1.35D-03.
     57 vectors produced by pass  3 Test12= 9.34D-15 1.59D-09 XBig12= 2.19D-07 6.10D-05.
     57 vectors produced by pass  4 Test12= 9.34D-15 1.59D-09 XBig12= 3.91D-10 1.90D-06.
     43 vectors produced by pass  5 Test12= 9.34D-15 1.59D-09 XBig12= 4.45D-13 5.61D-08.
      2 vectors produced by pass  6 Test12= 9.34D-15 1.59D-09 XBig12= 4.45D-16 3.04D-09.
 InvSVY:  IOpt=1 It=  1 EMax= 3.89D-16
 Solved reduced A of dimension   330 with    63 vectors.
 FullF1:  Do perturbations      1 to       3.
 Isotropic polarizability for W=    0.000000      100.20 Bohr**3.
 FullF1:  Do perturbations      1 to       6.
 End of Minotr F.D. properties file   721 does not exist.
 End of Minotr F.D. properties file   722 does not exist.
 End of Minotr F.D. properties file   788 does not exist.
 Leave Link 1002 at Fri Jun  2 11:31:28 2023, MaxMem=  7381975040 cpu:             749.0 elap:             387.1
 (Enter /software/commercial/gaussian/g16/AVX/g16/l601.exe)
 Copying SCF densities to generalized density rwf, IOpCl= 0 IROHF=0.

 **********************************************************************

            Population analysis using the SCF Density.

 **********************************************************************

 Alpha  occ. eigenvalues --  -19.00645 -14.44110 -10.22556 -10.21922 -10.21109
 Alpha  occ. eigenvalues --  -10.20986 -10.19033  -1.01841  -0.90354  -0.75402
 Alpha  occ. eigenvalues --   -0.75044  -0.74750  -0.64536  -0.58437  -0.52662
 Alpha  occ. eigenvalues --   -0.52161  -0.50630  -0.45612  -0.44303  -0.41943
 Alpha  occ. eigenvalues --   -0.40844  -0.40753  -0.40471  -0.40125  -0.38426
 Alpha  occ. eigenvalues --   -0.36939  -0.33420  -0.19117  -0.18852
 Alpha virt. eigenvalues --    0.00110   0.01989   0.02362   0.02751   0.03645
 Alpha virt. eigenvalues --    0.04524   0.04630   0.04952   0.05503   0.06290
 Alpha virt. eigenvalues --    0.08417   0.08756   0.09378   0.10260   0.10366
 Alpha virt. eigenvalues --    0.10882   0.12281   0.12475   0.13677   0.14333
 Alpha virt. eigenvalues --    0.15411   0.15757   0.16475   0.16909   0.17180
 Alpha virt. eigenvalues --    0.17379   0.18072   0.19700   0.20226   0.21320
 Alpha virt. eigenvalues --    0.22437   0.23259   0.23860   0.24487   0.25620
 Alpha virt. eigenvalues --    0.25801   0.26495   0.27382   0.28262   0.29169
 Alpha virt. eigenvalues --    0.29717   0.30329   0.31825   0.32294   0.34451
 Alpha virt. eigenvalues --    0.37490   0.37742   0.41520   0.42567   0.44848
 Alpha virt. eigenvalues --    0.47135   0.48926   0.50029   0.50492   0.51717
 Alpha virt. eigenvalues --    0.53511   0.54573   0.55680   0.56238   0.58469
 Alpha virt. eigenvalues --    0.60010   0.61288   0.62979   0.62997   0.64444
 Alpha virt. eigenvalues --    0.65545   0.66775   0.68990   0.69440   0.69899
 Alpha virt. eigenvalues --    0.70170   0.73878   0.74947   0.75279   0.77022
 Alpha virt. eigenvalues --    0.78066   0.79099   0.81719   0.88032   0.93901
 Alpha virt. eigenvalues --    0.96932   0.98657   1.00629   1.03006   1.06501
 Alpha virt. eigenvalues --    1.13542   1.16899   1.19746   1.20518   1.21632
 Alpha virt. eigenvalues --    1.26421   1.29687   1.38458   1.40640   1.41963
 Alpha virt. eigenvalues --    1.43437   1.45607   1.46557   1.47233   1.47722
 Alpha virt. eigenvalues --    1.48826   1.49937   1.52170   1.52411   1.55462
 Alpha virt. eigenvalues --    1.56908   1.58466   1.60151   1.61782   1.63412
 Alpha virt. eigenvalues --    1.63943   1.65933   1.67493   1.69143   1.70960
 Alpha virt. eigenvalues --    1.72439   1.74632   1.76901   1.78390   1.82309
 Alpha virt. eigenvalues --    1.83174   1.83720   1.84908   1.87543   1.91867
 Alpha virt. eigenvalues --    1.95693   1.96691   2.02036   2.02716   2.04121
 Alpha virt. eigenvalues --    2.08545   2.12016   2.13225   2.15509   2.18704
 Alpha virt. eigenvalues --    2.20163   2.21514   2.25493   2.28339   2.39542
 Alpha virt. eigenvalues --    2.41291   2.45192   2.46103   2.46626   2.48030
 Alpha virt. eigenvalues --    2.48732   2.49330   2.51236   2.51998   2.52945
 Alpha virt. eigenvalues --    2.55084   2.55870   2.60006   2.60925   2.62416
 Alpha virt. eigenvalues --    2.63549   2.64110   2.64988   2.68242   2.70151
 Alpha virt. eigenvalues --    2.72743   2.73905   2.76531   2.78905   2.80683
 Alpha virt. eigenvalues --    2.86275   2.93344   2.96623   3.00034   3.02845
 Alpha virt. eigenvalues --    3.09966   3.12523   3.14281   3.27729   3.35187
 Alpha virt. eigenvalues --    3.39253   3.53276   3.54470   3.56630   3.65493
 Alpha virt. eigenvalues --    3.74219   3.74952   3.75837   3.77503   3.80159
 Alpha virt. eigenvalues --    3.81446   3.83011   3.84917   4.06008   4.19864
 Alpha virt. eigenvalues --    4.68724   4.71314   4.72538   5.15802   5.24141
 Alpha virt. eigenvalues --    5.71397  23.83929  23.89765  23.91621  23.94211
 Alpha virt. eigenvalues --   23.94562  35.40462  50.01924
     Molecular Orbital Coefficients:
                           1         2         3         4         5
                           O         O         O         O         O
     Eigenvalues --   -19.00645 -14.44110 -10.22556 -10.21922 -10.21109
   1 1   N  1S          0.00000   0.55746  -0.00002  -0.00002  -0.00002
   2        2S         -0.00000   0.46575  -0.00008  -0.00008  -0.00006
   3        2PX        -0.00002  -0.00011  -0.00012   0.00001   0.00010
   4        2PY         0.00001  -0.00004  -0.00001  -0.00013   0.00004
   5        2PZ        -0.00001   0.00003  -0.00008   0.00006  -0.00009
   6        3S         -0.00003   0.01635   0.00067   0.00059   0.00034
   7        3PX         0.00011   0.00004  -0.00018   0.00013   0.00015
   8        3PY        -0.00006  -0.00004  -0.00000  -0.00019   0.00007
   9        3PZ         0.00007  -0.00002  -0.00011   0.00008  -0.00010
  10        4S          0.00097  -0.01871  -0.00084  -0.00002   0.00060
  11        4PX        -0.00033  -0.00036   0.00023  -0.00008   0.00069
  12        4PY        -0.00003   0.00025  -0.00017  -0.00008  -0.00063
  13        4PZ        -0.00055   0.00036   0.00004  -0.00001   0.00000
  14        5S          0.00324  -0.01146   0.02067   0.02718   0.02746
  15        5PX         0.00017   0.00100  -0.00806   0.00629   0.01308
  16        5PY         0.00193   0.00029  -0.00070  -0.00785   0.00066
  17        5PZ         0.00147   0.00003  -0.00547   0.00579  -0.00223
  18        6D 0       -0.00001  -0.00000   0.00001   0.00003  -0.00004
  19        6D+1        0.00001   0.00005  -0.00017  -0.00003   0.00012
  20        6D-1        0.00001   0.00001  -0.00001   0.00012   0.00003
  21        6D+2       -0.00001  -0.00002  -0.00012   0.00013  -0.00003
  22        6D-2       -0.00000  -0.00001  -0.00002   0.00005  -0.00006
  23 2   C  1S         -0.00000   0.00002   0.56297   0.00026   0.00008
  24        2S          0.00000  -0.00005   0.46314   0.00022   0.00007
  25        2PX         0.00002   0.00018   0.00073   0.00000  -0.00002
  26        2PY         0.00000   0.00002   0.00004   0.00003  -0.00002
  27        2PZ        -0.00000   0.00013   0.00049   0.00000   0.00003
  28        3S          0.00004   0.00017   0.02029  -0.00018  -0.00006
  29        3PX        -0.00009  -0.00011  -0.00149  -0.00013  -0.00003
  30        3PY        -0.00000  -0.00002  -0.00006  -0.00007   0.00008
  31        3PZ         0.00001  -0.00012  -0.00102  -0.00010  -0.00013
  32        4S         -0.00114   0.00654  -0.01508  -0.00016  -0.00025
  33        4PX        -0.00051   0.00253  -0.00270  -0.00057  -0.00016
  34        4PY        -0.00029   0.00014  -0.00015  -0.00105   0.00004
  35        4PZ        -0.00036   0.00168  -0.00188   0.00021  -0.00083
  36        5S          0.00584  -0.00080  -0.03260   0.00863   0.00938
  37        5PX         0.00130  -0.00037  -0.00786   0.00177   0.00293
  38        5PY         0.00047   0.00013  -0.00050  -0.00161   0.00034
  39        5PZ         0.00080  -0.00017  -0.00532   0.00154   0.00002
  40        6D 0        0.00001  -0.00001   0.00005   0.00002  -0.00007
  41        6D+1       -0.00001  -0.00028  -0.00100  -0.00001  -0.00011
  42        6D-1       -0.00001  -0.00002  -0.00005  -0.00008  -0.00003
  43        6D+2       -0.00002  -0.00019  -0.00077  -0.00006   0.00003
  44        6D-2       -0.00001  -0.00004  -0.00009  -0.00010   0.00006
  45 3   H  1S         -0.00003  -0.00001   0.00018  -0.00002   0.00005
  46        2S          0.00025  -0.00088  -0.00313   0.00009  -0.00046
  47        3S         -0.00078   0.00121   0.00352   0.00102  -0.00081
  48        4PX        -0.00000  -0.00007  -0.00018   0.00002  -0.00016
  49        4PY        -0.00002   0.00019   0.00190   0.00003   0.00006
  50        4PZ         0.00000  -0.00010  -0.00088   0.00000  -0.00002
  51 4   H  1S         -0.00001  -0.00001   0.00017   0.00007  -0.00003
  52        2S          0.00010  -0.00089  -0.00304  -0.00060   0.00007
  53        3S         -0.00066   0.00142   0.00349  -0.00153   0.00106
  54        4PX        -0.00001  -0.00019  -0.00152  -0.00018   0.00004
  55        4PY         0.00002  -0.00005  -0.00043   0.00010   0.00000
  56        4PZ        -0.00000   0.00011   0.00135  -0.00004   0.00006
  57 5   H  1S         -0.00002  -0.00001   0.00018   0.00007   0.00006
  58        2S          0.00014  -0.00091  -0.00316  -0.00063  -0.00041
  59        3S         -0.00069   0.00133   0.00374  -0.00117  -0.00179
  60        4PX         0.00001  -0.00001   0.00037  -0.00006  -0.00018
  61        4PY         0.00001  -0.00015  -0.00154   0.00003  -0.00008
  62        4PZ         0.00000  -0.00016  -0.00137  -0.00017  -0.00005
  63 6   C  1S          0.00000   0.00002  -0.00010  -0.00010  -0.00102
  64        2S          0.00000  -0.00005  -0.00008  -0.00008  -0.00083
  65        2PX         0.00004   0.00003   0.00003  -0.00001  -0.00004
  66        2PY         0.00001  -0.00014   0.00000   0.00004  -0.00001
  67        2PZ        -0.00001  -0.00015   0.00002  -0.00001   0.00000
  68        3S         -0.00002   0.00018  -0.00021  -0.00004  -0.00024
  69        3PX        -0.00017  -0.00006  -0.00009   0.00006   0.00006
  70        3PY        -0.00003   0.00007   0.00006  -0.00002   0.00016
  71        3PZ         0.00005   0.00003   0.00001   0.00009   0.00011
  72        4S         -0.00027   0.00591   0.00036  -0.00162  -0.00056
  73        4PX         0.00039   0.00043  -0.00100  -0.00011  -0.00005
  74        4PY         0.00016  -0.00169   0.00012   0.00015   0.00166
  75        4PZ         0.00017  -0.00192  -0.00001   0.00078  -0.00118
  76        5S         -0.00848  -0.00076   0.00985   0.00855   0.00600
  77        5PX        -0.00022  -0.00015  -0.00128   0.00040   0.00073
  78        5PY         0.00203   0.00031  -0.00138  -0.00245   0.00013
  79        5PZ         0.00209   0.00033  -0.00233  -0.00054  -0.00183
  80        6D 0        0.00003  -0.00010   0.00004  -0.00010   0.00007
  81        6D+1       -0.00004   0.00001   0.00012  -0.00001  -0.00008
  82        6D-1       -0.00001  -0.00028   0.00001  -0.00003  -0.00008
  83        6D+2       -0.00004   0.00011   0.00003  -0.00011   0.00004
  84        6D-2       -0.00000   0.00004   0.00008  -0.00005  -0.00004
  85 7   H  1S          0.00002  -0.00002   0.00007   0.00002  -0.00005
  86        2S         -0.00022  -0.00078  -0.00057  -0.00024   0.00026
  87        3S          0.00034   0.00129  -0.00231  -0.00219   0.00052
  88        4PX        -0.00005  -0.00015   0.00003  -0.00005   0.00004
  89        4PY         0.00000  -0.00005   0.00004   0.00012  -0.00005
  90        4PZ         0.00002   0.00013   0.00021   0.00003  -0.00000
  91 8   H  1S          0.00001  -0.00002   0.00005  -0.00002   0.00014
  92        2S         -0.00013  -0.00082  -0.00054   0.00005  -0.00121
  93        3S         -0.00004   0.00102  -0.00178  -0.00017  -0.00216
  94        4PX        -0.00001  -0.00006   0.00006  -0.00002  -0.00021
  95        4PY         0.00002   0.00019   0.00013   0.00000   0.00019
  96        4PZ         0.00000  -0.00007   0.00007  -0.00002   0.00009
  97 9   H  1S         -0.00004  -0.00003  -0.00001   0.00005   0.00006
  98        2S         -0.00021  -0.00065   0.00006  -0.00042  -0.00055
  99        3S         -0.00082   0.00057   0.00054  -0.00227  -0.00165
 100        4PX         0.00000   0.00013   0.00003   0.00002  -0.00003
 101        4PY        -0.00001  -0.00000  -0.00001   0.00020   0.00001
 102        4PZ        -0.00004   0.00009  -0.00001   0.00005   0.00018
 103 10  C  1S          0.00000   0.00002  -0.00026   0.56297   0.00008
 104        2S         -0.00003  -0.00005  -0.00020   0.46311   0.00006
 105        2PX        -0.00002  -0.00003   0.00003  -0.00028  -0.00005
 106        2PY        -0.00004   0.00020  -0.00000   0.00080  -0.00000
 107        2PZ        -0.00000  -0.00008   0.00002  -0.00044   0.00001
 108        3S          0.00030   0.00018  -0.00022   0.02061  -0.00001
 109        3PX         0.00012  -0.00001  -0.00005   0.00059   0.00021
 110        3PY         0.00028  -0.00013  -0.00009  -0.00150  -0.00014
 111        3PZ         0.00004  -0.00003  -0.00000   0.00082   0.00005
 112        4S         -0.00073   0.00655   0.00012  -0.01702  -0.00225
 113        4PX        -0.00057  -0.00026  -0.00050  -0.00010   0.00089
 114        4PY        -0.00097   0.00261  -0.00078  -0.00390  -0.00147
 115        4PZ         0.00057  -0.00129  -0.00056   0.00171   0.00007
 116        5S          0.00602  -0.00026   0.00669  -0.03238   0.00371
 117        5PX         0.00111  -0.00026  -0.00190   0.00082   0.00050
 118        5PY         0.00169  -0.00030   0.00050  -0.00861   0.00065
 119        5PZ         0.00007  -0.00001  -0.00175   0.00363  -0.00072
 120        6D 0       -0.00002   0.00011   0.00004   0.00031   0.00006
 121        6D+1        0.00000  -0.00004   0.00007  -0.00011  -0.00007
 122        6D-1       -0.00000   0.00023  -0.00001   0.00088   0.00004
 123        6D+2        0.00004   0.00020   0.00009   0.00089   0.00008
 124        6D-2        0.00002   0.00009  -0.00007   0.00037   0.00010
 125 11  H  1S          0.00005  -0.00002  -0.00002   0.00022   0.00010
 126        2S          0.00002  -0.00090   0.00006  -0.00329  -0.00065
 127        3S         -0.00134   0.00096   0.00071   0.00323  -0.00358
 128        4PX        -0.00008   0.00016   0.00001   0.00167   0.00001
 129        4PY        -0.00013   0.00001   0.00004   0.00026  -0.00016
 130        4PZ         0.00007   0.00011   0.00001   0.00131   0.00024
 131 12  H  1S         -0.00007  -0.00000   0.00007   0.00016   0.00010
 132        2S          0.00053  -0.00099  -0.00062  -0.00293  -0.00077
 133        3S         -0.00095   0.00088  -0.00204   0.00336  -0.00224
 134        4PX         0.00004   0.00001   0.00015   0.00039  -0.00007
 135        4PY         0.00011  -0.00022  -0.00015  -0.00124  -0.00018
 136        4PZ         0.00004  -0.00016   0.00003  -0.00160   0.00000
 137 13  H  1S          0.00002  -0.00002   0.00004   0.00018  -0.00005
 138        2S         -0.00010  -0.00076  -0.00046  -0.00303   0.00025
 139        3S         -0.00108   0.00126  -0.00174   0.00284  -0.00012
 140        4PX         0.00000  -0.00015   0.00004  -0.00173  -0.00002
 141        4PY         0.00001  -0.00007  -0.00007  -0.00042   0.00007
 142        4PZ        -0.00000   0.00011   0.00014   0.00100  -0.00002
 143 14  C  1S          0.00000   0.00001  -0.00008  -0.00008   0.56297
 144        2S          0.00000  -0.00003  -0.00006  -0.00007   0.46323
 145        2PX         0.00007  -0.00012   0.00003   0.00001  -0.00089
 146        2PY        -0.00001  -0.00006   0.00000   0.00002  -0.00030
 147        2PZ         0.00006   0.00012   0.00001   0.00002   0.00050
 148        3S          0.00025  -0.00015  -0.00009   0.00013   0.02009
 149        3PX        -0.00033  -0.00021  -0.00001  -0.00005   0.00006
 150        3PY         0.00002   0.00003   0.00006  -0.00005   0.00089
 151        3PZ        -0.00028  -0.00014  -0.00004  -0.00017  -0.00172
 152        4S         -0.00340   0.00770  -0.00076  -0.00319  -0.02115
 153        4PX        -0.00049  -0.00173  -0.00091   0.00037   0.00071
 154        4PY        -0.00080  -0.00142   0.00084  -0.00058   0.00192
 155        4PZ        -0.00175   0.00187  -0.00082  -0.00170  -0.00430
 156        5S          0.01991   0.00031   0.00158  -0.00222  -0.03988
 157        5PX         0.00529   0.00025  -0.00313  -0.00099   0.00506
 158        5PY         0.00012  -0.00005  -0.00025  -0.00042   0.00320
 159        5PZ         0.00387  -0.00014  -0.00189  -0.00098  -0.00692
 160        6D 0        0.00010   0.00004  -0.00010   0.00002   0.00008
 161        6D+1       -0.00015   0.00018   0.00005  -0.00002   0.00054
 162        6D-1        0.00013   0.00011   0.00000   0.00001   0.00055
 163        6D+2       -0.00008  -0.00009   0.00005  -0.00008  -0.00111
 164        6D-2       -0.00000  -0.00005  -0.00001   0.00007  -0.00037
 165 15  C  1S          0.00001  -0.00000  -0.00000  -0.00005   0.00273
 166        2S         -0.00004   0.00001   0.00000  -0.00002   0.00223
 167        2PX        -0.00002  -0.00006   0.00000  -0.00003  -0.00035
 168        2PY         0.00010   0.00002   0.00001  -0.00003   0.00009
 169        2PZ         0.00026  -0.00001  -0.00000   0.00002  -0.00022
 170        3S          0.00008   0.00004  -0.00010  -0.00028   0.00022
 171        3PX         0.00036   0.00032   0.00002   0.00020   0.00070
 172        3PY        -0.00022  -0.00016  -0.00004   0.00013  -0.00027
 173        3PZ        -0.00028   0.00003   0.00000  -0.00001   0.00043
 174        4S          0.00484  -0.00096   0.00149   0.00234   0.00530
 175        4PX        -0.00147   0.00076  -0.00044  -0.00040  -0.00123
 176        4PY         0.00079   0.00025   0.00025   0.00018   0.00034
 177        4PZ         0.00166   0.00032  -0.00045   0.00181  -0.00128
 178        5S         -0.02572   0.00055   0.00509   0.00752   0.01178
 179        5PX         0.00617  -0.00035  -0.00122  -0.00193  -0.00333
 180        5PY        -0.00122  -0.00017   0.00026  -0.00069  -0.00034
 181        5PZ        -0.00055   0.00019   0.00040   0.00074  -0.00015
 182        6D 0       -0.00036   0.00007   0.00001   0.00003   0.00013
 183        6D+1       -0.00011  -0.00008  -0.00003   0.00007  -0.00062
 184        6D-1       -0.00026  -0.00004  -0.00000   0.00006   0.00012
 185        6D+2       -0.00004  -0.00012   0.00003  -0.00007  -0.00048
 186        6D-2       -0.00012   0.00002   0.00003  -0.00007   0.00017
 187 16  H  1S         -0.00003  -0.00001   0.00009  -0.00002   0.00008
 188        2S          0.00067  -0.00075  -0.00070   0.00032  -0.00291
 189        3S         -0.00117   0.00099  -0.00172  -0.00025   0.00333
 190        4PX        -0.00001  -0.00004   0.00019  -0.00001  -0.00031
 191        4PY         0.00001   0.00016   0.00015  -0.00002   0.00214
 192        4PZ         0.00001  -0.00006  -0.00001   0.00004  -0.00023
 193 17  H  1S          0.00002   0.00001  -0.00000   0.00011   0.00008
 194        2S         -0.00050  -0.00113  -0.00019  -0.00080  -0.00277
 195        3S         -0.00051   0.00061  -0.00142  -0.00187   0.00283
 196        4PX        -0.00001   0.00003   0.00012   0.00004  -0.00017
 197        4PY        -0.00006  -0.00012  -0.00003   0.00008  -0.00127
 198        4PZ        -0.00011  -0.00024   0.00002  -0.00023  -0.00171
 199 18  O  1S          0.55136   0.00000   0.00000  -0.00000   0.00000
 200        2S          0.46976  -0.00000   0.00000  -0.00002   0.00000
 201        2PX        -0.00014  -0.00001   0.00000   0.00001  -0.00003
 202        2PY        -0.00040  -0.00002  -0.00000   0.00002  -0.00000
 203        2PZ        -0.00098   0.00001   0.00001   0.00001  -0.00004
 204        3S          0.01350   0.00001  -0.00003   0.00028   0.00006
 205        3PX        -0.00011   0.00003  -0.00001  -0.00008   0.00011
 206        3PY        -0.00006   0.00005   0.00001  -0.00009   0.00001
 207        3PZ        -0.00008  -0.00003  -0.00003  -0.00008   0.00015
 208        4S         -0.01075   0.00002   0.00010  -0.00129  -0.00079
 209        4PX         0.00068  -0.00007   0.00001   0.00059   0.00005
 210        4PY         0.00066  -0.00006  -0.00005   0.00068   0.00024
 211        4PZ         0.00127   0.00009   0.00014   0.00082   0.00031
 212        5S          0.00834  -0.00026  -0.00048  -0.00433  -0.00127
 213        5PX        -0.00088  -0.00003  -0.00004   0.00068   0.00075
 214        5PY        -0.00026   0.00002  -0.00009   0.00060   0.00024
 215        5PZ        -0.00052   0.00022  -0.00012   0.00071  -0.00018
 216        6D 0        0.00005   0.00000  -0.00001  -0.00001  -0.00006
 217        6D+1        0.00001  -0.00001  -0.00000  -0.00002  -0.00001
 218        6D-1        0.00004  -0.00001   0.00000  -0.00004  -0.00003
 219        6D+2        0.00001  -0.00001   0.00000  -0.00000   0.00003
 220        6D-2       -0.00001   0.00000  -0.00000  -0.00005  -0.00006
 221 19  H  1S          0.00002  -0.00003   0.00004  -0.00001   0.00004
 222        2S         -0.00091   0.00002  -0.00038   0.00008  -0.00123
 223        3S          0.00088   0.00022   0.00001   0.00037  -0.00043
 224        4PX         0.00016  -0.00005   0.00004  -0.00001   0.00011
 225        4PY        -0.00002   0.00001   0.00001  -0.00004   0.00017
 226        4PZ        -0.00033  -0.00006  -0.00004  -0.00002  -0.00027
 227 20  H  1S          0.00012   0.00007  -0.00001   0.00008  -0.00002
 228        2S         -0.00172  -0.00011   0.00000  -0.00082  -0.00099
 229        3S          0.00165  -0.00021  -0.00019  -0.00018  -0.00069
 230        4PX         0.00010   0.00014  -0.00002   0.00014  -0.00003
 231        4PY        -0.00041  -0.00011  -0.00001  -0.00005  -0.00027
 232        4PZ        -0.00022  -0.00002   0.00003  -0.00010  -0.00005
                           6         7         8         9        10
                           O         O         O         O         O
     Eigenvalues --   -10.20986 -10.19033  -1.01841  -0.90354  -0.75402
   1 1   N  1S         -0.00002   0.00000  -0.10105   0.01274  -0.00201
   2        2S         -0.00008   0.00001  -0.15910   0.02017  -0.00323
   3        2PX        -0.00002   0.00006  -0.00398   0.01230   0.04125
   4        2PY         0.00009   0.00002  -0.00171   0.00303  -0.05401
   5        2PZ         0.00011   0.00001   0.00070  -0.00131   0.08067
   6        3S          0.00058   0.00004   0.44218  -0.05752   0.01008
   7        3PX        -0.00003  -0.00027  -0.00565   0.01793   0.06302
   8        3PY         0.00019  -0.00011  -0.00242   0.00499  -0.08213
   9        3PZ         0.00013  -0.00009   0.00120  -0.00294   0.12276
  10        4S         -0.00055  -0.00114   0.33614  -0.05084   0.00509
  11        4PX        -0.00021   0.00030  -0.00520   0.01574   0.03805
  12        4PY        -0.00023   0.00098  -0.00106   0.00284  -0.05543
  13        4PZ         0.00042   0.00151  -0.00223   0.00506   0.08318
  14        5S          0.02939   0.01076  -0.06738  -0.00367   0.00549
  15        5PX         0.00540   0.00496  -0.02027   0.00135  -0.01392
  16        5PY         0.00735   0.00055   0.00019  -0.00920   0.00920
  17        5PZ         0.00987   0.00119  -0.00629   0.00254  -0.02160
  18        6D 0       -0.00004   0.00004  -0.00001  -0.00036  -0.00108
  19        6D+1        0.00002   0.00001   0.00035  -0.00125  -0.00293
  20        6D-1       -0.00013   0.00003  -0.00019  -0.00022  -0.00340
  21        6D+2        0.00005  -0.00006  -0.00012   0.00082  -0.01071
  22        6D-2        0.00001  -0.00002  -0.00004   0.00066  -0.00340
  23 2   C  1S          0.00011   0.00000  -0.03434   0.00897   0.06787
  24        2S          0.00010   0.00000  -0.05262   0.01381   0.10538
  25        2PX         0.00000  -0.00002   0.02762  -0.00510  -0.00980
  26        2PY        -0.00002   0.00001   0.00161  -0.00005  -0.01177
  27        2PZ        -0.00001  -0.00000   0.01876  -0.00448   0.00396
  28        3S         -0.00021  -0.00016   0.13270  -0.03633  -0.27968
  29        3PX        -0.00012   0.00009   0.04720  -0.00804  -0.02032
  30        3PY         0.00005  -0.00001   0.00271  -0.00017  -0.01769
  31        3PZ        -0.00005  -0.00002   0.03231  -0.00733   0.00159
  32        4S          0.00021   0.00178   0.03372  -0.00241  -0.16700
  33        4PX        -0.00076   0.00047   0.00008   0.00455  -0.00040
  34        4PY         0.00103   0.00013  -0.00016   0.00176  -0.00489
  35        4PZ         0.00015   0.00007  -0.00024   0.00229   0.00432
  36        5S          0.01099   0.00763   0.01038  -0.04461  -0.11027
  37        5PX         0.00186   0.00183   0.00335  -0.01101  -0.02473
  38        5PY         0.00140   0.00019  -0.00005  -0.00377   0.00225
  39        5PZ         0.00238   0.00111   0.00210  -0.00434  -0.01900
  40        6D 0        0.00005  -0.00003  -0.00037  -0.00029   0.00217
  41        6D+1       -0.00004  -0.00000   0.01228  -0.00220  -0.00146
  42        6D-1        0.00008  -0.00001   0.00068  -0.00007  -0.00185
  43        6D+2       -0.00006   0.00002   0.00894  -0.00126  -0.00293
  44        6D-2        0.00007  -0.00003   0.00103  -0.00001  -0.00331
  45 3   H  1S          0.00008   0.00006   0.01503  -0.00430  -0.05822
  46        2S         -0.00068  -0.00052   0.02067  -0.00749  -0.06727
  47        3S         -0.00215  -0.00056  -0.00740   0.00689   0.00906
  48        4PX        -0.00010  -0.00006   0.00159  -0.00033  -0.00161
  49        4PY         0.00001   0.00006  -0.00426   0.00116   0.00979
  50        4PZ        -0.00021  -0.00004   0.00283  -0.00077  -0.00481
  51 4   H  1S          0.00007   0.00002   0.01515  -0.00514  -0.04411
  52        2S         -0.00063  -0.00022   0.02075  -0.00732  -0.05358
  53        3S         -0.00111  -0.00022  -0.00839   0.00547   0.01124
  54        4PX        -0.00013  -0.00004   0.00466  -0.00125  -0.00730
  55        4PY        -0.00013  -0.00002   0.00104  -0.00033  -0.00252
  56        4PZ        -0.00005   0.00001  -0.00235   0.00066   0.00572
  57 5   H  1S         -0.00003   0.00001   0.01501  -0.00441  -0.04877
  58        2S          0.00010  -0.00030   0.02074  -0.00712  -0.05797
  59        3S          0.00091  -0.00068  -0.00740   0.00756   0.01008
  60        4PX         0.00003  -0.00004   0.00042  -0.00003   0.00080
  61        4PY        -0.00003  -0.00004   0.00359  -0.00095  -0.00795
  62        4PZ         0.00001  -0.00003   0.00394  -0.00105  -0.00624
  63 6   C  1S          0.56296  -0.00002  -0.03213   0.00360  -0.01388
  64        2S          0.46312  -0.00003  -0.04920   0.00554  -0.02155
  65        2PX        -0.00015   0.00004   0.00360   0.00305   0.00792
  66        2PY        -0.00065  -0.00001  -0.02143   0.00369  -0.01424
  67        2PZ        -0.00079   0.00001  -0.02321   0.00369   0.01013
  68        3S          0.02079   0.00039   0.12311  -0.01359   0.05687
  69        3PX         0.00010  -0.00020   0.00638   0.00457   0.01236
  70        3PY         0.00115  -0.00003  -0.03728   0.00627  -0.02241
  71        3PZ         0.00124  -0.00011  -0.03990   0.00581   0.01378
  72        4S         -0.01921  -0.00375   0.03832  -0.01155   0.03483
  73        4PX        -0.00210  -0.00094   0.00116  -0.00263   0.00523
  74        4PY         0.00320   0.00118  -0.00302   0.00087  -0.00444
  75        4PZ         0.00298   0.00190  -0.00095   0.00078   0.00552
  76        5S         -0.03280   0.00279   0.01296   0.03004   0.03139
  77        5PX        -0.00192   0.00128   0.00239  -0.00197  -0.00210
  78        5PY         0.00648  -0.00036  -0.00421  -0.00816  -0.00062
  79        5PZ         0.00680   0.00007  -0.00342  -0.00810  -0.01186
  80        6D 0       -0.00045   0.00004   0.00431  -0.00085  -0.00475
  81        6D+1        0.00022  -0.00001  -0.00216  -0.00004  -0.00212
  82        6D-1       -0.00113  -0.00004   0.01271  -0.00175   0.00108
  83        6D+2        0.00053  -0.00004  -0.00572   0.00171  -0.00290
  84        6D-2        0.00018   0.00006  -0.00203  -0.00000  -0.00214
  85 7   H  1S          0.00016  -0.00003   0.01428  -0.00301   0.01388
  86        2S         -0.00275   0.00015   0.01869  -0.00218   0.01659
  87        3S          0.00268  -0.00086  -0.00523  -0.00234  -0.00076
  88        4PX        -0.00139   0.00002   0.00335  -0.00025   0.00253
  89        4PY        -0.00082  -0.00005   0.00093  -0.00020   0.00006
  90        4PZ         0.00116  -0.00004  -0.00355   0.00053  -0.00106
  91 8   H  1S          0.00015  -0.00006   0.01415  -0.00198  -0.00114
  92        2S         -0.00278   0.00058   0.01970  -0.00104   0.00080
  93        3S          0.00244  -0.00117  -0.00392   0.00065  -0.00465
  94        4PX        -0.00054   0.00006   0.00152   0.00018   0.00038
  95        4PY         0.00169  -0.00004  -0.00476   0.00046  -0.00087
  96        4PZ        -0.00099  -0.00000   0.00120  -0.00012   0.00053
  97 9   H  1S          0.00014  -0.00007   0.01418   0.00378   0.01628
  98        2S         -0.00268   0.00081   0.01761   0.00638   0.01598
  99        3S          0.00371  -0.00341  -0.00119   0.00768  -0.00175
 100        4PX         0.00185  -0.00018  -0.00402   0.00094  -0.00267
 101        4PY         0.00015   0.00005  -0.00097  -0.00010  -0.00082
 102        4PZ         0.00084  -0.00006  -0.00258  -0.00034  -0.00033
 103 10  C  1S          0.00010   0.00005  -0.03340   0.00442  -0.07660
 104        2S          0.00008   0.00005  -0.05115   0.00687  -0.11891
 105        2PX        -0.00001   0.00007  -0.00628   0.00412   0.00198
 106        2PY        -0.00003   0.00004   0.02917  -0.00348   0.01453
 107        2PZ        -0.00004   0.00002  -0.01350   0.00212   0.00357
 108        3S         -0.00003  -0.00017   0.12820  -0.01852   0.31470
 109        3PX         0.00007  -0.00035  -0.01078   0.00565   0.00118
 110        3PY        -0.00004  -0.00028   0.05021  -0.00763   0.02882
 111        3PZ         0.00014  -0.00018  -0.02297   0.00368   0.00173
 112        4S         -0.00204  -0.00021   0.04147  -0.00867   0.18532
 113        4PX        -0.00076   0.00106  -0.00000   0.00291   0.00455
 114        4PY        -0.00104  -0.00035   0.00422   0.00235   0.00152
 115        4PZ         0.00109  -0.00045  -0.00102  -0.00183   0.00267
 116        5S          0.00598  -0.00425   0.01634  -0.03708   0.10821
 117        5PX        -0.00089   0.00076   0.00180  -0.00764  -0.00804
 118        5PY         0.00175  -0.00160   0.00619  -0.01051   0.02478
 119        5PZ         0.00088   0.00039  -0.00187   0.00055  -0.01668
 120        6D 0       -0.00002   0.00011  -0.00383   0.00051  -0.00292
 121        6D+1       -0.00005  -0.00005   0.00210  -0.00025  -0.00043
 122        6D-1        0.00016   0.00006  -0.00962   0.00128  -0.00108
 123        6D+2       -0.00005  -0.00003  -0.00993   0.00147  -0.00512
 124        6D-2       -0.00003  -0.00005  -0.00441   0.00135  -0.00036
 125 11  H  1S          0.00007   0.00002   0.01465   0.00088   0.06070
 126        2S         -0.00053  -0.00035   0.01911   0.00109   0.06825
 127        3S         -0.00295  -0.00125  -0.00110   0.00746  -0.00825
 128        4PX         0.00010  -0.00006  -0.00381   0.00133  -0.00965
 129        4PY        -0.00020  -0.00002   0.00046   0.00087  -0.00135
 130        4PZ        -0.00003  -0.00006  -0.00322  -0.00012  -0.00702
 131 12  H  1S         -0.00002   0.00009   0.01457  -0.00175   0.05106
 132        2S          0.00000  -0.00088   0.01969  -0.00382   0.06028
 133        3S         -0.00038  -0.00086  -0.00275   0.00535  -0.01236
 134        4PX         0.00000  -0.00010  -0.00108   0.00028  -0.00189
 135        4PY        -0.00001  -0.00024   0.00407  -0.00072   0.00714
 136        4PZ        -0.00004  -0.00009   0.00303  -0.00045   0.00789
 137 13  H  1S          0.00008  -0.00001   0.01497  -0.00349   0.05569
 138        2S         -0.00066   0.00003   0.01950  -0.00322   0.06663
 139        3S         -0.00249   0.00063  -0.00426   0.00454  -0.00908
 140        4PX        -0.00005  -0.00002   0.00369  -0.00059   0.00968
 141        4PY        -0.00019  -0.00000   0.00213  -0.00037   0.00356
 142        4PZ        -0.00001   0.00002  -0.00283   0.00053  -0.00536
 143 14  C  1S          0.00102  -0.00275  -0.03083  -0.01521   0.02664
 144        2S          0.00085  -0.00230  -0.04730  -0.02352   0.04140
 145        2PX        -0.00000   0.00042  -0.02248   0.01592   0.01260
 146        2PY        -0.00001  -0.00009  -0.00801   0.00083  -0.00705
 147        2PZ         0.00000   0.00017   0.01651   0.00731   0.01052
 148        3S         -0.00011   0.00020   0.11935   0.05955  -0.11037
 149        3PX         0.00004  -0.00091  -0.03638   0.02920   0.01846
 150        3PY         0.00004   0.00026  -0.01491   0.00051  -0.00940
 151        3PZ        -0.00010  -0.00049   0.03102   0.01430   0.01328
 152        4S         -0.00123   0.00339   0.03742   0.05382  -0.05493
 153        4PX         0.00122   0.00264  -0.00314   0.01074   0.00576
 154        4PY         0.00197   0.00068  -0.00106   0.00457  -0.00432
 155        4PZ         0.00074   0.00094   0.00309   0.01457   0.00944
 156        5S          0.00069   0.00712   0.04052  -0.12887  -0.07077
 157        5PX        -0.00182   0.00532  -0.00028  -0.04993  -0.00243
 158        5PY         0.00143  -0.00065  -0.00369   0.00213   0.00281
 159        5PZ         0.00147   0.00006   0.00933  -0.02258  -0.02096
 160        6D 0       -0.00007   0.00017  -0.00046  -0.00070   0.00359
 161        6D+1       -0.00009  -0.00026  -0.01028   0.00619  -0.00033
 162        6D-1        0.00001   0.00012  -0.00426  -0.00109  -0.00281
 163        6D+2       -0.00006  -0.00065   0.00709   0.00320  -0.00468
 164        6D-2       -0.00010   0.00019   0.00509  -0.00108   0.00022
 165 15  C  1S          0.00003   0.56309  -0.00905  -0.06196   0.00568
 166        2S          0.00001   0.46329  -0.01391  -0.09553   0.00878
 167        2PX        -0.00001  -0.00029  -0.00596   0.00443   0.00342
 168        2PY         0.00000   0.00026   0.00119   0.02407  -0.00335
 169        2PZ         0.00004   0.00024   0.00215   0.05282   0.00739
 170        3S          0.00036   0.01863   0.03571   0.25371  -0.02266
 171        3PX        -0.00006   0.00084  -0.01257   0.00172   0.00612
 172        3PY         0.00003  -0.00098   0.00274   0.03923  -0.00462
 173        3PZ        -0.00010  -0.00108   0.00307   0.08194   0.01058
 174        4S         -0.00289  -0.01753   0.01486   0.07104  -0.02017
 175        4PX         0.00180   0.00330  -0.00557   0.00720   0.00457
 176        4PY        -0.00078  -0.00100  -0.00064  -0.00072  -0.00170
 177        4PZ        -0.00006  -0.00188  -0.00067   0.00996   0.00030
 178        5S          0.00867  -0.01772  -0.02827   0.19596   0.02985
 179        5PX        -0.00256   0.00327   0.00836  -0.04561  -0.00829
 180        5PY        -0.00004  -0.00038   0.00122   0.00647   0.00372
 181        5PZ        -0.00011   0.00155  -0.00071  -0.00421   0.00191
 182        6D 0        0.00004  -0.00004  -0.00022   0.01898   0.00063
 183        6D+1        0.00010  -0.00060   0.00177   0.00583  -0.00199
 184        6D-1        0.00002  -0.00024   0.00118   0.01605  -0.00027
 185        6D+2       -0.00005  -0.00053   0.00251  -0.00150  -0.00109
 186        6D-2        0.00004   0.00012  -0.00034   0.00178   0.00107
 187 16  H  1S          0.00006  -0.00002   0.01428   0.00846  -0.02644
 188        2S         -0.00102  -0.00133   0.01954   0.00503  -0.03035
 189        3S         -0.00352  -0.00076  -0.00334   0.00140   0.00748
 190        4PX         0.00001  -0.00007   0.00012   0.00082  -0.00036
 191        4PY         0.00009   0.00033  -0.00498  -0.00184   0.00479
 192        4PZ        -0.00021  -0.00012   0.00142   0.00056  -0.00009
 193 17  H  1S         -0.00006  -0.00009   0.01411   0.00584  -0.02427
 194        2S          0.00057  -0.00044   0.01961   0.00960  -0.02907
 195        3S         -0.00020  -0.00082  -0.00310   0.00149   0.00439
 196        4PX        -0.00003  -0.00000  -0.00035   0.00095   0.00062
 197        4PY         0.00002  -0.00016   0.00244   0.00119  -0.00289
 198        4PZ         0.00007  -0.00022   0.00469   0.00225  -0.00360
 199 18  O  1S          0.00000  -0.00003  -0.00715  -0.10229  -0.00189
 200        2S          0.00001  -0.00007  -0.01139  -0.16340  -0.00301
 201        2PX         0.00002  -0.00003  -0.00216  -0.00967  -0.00095
 202        2PY         0.00000  -0.00011  -0.00182  -0.02182  -0.00111
 203        2PZ        -0.00001  -0.00024  -0.00415  -0.05122   0.00182
 204        3S         -0.00005   0.00052   0.03215   0.46878   0.00818
 205        3PX        -0.00008   0.00003  -0.00350  -0.01435  -0.00177
 206        3PY        -0.00002   0.00016  -0.00294  -0.03350  -0.00168
 207        3PZ         0.00004   0.00035  -0.00654  -0.07874   0.00253
 208        4S          0.00064  -0.00001   0.02387   0.36157   0.01212
 209        4PX         0.00036  -0.00023  -0.00200  -0.01149  -0.00197
 210        4PY         0.00005  -0.00014  -0.00149  -0.01431  -0.00229
 211        4PZ        -0.00031  -0.00034  -0.00280  -0.03414   0.00070
 212        5S         -0.00419   0.00769   0.00327  -0.03594   0.00308
 213        5PX         0.00112  -0.00111  -0.00014   0.00841  -0.00193
 214        5PY         0.00038  -0.00092  -0.00061   0.00306   0.00045
 215        5PZ         0.00084  -0.00238  -0.00078   0.00713  -0.00149
 216        6D 0        0.00002  -0.00033   0.00065   0.00861  -0.00041
 217        6D+1        0.00001  -0.00007   0.00051   0.00286  -0.00012
 218        6D-1       -0.00000  -0.00028   0.00068   0.00724   0.00011
 219        6D+2       -0.00002   0.00006   0.00010  -0.00095   0.00001
 220        6D-2       -0.00000  -0.00003   0.00028   0.00121   0.00025
 221 19  H  1S         -0.00004   0.00016   0.00279   0.02437  -0.00602
 222        2S          0.00036  -0.00268   0.00475   0.03600  -0.00809
 223        3S         -0.00085   0.00280  -0.00076  -0.01028   0.00082
 224        4PX        -0.00006   0.00115  -0.00105  -0.00499   0.00153
 225        4PY         0.00002   0.00091  -0.00047  -0.00197   0.00054
 226        4PZ         0.00007  -0.00129   0.00111   0.00726  -0.00075
 227 20  H  1S         -0.00004   0.00012   0.00394   0.02459  -0.00099
 228        2S          0.00029  -0.00223   0.00562   0.03671   0.00200
 229        3S         -0.00196   0.00320   0.00185  -0.01816   0.00099
 230        4PX        -0.00001   0.00018  -0.00087  -0.00136  -0.00084
 231        4PY         0.00005  -0.00189   0.00146   0.00883  -0.00049
 232        4PZ         0.00001   0.00012   0.00026   0.00188   0.00091
                          11        12        13        14        15
                           O         O         O         O         O
     Eigenvalues --    -0.75044  -0.74750  -0.64536  -0.58437  -0.52662
   1 1   N  1S         -0.00181  -0.00352  -0.05029  -0.02637  -0.00128
   2        2S         -0.00291  -0.00561  -0.08048  -0.04232  -0.00211
   3        2PX         0.08754   0.00977   0.02432  -0.05966   0.13503
   4        2PY         0.01166   0.09164   0.00299  -0.03190  -0.01034
   5        2PZ        -0.03446   0.05481  -0.02795   0.05759   0.04172
   6        3S          0.00833   0.01642   0.24105   0.12905   0.00735
   7        3PX         0.13362   0.01512   0.03649  -0.08932   0.19801
   8        3PY         0.01764   0.13904   0.00462  -0.04694  -0.01502
   9        3PZ        -0.05212   0.08351  -0.04205   0.08471   0.06172
  10        4S          0.00977   0.01489   0.23535   0.12975   0.00367
  11        4PX         0.08906   0.00670   0.03118  -0.07642   0.19698
  12        4PY         0.01419   0.09894   0.00183  -0.04221  -0.01394
  13        4PZ        -0.04065   0.05650  -0.03473   0.08315   0.05423
  14        5S         -0.03805   0.02525   0.02679  -0.00357  -0.04991
  15        5PX        -0.04863  -0.00198   0.02129  -0.01138   0.01661
  16        5PY         0.00325  -0.01532  -0.00579   0.00007  -0.00758
  17        5PZ        -0.00851  -0.01767   0.01085   0.00967  -0.00543
  18        6D 0       -0.00001   0.00399   0.00049  -0.00215   0.00084
  19        6D+1       -0.00933  -0.00535  -0.00119   0.00261   0.00207
  20        6D-1       -0.00389   0.00986  -0.00181   0.00263   0.00127
  21        6D+2        0.00145  -0.00205   0.00041   0.00191   0.00055
  22        6D-2        0.00265  -0.00085   0.00138  -0.00191  -0.00165
  23 2   C  1S          0.04870   0.03917   0.03796   0.00849  -0.02416
  24        2S          0.07565   0.06084   0.05912   0.01315  -0.03807
  25        2PX         0.00555  -0.00695   0.04780   0.01049  -0.07126
  26        2PY         0.00172   0.01798   0.00341  -0.01012  -0.01352
  27        2PZ        -0.01552   0.00515   0.01820   0.04931  -0.07888
  28        3S         -0.20074  -0.16146  -0.15706  -0.03363   0.10346
  29        3PX         0.00371  -0.01368   0.06931   0.01741  -0.09813
  30        3PY         0.00203   0.02611   0.00516  -0.01480  -0.01933
  31        3PZ        -0.02571   0.00495   0.02631   0.07296  -0.11059
  32        4S         -0.12360  -0.10115  -0.13052  -0.03588   0.16217
  33        4PX         0.00445  -0.00207   0.02297   0.00546  -0.03451
  34        4PY         0.00073   0.00856   0.00133  -0.00446  -0.00610
  35        4PZ        -0.00593   0.00288   0.00871   0.03046  -0.04331
  36        5S         -0.08828  -0.06145   0.00649  -0.01541   0.05798
  37        5PX        -0.02426  -0.01230   0.00325  -0.00442   0.01126
  38        5PY        -0.00210  -0.00737   0.00069  -0.00143   0.00006
  39        5PZ        -0.00907  -0.01206   0.00172  -0.00042   0.00392
  40        6D 0       -0.00372   0.00197  -0.00261   0.00507  -0.00173
  41        6D+1       -0.00365  -0.00072   0.01020   0.00851  -0.01327
  42        6D-1       -0.00024   0.00313   0.00059  -0.00013   0.00076
  43        6D+2        0.00077  -0.00216   0.00881   0.00533  -0.00990
  44        6D-2        0.00052   0.00431   0.00117  -0.00052  -0.00299
  45 3   H  1S         -0.03238  -0.02118  -0.04223  -0.03294   0.04846
  46        2S         -0.03821  -0.02704  -0.05030  -0.04138   0.06039
  47        3S          0.00397   0.00651   0.00316  -0.00405   0.00612
  48        4PX        -0.00020  -0.00104   0.00099  -0.00088  -0.00266
  49        4PY         0.00581   0.00476   0.00577   0.00333  -0.00823
  50        4PZ        -0.00379  -0.00157  -0.00257   0.00011  -0.00038
  51 4   H  1S         -0.04566  -0.02700  -0.05243   0.00655   0.03162
  52        2S         -0.05167  -0.03207  -0.06261   0.00713   0.03895
  53        3S          0.00118   0.00563   0.00070   0.00357   0.00091
  54        4PX        -0.00646  -0.00446  -0.00470   0.00159   0.00054
  55        4PY        -0.00170   0.00005  -0.00148  -0.00018   0.00044
  56        4PZ         0.00493   0.00371   0.00533   0.00087  -0.00775
  57 5   H  1S         -0.03110  -0.04060  -0.04103  -0.02725   0.06514
  58        2S         -0.03759  -0.04584  -0.04916  -0.03372   0.08372
  59        3S          0.00703   0.00270   0.00079  -0.00041   0.01197
  60        4PX         0.00133   0.00085   0.00230   0.00026  -0.00481
  61        4PY        -0.00436  -0.00493  -0.00423  -0.00343   0.00730
  62        4PZ        -0.00513  -0.00503  -0.00379  -0.00028   0.00347
  63 6   C  1S          0.02360  -0.08509   0.04251   0.01579  -0.00146
  64        2S          0.03661  -0.13211   0.06619   0.02460  -0.00235
  65        2PX         0.01474   0.00363   0.01647  -0.01580   0.06888
  66        2PY         0.00757  -0.00459  -0.02292  -0.04642  -0.00944
  67        2PZ        -0.00060  -0.01496  -0.03089  -0.01744   0.01514
  68        3S         -0.09672   0.34987  -0.17599  -0.06385   0.00645
  69        3PX         0.02193   0.00638   0.02363  -0.02318   0.10113
  70        3PY         0.01261  -0.01324  -0.03281  -0.06755  -0.01476
  71        3PZ         0.00101  -0.02841  -0.04464  -0.02580   0.02182
  72        4S         -0.04799   0.19942  -0.14041  -0.07806   0.01965
  73        4PX         0.01028  -0.00071   0.00834  -0.01347   0.04646
  74        4PY        -0.00088   0.00431  -0.01144  -0.02068  -0.01063
  75        4PZ        -0.00085   0.00204  -0.01680  -0.00569   0.01136
  76        5S         -0.02479   0.13303  -0.02802  -0.01179   0.02026
  77        5PX        -0.00383   0.00439  -0.00237  -0.00127   0.00652
  78        5PY         0.00377  -0.02599   0.00384   0.00173  -0.00617
  79        5PZ         0.00534  -0.02617   0.00572   0.00219  -0.00261
  80        6D 0        0.00060   0.00277   0.00456   0.00079  -0.00410
  81        6D+1       -0.00351  -0.00217  -0.00219  -0.00010  -0.00145
  82        6D-1       -0.00161   0.00441   0.01017   0.01026   0.00309
  83        6D+2        0.00232  -0.00108  -0.00337  -0.00605   0.00431
  84        6D-2       -0.00262  -0.00157  -0.00275   0.00221  -0.00688
  85 7   H  1S         -0.02618   0.05850  -0.05358  -0.00518  -0.02625
  86        2S         -0.02937   0.07030  -0.06412  -0.00594  -0.03582
  87        3S          0.00138  -0.01371  -0.00084   0.00179  -0.00964
  88        4PX        -0.00287   0.00868  -0.00523  -0.00083   0.00085
  89        4PY        -0.00157   0.00413  -0.00337  -0.00199  -0.00140
  90        4PZ         0.00296  -0.00790   0.00429  -0.00052   0.00361
  91 8   H  1S         -0.01650   0.06540  -0.04567  -0.03624  -0.02421
  92        2S         -0.01889   0.07785  -0.05595  -0.04376  -0.03036
  93        3S          0.00417  -0.01282   0.00171  -0.00620  -0.00429
  94        4PX         0.00022   0.00412  -0.00132  -0.00243   0.00257
  95        4PY         0.00318  -0.01137   0.00561   0.00232   0.00277
  96        4PZ        -0.00152   0.00529  -0.00389  -0.00229  -0.00078
  97 9   H  1S         -0.01066   0.06037  -0.03633  -0.03626   0.04914
  98        2S         -0.01634   0.06811  -0.04065  -0.04043   0.05675
  99        3S          0.00692  -0.01501   0.00267  -0.00346   0.01687
 100        4PX         0.00257  -0.01186   0.00686   0.00347  -0.00394
 101        4PY         0.00082  -0.00072  -0.00018  -0.00156  -0.00135
 102        4PZ         0.00117  -0.00533   0.00110   0.00149  -0.00211
 103 10  C  1S          0.00620   0.04977   0.03420   0.02753   0.01097
 104        2S          0.00961   0.07727   0.05319   0.04311   0.01728
 105        2PX         0.01754   0.00513  -0.00163  -0.02453   0.07188
 106        2PY         0.00012   0.00404   0.03843   0.05490   0.05668
 107        2PZ        -0.00618   0.01738  -0.02316  -0.01196  -0.00722
 108        3S         -0.02570  -0.20506  -0.13992  -0.11680  -0.04786
 109        3PX         0.02599   0.00852  -0.00226  -0.03611   0.10489
 110        3PY        -0.00004   0.00156   0.05647   0.07697   0.08039
 111        3PZ        -0.00854   0.02751  -0.03401  -0.01663  -0.00904
 112        4S         -0.00288  -0.11779  -0.12691  -0.11619  -0.05313
 113        4PX         0.00825   0.00353  -0.00415  -0.00544   0.05653
 114        4PY         0.00530   0.00783   0.01459   0.03013   0.03873
 115        4PZ        -0.00187   0.00553  -0.00939  -0.00946  -0.00532
 116        5S          0.02064  -0.07200  -0.03657  -0.00520  -0.02410
 117        5PX        -0.00088  -0.00050  -0.00200   0.00158   0.00554
 118        5PY         0.00555  -0.02179  -0.00926   0.00160  -0.00188
 119        5PZ        -0.00104   0.00185   0.00574  -0.00196   0.00123
 120        6D 0        0.00144  -0.00263  -0.00179  -0.00573  -0.00201
 121        6D+1       -0.00205  -0.00152   0.00165   0.00162   0.00525
 122        6D-1       -0.00139   0.00467  -0.00916  -0.00766  -0.00250
 123        6D+2       -0.00117  -0.00132  -0.00897  -0.00632  -0.00850
 124        6D-2        0.00451   0.00132  -0.00239  -0.00647   0.00583
 125 11  H  1S          0.00113  -0.02872  -0.03901  -0.04010   0.03267
[...]
 08432,-0.00111284,-0.00043715,0.00024104,-0.00021547,-0.00041184,-0.00
 000684,-0.00007859,0.00014990,-0.00010239,0.00003217,0.00014864,-0.072
 13525,0.06891681,-0.03366579,0.00801255,-0.02012110,0.00869832,0.07058
 936,0.00699617,-0.02501051,0.00681610,0.00112962,0.00035919,0.00184462
 ,-0.00035928,0.00026991,-0.00080345,-0.00012944,-0.00013587,-0.0000302
 7,-0.00005717,0.00041978,-0.00005213,0.06592078,-0.24336663,0.09765483
 ,0.00287345,-0.00656672,0.00395415,-0.07472960,0.26896194,0.00883982,-
 0.02761221,0.00645715,0.00105322,-0.00104673,0.00129246,-0.00032764,-0
 .00029809,-0.00025820,-0.00015798,0.00014584,-0.00012837,0.00018338,0.
 00010078,0.00015802,-0.03722101,0.11133856,-0.10460199,-0.00736293,0.0
 1521629,-0.00668106,0.03641591,-0.10499066,0.11017913,0.00620884,0.001
 73113,0.00476435,-0.00012170,0.00176136,0.00171806,-0.00011374,0.00006
 853,-0.00010309,0.00004231,-0.00000184,-0.00014664,0.00071430,0.000378
 96,0.00068828,-0.26093914,-0.02945365,-0.11544414,-0.01109803,-0.00025
 864,-0.00754343,-0.00318685,-0.00083517,-0.00060431,0.26639123,-0.0217
 0970,-0.00727739,-0.01629575,0.00152025,-0.00318609,-0.00255747,-0.000
 03861,0.00024075,-0.00024090,0.00026110,-0.00006818,0.00012633,-0.0010
 4335,0.00035194,-0.00100238,-0.01931643,-0.05418640,-0.00744333,-0.009
 07537,-0.00118296,-0.00535935,0.02382629,0.00579423,0.01261774,0.02813
 703,0.06024018,-0.02334174,-0.00699448,-0.01894653,0.00204740,-0.00380
 113,-0.00283168,0.00022529,-0.00000360,0.00021269,-0.00013804,-0.00004
 877,0.00012675,-0.00137388,-0.00026823,-0.00065360,-0.10087433,-0.0108
 9418,-0.10369477,0.01827101,0.00237622,0.01289085,-0.01039428,-0.00151
 833,-0.00505149,0.11933238,0.01989252,0.11966223,-0.09299010,0.0085588
 3,-0.00391324,-0.00967212,0.02923851,-0.01711470,-0.00447464,-0.000104
 09,-0.00284741,0.00043658,0.00106974,-0.00048401,0.00107975,0.00046149
 ,0.00096168,-0.00092533,0.00774034,0.00005325,0.00009371,0.00109467,-0
 .00023657,-0.00007825,0.00048338,0.00072706,0.00010379,-0.00144169,-0.
 00028308,0.62584018,0.01487592,-0.14164810,0.02245690,0.00882111,-0.00
 067478,0.00666305,-0.00210867,0.00105794,-0.00170210,-0.00149960,0.000
 18921,-0.00102737,-0.00175702,0.00068681,-0.00152096,0.00819626,-0.034
 95972,0.00196777,-0.00076358,0.00145089,0.00214117,-0.00039759,-0.0012
 1599,-0.00255973,-0.00057833,0.00111163,0.00148106,0.03281092,0.467747
 76,-0.00702784,0.02360362,-0.10102986,-0.01043257,0.02160900,-0.013882
 51,-0.00260818,-0.00018783,-0.00171384,0.00169731,-0.00040526,0.000858
 03,0.00033053,0.00108476,0.00044866,0.00517374,-0.02109922,0.01251561,
 0.00013919,-0.00160219,0.00033001,0.00063553,-0.00477263,-0.00374243,0
 .00074925,-0.00071565,0.00014112,-0.01081614,0.07801521,0.59272348,-0.
 00459478,0.00141256,-0.00312611,0.00064891,0.00117837,-0.00004057,0.00
 002892,-0.00019115,-0.00026215,0.00031782,-0.00009184,0.00004130,-0.00
 005039,-0.00012527,0.00000513,-0.00012887,-0.00052714,-0.00026553,-0.0
 0023646,0.00000175,0.00002323,0.00011865,-0.00008490,0.00015134,0.0004
 6095,0.00022357,0.00004366,-0.22228279,-0.01927041,-0.13542701,0.23595
 080,0.02921564,-0.00305432,0.02341218,-0.00039484,-0.00596721,0.001860
 04,0.00163946,0.00021445,0.00121338,-0.00002167,-0.00004166,-0.0001750
 5,-0.00012378,0.00008391,0.00016221,0.00077339,0.00164109,0.00131453,-
 0.00002792,-0.00012137,-0.00011537,-0.00019690,0.00017440,-0.00004775,
 0.00022741,-0.00086402,-0.00026821,-0.03068382,-0.05268893,-0.02522171
 ,0.02037536,0.05874154,-0.01154552,0.00097501,-0.01083712,0.00079145,0
 .00240252,-0.00041723,-0.00080198,0.00004115,0.00004760,-0.00024767,-0
 .00002959,0.00008024,0.00022361,0.00007011,0.00025350,0.00047398,-0.00
 114568,0.00025329,0.00009060,0.00018537,0.00007711,0.00017466,0.000016
 26,-0.00006400,-0.00009004,0.00006374,0.00042139,-0.13097432,-0.015513
 78,-0.15283913,0.14473253,0.01413120,0.16332226,-0.00300894,0.00461982
 ,0.00370545,0.00012930,0.00064433,0.00105198,0.00002945,-0.00021540,-0
 .00009666,-0.00000077,0.00002753,0.00003605,-0.00029492,0.00033915,-0.
 00055221,-0.00027089,0.00077189,-0.00070001,0.00017134,-0.00009790,-0.
 00030577,0.00046011,0.00028038,0.00020604,0.00007541,0.00020115,0.0001
 7069,-0.05874838,0.03372281,0.03749031,0.00784849,-0.01660348,-0.01677
 327,0.05802727,0.00693753,-0.02737323,-0.02173299,-0.00144779,0.000383
 24,-0.00174887,-0.00017244,0.00019318,0.00024578,0.00007876,-0.0000020
 3,0.00014839,0.00038728,0.00009403,0.00052947,0.00097028,-0.00361845,0
 .00462486,0.00010775,0.00021371,0.00000108,0.00022548,-0.00114845,-0.0
 0135716,0.00019293,0.00015778,0.00008295,0.03319737,-0.16043024,-0.124
 45830,-0.00021723,0.00003346,-0.00110323,-0.03950063,0.18242217,-0.004
 48329,0.01388489,0.01124517,0.00035756,0.00075599,0.00097366,0.0001212
 0,-0.00003846,0.00015720,-0.00010571,-0.00003554,-0.00012148,0.0001131
 8,0.00011994,-0.00009289,-0.00049230,0.00256028,-0.00102202,-0.0002821
 1,0.00007048,0.00014479,-0.00012154,0.00058044,0.00089284,0.00002261,0
 .00013116,-0.00001831,0.04004064,-0.13662670,-0.20438074,0.00621555,-0
 .01072349,-0.01160834,-0.04203623,0.13896982,0.21245762,0.00553455,0.0
 0367279,-0.00501604,0.00100610,0.00087032,-0.00089503,0.00020904,-0.00
 006003,0.00000316,0.00049708,0.00042197,-0.00011785,-0.00010292,-0.000
 08818,0.00004253,0.00009650,0.00029850,-0.00034391,0.00031623,-0.00022
 684,-0.00024516,0.00017899,-0.00005816,-0.00022009,-0.00011629,0.00008
 167,0.00014166,-0.23786306,-0.06226072,0.11606170,-0.01603006,-0.00506
 004,0.01391925,-0.00339621,-0.00124192,0.00094608,0.24951442,-0.026379
 32,-0.01666445,0.02001099,-0.00197073,0.00067194,-0.00068267,0.0000567
 9,0.00004820,-0.00031009,0.00077226,-0.00006371,0.00024795,0.00027733,
 -0.00001072,0.00001292,-0.00143885,0.00117022,0.00188068,0.00029484,-0
 .00024765,-0.00060912,0.00022341,0.00027455,-0.00016463,-0.00004121,-0
 .00005534,-0.00014518,-0.05251989,-0.06605592,0.03173297,-0.00202790,-
 0.00029539,0.00052777,0.01750342,0.00812707,-0.00952435,0.06265437,0.0
 7757589,0.01151174,0.00707903,-0.01093108,0.00145229,-0.00012582,0.000
 19087,-0.00019429,-0.00023122,0.00017891,-0.00059085,0.00040078,-0.000
 03446,0.00006084,-0.00002514,-0.00017785,-0.00027868,-0.00139339,0.000
 04899,-0.00017418,-0.00018064,0.00054078,-0.00014460,-0.00001056,0.000
 01629,-0.00009510,0.00002080,0.00002178,0.11023731,0.03602620,-0.11754
 977,-0.01488290,-0.00572242,0.01289048,0.01795207,0.00685033,-0.009862
 09,-0.12297893,-0.04450199,0.12441966,-0.09368009,-0.00011250,0.000290
 05,-0.03800021,-0.00918064,0.01231249,0.00157504,-0.00115545,0.0018345
 4,-0.00311911,-0.00060365,-0.00159873,0.00164283,0.00076284,0.00168887
 ,-0.00368892,0.00591280,0.01071425,0.00199839,-0.00076938,-0.00125516,
 -0.00003508,-0.00143682,-0.00089783,0.00159935,-0.00079838,-0.00093674
 ,0.00642453,-0.00946401,0.00231009,0.00018132,0.00117578,-0.00104311,-
 0.00008660,0.00125311,-0.00012291,0.00029131,0.00300273,-0.00188283,0.
 38288467,-0.00600533,-0.09057862,0.00535777,-0.00390700,-0.00003036,-0
 .00204564,0.00172072,0.00070080,0.00027882,0.00134990,0.00049012,0.000
 11283,-0.00067032,-0.00031039,0.00082957,0.01592624,0.00819865,-0.0097
 7087,0.00087839,-0.00343282,-0.00375944,0.00115801,-0.00030448,-0.0013
 4317,-0.00021369,0.00050325,-0.00033378,-0.02469783,-0.01431554,0.0206
 4839,0.00013537,0.00092673,-0.00031735,-0.00089075,0.00076787,0.000019
 44,0.00203583,-0.00452542,0.00233551,-0.04040937,0.61155943,0.01381656
 ,0.00555369,-0.09891102,-0.00760573,-0.00455518,0.01462608,-0.00111380
 ,-0.00032154,0.00002822,-0.00507109,-0.00105164,-0.00227126,-0.0020562
 0,-0.00042252,-0.00025486,0.02354219,0.00101821,-0.02431206,-0.0005728
 1,-0.00256958,-0.00220697,-0.00057699,0.00167742,0.00121194,-0.0008485
 5,0.00088733,0.00021758,0.00953677,0.01232114,-0.01043224,0.00024128,-
 0.00085520,-0.00041736,0.00001924,-0.00180624,0.00122060,-0.00143343,0
 .00028003,0.00042108,0.04670791,0.05746058,0.51759610,-0.02986454,-0.0
 0251343,0.00101579,-0.00052194,-0.00029253,0.00111854,-0.00021010,0.00
 045042,-0.00016984,0.00067049,0.00035866,-0.00119290,-0.00017805,-0.00
 031779,-0.00018799,-0.00276443,0.00089149,0.00001838,-0.00003522,-0.00
 018053,-0.00043617,-0.00018333,0.00000821,0.00011643,0.00109114,0.0003
 8148,0.00106201,-0.00151725,-0.00151120,0.00049601,-0.00128587,-0.0014
 0626,0.00046187,0.00021983,-0.00021540,0.00068524,-0.00032537,0.001240
 44,-0.00056159,-0.11982370,0.02151528,-0.01661528,0.41491119,-0.012161
 48,0.00080589,-0.00375567,-0.00165103,-0.00084588,0.00211068,-0.000206
 80,0.00010164,-0.00016209,-0.00094369,0.00039589,-0.00042967,0.0001068
 2,0.00019158,0.00010423,-0.00048929,-0.00003632,0.00045189,-0.00057510
 ,0.00011594,-0.00016517,-0.00029523,0.00012421,-0.00005617,0.00236357,
 -0.00085919,-0.00122836,-0.00206078,0.00116134,-0.00085270,-0.00095685
 ,0.00052830,0.00154958,-0.00067911,-0.00062180,-0.00069374,0.00058835,
 -0.00063920,-0.00016172,0.02859811,-0.08437626,0.01014583,0.00195097,0
 .50131731,0.02868884,-0.00338548,0.01149676,0.00357072,0.00131798,-0.0
 0534203,-0.00023725,-0.00001950,-0.00021584,0.00259340,0.00061619,0.00
 083564,-0.00016654,0.00018224,0.00000638,-0.00300736,0.00218836,0.0039
 3330,-0.00108093,-0.00065645,-0.00125644,-0.00040386,-0.00007596,-0.00
 045390,0.00576186,-0.00181826,-0.00279298,0.00138518,-0.00249045,0.000
 96722,0.00247004,0.00355686,-0.00062004,-0.00088949,-0.00032383,-0.000
 78940,0.00016404,-0.00012078,-0.00051524,-0.02191233,0.00632847,-0.077
 79553,-0.04175102,-0.01127888,0.46311260,-0.00360337,-0.02870080,0.010
 16151,0.00126804,-0.00106078,0.00112343,-0.00034545,0.00019224,-0.0001
 5162,-0.00001171,0.00034528,-0.00012522,-0.00010737,-0.00000177,0.0000
 2879,0.00074255,-0.00177181,-0.00064491,0.00014016,0.00003056,-0.00018
 358,-0.00018516,0.00014720,0.00010254,0.00019842,0.00025677,0.00001938
 ,-0.00416452,-0.00017946,0.00204989,-0.00002467,0.00000117,0.00012717,
 -0.00011102,0.00008846,-0.00011158,0.00049350,-0.00126286,0.00073591,-
 0.05172658,0.04822654,-0.00883976,-0.00578962,0.03024367,-0.00254531,0
 .06445764,-0.00021380,-0.01182670,0.00418901,0.00079537,-0.00022617,0.
 00024991,-0.00047315,0.00031366,-0.00025242,-0.00022170,0.00025144,-0.
 00011846,0.00002192,0.00007751,0.00002996,0.00114341,0.00019484,-0.001
 76298,-0.00004392,0.00042660,-0.00018093,-0.00016689,0.00086967,0.0000
 3555,0.00012214,-0.00007891,0.00017048,-0.00185503,0.00135001,0.000132
 13,0.00002434,-0.00000137,-0.00006342,0.00009982,0.00021879,-0.0001202
 0,0.00001953,-0.00031161,0.00033284,0.03667214,-0.29942824,0.04494694,
 0.00124861,-0.00493882,-0.00133932,-0.04152441,0.32243634,0.00306940,0
 .02422168,-0.01072003,-0.00109658,-0.00041839,-0.00049354,-0.00004325,
 -0.00012513,0.00031861,0.00006135,-0.00003745,0.00000338,0.00011711,-0
 .00003708,0.00012805,-0.00019415,0.00229936,0.00030914,-0.00004423,-0.
 00018623,0.00019836,0.00041473,-0.00032027,-0.00017810,0.00001160,-0.0
 0000587,-0.00017060,0.00396768,-0.00014551,-0.00159865,-0.00009485,-0.
 00006905,0.00011489,-0.00000956,0.00014461,0.00003041,-0.00030219,0.00
 128704,-0.00040579,-0.00855446,0.03824668,-0.05564850,-0.00141537,0.01
 175902,-0.00161275,0.00033134,-0.05054140,0.06051021,-0.00570098,0.013
 13237,0.02651291,0.00060611,0.00104006,0.00272864,-0.00016939,0.000097
 73,-0.00008255,0.00020916,0.00004225,-0.00016744,-0.00062321,-0.000301
 73,0.00010492,-0.00375577,-0.00277409,0.00270174,-0.00018282,0.0010693
 2,0.00131340,0.00004417,-0.00006360,-0.00016457,-0.00052502,-0.0000413
 9,-0.00006264,-0.00005658,0.00127718,-0.00058722,-0.00005636,-0.000142
 74,0.00002337,0.00012098,-0.00012678,-0.00042410,-0.00001786,-0.000110
 13,-0.00008234,-0.04962537,-0.01851712,-0.02842840,0.00402741,-0.01648
 159,-0.02381035,0.00068160,0.00278833,0.00354206,0.06029164,-0.0013706
 5,0.00403587,0.01132988,-0.00016945,0.00065829,0.00059180,0.00007183,-
 0.00026073,-0.00025294,0.00010822,0.00005359,0.00034492,0.00013412,0.0
 0024518,0.00013466,-0.00092524,-0.00026146,0.00081044,-0.00004487,0.00
 068658,0.00014043,-0.00021273,0.00032491,0.00004859,-0.00013592,-0.000
 10878,0.00020275,0.00007223,0.00095674,0.00041044,-0.00011280,-0.00005
 570,0.00007197,-0.00000052,-0.00033398,-0.00021667,0.00001100,-0.00004
 399,-0.00018833,-0.01179079,-0.12436908,-0.11955556,0.00171940,0.00205
 589,0.00647080,-0.00331559,-0.01295715,-0.02569340,0.01658521,0.127406
 81,0.00274615,-0.01006772,-0.02036979,-0.00242305,-0.00061856,0.000157
 47,0.00018585,-0.00008445,0.00004447,-0.00012841,0.00031367,0.00034847
 ,0.00002178,0.00047532,0.00063614,0.00199572,0.00275562,-0.00030237,0.
 00005273,-0.00076418,-0.00060538,0.00007464,-0.00007063,0.00015504,-0.
 00035316,0.00011437,0.00017984,0.00009472,-0.00136021,0.00001970,0.000
 01798,-0.00001665,0.00002393,-0.00000100,0.00050849,0.00008905,0.00002
 881,0.00032723,0.00015495,-0.01817687,-0.11427499,-0.23304374,0.001751
 28,-0.00715322,-0.00868210,-0.00012421,0.00306008,0.00679901,0.0183471
 1,0.12600058,0.25545505,0.00691307,0.00018465,0.00247041,0.00172001,-0
 .00000033,-0.00019914,-0.00002825,-0.00008483,-0.00002654,0.00015597,0
 .00017795,0.00041706,-0.00002360,0.00004442,-0.00016882,-0.00866707,0.
 00260413,0.00560029,-0.00273743,-0.00080909,-0.00143053,-0.00096317,-0
 .00004567,-0.00087154,-0.00078072,-0.00148124,-0.00382635,-0.00039469,
 -0.00129959,0.00001918,-0.00031832,0.00150635,-0.00045289,-0.00063084,
 -0.00009680,-0.00041523,-0.00033920,-0.00013090,-0.00020446,-0.0015442
 0,-0.01546351,-0.03464996,-0.07695692,-0.00550630,-0.01876804,0.002292
 95,-0.00046073,0.00138329,-0.00691740,0.00036125,-0.00413796,0.0686182
 7,0.00057894,0.00025103,-0.00006416,-0.00001868,0.00043236,0.00046596,
 -0.00004212,-0.00006802,-0.00004536,-0.00024433,-0.00018623,0.00010853
 ,0.00010976,0.00004256,0.00013529,0.00310756,0.00005175,-0.00223568,0.
 00111713,0.00030822,0.00074587,-0.00021151,0.00008841,-0.00006622,-0.0
 0249141,-0.00055876,0.00109211,-0.00004870,-0.00268245,0.00058334,0.00
 105178,0.00145417,-0.00089716,-0.00035978,0.00030965,-0.00015310,-0.00
 073094,0.00000855,-0.00037666,-0.00962779,0.00786724,-0.00519068,-0.00
 697849,-0.10647218,-0.06443598,-0.00284668,0.00169871,-0.00036067,0.00
 195122,0.00136923,0.00018712,0.01375159,0.09934659,-0.00110862,0.00027
 540,0.00009439,-0.00048739,0.00001647,0.00153687,0.00026239,-0.0001647
 7,0.00001557,-0.00096795,-0.00020064,0.00034991,0.00030209,0.00026803,
 0.00025083,0.00378270,-0.00182263,-0.00064474,0.00058079,0.00043962,0.
 00087370,0.00086860,0.00006000,0.00066408,-0.00554319,0.00116792,-0.00
 017243,-0.00038693,0.00129167,-0.00070959,-0.00035963,-0.00192303,-0.0
 0000196,0.00052979,0.00049216,0.00060030,0.00015666,-0.00004458,0.0006
 2017,-0.01730886,-0.01150199,-0.03471265,-0.02119958,-0.06342201,-0.22
 296988,0.00126065,0.00142496,0.00172393,-0.00336597,-0.00061468,-0.001
 91901,0.04003368,0.11616459,0.31947299,-0.00792950,0.00071499,-0.00356
 611,-0.00082247,-0.00046805,0.00202333,0.00000906,0.00002811,-0.000015
 59,-0.00079962,-0.00008695,-0.00033861,0.00001275,-0.00003134,-0.00004
 603,0.00055837,-0.00068259,-0.00083054,-0.00014324,0.00008318,0.000180
 86,-0.00000332,0.00009614,0.00005093,0.00013433,0.00003816,-0.00011807
 ,0.00025937,0.00135947,-0.00077426,0.00007767,0.00006567,-0.00011242,0
 .00004671,-0.00000726,-0.00001854,-0.00007057,-0.00013450,0.00007259,-
 0.02419854,-0.01449602,0.01960305,-0.12657179,-0.05021191,0.07062247,0
 .00137610,0.00073023,0.00095922,0.00052582,-0.00056251,-0.00036512,0.0
 1347367,0.00733926,0.00426480,0.14004463,0.00220701,0.00039926,0.00060
 806,0.00024840,0.00018747,-0.00018676,-0.00000631,0.00000525,-0.000022
 59,0.00014744,0.00002423,-0.00001384,0.00001337,0.00000010,0.00001086,
 -0.00016237,-0.00003403,0.00016311,0.00001886,0.00002328,-0.00002954,-
 0.00000234,0.00002466,0.00001224,-0.00004535,-0.00000311,-0.00010071,-
 0.00011575,-0.00016797,0.00045214,-0.00000314,-0.00004071,-0.00046131,
 0.00014931,0.00026566,0.00020903,-0.00024059,0.00026649,-0.00004643,0.
 00643770,0.00069219,-0.00131465,-0.05279734,-0.08298949,0.04672902,-0.
 00036351,0.00087271,-0.00075625,-0.00026656,0.00004912,0.00007654,0.01
 009249,0.01346776,-0.01023328,0.05531890,0.08407972,-0.00467433,-0.000
 18507,0.00178725,-0.00018508,-0.00004564,0.00035374,-0.00002257,0.0000
 4734,-0.00003175,-0.00015392,-0.00002187,-0.00020216,-0.00000532,-0.00
 001382,-0.00000998,0.00046966,-0.00089989,-0.00036075,0.00022218,0.000
 19104,0.00018983,0.00018850,0.00007914,0.00014669,-0.00149062,0.000531
 76,0.00028658,-0.00024964,0.00060689,0.00002066,-0.00043843,-0.0006523
 8,-0.00003819,0.00013564,-0.00009382,0.00003698,0.00005525,-0.00006754
 ,0.00000931,-0.00026596,-0.00039371,0.00508817,0.07709652,0.05362235,-
 0.11168259,-0.00001651,-0.00042399,0.00043494,0.00129703,-0.00038585,0
 .00063973,0.01292980,-0.00432001,-0.05023933,-0.08910084,-0.05404318,0
 .15405168,0.00232018,0.00067419,-0.00047963,0.00004759,-0.00009317,-0.
 00007415,0.00017021,-0.00008384,0.00010186,-0.00003515,-0.00014289,0.0
 0014794,-0.00000377,-0.00000154,-0.00001946,0.00004637,0.00010671,-0.0
 0009152,-0.00000787,-0.00005648,0.00009492,0.00004982,-0.00013552,-0.0
 0001876,-0.00013858,0.00001870,0.00003568,-0.00107020,0.00002651,0.000
 52049,-0.00062498,-0.00031876,0.00102272,-0.00058031,-0.00041270,0.000
 11149,0.00012381,-0.00000932,0.00004802,-0.01106904,0.03232466,-0.0056
 5499,-0.05489193,0.02836766,-0.00068408,-0.00558149,0.00129376,-0.0021
 0313,0.00112386,-0.00042218,0.00039300,0.00712787,-0.00540680,-0.00131
 403,0.00402056,-0.02063021,0.00420865,0.05897305,0.00016760,-0.0003907
 6,0.00016675,0.00000316,0.00010224,-0.00026848,-0.00005366,0.00009730,
 -0.00007087,0.00016716,0.00004455,-0.00001741,0.00002180,-0.00000213,0
 .00004410,0.00034323,0.00011520,-0.00006792,0.00019747,0.00003133,0.00
 001712,-0.00000940,0.00006279,0.00002690,-0.00092784,0.00002937,0.0003
 0686,-0.00119990,-0.00087268,0.00104349,-0.00079445,-0.00066739,-0.000
 50314,-0.00001203,0.00034157,0.00083078,-0.00068690,0.00077051,-0.0000
 8116,0.00153352,-0.01003505,0.00335162,0.03644801,-0.22501884,0.018554
 96,0.00149577,0.00105869,0.00073832,0.00084207,0.00054865,0.00059159,-
 0.00334384,-0.01672860,-0.03167318,0.00090701,-0.01712259,0.00646825,-
 0.03509878,0.26763585,0.00013238,-0.00053738,-0.00015327,0.00001109,0.
 00013510,0.00012881,0.00002306,-0.00001146,0.00000385,-0.00002731,-0.0
 0002695,-0.00001886,0.00000222,-0.00000916,0.00003195,0.00036861,0.000
 04484,-0.00023429,0.00011929,0.00008030,0.00010218,0.00002607,-0.00003
 807,-0.00001410,-0.00078611,-0.00011472,0.00017159,0.00030174,-0.00002
 424,-0.00014574,0.00095515,0.00013991,-0.00064132,0.00006695,0.0000265
 0,0.00004665,0.00003347,-0.00013667,-0.00003700,-0.00190241,0.01212289
 ,-0.00040359,-0.00029233,0.00961583,-0.04562319,-0.00319792,0.00023127
 ,0.00025704,0.00060442,0.00035018,0.00021954,0.00229775,-0.04133712,-0
 .01483314,-0.00249112,0.01894754,-0.00048080,0.00375500,0.00054141,0.0
 6162368\\0.00000217,-0.00000068,0.00000185,0.00000849,-0.00002289,-0.0
 0001194,0.00000247,-0.00000672,-0.00000997,0.00000254,-0.00000807,-0.0
 0000723,0.00000770,-0.00001114,-0.00000386,-0.00002780,0.00000887,-0.0
 0001009,-0.00000901,-0.00000302,-0.00000712,-0.00001383,-0.00000015,-0
 .00001212,-0.00001429,0.00000731,-0.00000418,0.00001335,-0.00000338,0.
 00001031,-0.00001523,0.00000264,0.00000842,0.00000676,0.00000399,0.000
 01585,0.00001393,0.00000211,-0.00000900,0.00000770,-0.00000351,-0.0000
 0496,0.00001979,0.00002687,-0.00002012,-0.00000191,0.00000289,-0.00000
 562,0.00000435,-0.00000895,-0.00000078,-0.00000186,0.00002431,0.000044
 67,-0.00001015,0.00000020,0.00000795,0.00000483,-0.00001070,0.00001794
 \\\@
 The archive entry for this job was punched.


 GARBAGE IN, GARBAGE OUT
 Job cpu time:       0 days  0 hours 44 minutes 20.5 seconds.
 Elapsed time:       0 days  0 hours 23 minutes  2.7 seconds.
 File lengths (MBytes):  RWF=    163 Int=      0 D2E=      0 Chk=     18 Scr=      1
 Normal termination of Gaussian 16 at Fri Jun  2 11:38:50 2023.
