 Entering Gaussian System, Link 0=g16
 Input=IMIDCOOCH3-CO2_binding-site_index-5-freq.gjf
 Output=IMIDCOOCH3-CO2_binding-site_index-5-freq.log
 Initial command:
 /software/commercial/gaussian/g16/AVX2/g16/l1.exe "/scratch1/svicchi/G09-1868844.pbs02/Gau-384093.inp" -scrdir="/scratch1/svicchi/G09-1868844.pbs02/"
 Entering Link 1 = /software/commercial/gaussian/g16/AVX2/g16/l1.exe PID=    384094.
  
 Copyright (c) 1988-2021, Gaussian, Inc.  All Rights Reserved.
  
 This is part of the Gaussian(R) 16 program.  It is based on
 the Gaussian(R) 09 system (copyright 2009, Gaussian, Inc.),
 the Gaussian(R) 03 system (copyright 2003, Gaussian, Inc.),
 the Gaussian(R) 98 system (copyright 1998, Gaussian, Inc.),
 the Gaussian(R) 94 system (copyright 1995, Gaussian, Inc.),
 the Gaussian 92(TM) system (copyright 1992, Gaussian, Inc.),
 the Gaussian 90(TM) system (copyright 1990, Gaussian, Inc.),
 the Gaussian 88(TM) system (copyright 1988, Gaussian, Inc.),
 the Gaussian 86(TM) system (copyright 1986, Carnegie Mellon
 University), and the Gaussian 82(TM) system (copyright 1983,
 Carnegie Mellon University). Gaussian is a federally registered
 trademark of Gaussian, Inc.
  
 This software contains proprietary and confidential information,
 including trade secrets, belonging to Gaussian, Inc.
  
 This software is provided under written license and may be
 used, copied, transmitted, or stored only in accord with that
 written license.
  
 The following legend is applicable only to US Government
 contracts under FAR:
  
                    RESTRICTED RIGHTS LEGEND
  
 Use, reproduction and disclosure by the US Government is
 subject to restrictions as set forth in subparagraphs (a)
 and (c) of the Commercial Computer Software - Restricted
 Rights clause in FAR 52.227-19.
  
 Gaussian, Inc.
 340 Quinnipiac St., Bldg. 40, Wallingford CT 06492
  
  
 ---------------------------------------------------------------
 Warning -- This program may not be used in any manner that
 competes with the business of Gaussian, Inc. or will provide
 assistance to any competitor of Gaussian, Inc.  The licensee
 of this program is prohibited from giving any competitor of
 Gaussian, Inc. access to this program.  By using this program,
 the user acknowledges that Gaussian, Inc. is engaged in the
 business of creating and licensing software in the field of
 computational chemistry and represents and warrants to the
 licensee that it is not a competitor of Gaussian, Inc. and that
 it will not use this program in any manner prohibited above.
 ---------------------------------------------------------------
  

 Cite this work as:
 Gaussian 16, Revision C.02,
 M. J. Frisch, G. W. Trucks, H. B. Schlegel, G. E. Scuseria, 
 M. A. Robb, J. R. Cheeseman, G. Scalmani, V. Barone, 
 G. A. Petersson, H. Nakatsuji, X. Li, M. Caricato, A. V. Marenich, 
 J. Bloino, B. G. Janesko, R. Gomperts, B. Mennucci, H. P. Hratchian, 
 J. V. Ortiz, A. F. Izmaylov, J. L. Sonnenberg, D. Williams-Young, 
 F. Ding, F. Lipparini, F. Egidi, J. Goings, B. Peng, A. Petrone, 
 T. Henderson, D. Ranasinghe, V. G. Zakrzewski, J. Gao, N. Rega, 
 G. Zheng, W. Liang, M. Hada, M. Ehara, K. Toyota, R. Fukuda, 
 J. Hasegawa, M. Ishida, T. Nakajima, Y. Honda, O. Kitao, H. Nakai, 
 T. Vreven, K. Throssell, J. A. Montgomery, Jr., J. E. Peralta, 
 F. Ogliaro, M. J. Bearpark, J. J. Heyd, E. N. Brothers, K. N. Kudin, 
 V. N. Staroverov, T. A. Keith, R. Kobayashi, J. Normand, 
 K. Raghavachari, A. P. Rendell, J. C. Burant, S. S. Iyengar, 
 J. Tomasi, M. Cossi, J. M. Millam, M. Klene, C. Adamo, R. Cammi, 
 J. W. Ochterski, R. L. Martin, K. Morokuma, O. Farkas, 
 J. B. Foresman, and D. J. Fox, Gaussian, Inc., Wallingford CT, 2019.
 
 ******************************************
 Gaussian 16:  ES64L-G16RevC.02  7-Dec-2021
                11-Jan-2024 
 ******************************************
 %NProcShared=12
 Will use up to   12 processors via shared memory.
 %mem=110gb
 %chk=/scratch1/svicchi/G09-1868844.pbs02/02-freq/IMIDCOOCH3-CO2_binding-site_ind
 ex-5-freq.chk
 ----------------------------------------------------------------------
 #p freq=raman scale=0.967 guess=read geom=allcheck b3lyp/6-311+G(d,p) 
 int=grid=ultrafine EmpiricalDispersion=GD3BJ SCRF=(Solvent=ethanol) sc
 f=(xqc,intrep,maxconventionalcycle=350) nosymm
 ----------------------------------------------------------------------
 1/10=4,29=7,30=1,38=1,114=967000/1,3;
 2/12=2,15=1,40=1/2;
 3/5=4,6=6,7=111,11=2,14=-4,25=1,30=1,70=2201,71=2,72=4,74=-5,75=-5,116=-2,124=41,140=1/1,2,3;
 4/5=1/1;
 5/5=2,8=3,13=1,17=20,38=6,53=4,85=350,98=1/2,8;
 8/6=4,10=90,11=11/1;
 10/13=10,15=4,31=1/2;
 11/6=3,8=1,9=11,15=111,16=1,31=1/1,2,10;
 10/6=1,31=1/2;
 6/7=2,8=2,9=2,10=2,28=1/1;
 7/8=1,10=1,25=1,30=1/1,2,3,16;
 1/10=4,30=1/3;
 99//99;
 Leave Link    1 at Thu Jan 11 13:47:56 2024, MaxMem= 14763950080 cpu:               0.1 elap:               0.1
 (Enter /software/commercial/gaussian/g16/AVX2/g16/l101.exe)
 Structure from the checkpoint file:  "/scratch1/svicchi/G09-1868844.pbs02/02-freq/IMIDCOOCH3-CO2_binding-site_index-5-freq.chk"
 -----------------------------------
 IMIDCOOCH3-CO2_binding-site_index-5
 -----------------------------------
 Charge = -1 Multiplicity = 1
 No Z-Matrix found in chk file; cartesian coordinates used.
  C                                                -2.133432261932      3.757800672014     -0.140287701585
  N                                                -3.079950213483      2.862122503291     -0.358878670960
  C                                                -2.756456003446      2.282660987855     -1.570033076922
  C                                                -1.610891847728      2.845366307625     -2.071060544963
  H                                                -3.365682835287      1.505124792089     -2.004034784864
  N                                                -1.211478401650      3.789212145032     -1.149421292931
  H                                                -1.062154448336      2.695765993315     -2.984034923378
  C                                                -2.058250087585      4.572602953634      1.104232425067
  O                                                -2.918974157997      5.347934159927      1.459308524486
  O                                                -0.969750850631      4.273856054917      1.820336726005
  C                                                -0.757346965747      5.052081905866      3.017196427878
  H                                                 0.166067177459      4.673918127408      3.447266388553
  H                                                -0.656660279122      6.106591804725      2.759442470955
  H                                                -1.587504861128      4.916829507180      3.710207972718
  C                                                -0.104932818156      4.792545821767     -1.343052960841
  O                                                 0.687324608341      4.492209605228     -2.243995245753
  O                                                -0.178073253572      5.763514558126     -0.578899933465
 Recover connectivity data from disk.
 ITRead=  0  0  0  0  0  0  0  0  0  0  0  0  0  0  0  0  0
 MicOpt= -1 -1 -1 -1 -1 -1 -1 -1 -1 -1 -1 -1 -1 -1 -1 -1 -1
 NAtoms=     17 NQM=       17 NQMF=       0 NMMI=      0 NMMIF=      0
                NMic=       0 NMicF=      0.
                    Isotopes and Nuclear Properties:
 (Nuclear quadrupole moments (NQMom) in fm**2, nuclear magnetic moments (NMagM)
  in nuclear magnetons)

  Atom         1           2           3           4           5           6           7           8           9          10
 IAtWgt=          12          14          12          12           1          14           1          12          16          16
 AtmWgt=  12.0000000  14.0030740  12.0000000  12.0000000   1.0078250  14.0030740   1.0078250  12.0000000  15.9949146  15.9949146
 NucSpn=           0           2           0           0           1           2           1           0           0           0
 AtZEff=   3.6000000   4.5500000   3.6000000   3.6000000   1.0000000   4.5500000   1.0000000   3.6000000   5.6000000   5.6000000
 NQMom=    0.0000000   2.0440000   0.0000000   0.0000000   0.0000000   2.0440000   0.0000000   0.0000000   0.0000000   0.0000000
 NMagM=    0.0000000   0.4037610   0.0000000   0.0000000   2.7928460   0.4037610   2.7928460   0.0000000   0.0000000   0.0000000
 AtZNuc=   6.0000000   7.0000000   6.0000000   6.0000000   1.0000000   7.0000000   1.0000000   6.0000000   8.0000000   8.0000000

  Atom        11          12          13          14          15          16          17
 IAtWgt=          12           1           1           1          12          16          16
 AtmWgt=  12.0000000   1.0078250   1.0078250   1.0078250  12.0000000  15.9949146  15.9949146
 NucSpn=           0           1           1           1           0           0           0
 AtZEff=   3.6000000   1.0000000   1.0000000   1.0000000   3.6000000   5.6000000   5.6000000
 NQMom=    0.0000000   0.0000000   0.0000000   0.0000000   0.0000000   0.0000000   0.0000000
 NMagM=    0.0000000   2.7928460   2.7928460   2.7928460   0.0000000   0.0000000   0.0000000
 AtZNuc=   6.0000000   1.0000000   1.0000000   1.0000000   6.0000000   8.0000000   8.0000000
 Leave Link  101 at Thu Jan 11 13:47:56 2024, MaxMem= 14763950080 cpu:               0.1 elap:               0.1
 (Enter /software/commercial/gaussian/g16/AVX2/g16/l103.exe)

 GradGradGradGradGradGradGradGradGradGradGradGradGradGradGradGradGradGrad
 Berny optimization.
 Initialization pass.
 Trust Radius=3.00D-01 FncErr=1.00D-07 GrdErr=1.00D-07 EigMax=2.50D+02 EigMin=1.00D-04
 Number of steps in this run=      2 maximum allowed number of steps=      2.
 GradGradGradGradGradGradGradGradGradGradGradGradGradGradGradGradGradGrad

 Leave Link  103 at Thu Jan 11 13:47:57 2024, MaxMem= 14763950080 cpu:               0.1 elap:               0.1
 (Enter /software/commercial/gaussian/g16/AVX2/g16/l202.exe)
                          Input orientation:                          
 ---------------------------------------------------------------------
 Center     Atomic      Atomic             Coordinates (Angstroms)
 Number     Number       Type             X           Y           Z
 ---------------------------------------------------------------------
      1          6           0       -2.133432    3.757801   -0.140288
      2          7           0       -3.079950    2.862123   -0.358879
      3          6           0       -2.756456    2.282661   -1.570033
      4          6           0       -1.610892    2.845366   -2.071061
      5          1           0       -3.365683    1.505125   -2.004035
      6          7           0       -1.211478    3.789212   -1.149421
      7          1           0       -1.062154    2.695766   -2.984035
      8          6           0       -2.058250    4.572603    1.104232
      9          8           0       -2.918974    5.347934    1.459309
     10          8           0       -0.969751    4.273856    1.820337
     11          6           0       -0.757347    5.052082    3.017196
     12          1           0        0.166067    4.673918    3.447266
     13          1           0       -0.656660    6.106592    2.759442
     14          1           0       -1.587505    4.916830    3.710208
     15          6           0       -0.104933    4.792546   -1.343053
     16          8           0        0.687325    4.492210   -2.243995
     17          8           0       -0.178073    5.763515   -0.578900
 ---------------------------------------------------------------------
                    Distance matrix (angstroms):
                    1          2          3          4          5
     1  C    0.000000
     2  N    1.321332   0.000000
     3  C    2.146711   1.381057   0.000000
     4  C    2.198515   2.256098   1.371125   0.000000
     5  H    3.172782   2.151656   1.078924   2.209079   0.000000
     6  N    1.367237   2.230614   2.198537   1.378331   3.253923
     7  H    3.219076   3.315210   2.245154   1.075646   2.772052
     8  C    1.489425   2.471904   3.589293   3.642247   4.558523
     9  O    2.388369   3.083987   4.312682   4.520778   5.192444
    10  O    2.337630   3.345880   4.318771   4.194594   5.294543
    11  C    3.679467   4.646320   5.719161   5.611461   6.678105
    12  H    4.358614   5.320336   6.279534   6.078908   7.227115
    13  H    4.013242   5.111051   6.146214   5.905922   7.155628
    14  H    4.058042   4.796528   6.015500   6.141219   6.888702
    15  C    2.575296   3.680470   3.658089   2.566986   4.677235
    16  O    3.594664   4.516991   4.146801   2.832631   5.040548
    17  O    2.835260   4.109425   4.443731   3.577024   5.506882
                    6          7          8          9         10
     6  N    0.000000
     7  H    2.140965   0.000000
     8  C    2.531734   4.607456   0.000000
     9  O    3.485775   5.497734   1.211637   0.000000
    10  O    3.018737   5.057756   1.336744   2.254652   0.000000
    11  C    4.377417   6.454449   2.362558   2.680891   1.443338
    12  H    4.879536   6.839828   3.232284   3.731455   2.024113
    13  H    4.577913   6.692211   2.656557   2.717347   2.082994
    14  H    5.002891   7.072624   2.670431   2.650511   2.089653
    15  C    1.506192   2.829413   3.138953   4.010052   3.320238
    16  O    2.301684   2.614488   4.330736   5.239477   4.394584
    17  O    2.300281   3.997168   2.790389   3.440863   2.932946
                   11         12         13         14         15
    11  C    0.000000
    12  H    1.086583   0.000000
    13  H    1.090214   1.789563   0.000000
    14  H    1.089826   1.789737   1.784926   0.000000
    15  C    4.416421   4.799445   4.342993   5.267724   0.000000
    16  O    5.484585   5.717970   5.426501   6.388089   1.236758
    17  O    3.711281   4.185172   3.389879   4.593454   1.237764
                   16         17
    16  O    0.000000
    17  O    2.266643   0.000000
 Symmetry turned off by external request.
 Stoichiometry    C6H5N2O4(1-)
 Framework group  C1[X(C6H5N2O4)]
 Deg. of freedom    45
 Full point group                 C1      NOp   1
 Rotational constants (GHZ):           1.3679085           0.8788644           0.6048663
 Leave Link  202 at Thu Jan 11 13:47:57 2024, MaxMem= 14763950080 cpu:               0.1 elap:               0.1
 (Enter /software/commercial/gaussian/g16/AVX2/g16/l301.exe)
 Standard basis: 6-311+G(d,p) (5D, 7F)
 Ernie: Thresh=  0.10000D-02 Tol=  0.10000D-05 Strict=F.
   294 basis functions,   472 primitive gaussians,   306 cartesian basis functions
    44 alpha electrons       44 beta electrons
       nuclear repulsion energy       699.1674880552 Hartrees.
 IExCor=  402 DFT=T Ex+Corr=B3LYP ExCW=0 ScaHFX=  0.200000
 ScaDFX=  0.800000  0.720000  1.000000  0.810000 ScalE2=  1.000000  1.000000
 IRadAn=      5 IRanWt=     -1 IRanGd=            0 ICorTp=0 IEmpDi=141
 NAtoms=   17 NActive=   17 NUniq=   17 SFac= 1.00D+00 NAtFMM=   60 NAOKFM=F Big=F
 Integral buffers will be    131072 words long.
 Raffenetti 2 integral format.
 Two-electron integral symmetry is turned off.
 R6Disp:  Grimme-D3(BJ) Dispersion energy=       -0.0295050503 Hartrees.
 Nuclear repulsion after empirical dispersion term =      699.1379830049 Hartrees.
 Force inversion solution in PCM.
 ------------------------------------------------------------------------------
 Polarizable Continuum Model (PCM)
 =================================
 Model                : PCM.
 Atomic radii         : UFF (Universal Force Field).
 Polarization charges : Total charges.
 Charge compensation  : None.
 Solution method      : Matrix inversion.
 Cavity type          : Scaled VdW (van der Waals Surface) (Alpha=1.100).
 Cavity algorithm     : GePol (No added spheres)
                        Default sphere list used, NSphG=   17.
                        Lebedev-Laikov grids with approx.  5.0 points / Ang**2.
                        Smoothing algorithm: York/Karplus (Gamma=1.0000).
                        Polarization charges: spherical gaussians, with
                                              point-specific exponents (IZeta= 3).
                        Self-potential: point-specific (ISelfS= 7).
                        Self-field    : sphere-specific E.n sum rule (ISelfD= 2).
 1st derivatives      : Analytical E(r).r(x)/FMM algorithm (CHGder, D1EAlg=3).
                        Cavity 1st derivative terms included.
 2nd derivatives      : Analytical E(r).r(xy)/FMM algorithm (CHGder, D2EAlg=3).
                        Cavity 2nd derivative terms included.
 Solvent              : Ethanol, Eps=  24.852000 Eps(inf)=   1.852593
 ------------------------------------------------------------------------------
 Spheres list:
 ISph  on   Nord     Re0    Alpha      Xe            Ye            Ze
    1   C      1    1.9255  1.100     -2.133432      3.757801     -0.140288
    2   N      2    1.8300  1.100     -3.079950      2.862123     -0.358879
    3   C      3    1.9255  1.100     -2.756456      2.282661     -1.570033
    4   C      4    1.9255  1.100     -1.610892      2.845366     -2.071061
    5   H      5    1.4430  1.100     -3.365683      1.505125     -2.004035
    6   N      6    1.8300  1.100     -1.211478      3.789212     -1.149421
    7   H      7    1.4430  1.100     -1.062154      2.695766     -2.984035
    8   C      8    1.9255  1.100     -2.058250      4.572603      1.104232
    9   O      9    1.7500  1.100     -2.918974      5.347934      1.459309
   10   O     10    1.7500  1.100     -0.969751      4.273856      1.820337
   11   C     11    1.9255  1.100     -0.757347      5.052082      3.017196
   12   H     12    1.4430  1.100      0.166067      4.673918      3.447266
   13   H     13    1.4430  1.100     -0.656660      6.106592      2.759442
   14   H     14    1.4430  1.100     -1.587505      4.916830      3.710208
   15   C     15    1.9255  1.100     -0.104933      4.792546     -1.343053
   16   O     16    1.7500  1.100      0.687325      4.492210     -2.243995
   17   O     17    1.7500  1.100     -0.178073      5.763515     -0.578900
 ------------------------------------------------------------------------------
 GePol: Number of generator spheres                  =      17
 GePol: Total number of spheres                      =      17
 GePol: Number of exposed spheres                    =      17 (100.00%)
 GePol: Number of points                             =    1590
 GePol: Average weight of points                     =       0.13
 GePol: Minimum weight of points                     =   0.20D-09
 GePol: Maximum weight of points                     =    0.20577
 GePol: Number of points with low weight             =      69
 GePol: Fraction of low-weight points (<1% of avg)   =       4.34%
 GePol: Cavity surface area                          =    213.044 Ang**2
 GePol: Cavity volume                                =    212.687 Ang**3
 Leave Link  301 at Thu Jan 11 13:47:57 2024, MaxMem= 14763950080 cpu:               0.1 elap:               0.1
 (Enter /software/commercial/gaussian/g16/AVX2/g16/l302.exe)
 NPDir=0 NMtPBC=     1 NCelOv=     1 NCel=       1 NClECP=     1 NCelD=      1
         NCelK=      1 NCelE2=     1 NClLst=     1 CellRange=     0.0.
 One-electron integrals computed using PRISM.
 NBasis=   294 RedAO= T EigKep=  5.07D-06  NBF=   294
 NBsUse=   294 1.00D-06 EigRej= -1.00D+00 NBFU=   294
 Precomputing XC quadrature grid using
 IXCGrd= 4 IRadAn=           5 IRanWt=          -1 IRanGd=           0 AccXCQ= 0.00D+00.
 Generated NRdTot=       0 NPtTot=           0 NUsed=           0 NTot=          32
 NSgBfM=   306   306   306   306   306 MxSgAt=    17 MxSgA2=    17.
 Leave Link  302 at Thu Jan 11 13:47:58 2024, MaxMem= 14763950080 cpu:               1.6 elap:               0.3
 (Enter /software/commercial/gaussian/g16/AVX2/g16/l303.exe)
 DipDrv:  MaxL=1.
 Leave Link  303 at Thu Jan 11 13:47:58 2024, MaxMem= 14763950080 cpu:               0.1 elap:               0.1
 (Enter /software/commercial/gaussian/g16/AVX2/g16/l401.exe)
 Initial guess from the checkpoint file:  "/scratch1/svicchi/G09-1868844.pbs02/02-freq/IMIDCOOCH3-CO2_binding-site_index-5-freq.chk"
 B after Tr=     0.000000    0.000000    0.000000
         Rot=    1.000000    0.000000    0.000000    0.000000 Ang=   0.00 deg.
 Guess basis will be translated and rotated to current coordinates.
 JPrj=2 DoOrth=T DoCkMO=T.
 Leave Link  401 at Thu Jan 11 13:47:58 2024, MaxMem= 14763950080 cpu:               0.7 elap:               0.2
 (Enter /software/commercial/gaussian/g16/AVX2/g16/l502.exe)
 Two-electron integral symmetry not used.
 Closed shell SCF:
 Using DIIS extrapolation, IDIIS=  1040.
 NGot= 14763950080 LenX= 14763756522 LenY= 14763662445
 Requested convergence on RMS density matrix=1.00D-08 within 350 cycles.
 Requested convergence on MAX density matrix=1.00D-06.
 Requested convergence on             energy=1.00D-06.
 No special actions if energy rises.
 Fock matrices will be formed incrementally for  20 cycles.

 Cycle   1  Pass 1  IDiag  1:
 FoFJK:  IHMeth= 1 ICntrl=       0 DoSepK=F KAlg= 0 I1Cent=           0 FoldK=F
 IRaf= 900000000 NMat=       1 IRICut=       1 DoRegI=T DoRafI=F ISym2E= 0 IDoP0=0 IntGTp=1.
 FoFCou: FMM=F IPFlag=           0 FMFlag=      100000 FMFlg1=           0
         NFxFlg=           0 DoJE=F BraDBF=F KetDBF=F FulRan=T
         wScrn=  0.000000 ICntrl=         0 IOpCl=  0 I1Cent=           0 NGrid=           0
         NMat0=    1 NMatS0=      1 NMatT0=    0 NMatD0=    1 NMtDS0=    0 NMtDT0=    0
 Symmetry not used in FoFCou.
 Inv3:  Mode=1 IEnd=     7584300.
 Iteration    1 A*A^-1 deviation from unit magnitude is 3.44D-15 for   1460.
 Iteration    1 A*A^-1 deviation from orthogonality  is 2.91D-15 for    541    238.
 Iteration    1 A^-1*A deviation from unit magnitude is 3.22D-15 for   1273.
 Iteration    1 A^-1*A deviation from orthogonality  is 1.77D-14 for   1538   1445.
 E= -642.447805713764    
 DIIS: error= 1.37D-08 at cycle   1 NSaved=   1.
 NSaved= 1 IEnMin= 1 EnMin= -642.447805713764     IErMin= 1 ErrMin= 1.37D-08
 ErrMax= 1.37D-08  0.00D+00 EMaxC= 1.00D-01 BMatC= 1.48D-13 BMatP= 1.48D-13
 IDIUse=1 WtCom= 1.00D+00 WtEn= 0.00D+00
 Coeff-Com:  0.100D+01
 Coeff:      0.100D+01
 Gap=     0.208 Goal=   None    Shift=    0.000
 RMSDP=3.99D-09 MaxDP=1.67D-07              OVMax= 3.06D-07

 Error on total polarization charges =  0.01724
 SCF Done:  E(RB3LYP) =  -642.447805714     A.U. after    1 cycles
            NFock=  1  Conv=0.40D-08     -V/T= 2.0037
 KE= 6.400985096777D+02 PE=-2.919057215299D+03 EE= 9.373729169026D+02
 Leave Link  502 at Thu Jan 11 13:48:02 2024, MaxMem= 14763950080 cpu:              31.9 elap:               3.3
 (Enter /software/commercial/gaussian/g16/AVX2/g16/l508.exe)
 QCSCF skips out because SCF is already converged.
 Leave Link  508 at Thu Jan 11 13:48:03 2024, MaxMem= 14763950080 cpu:               0.1 elap:               0.1
 (Enter /software/commercial/gaussian/g16/AVX2/g16/l801.exe)
 DoSCS=F DFT=T ScalE2(SS,OS)=  1.000000  1.000000
 Range of M.O.s used for correlation:     1   294
 NBasis=   294 NAE=    44 NBE=    44 NFC=     0 NFV=     0
 NROrb=    294 NOA=    44 NOB=    44 NVA=   250 NVB=   250

 **** Warning!!: The largest alpha MO coefficient is  0.10853411D+03

 Leave Link  801 at Thu Jan 11 13:48:03 2024, MaxMem= 14763950080 cpu:               0.1 elap:               0.1
 (Enter /software/commercial/gaussian/g16/AVX2/g16/l1002.exe)
 Minotr:  Closed shell wavefunction.
 NEqPCM:  Using equilibrium solvation (IEInf=0, Eps=  24.8520, EpsInf=   1.8526)
          Direct CPHF calculation.
          Differentiating once with respect to electric field.
                with respect to dipole field.
          Electric field/nuclear overlap derivatives assumed to be zero.
          Requested convergence is 1.0D-08 RMS, and 1.0D-07 maximum.
          Secondary convergence is 1.0D-12 RMS, and 1.0D-12 maximum.
          NewPWx=F KeepS1=T KeepF1=T KeepIn=T MapXYZ=F SortEE=F KeepMc=T.
         5249 words used for storage of precomputed grid.
 Two-electron integral symmetry not used.
          MDV=   14763950080 using IRadAn=       1.
          Solving linear equations simultaneously, MaxMat=     384.
          There are     3 degrees of freedom in the 1st order CPHF.  IDoFFX=0 NUNeed=     3.
      3 vectors produced by pass  0 Test12= 3.67D-13 3.33D-08 XBig12= 9.07D+01 3.69D+00.
 AX will form     3 AO Fock derivatives at one time.
 FoFJK:  IHMeth= 1 ICntrl=       0 DoSepK=F KAlg= 0 I1Cent=           0 FoldK=F
 IRaf= 900000000 NMat=       3 IRICut=       1 DoRegI=T DoRafI=F ISym2E= 0 IDoP0=0 IntGTp=1.
 FoFCou: FMM=F IPFlag=           0 FMFlag=      100000 FMFlg1=           0
         NFxFlg=           0 DoJE=F BraDBF=F KetDBF=F FulRan=T
         wScrn=  0.000000 ICntrl=         0 IOpCl=  0 I1Cent=           0 NGrid=           0
         NMat0=    3 NMatS0=      3 NMatT0=    0 NMatD0=    3 NMtDS0=    0 NMtDT0=    0
 Symmetry not used in FoFCou.
      3 vectors produced by pass  1 Test12= 3.67D-13 3.33D-08 XBig12= 4.53D+01 1.16D+00.
      3 vectors produced by pass  2 Test12= 3.67D-13 3.33D-08 XBig12= 9.50D+00 5.65D-01.
      3 vectors produced by pass  3 Test12= 3.67D-13 3.33D-08 XBig12= 2.93D+00 5.38D-01.
      3 vectors produced by pass  4 Test12= 3.67D-13 3.33D-08 XBig12= 5.52D-01 1.25D-01.
      3 vectors produced by pass  5 Test12= 3.67D-13 3.33D-08 XBig12= 1.77D-01 7.63D-02.
      3 vectors produced by pass  6 Test12= 3.67D-13 3.33D-08 XBig12= 2.68D-02 3.78D-02.
      3 vectors produced by pass  7 Test12= 3.67D-13 3.33D-08 XBig12= 1.12D-02 2.45D-02.
      3 vectors produced by pass  8 Test12= 3.67D-13 3.33D-08 XBig12= 1.20D-03 7.10D-03.
      3 vectors produced by pass  9 Test12= 3.67D-13 3.33D-08 XBig12= 9.98D-05 1.46D-03.
      3 vectors produced by pass 10 Test12= 3.67D-13 3.33D-08 XBig12= 3.83D-06 3.13D-04.
      3 vectors produced by pass 11 Test12= 3.67D-13 3.33D-08 XBig12= 1.15D-07 4.15D-05.
      3 vectors produced by pass 12 Test12= 3.67D-13 3.33D-08 XBig12= 3.06D-09 9.58D-06.
      3 vectors produced by pass 13 Test12= 3.67D-13 3.33D-08 XBig12= 8.76D-11 1.49D-06.
      3 vectors produced by pass 14 Test12= 3.67D-13 3.33D-08 XBig12= 3.02D-12 3.71D-07.
 InvSVY:  IOpt=1 It=  1 EMax= 7.11D-15
 Solved reduced A of dimension    45 with     3 vectors.
 End of Minotr F.D. properties file   721 does not exist.
 End of Minotr F.D. properties file   722 does not exist.
 End of Minotr F.D. properties file   788 does not exist.
 Leave Link 1002 at Thu Jan 11 13:48:58 2024, MaxMem= 14763950080 cpu:             583.5 elap:              54.5
 (Enter /software/commercial/gaussian/g16/AVX2/g16/l1101.exe)
 Using compressed storage, NAtomX=    17.
 Will process     18 centers per pass.
 R6Disp: Adding Grimme-D3(BJ) dispersion energy 1st derivatives to the gradient.
 Leave Link 1101 at Thu Jan 11 13:48:58 2024, MaxMem= 14763950080 cpu:               1.8 elap:               0.3
 (Enter /software/commercial/gaussian/g16/AVX2/g16/l1102.exe)
 Symmetrizing basis deriv contribution to polar:
 IMax=3 JMax=2 DiffMx= 0.00D+00
 Leave Link 1102 at Thu Jan 11 13:48:58 2024, MaxMem= 14763950080 cpu:               0.1 elap:               0.1
 (Enter /software/commercial/gaussian/g16/AVX2/g16/l1110.exe)
 Forming Gx(P) for the SCF density, NAtomX=    17.
 Integral derivatives from FoFJK, PRISM(SPDF).
 Do as many integral derivatives as possible in FoFJK.
 G2DrvN: MDV=   14763948193.
 G2DrvN: will do    18 centers at a time, making    1 passes.
 PxScal for G2LodP:  IOpCl= 0 ISclPx=1 IMOff=     1 NMtTot=     4 NTT=   43365 ScalPx= 8.86D+01
 Calling FoFCou, ICntrl=  3107 FMM=F I1Cent=   0 AccDes= 0.00D+00.
 FoFJK:  IHMeth= 1 ICntrl=    3107 DoSepK=F KAlg= 0 I1Cent=           0 FoldK=F
 IRaf=         0 NMat=       1 IRICut=       1 DoRegI=T DoRafI=F ISym2E= 0 IDoP0=0 IntGTp=1.
 FoFCou: FMM=F IPFlag=           0 FMFlag=      100000 FMFlg1=           0
         NFxFlg=           0 DoJE=F BraDBF=F KetDBF=F FulRan=T
         wScrn=  0.000000 ICntrl=      3107 IOpCl=  0 I1Cent=           0 NGrid=           0
         NMat0=    1 NMatS0=      1 NMatT0=    0 NMatD0=    4 NMtDS0=    3 NMtDT0=    0
 Symmetry not used in FoFCou.
 PxScal for G2LodP:  IOpCl= 0 ISclPx=0 IMOff=     1 NMtTot=     4 NTT=   43365 ScalPx= 1.00D+00
 NEqPCM:  Using equilibrium solvation (IEInf=0, Eps=  24.8520, EpsInf=   1.8526)
 G2PCM: DoFxE=T DoFxN=T DoGrad=T DoDP/DQ/DG/TGxP=TFFF NFrqRd=   0 IEInf=0 SqF1=F DoCFld=F IF1Alg=4.
 GePol: Maximum number of non-zero 1st derivatives   =     224
 End of G2Drv F.D. properties file   721 does not exist.
 End of G2Drv F.D. properties file   722 does not exist.
 End of G2Drv F.D. properties file   788 does not exist.
 Leave Link 1110 at Thu Jan 11 13:49:47 2024, MaxMem= 14763950080 cpu:             571.3 elap:              48.3
 (Enter /software/commercial/gaussian/g16/AVX2/g16/l1002.exe)
 Minotr:  Closed shell wavefunction.
          IDoAtm=11111111111111111
 NEqPCM:  Using equilibrium solvation (IEInf=0, Eps=  24.8520, EpsInf=   1.8526)
          Direct CPHF calculation.
          Differentiating once with respect to electric field.
                with respect to dipole field.
          Differentiating once with respect to nuclear coordinates.
          Requested convergence is 1.0D-08 RMS, and 1.0D-07 maximum.
          Secondary convergence is 1.0D-12 RMS, and 1.0D-12 maximum.
          NewPWx=T KeepS1=F KeepF1=F KeepIn=T MapXYZ=F SortEE=F KeepMc=T.
         5249 words used for storage of precomputed grid.
 Keep R1 ints in memory in canonical form, NReq=954759428.
 FoFCou: FMM=F IPFlag=           0 FMFlag=           0 FMFlg1=           0
         NFxFlg=           0 DoJE=F BraDBF=F KetDBF=F FulRan=T
         wScrn=  0.000000 ICntrl=       600 IOpCl=  0 I1Cent=           0 NGrid=           0
         NMat0=    1 NMatS0=  43365 NMatT0=    0 NMatD0=    1 NMtDS0=    0 NMtDT0=    0
 Symmetry not used in FoFCou.
 Two-electron integral symmetry not used.
          MDV=   14763950080 using IRadAn=       1.
          Solving linear equations simultaneously, MaxMat=       0.
          There are    54 degrees of freedom in the 1st order CPHF.  IDoFFX=5 NUNeed=    54.
 Will reuse    3 saved solutions.
     48 vectors produced by pass  0 Test12= 2.04D-14 1.85D-09 XBig12= 2.01D-01 1.17D-01.
 AX will form    48 AO Fock derivatives at one time.
     48 vectors produced by pass  1 Test12= 2.04D-14 1.85D-09 XBig12= 6.19D-02 7.49D-02.
     48 vectors produced by pass  2 Test12= 2.04D-14 1.85D-09 XBig12= 6.10D-04 4.27D-03.
     48 vectors produced by pass  3 Test12= 2.04D-14 1.85D-09 XBig12= 4.80D-06 2.78D-04.
     48 vectors produced by pass  4 Test12= 2.04D-14 1.85D-09 XBig12= 1.87D-08 1.34D-05.
     45 vectors produced by pass  5 Test12= 2.04D-14 1.85D-09 XBig12= 4.69D-11 8.79D-07.
     25 vectors produced by pass  6 Test12= 2.04D-14 1.85D-09 XBig12= 8.77D-14 2.64D-08.
 InvSVY:  IOpt=1 It=  1 EMax= 2.78D-16
 Solved reduced A of dimension   310 with    54 vectors.
 FullF1:  Do perturbations      1 to       3.
 Isotropic polarizability for W=    0.000000      132.28 Bohr**3.
 FullF1:  Do perturbations      1 to       6.
 End of Minotr F.D. properties file   721 does not exist.
 End of Minotr F.D. properties file   722 does not exist.
 End of Minotr F.D. properties file   788 does not exist.
 Leave Link 1002 at Thu Jan 11 13:50:45 2024, MaxMem= 14763950080 cpu:             623.7 elap:              57.9
 (Enter /software/commercial/gaussian/g16/AVX2/g16/l601.exe)
 Copying SCF densities to generalized density rwf, IOpCl= 0 IROHF=0.

 **********************************************************************

            Population analysis using the SCF Density.

 **********************************************************************

 Alpha  occ. eigenvalues --  -19.17673 -19.12365 -19.07694 -19.07687 -14.36731
 Alpha  occ. eigenvalues --  -14.30835 -10.31830 -10.29794 -10.23773 -10.22370
 Alpha  occ. eigenvalues --  -10.19937 -10.18897  -1.12032  -1.06307  -1.03253
 Alpha  occ. eigenvalues --   -1.01025  -0.96909  -0.87334  -0.77628  -0.72698
 Alpha  occ. eigenvalues --   -0.63911  -0.61249  -0.59814  -0.55834  -0.49584
 Alpha  occ. eigenvalues --   -0.49186  -0.48803  -0.47167  -0.45629  -0.44087
 Alpha  occ. eigenvalues --   -0.43896  -0.42163  -0.41768  -0.40091  -0.39421
 Alpha  occ. eigenvalues --   -0.36809  -0.31836  -0.30626  -0.29899  -0.28787
 Alpha  occ. eigenvalues --   -0.27458  -0.26930  -0.25367  -0.23810
 Alpha virt. eigenvalues --   -0.03015   0.00798   0.01041   0.02144   0.03272
 Alpha virt. eigenvalues --    0.03702   0.04048   0.04547   0.05257   0.05942
 Alpha virt. eigenvalues --    0.06388   0.06725   0.07514   0.08398   0.08771
 Alpha virt. eigenvalues --    0.09569   0.10062   0.11160   0.11343   0.12432
 Alpha virt. eigenvalues --    0.12777   0.13772   0.14694   0.14858   0.15521
 Alpha virt. eigenvalues --    0.17370   0.17570   0.18410   0.18681   0.19326
 Alpha virt. eigenvalues --    0.20196   0.20526   0.21150   0.22119   0.22715
 Alpha virt. eigenvalues --    0.23152   0.23687   0.24097   0.24832   0.25328
 Alpha virt. eigenvalues --    0.25671   0.26305   0.26928   0.27857   0.28117
 Alpha virt. eigenvalues --    0.28681   0.28806   0.29433   0.30483   0.30607
 Alpha virt. eigenvalues --    0.31574   0.31867   0.32342   0.33241   0.34482
 Alpha virt. eigenvalues --    0.35177   0.35701   0.36302   0.37393   0.38156
 Alpha virt. eigenvalues --    0.39214   0.41572   0.42085   0.43262   0.44161
 Alpha virt. eigenvalues --    0.47048   0.47878   0.48214   0.50231   0.51123
 Alpha virt. eigenvalues --    0.54384   0.55737   0.58201   0.59677   0.61513
 Alpha virt. eigenvalues --    0.62138   0.63680   0.64157   0.65090   0.66465
 Alpha virt. eigenvalues --    0.67937   0.69914   0.70211   0.71694   0.72480
 Alpha virt. eigenvalues --    0.73219   0.75442   0.77002   0.78991   0.80980
 Alpha virt. eigenvalues --    0.81130   0.82700   0.85837   0.87882   0.88323
 Alpha virt. eigenvalues --    0.90021   0.91565   0.93254   0.95940   0.98399
 Alpha virt. eigenvalues --    1.00939   1.03678   1.05470   1.07404   1.08925
 Alpha virt. eigenvalues --    1.10258   1.11542   1.12361   1.13768   1.16257
 Alpha virt. eigenvalues --    1.18413   1.19610   1.19938   1.21372   1.23309
 Alpha virt. eigenvalues --    1.24251   1.25383   1.25566   1.27349   1.29142
 Alpha virt. eigenvalues --    1.31286   1.32700   1.35047   1.37743   1.39412
 Alpha virt. eigenvalues --    1.40911   1.44006   1.45943   1.49681   1.52109
 Alpha virt. eigenvalues --    1.53279   1.55724   1.57271   1.58007   1.60532
 Alpha virt. eigenvalues --    1.62072   1.65930   1.67219   1.68986   1.71269
 Alpha virt. eigenvalues --    1.71480   1.73485   1.75094   1.75708   1.77967
 Alpha virt. eigenvalues --    1.81691   1.82273   1.84958   1.87520   1.91824
 Alpha virt. eigenvalues --    1.95632   1.99531   1.99788   2.01467   2.05617
 Alpha virt. eigenvalues --    2.06658   2.11306   2.12097   2.15930   2.18855
 Alpha virt. eigenvalues --    2.21325   2.26990   2.35613   2.40469   2.42317
 Alpha virt. eigenvalues --    2.44137   2.48787   2.50569   2.52957   2.55260
 Alpha virt. eigenvalues --    2.58054   2.58646   2.62070   2.62988   2.65470
 Alpha virt. eigenvalues --    2.67615   2.70188   2.75165   2.77797   2.79568
 Alpha virt. eigenvalues --    2.80380   2.81405   2.83338   2.86335   2.87467
 Alpha virt. eigenvalues --    2.89655   2.92304   2.92629   2.94093   2.97590
 Alpha virt. eigenvalues --    2.98446   3.01517   3.01875   3.05062   3.08660
 Alpha virt. eigenvalues --    3.17491   3.21753   3.24367   3.27733   3.29496
 Alpha virt. eigenvalues --    3.30837   3.35542   3.39816   3.43744   3.44577
 Alpha virt. eigenvalues --    3.50501   3.57384   3.62114   3.63962   3.67374
 Alpha virt. eigenvalues --    3.69095   3.73559   3.78583   3.84193   3.87686
 Alpha virt. eigenvalues --    3.90912   3.94427   4.02180   4.07314   4.10271
 Alpha virt. eigenvalues --    4.11436   4.13482   4.51893   4.74604   4.88782
 Alpha virt. eigenvalues --    4.99951   5.06809   5.07308   5.10225   5.17294
 Alpha virt. eigenvalues --    5.20084   5.23592   5.25960   5.36739   5.60831
 Alpha virt. eigenvalues --    5.69262   5.84523   5.90562  23.79162  23.86004
 Alpha virt. eigenvalues --   23.87447  23.89969  23.91836  24.16075  35.49700
 Alpha virt. eigenvalues --   35.67838  49.88430  49.95710  49.99931  50.05893
          Condensed to atoms (all electrons):
               1          2          3          4          5          6
     1  C    9.296561   0.275197   0.342781  -0.394434   0.017057   0.041038
     2  N    0.275197   6.736980   0.224763   0.057308  -0.067456  -0.000097
     3  C    0.342781   0.224763   5.859097  -0.035122   0.463444  -0.209052
     4  C   -0.394434   0.057308  -0.035122   5.754091  -0.076559   0.375040
     5  H    0.017057  -0.067456   0.463444  -0.076559   0.512609   0.014331
     6  N    0.041038  -0.000097  -0.209052   0.375040   0.014331   7.351341
     7  H    0.012098   0.009269  -0.049266   0.446238  -0.000870  -0.054743
     8  C   -2.887765  -0.044797  -0.452529  -0.017416  -0.002591  -0.171621
     9  O    0.005707   0.002058   0.005345   0.002186   0.000016   0.008058
    10  O   -0.434051   0.001390  -0.002356  -0.011261   0.000061   0.003924
    11  C   -0.425060   0.004377  -0.012556  -0.005558  -0.000035   0.004447
    12  H    0.025242  -0.000163   0.000233   0.000051   0.000000  -0.000598
    13  H   -0.020554  -0.000159  -0.000389   0.000835  -0.000000   0.003057
    14  H    0.009674   0.000642   0.000558  -0.000884   0.000000  -0.001397
    15  C   -0.010362   0.008662  -0.006613  -0.083617   0.000992   0.048175
    16  O    0.003669   0.000633   0.019559  -0.012040   0.000002  -0.161165
    17  O   -0.084080   0.002431  -0.006243   0.025799   0.000102  -0.163141
               7          8          9         10         11         12
     1  C    0.012098  -2.887765   0.005707  -0.434051  -0.425060   0.025242
     2  N    0.009269  -0.044797   0.002058   0.001390   0.004377  -0.000163
     3  C   -0.049266  -0.452529   0.005345  -0.002356  -0.012556   0.000233
     4  C    0.446238  -0.017416   0.002186  -0.011261  -0.005558   0.000051
     5  H   -0.000870  -0.002591   0.000016   0.000061  -0.000035   0.000000
     6  N   -0.054743  -0.171621   0.008058   0.003924   0.004447  -0.000598
     7  H    0.480415   0.005257   0.000028   0.000043   0.000105  -0.000000
     8  C    0.005257   8.965200   0.416183   0.314256   0.152323  -0.001950
     9  O    0.000028   0.416183   8.104558  -0.166189  -0.050115   0.002653
    10  O    0.000043   0.314256  -0.166189   8.250454   0.236703  -0.055773
    11  C    0.000105   0.152323  -0.050115   0.236703   5.080591   0.400626
    12  H   -0.000000  -0.001950   0.002653  -0.055773   0.400626   0.511995
    13  H    0.000000   0.009384   0.000998  -0.031773   0.415290  -0.024323
    14  H   -0.000000  -0.014486   0.001039  -0.028093   0.410907  -0.024985
    15  C   -0.006105  -0.066929  -0.001909   0.016601   0.000417   0.000128
    16  O   -0.000393   0.005148  -0.000385  -0.002101  -0.000111  -0.000023
    17  O   -0.000264   0.093542  -0.011960  -0.010184   0.002482   0.000036
              13         14         15         16         17
     1  C   -0.020554   0.009674  -0.010362   0.003669  -0.084080
     2  N   -0.000159   0.000642   0.008662   0.000633   0.002431
     3  C   -0.000389   0.000558  -0.006613   0.019559  -0.006243
     4  C    0.000835  -0.000884  -0.083617  -0.012040   0.025799
     5  H   -0.000000   0.000000   0.000992   0.000002   0.000102
     6  N    0.003057  -0.001397   0.048175  -0.161165  -0.163141
     7  H    0.000000  -0.000000  -0.006105  -0.000393  -0.000264
     8  C    0.009384  -0.014486  -0.066929   0.005148   0.093542
     9  O    0.000998   0.001039  -0.001909  -0.000385  -0.011960
    10  O   -0.031773  -0.028093   0.016601  -0.002101  -0.010184
    11  C    0.415290   0.410907   0.000417  -0.000111   0.002482
    12  H   -0.024323  -0.024985   0.000128  -0.000023   0.000036
    13  H    0.510989  -0.033518   0.000535  -0.000016   0.001401
    14  H   -0.033518   0.513774   0.000186  -0.000000  -0.000232
    15  C    0.000535   0.000186   4.873206   0.427439   0.434132
    16  O   -0.000016  -0.000000   0.427439   8.360559  -0.127311
    17  O    0.001401  -0.000232   0.434132  -0.127311   8.340459
 Mulliken charges:
               1
     1  C    0.227282
     2  N   -0.211037
     3  C   -0.141654
     4  C   -0.024656
     5  H    0.138897
     6  N   -0.087598
     7  H    0.158190
     8  C   -0.301207
     9  O   -0.318272
    10  O   -0.081650
    11  C   -0.214834
    12  H    0.166852
    13  H    0.168242
    14  H    0.166814
    15  C    0.365064
    16  O   -0.513463
    17  O   -0.496969
 Sum of Mulliken charges =  -1.00000
 Mulliken charges with hydrogens summed into heavy atoms:
               1
     1  C    0.227282
     2  N   -0.211037
     3  C   -0.002758
     4  C    0.133533
     6  N   -0.087598
     8  C   -0.301207
     9  O   -0.318272
    10  O   -0.081650
    11  C    0.287074
    15  C    0.365064
    16  O   -0.513463
    17  O   -0.496969
 APT charges:
               1
     1  C    0.216614
     2  N   -0.538796
     3  C   -0.037897
     4  C    0.010686
     5  H    0.068141
     6  N   -0.741921
     7  H    0.135116
     8  C    1.775453
     9  O   -1.041426
    10  O   -1.111112
    11  C    0.562449
    12  H    0.007064
    13  H   -0.017074
    14  H   -0.015424
    15  C    2.229956
    16  O   -1.259597
    17  O   -1.242234
 Sum of APT charges =  -1.00000
 APT charges with hydrogens summed into heavy atoms:
               1
     1  C    0.216614
     2  N   -0.538796
     3  C    0.030244
     4  C    0.145803
     6  N   -0.741921
     8  C    1.775453
     9  O   -1.041426
    10  O   -1.111112
    11  C    0.537015
    15  C    2.229956
    16  O   -1.259597
    17  O   -1.242234
 Electronic spatial extent (au):  <R**2>=           8054.6181
 Charge=             -1.0000 electrons
 Dipole moment (field-independent basis, Debye):
    X=              5.1227    Y=            -23.6965    Z=              4.7496  Tot=             24.7048
 Quadrupole moment (field-independent basis, Debye-Ang):
   XX=           -100.2113   YY=           -194.5943   ZZ=            -71.5463
   XY=             22.1182   XZ=             11.7884   YZ=             26.4449
 Traceless Quadrupole moment (field-independent basis, Debye-Ang):
   XX=             21.9060   YY=            -72.4770   ZZ=             50.5710
   XY=             22.1182   XZ=             11.7884   YZ=             26.4449
 Octapole moment (field-independent basis, Debye-Ang**2):
  XXX=            399.1699  YYY=          -1557.8248  ZZZ=             77.4334  XYY=            205.0263
  XXY=           -423.5679  XXZ=             -8.2568  XZZ=             84.3154  YZZ=           -305.1340
  YYZ=            143.7520  XYZ=             50.6407
 Hexadecapole moment (field-independent basis, Debye-Ang**3):
 XXXX=          -1885.9219 YYYY=         -11691.8316 ZZZZ=          -1214.2797 XXXY=           1533.6319
 XXXZ=            108.9276 YYYX=           1657.9797 YYYZ=            602.4090 ZZZX=             50.8469
 ZZZY=            194.8592 XXYY=          -2170.5765 XXZZ=           -487.7322 YYZZ=          -1589.8889
 XXYZ=            -99.1003 YYXZ=            264.0303 ZZXY=            325.0274
 N-N= 6.991379830049D+02 E-N=-2.919057213085D+03  KE= 6.400985096777D+02
  Exact polarizability:     132.624      14.839     123.026     -11.903      27.341     141.197
 Approx polarizability:     152.112       9.585     139.777     -18.214      30.416     153.411
 No NMR shielding tensors so no spin-rotation constants.
 Leave Link  601 at Thu Jan 11 13:50:46 2024, MaxMem= 14763950080 cpu:               1.1 elap:               0.2
 (Enter /software/commercial/gaussian/g16/AVX2/g16/l701.exe)
 ... and contract with generalized density number  0.
 Compute integral second derivatives.
 R6Disp: Adding Grimme-D3(BJ) dispersion energy 2nd derivatives to the Hessian.
 D2PCM: PCM CHGder 2nd derivatives, FixD1E=F FixD2E=F DoIter=F DoCFld=F I1PDM=0
 GePol: Maximum number of non-zero 2nd derivatives   =     224
 Leave Link  701 at Thu Jan 11 13:50:50 2024, MaxMem= 14763950080 cpu:              50.3 elap:               4.7
 (Enter /software/commercial/gaussian/g16/AVX2/g16/l702.exe)
 L702 exits ... SP integral derivatives will be done elsewhere.
 Leave Link  702 at Thu Jan 11 13:50:51 2024, MaxMem= 14763950080 cpu:               0.1 elap:               0.1
 (Enter /software/commercial/gaussian/g16/AVX2/g16/l703.exe)
 Integral derivatives from FoFJK, PRISM(SPDF).
 Compute integral second derivatives, UseDBF=F ICtDFT=           0.
 Calling FoFJK, ICntrl=    100127 FMM=F ISym2X=0 I1Cent= 0 IOpClX= 0 NMat=1 NMatS=1 NMatT=0.
 FoFJK:  IHMeth= 1 ICntrl=  100127 DoSepK=F KAlg= 0 I1Cent=           0 FoldK=F
 IRaf=         0 NMat=       1 IRICut=       1 DoRegI=T DoRafI=F ISym2E= 0 IDoP0=0 IntGTp=1.
 FoFCou: FMM=F IPFlag=           0 FMFlag=      100000 FMFlg1=         800
         NFxFlg=           0 DoJE=F BraDBF=F KetDBF=F FulRan=T
         wScrn=  0.000000 ICntrl=    100127 IOpCl=  0 I1Cent=           0 NGrid=           0
         NMat0=    1 NMatS0=      1 NMatT0=    0 NMatD0=    1 NMtDS0=    0 NMtDT0=    0
 Symmetry not used in FoFCou.
 Leave Link  703 at Thu Jan 11 13:51:59 2024, MaxMem= 14763950080 cpu:             817.2 elap:              68.4
 (Enter /software/commercial/gaussian/g16/AVX2/g16/l716.exe)
 Dipole        = 2.01542489D+00-9.32292780D+00 1.86865107D+00
 Polarizability= 1.32623872D+02 1.48394663D+01 1.23026076D+02
                -1.19034260D+01 2.73414330D+01 1.41196663D+02
 HyperPolar    =-1.01521480D+02-1.01322523D+01 7.60521947D+01
                -8.10786139D+01-4.75468203D+01 2.93671968D+01
                 8.80767135D+01-1.41886131D+02 2.26625818D+02
                 3.12144003D+02
 Full mass-weighted force constant matrix:
 Low frequencies ---   -0.0007   -0.0006   -0.0005    6.3176   11.8282   13.6487
 Low frequencies ---   30.2217   72.6746   86.8732
 Diagonal vibrational polarizability:
       76.2523277      75.1977238     136.3277557
 Diagonal vibrational hyperpolarizability:
     1187.3704062    -408.7555564     391.3051182
 Harmonic frequencies (cm**-1), IR intensities (KM/Mole), Raman scattering
 activities (A**4/AMU), depolarization ratios for plane and unpolarized
 incident light, reduced masses (AMU), force constants (mDyne/A),
 and normal coordinates:
                      1                      2                      3
                      A                      A                      A
 Frequencies --     29.4821                72.5889                86.8375
 Red. masses --      8.6817                 3.7445                 7.2588
 Frc consts  --      0.0044                 0.0116                 0.0323
 IR Inten    --      3.0546                11.4211                 3.7877
 Raman Activ --      4.5951                 0.7438                 6.2802
 Depolar (P) --      0.6234                 0.7499                 0.7033
 Depolar (U) --      0.7680                 0.8571                 0.8258
  Atom  AN      X      Y      Z        X      Y      Z        X      Y      Z
     1   6     0.06  -0.03   0.01    -0.04  -0.07   0.01     0.06  -0.04   0.04
     2   7     0.11  -0.09   0.09    -0.03  -0.06  -0.05     0.00   0.04  -0.02
     3   6     0.07  -0.10   0.08    -0.01  -0.00  -0.07    -0.05   0.10  -0.06
     4   6    -0.01  -0.03  -0.01    -0.01   0.02  -0.03    -0.03   0.07  -0.04
     5   1     0.09  -0.15   0.13    -0.00   0.01  -0.11    -0.10   0.16  -0.10
     6   7    -0.01   0.02  -0.05    -0.02  -0.02   0.02     0.05  -0.02   0.02
     7   1    -0.05  -0.01  -0.04     0.00   0.06  -0.03    -0.06   0.11  -0.06
     8   6     0.05   0.06  -0.04    -0.03  -0.05  -0.01    -0.02  -0.07   0.06
     9   8     0.16   0.28  -0.23     0.02   0.02  -0.05    -0.17  -0.24   0.09
    10   8    -0.13  -0.13   0.15    -0.03  -0.06  -0.01     0.04   0.15   0.05
    11   6    -0.15  -0.09   0.14     0.18   0.19  -0.21    -0.12   0.22   0.04
    12   1    -0.30  -0.27   0.31     0.14   0.13  -0.17     0.01   0.48  -0.01
    13   1     0.13  -0.13   0.08     0.35   0.10  -0.49    -0.43   0.25   0.03
    14   1    -0.29   0.14   0.01     0.20   0.51  -0.12    -0.04  -0.01   0.08
    15   6    -0.04   0.02  -0.05    -0.02  -0.01   0.11     0.09  -0.06  -0.04
    16   8    -0.20   0.20  -0.26    -0.02   0.08   0.08    -0.12   0.01  -0.25
    17   8     0.13  -0.13   0.17    -0.01  -0.08   0.21     0.31  -0.16   0.11
                      4                      5                      6
                      A                      A                      A
 Frequencies --    130.0238               152.8428               155.7810
 Red. masses --      6.0523                 1.4601                 3.1045
 Frc consts  --      0.0603                 0.0201                 0.0444
 IR Inten    --     12.0968                 2.1607                 3.7867
 Raman Activ --      4.8331                 1.1138                 1.5019
 Depolar (P) --      0.6415                 0.6131                 0.7283
 Depolar (U) --      0.7816                 0.7602                 0.8428
  Atom  AN      X      Y      Z        X      Y      Z        X      Y      Z
     1   6    -0.11   0.15  -0.06     0.03  -0.03   0.02    -0.06   0.07  -0.03
     2   7    -0.12   0.17  -0.11    -0.02   0.04  -0.03     0.07  -0.08   0.06
     3   6     0.09  -0.05   0.06    -0.03   0.05  -0.03     0.08  -0.09   0.07
     4   6     0.22  -0.20   0.20     0.02  -0.01   0.01    -0.03   0.07  -0.02
     5   1     0.14  -0.10   0.07    -0.07   0.10  -0.07     0.18  -0.19   0.14
     6   7     0.09  -0.07   0.11     0.06  -0.06   0.04    -0.12   0.16  -0.08
     7   1     0.37  -0.36   0.31     0.02  -0.02   0.01    -0.04   0.09  -0.03
     8   6    -0.11   0.07  -0.02     0.02  -0.03   0.02    -0.07   0.03   0.00
     9   8    -0.09   0.03   0.12    -0.01  -0.04   0.01    -0.10  -0.04   0.08
    10   8    -0.05  -0.01  -0.13     0.01   0.00   0.04    -0.03   0.02  -0.06
    11   6     0.10  -0.14  -0.09    -0.01   0.03   0.03     0.03  -0.04  -0.04
    12   1     0.11  -0.24  -0.20    -0.30  -0.32   0.35    -0.21  -0.41   0.17
    13   1     0.16  -0.12  -0.00     0.53  -0.04  -0.07     0.54  -0.09  -0.06
    14   1     0.15  -0.13  -0.03    -0.28   0.47  -0.20    -0.17   0.34  -0.21
    15   6     0.01   0.01   0.01     0.00  -0.00  -0.02     0.02   0.02  -0.01
    16   8    -0.11   0.10  -0.13    -0.01   0.01  -0.03     0.02  -0.09   0.02
    17   8     0.07  -0.02   0.06    -0.05   0.02  -0.06     0.15   0.01   0.01
                      7                      8                      9
                      A                      A                      A
 Frequencies --    200.5801               283.0249               305.2750
 Red. masses --      6.1233                 6.4839                 4.5935
 Frc consts  --      0.1451                 0.3060                 0.2522
 IR Inten    --      4.6002                11.5608                12.0170
 Raman Activ --      1.0159                 2.3409                 2.4161
 Depolar (P) --      0.6759                 0.7331                 0.3878
 Depolar (U) --      0.8066                 0.8460                 0.5588
  Atom  AN      X      Y      Z        X      Y      Z        X      Y      Z
     1   6     0.03   0.02  -0.06     0.06   0.19  -0.14    -0.11   0.03  -0.04
     2   7    -0.01   0.03   0.04     0.03   0.19   0.07    -0.06  -0.02  -0.09
     3   6    -0.07  -0.04   0.05    -0.06  -0.04   0.18     0.07  -0.04  -0.05
     4   6    -0.08  -0.09  -0.03    -0.08  -0.15  -0.01     0.07  -0.00   0.02
     5   1    -0.11  -0.05   0.12    -0.11  -0.11   0.37     0.15  -0.10  -0.07
     6   7    -0.03  -0.05  -0.09    -0.01   0.03  -0.22    -0.07   0.06   0.01
     7   1    -0.12  -0.16  -0.05    -0.16  -0.34  -0.03     0.16  -0.01   0.08
     8   6     0.11   0.09  -0.12     0.05  -0.02  -0.00     0.08  -0.06   0.01
     9   8     0.02  -0.05  -0.03    -0.00  -0.12   0.10     0.24   0.03   0.20
    10   8     0.22   0.25  -0.21    -0.09  -0.20   0.13     0.12  -0.08  -0.04
    11   6    -0.08  -0.07   0.04    -0.06   0.10  -0.05    -0.25   0.11  -0.09
    12   1    -0.27  -0.29   0.25    -0.02   0.26  -0.01    -0.31   0.29   0.21
    13   1     0.13  -0.01   0.34    -0.13   0.03  -0.35    -0.33   0.08  -0.22
    14   1    -0.33  -0.14  -0.27    -0.02   0.25   0.03    -0.42   0.12  -0.29
    15   6    -0.03  -0.04   0.07     0.05   0.01  -0.11    -0.05   0.01   0.03
    16   8     0.04   0.12   0.08     0.21   0.14  -0.01    -0.09  -0.07   0.02
    17   8    -0.10  -0.16   0.22    -0.08  -0.09   0.01     0.03   0.03   0.01
                     10                     11                     12
                      A                      A                      A
 Frequencies --    355.0242               418.7747               439.6010
 Red. masses --      7.8060                12.0222                 7.3847
 Frc consts  --      0.5797                 1.2422                 0.8408
 IR Inten    --      1.1050                 0.8332                12.1710
 Raman Activ --      2.0186                 7.6253                 6.7291
 Depolar (P) --      0.6826                 0.1279                 0.2531
 Depolar (U) --      0.8114                 0.2267                 0.4039
  Atom  AN      X      Y      Z        X      Y      Z        X      Y      Z
     1   6     0.01  -0.11   0.09    -0.14  -0.19   0.05     0.15   0.04   0.08
     2   7    -0.09  -0.02   0.19    -0.09  -0.28  -0.06     0.24  -0.01   0.17
     3   6    -0.17   0.03   0.16    -0.13  -0.15  -0.15     0.06   0.16   0.04
     4   6    -0.14  -0.01   0.14    -0.13  -0.07  -0.08    -0.00   0.19  -0.04
     5   1    -0.22   0.08   0.14    -0.15  -0.09  -0.23    -0.04   0.27   0.00
     6   7     0.04  -0.06   0.15    -0.01  -0.17  -0.00     0.18  -0.06   0.10
     7   1    -0.23  -0.04   0.08    -0.16  -0.01  -0.12    -0.13   0.36  -0.14
     8   6    -0.00  -0.12  -0.09    -0.19   0.05   0.13    -0.09   0.11  -0.02
     9   8     0.01  -0.07  -0.17     0.07   0.26   0.36    -0.04   0.10   0.18
    10   8     0.04  -0.11  -0.18    -0.08   0.14  -0.02    -0.10  -0.07  -0.17
    11   6    -0.15  -0.08  -0.22    -0.00   0.02   0.05    -0.14  -0.08  -0.24
    12   1    -0.18   0.02  -0.07    -0.01  -0.10  -0.03    -0.14  -0.03  -0.19
    13   1    -0.21  -0.08  -0.26     0.06   0.05   0.18    -0.16  -0.09  -0.28
    14   1    -0.24  -0.10  -0.33     0.01   0.00   0.06    -0.16  -0.06  -0.26
    15   6     0.15   0.17   0.05     0.21   0.03  -0.12    -0.01  -0.14  -0.01
    16   8     0.07   0.13   0.02     0.33   0.27  -0.09    -0.00  -0.05  -0.06
    17   8     0.22   0.22  -0.04     0.07  -0.04  -0.09    -0.17  -0.15   0.00
                     13                     14                     15
                      A                      A                      A
 Frequencies --    584.7117               636.6041               724.2613
 Red. masses --      8.1368                 3.5530                 8.0310
 Frc consts  --      1.6390                 0.8484                 2.4820
 IR Inten    --      9.4533                 2.8097                35.3847
 Raman Activ --      0.5909                 7.9016                 2.4362
 Depolar (P) --      0.4886                 0.4304                 0.2491
 Depolar (U) --      0.6565                 0.6018                 0.3989
  Atom  AN      X      Y      Z        X      Y      Z        X      Y      Z
     1   6     0.19  -0.03  -0.13     0.02  -0.04   0.05     0.32  -0.30   0.22
     2   7     0.18  -0.02   0.00     0.09  -0.10   0.09    -0.06   0.28  -0.14
     3   6    -0.13  -0.01  -0.08    -0.13   0.19  -0.11     0.07  -0.05   0.09
     4   6    -0.05  -0.26  -0.19     0.15  -0.16   0.14    -0.02  -0.03  -0.07
     5   1    -0.38   0.12   0.01    -0.29   0.41  -0.27     0.18  -0.28   0.35
     6   7     0.11  -0.17  -0.14    -0.11   0.15  -0.08    -0.03   0.11  -0.14
     7   1    -0.17  -0.42  -0.24     0.40  -0.43   0.33     0.09  -0.32   0.04
     8   6     0.01   0.14  -0.08    -0.02  -0.02   0.03    -0.19  -0.23   0.22
     9   8     0.00   0.03   0.18    -0.01   0.01  -0.01     0.02   0.12   0.01
    10   8    -0.12   0.02   0.02     0.00   0.00  -0.02    -0.01   0.09  -0.06
    11   6    -0.00   0.00  -0.00    -0.01  -0.01  -0.02    -0.03  -0.05  -0.10
    12   1     0.02  -0.05  -0.10    -0.01  -0.01  -0.01    -0.05  -0.10  -0.09
    13   1     0.04  -0.00  -0.02    -0.01  -0.01  -0.02    -0.01  -0.02   0.01
    14   1     0.06   0.05   0.09    -0.02  -0.02  -0.04    -0.05  -0.10  -0.13
    15   6    -0.08   0.11   0.15    -0.04   0.02  -0.07    -0.07   0.09  -0.09
    16   8    -0.22  -0.08   0.14     0.04  -0.00  -0.01     0.00  -0.06   0.02
    17   8     0.16   0.25   0.06    -0.01  -0.04   0.01    -0.01  -0.00   0.06
                     16                     17                     18
                      A                      A                      A
 Frequencies --    754.8338               768.7790               783.3353
 Red. masses --     12.1052                 1.6284                 4.5092
 Frc consts  --      4.0637                 0.5671                 1.6302
 IR Inten    --    352.9797                94.2743                90.6561
 Raman Activ --      7.5016                11.0821                 4.7297
 Depolar (P) --      0.2606                 0.7481                 0.5825
 Depolar (U) --      0.4135                 0.8559                 0.7362
  Atom  AN      X      Y      Z        X      Y      Z        X      Y      Z
     1   6    -0.01   0.00  -0.12    -0.03   0.07  -0.04     0.09  -0.19   0.12
     2   7    -0.05  -0.08   0.01     0.03   0.01  -0.00    -0.14   0.03  -0.04
     3   6    -0.06  -0.03   0.03     0.03  -0.03   0.03     0.07  -0.07   0.03
     4   6    -0.01   0.01   0.09     0.05  -0.09   0.04     0.08  -0.02   0.09
     5   1    -0.12   0.08  -0.11    -0.33   0.40  -0.24    -0.17   0.32  -0.33
     6   7     0.09   0.03  -0.00     0.02  -0.00  -0.01    -0.07   0.03   0.01
     7   1    -0.21   0.06  -0.04    -0.48   0.50  -0.38    -0.29   0.55  -0.22
     8   6    -0.03  -0.08  -0.09    -0.07  -0.10   0.08     0.17   0.25  -0.19
     9   8     0.08  -0.02   0.03     0.00   0.03  -0.03    -0.01  -0.07   0.07
    10   8    -0.07   0.06   0.00     0.03   0.01  -0.02    -0.08  -0.02   0.04
    11   6     0.01   0.02   0.04     0.01   0.01   0.01    -0.02  -0.02  -0.04
    12   1     0.02  -0.09  -0.09    -0.01   0.01   0.03     0.01  -0.03  -0.10
    13   1     0.08   0.03   0.11    -0.00   0.01   0.02     0.01  -0.03  -0.06
    14   1     0.08   0.03   0.12    -0.02  -0.02  -0.02     0.04   0.03   0.05
    15   6     0.45   0.43  -0.09    -0.05   0.02  -0.03    -0.10   0.09  -0.14
    16   8    -0.00  -0.36  -0.25     0.00  -0.00   0.02     0.05  -0.02   0.03
    17   8    -0.29   0.08   0.32     0.02  -0.01   0.01     0.03  -0.04   0.02
                     19                     20                     21
                      A                      A                      A
 Frequencies --    800.4210               826.5660               873.8793
 Red. masses --      7.0255                 5.6159                 1.3953
 Frc consts  --      2.6519                 2.2606                 0.6278
 IR Inten    --     10.8032                44.7976                 2.0467
 Raman Activ --      3.6709                16.7008                 8.0020
 Depolar (P) --      0.5550                 0.0113                 0.6787
 Depolar (U) --      0.7139                 0.0223                 0.8086
  Atom  AN      X      Y      Z        X      Y      Z        X      Y      Z
     1   6     0.08  -0.10   0.04     0.03  -0.00   0.09    -0.01   0.01  -0.01
     2   7    -0.04   0.05  -0.02     0.02  -0.00  -0.07    -0.00   0.01  -0.00
     3   6     0.05  -0.06   0.06    -0.01  -0.09  -0.06     0.08  -0.10   0.07
     4   6     0.05  -0.07   0.02    -0.03  -0.06  -0.05    -0.07   0.08  -0.05
     5   1    -0.33   0.41  -0.26    -0.13   0.01  -0.09    -0.43   0.55  -0.38
     6   7    -0.14   0.16  -0.12    -0.04  -0.01  -0.02     0.01  -0.01   0.01
     7   1    -0.22   0.20  -0.18    -0.03  -0.02  -0.06     0.34  -0.40   0.27
     8   6     0.02   0.01  -0.04     0.00   0.24   0.15    -0.00  -0.01   0.00
     9   8     0.03  -0.02   0.03    -0.27   0.12  -0.03     0.00  -0.00  -0.00
    10   8    -0.06   0.03   0.00     0.27  -0.20   0.02    -0.00   0.00  -0.00
    11   6    -0.01  -0.01  -0.02     0.03  -0.03  -0.01     0.00   0.00   0.00
    12   1    -0.00  -0.07  -0.10    -0.02   0.39   0.46     0.00  -0.00  -0.00
    13   1     0.03  -0.00   0.02    -0.24  -0.07  -0.27     0.00   0.00   0.01
    14   1     0.03   0.00   0.04    -0.21  -0.04  -0.29     0.00   0.00   0.01
    15   6     0.34  -0.29   0.39     0.10   0.04   0.02    -0.02   0.01  -0.02
    16   8    -0.09   0.08  -0.11     0.00  -0.04  -0.05     0.00  -0.00   0.01
    17   8    -0.10   0.07  -0.11    -0.04   0.04   0.04     0.00  -0.00   0.00
                     22                     23                     24
                      A                      A                      A
 Frequencies --    942.2450               979.1197              1055.5988
 Red. masses --      6.3770                 8.4207                 1.7119
 Frc consts  --      3.3358                 4.7563                 1.1239
 IR Inten    --      1.9510                19.8141               137.4031
 Raman Activ --     15.4854                20.8875                 6.6548
 Depolar (P) --      0.2077                 0.5573                 0.1840
 Depolar (U) --      0.3440                 0.7158                 0.3108
  Atom  AN      X      Y      Z        X      Y      Z        X      Y      Z
     1   6     0.09   0.13   0.03     0.13  -0.11  -0.06    -0.01   0.02   0.04
     2   7     0.27   0.04  -0.26     0.09   0.03  -0.10     0.03   0.04   0.03
     3   6    -0.20  -0.25  -0.13    -0.09  -0.05   0.03    -0.01  -0.01   0.01
     4   6    -0.18   0.01   0.24    -0.07   0.07   0.20     0.07  -0.03  -0.12
     5   1    -0.37  -0.25   0.08    -0.08  -0.06   0.05    -0.35   0.02   0.43
     6   7    -0.05   0.07   0.15     0.05   0.10   0.02    -0.12  -0.08   0.03
     7   1     0.12   0.37   0.37    -0.06   0.12   0.21     0.57   0.54   0.07
     8   6     0.08   0.01   0.05    -0.18  -0.04  -0.24     0.00  -0.01  -0.00
     9   8     0.04  -0.04  -0.02    -0.01   0.04   0.06     0.01  -0.01  -0.00
    10   8    -0.04   0.08   0.07     0.00  -0.24  -0.31    -0.02  -0.02  -0.04
    11   6    -0.04  -0.07  -0.12     0.09   0.25   0.40    -0.00   0.03   0.03
    12   1    -0.03  -0.11  -0.18     0.09   0.18   0.32     0.00  -0.03  -0.03
    13   1     0.02  -0.05  -0.04     0.04   0.19   0.23     0.02   0.02   0.03
    14   1     0.03  -0.04  -0.03    -0.00   0.14   0.25     0.01   0.01   0.04
    15   6    -0.00  -0.01  -0.01    -0.04  -0.03   0.00     0.03   0.03  -0.01
    16   8     0.01   0.01   0.00    -0.02   0.02   0.03     0.01  -0.00  -0.01
    17   8    -0.00  -0.02  -0.01     0.01  -0.04  -0.03    -0.00   0.01   0.01
                     25                     26                     27
                      A                      A                      A
 Frequencies --   1122.7935              1144.4431              1166.2377
 Red. masses --      3.0504                 2.8479                 1.2880
 Frc consts  --      2.2658                 2.1977                 1.0322
 IR Inten    --    142.4999                51.2351                 1.1856
 Raman Activ --      1.5050                32.5437                 4.4290
 Depolar (P) --      0.3131                 0.7300                 0.7393
 Depolar (U) --      0.4768                 0.8440                 0.8501
  Atom  AN      X      Y      Z        X      Y      Z        X      Y      Z
     1   6     0.09  -0.05  -0.17     0.06   0.05   0.01     0.00   0.00   0.00
     2   7    -0.09  -0.03   0.07    -0.06   0.10   0.21    -0.00   0.01   0.01
     3   6    -0.10  -0.05   0.04    -0.02  -0.15  -0.19    -0.00  -0.01  -0.01
     4   6     0.05   0.09   0.08    -0.04  -0.03  -0.00    -0.00  -0.00  -0.00
     5   1    -0.07  -0.05  -0.01     0.37  -0.20  -0.69     0.02  -0.01  -0.04
     6   7     0.09  -0.00  -0.11     0.03   0.01  -0.02     0.00  -0.00  -0.00
     7   1     0.51   0.60   0.27     0.22   0.28   0.09     0.01   0.01   0.00
     8   6    -0.11  -0.03  -0.09     0.05  -0.00   0.10     0.01   0.01   0.00
     9   8    -0.02   0.05   0.03     0.00  -0.01  -0.02    -0.00  -0.00   0.00
    10   8     0.07   0.05   0.13    -0.03  -0.02  -0.08    -0.04  -0.05   0.03
    11   6     0.04  -0.08  -0.07    -0.03   0.03   0.04     0.07   0.10  -0.07
    12   1     0.00   0.18   0.25     0.01  -0.09  -0.16    -0.16  -0.22   0.14
    13   1    -0.10  -0.05  -0.05     0.06  -0.01  -0.06    -0.04   0.27   0.62
    14   1    -0.05   0.00  -0.14     0.03   0.04   0.11    -0.12  -0.48  -0.42
    15   6    -0.00   0.00   0.01    -0.01  -0.01   0.01    -0.00  -0.00   0.00
    16   8    -0.05   0.01   0.05     0.01  -0.01  -0.01     0.00  -0.00  -0.00
    17   8     0.01  -0.03  -0.03    -0.00   0.02   0.01    -0.00   0.00   0.00
                     28                     29                     30
                      A                      A                      A
 Frequencies --   1205.6086              1211.0691              1254.2168
 Red. masses --      2.0408                 2.2589                 7.0895
 Frc consts  --      1.7477                 1.9521                 6.5707
 IR Inten    --    165.5206               251.1131               597.9932
 Raman Activ --     41.4126                35.8116                10.7647
 Depolar (P) --      0.1059                 0.4682                 0.7499
 Depolar (U) --      0.1916                 0.6378                 0.8571
  Atom  AN      X      Y      Z        X      Y      Z        X      Y      Z
     1   6    -0.03  -0.03  -0.00    -0.06  -0.02   0.03     0.05   0.06  -0.02
     2   7    -0.06  -0.05  -0.00    -0.03   0.01   0.04    -0.09  -0.18  -0.15
     3   6    -0.06  -0.05  -0.00    -0.03  -0.07  -0.07    -0.09   0.06   0.19
     4   6     0.04   0.01  -0.03     0.03  -0.02  -0.07     0.04   0.10   0.10
     5   1    -0.37  -0.03   0.38    -0.36  -0.05   0.34     0.06   0.04   0.01
     6   7     0.15   0.11  -0.02     0.12   0.14   0.05     0.08  -0.09  -0.21
     7   1     0.06   0.02  -0.03    -0.02  -0.08  -0.10     0.23   0.27   0.19
     8   6     0.04   0.03   0.05     0.02   0.00  -0.00     0.28   0.05   0.36
     9   8    -0.03   0.01  -0.00     0.03  -0.03  -0.00    -0.02  -0.01  -0.04
    10   8     0.06  -0.05   0.00    -0.09   0.05  -0.02    -0.19   0.00  -0.18
    11   6    -0.11   0.06  -0.03     0.11  -0.05   0.04     0.06   0.04   0.09
    12   1    -0.06  -0.34  -0.49     0.06   0.32   0.46     0.04  -0.04   0.00
    13   1     0.30   0.08   0.20    -0.31  -0.08  -0.23    -0.23  -0.06  -0.31
    14   1     0.20  -0.05   0.32    -0.22   0.03  -0.34    -0.25  -0.09  -0.33
    15   6    -0.05  -0.04   0.01    -0.06  -0.06   0.01     0.04   0.03   0.00
    16   8     0.01  -0.01  -0.01     0.04  -0.01  -0.04    -0.06   0.01   0.06
    17   8    -0.00   0.01   0.01    -0.01   0.03   0.03     0.01  -0.02  -0.03
                     31                     32                     33
                      A                      A                      A
 Frequencies --   1288.0697              1362.4467              1433.0468
 Red. masses --      7.0263                 5.5209                 3.4832
 Frc consts  --      6.8684                 6.0381                 4.2145
 IR Inten    --    501.3995                 2.0309                55.7472
 Raman Activ --     25.8826                17.0337                48.1165
 Depolar (P) --      0.1709                 0.5990                 0.3594
 Depolar (U) --      0.2919                 0.7492                 0.5288
  Atom  AN      X      Y      Z        X      Y      Z        X      Y      Z
     1   6    -0.07  -0.04   0.02     0.23   0.09  -0.12    -0.16   0.05   0.27
     2   7     0.06  -0.01  -0.08    -0.10  -0.14  -0.09     0.06   0.01  -0.06
     3   6    -0.02   0.08   0.13    -0.07   0.08   0.19    -0.11  -0.01   0.11
     4   6    -0.07   0.00   0.09    -0.09  -0.21  -0.22    -0.01  -0.08  -0.09
     5   1     0.35   0.06  -0.31     0.45   0.03  -0.47     0.32  -0.05  -0.44
     6   7    -0.00  -0.11  -0.13    -0.01   0.19   0.28     0.14   0.05  -0.11
     7   1     0.30   0.41   0.26     0.36   0.25  -0.06     0.29   0.24   0.01
     8   6    -0.03  -0.00  -0.03    -0.00  -0.01   0.02    -0.05   0.02  -0.07
     9   8     0.00   0.00   0.00    -0.00   0.01   0.00     0.05  -0.05  -0.02
    10   8     0.02   0.00   0.02     0.00  -0.00  -0.00    -0.00  -0.01  -0.01
    11   6    -0.00  -0.01  -0.01     0.00   0.01   0.00    -0.01  -0.03  -0.04
    12   1    -0.00   0.01   0.01    -0.01  -0.03  -0.01    -0.01   0.27   0.25
    13   1     0.02  -0.00   0.02    -0.00   0.00  -0.01     0.08   0.05   0.31
    14   1     0.02   0.01   0.03    -0.00  -0.02  -0.01     0.15   0.20   0.21
    15   6    -0.26  -0.25   0.06    -0.04  -0.01  -0.00     0.06   0.04  -0.01
    16   8     0.22  -0.07  -0.24     0.04   0.00  -0.03    -0.06   0.00   0.05
    17   8     0.00   0.29   0.21    -0.01  -0.02  -0.00    -0.00  -0.04  -0.03
                     34                     35                     36
                      A                      A                      A
 Frequencies --   1464.0544              1476.9461              1485.0557
 Red. masses --      1.5042                 1.0466                 1.0889
 Frc consts  --      1.8996                 1.3452                 1.4149
 IR Inten    --     12.2049                14.8265                27.4523
 Raman Activ --     25.1654                19.1225                43.0486
 Depolar (P) --      0.4118                 0.6874                 0.3761
 Depolar (U) --      0.5834                 0.8148                 0.5466
  Atom  AN      X      Y      Z        X      Y      Z        X      Y      Z
     1   6     0.10   0.07  -0.00     0.00  -0.00  -0.01     0.02   0.03   0.02
     2   7    -0.05  -0.04   0.00    -0.00   0.00   0.00    -0.01  -0.01  -0.00
     3   6    -0.01  -0.02  -0.02     0.00   0.00  -0.00    -0.02  -0.01   0.00
     4   6     0.05   0.05   0.01    -0.00  -0.00   0.00     0.03   0.02  -0.01
     5   1    -0.10  -0.02   0.08    -0.00   0.00   0.01    -0.01  -0.02  -0.02
     6   7    -0.04  -0.03   0.01    -0.00   0.00   0.00    -0.01  -0.01  -0.00
     7   1    -0.12  -0.14  -0.05    -0.00   0.00   0.00    -0.03  -0.05  -0.03
     8   6    -0.00   0.01   0.04     0.00  -0.00   0.00    -0.01  -0.01  -0.01
     9   8     0.01  -0.01  -0.01    -0.00   0.00   0.00    -0.00   0.00  -0.00
    10   8    -0.02  -0.01  -0.04    -0.01  -0.01   0.00     0.02  -0.01   0.00
    11   6    -0.02  -0.04  -0.08    -0.03  -0.04   0.03     0.04  -0.03   0.01
    12   1    -0.09   0.39   0.46     0.37   0.50  -0.37     0.06  -0.27  -0.30
    13   1     0.13   0.09   0.48     0.41   0.01   0.29    -0.55   0.11   0.30
    14   1     0.29   0.25   0.37    -0.32   0.09  -0.33    -0.17   0.62  -0.10
    15   6    -0.02  -0.02   0.00    -0.00  -0.00   0.00    -0.01  -0.00   0.00
    16   8     0.01  -0.00  -0.01     0.00  -0.00  -0.00     0.00  -0.00  -0.00
    17   8     0.00   0.02   0.01    -0.00   0.00   0.00     0.00   0.00   0.00
                     37                     38                     39
                      A                      A                      A
 Frequencies --   1488.8154              1534.8660              1734.9936
 Red. masses --      3.2187                 5.7744                12.7210
 Frc consts  --      4.2036                 8.0149                22.5614
 IR Inten    --     61.4836                39.2074              1602.1270
 Raman Activ --    272.4320                 5.1400                27.2520
 Depolar (P) --      0.2069                 0.6911                 0.2005
 Depolar (U) --      0.3428                 0.8173                 0.3341
  Atom  AN      X      Y      Z        X      Y      Z        X      Y      Z
     1   6     0.11   0.17   0.15     0.16   0.26   0.23     0.01  -0.01  -0.02
     2   7    -0.05  -0.05  -0.01    -0.18  -0.16  -0.02    -0.00  -0.00  -0.00
     3   6    -0.17  -0.10   0.04     0.25   0.09  -0.17     0.01   0.00  -0.00
     4   6     0.20   0.13  -0.05    -0.23  -0.12   0.09    -0.01   0.01   0.02
     5   1    -0.01  -0.15  -0.22    -0.25   0.16   0.51    -0.02   0.01   0.03
     6   7    -0.05  -0.05  -0.01     0.06  -0.02  -0.11     0.01  -0.03  -0.05
     7   1    -0.19  -0.34  -0.24     0.10   0.26   0.27    -0.02   0.01   0.03
     8   6    -0.08  -0.03  -0.09    -0.11  -0.01  -0.10    -0.20   0.22   0.12
     9   8     0.02  -0.01   0.00     0.04  -0.03  -0.01     0.14  -0.13  -0.06
    10   8     0.02   0.01   0.03     0.02   0.00   0.02     0.01  -0.01   0.00
    11   6    -0.00   0.04   0.06     0.01   0.02   0.03    -0.00   0.01   0.01
    12   1     0.06  -0.10  -0.18     0.04  -0.10  -0.13     0.00  -0.06  -0.07
    13   1     0.18  -0.10  -0.42    -0.01  -0.03  -0.15    -0.03   0.00  -0.05
    14   1    -0.14  -0.43  -0.22    -0.09  -0.10  -0.12    -0.04  -0.02  -0.03
    15   6    -0.03  -0.02   0.00     0.02  -0.02  -0.01    -0.30   0.45   0.59
    16   8     0.02  -0.00  -0.02    -0.02   0.00   0.02     0.19  -0.08  -0.23
    17   8     0.00   0.02   0.02     0.00   0.01   0.01     0.03  -0.24  -0.19
                     40                     41                     42
                      A                      A                      A
 Frequencies --   1750.1376              3056.5215              3133.3395
 Red. masses --     12.0011                 1.0296                 1.1076
 Frc consts  --     21.6578                 5.6673                 6.4070
 IR Inten    --    187.0094                39.3119                25.0954
 Raman Activ --    129.8089               281.6283                93.6471
 Depolar (P) --      0.1866                 0.0064                 0.7493
 Depolar (U) --      0.3146                 0.0127                 0.8567
  Atom  AN      X      Y      Z        X      Y      Z        X      Y      Z
     1   6     0.01  -0.09  -0.13    -0.00  -0.00  -0.00    -0.00  -0.00   0.00
     2   7     0.01   0.01   0.01     0.00   0.00   0.00     0.00  -0.00  -0.00
     3   6    -0.01   0.01   0.03     0.00  -0.00  -0.00    -0.00  -0.00   0.00
     4   6     0.02   0.02   0.00    -0.00  -0.00  -0.00    -0.00  -0.00   0.00
     5   1     0.01   0.00   0.01     0.00   0.00   0.00     0.00   0.00   0.00
     6   7    -0.02   0.00   0.03    -0.00   0.00   0.00     0.00   0.00   0.00
     7   1    -0.01   0.00  -0.01     0.00  -0.00  -0.00     0.00   0.00  -0.00
     8   6    -0.47   0.48   0.29     0.00  -0.00   0.00     0.00   0.00  -0.00
     9   8     0.32  -0.30  -0.14    -0.00   0.00   0.00     0.00   0.00  -0.00
    10   8     0.04  -0.03  -0.01    -0.00  -0.00  -0.00     0.00   0.00  -0.00
    11   6    -0.00   0.02   0.02     0.00  -0.03  -0.03    -0.05  -0.06   0.05
    12   1     0.02  -0.14  -0.17     0.37  -0.15   0.17    -0.03  -0.00   0.00
    13   1    -0.06   0.01  -0.12     0.06   0.63  -0.17     0.05   0.67  -0.17
    14   1    -0.11  -0.04  -0.09    -0.48  -0.09   0.39     0.55   0.09  -0.44
    15   6     0.13  -0.18  -0.24    -0.00   0.00   0.00     0.00  -0.00  -0.00
    16   8    -0.08   0.03   0.09     0.00  -0.00  -0.00    -0.00   0.00   0.00
    17   8    -0.01   0.09   0.08     0.00   0.00  -0.00     0.00   0.00   0.00
                     43                     44                     45
                      A                      A                      A
 Frequencies --   3168.5474              3236.9897              3287.0272
 Red. masses --      1.1062                 1.0950                 1.1014
 Frc consts  --      6.5431                 6.7600                 7.0115
 IR Inten    --     16.7722                10.9761                 4.6779
 Raman Activ --    116.3950               217.7903               201.5238
 Depolar (P) --      0.6640                 0.3822                 0.1924
 Depolar (U) --      0.7981                 0.5530                 0.3227
  Atom  AN      X      Y      Z        X      Y      Z        X      Y      Z
     1   6     0.00  -0.00   0.00     0.00   0.00   0.00    -0.00   0.00   0.00
     2   7    -0.00  -0.00  -0.00    -0.00   0.00   0.00    -0.00   0.00   0.00
     3   6    -0.00  -0.00  -0.00    -0.05  -0.06  -0.03    -0.01  -0.01  -0.00
     4   6    -0.00  -0.00  -0.00    -0.00   0.00   0.01     0.05  -0.01  -0.08
     5   1     0.00   0.00   0.00     0.56   0.71   0.39     0.10   0.13   0.07
     6   7     0.00   0.00  -0.00     0.00   0.00   0.00     0.00   0.00   0.00
     7   1     0.00  -0.00  -0.00     0.09  -0.03  -0.16    -0.50   0.14   0.83
     8   6     0.00   0.00   0.00     0.00   0.00   0.00    -0.00  -0.00  -0.00
     9   8     0.00  -0.00  -0.00     0.00  -0.00  -0.00    -0.00   0.00   0.00
    10   8     0.00  -0.00  -0.00    -0.00  -0.00  -0.00     0.00  -0.00   0.00
    11   6    -0.08   0.05  -0.02     0.00   0.00   0.00    -0.00  -0.00   0.00
    12   1     0.77  -0.32   0.35    -0.00   0.00  -0.00     0.00   0.00   0.00
    13   1    -0.04  -0.27   0.07    -0.00  -0.00  -0.00     0.00   0.00  -0.00
    14   1     0.23   0.05  -0.20     0.00  -0.00  -0.00     0.00  -0.00  -0.00
    15   6    -0.00   0.00   0.00    -0.00   0.00   0.00     0.00   0.00  -0.00
    16   8     0.00  -0.00  -0.00    -0.00  -0.00  -0.00    -0.00   0.00   0.00
    17   8     0.00  -0.00  -0.00     0.00  -0.00  -0.00    -0.00  -0.00   0.00

 -------------------
 - Thermochemistry -
 -------------------
 Temperature   298.150 Kelvin.  Pressure   1.00000 Atm.
 Thermochemistry will use frequencies scaled by 0.9670.
 Atom     1 has atomic number  6 and mass  12.00000
 Atom     2 has atomic number  7 and mass  14.00307
 Atom     3 has atomic number  6 and mass  12.00000
 Atom     4 has atomic number  6 and mass  12.00000
 Atom     5 has atomic number  1 and mass   1.00783
 Atom     6 has atomic number  7 and mass  14.00307
 Atom     7 has atomic number  1 and mass   1.00783
 Atom     8 has atomic number  6 and mass  12.00000
 Atom     9 has atomic number  8 and mass  15.99491
 Atom    10 has atomic number  8 and mass  15.99491
 Atom    11 has atomic number  6 and mass  12.00000
 Atom    12 has atomic number  1 and mass   1.00783
 Atom    13 has atomic number  1 and mass   1.00783
 Atom    14 has atomic number  1 and mass   1.00783
 Atom    15 has atomic number  6 and mass  12.00000
 Atom    16 has atomic number  8 and mass  15.99491
 Atom    17 has atomic number  8 and mass  15.99491
 Molecular mass:   169.02493 amu.
 Principal axes and moments of inertia in atomic units:
                           1         2         3
     Eigenvalues --  1319.343502053.492292983.70259
           X           -0.10206   0.83241  -0.54469
           Y            0.34264   0.54346   0.76632
           Z            0.93391  -0.10842  -0.34068
 This molecule is an asymmetric top.
 Rotational symmetry number  1.
 Warning -- assumption of classical behavior for rotation
           may cause significant error
 Rotational temperatures (Kelvin)      0.06565     0.04218     0.02903
 Rotational constants (GHZ):           1.36791     0.87886     0.60487
 Zero-point vibrational energy     291310.8 (Joules/Mol)
                                   69.62495 (Kcal/Mol)
 Warning -- explicit consideration of  14 degrees of freedom as
           vibrations may cause significant error
[...]
 3,-14.1506843,-5.601578,4.2510806,-2.6447468,-1.0350584,-7.3671925,-17
 .4350243,-0.6519072,-1.5302724,-10.060326,2.250011,2.3393044,-0.937682
 2,-8.1771092,-5.0175567,6.6796736,-3.3003281,9.7362616,16.5005161,4.89
 11689,-4.8499014,9.0106057,-0.9205478,8.2994438,10.4300824,-5.356583,0
 .1261478,1.8653577,3.6038406,2.8434692,14.0785872,-2.679809,-2.0538484
 ,-1.6496026,0.3152248,3.5733435,-6.3055496,-4.1745076,-4.5616703,-5.63
 52248,-1.410144,-1.734326,-1.1848655,-4.5633273,-4.464032,-6.3817856,-
 2.7958827,-4.1397757,-3.6499512,-0.9642861,-1.9823439,-4.3738416,-1.72
 03501,-2.7543851,-2.3646843,7.673862,3.8025756,4.3600798,-1.147506,2.5
 735659,4.242932,3.4111915,2.5468356,-1.0982621,-3.291973,-6.9205229,-5
 .7971604,0.8007965,-1.068735,-4.7142065,-0.274475,-5.2597344,-7.257098
 7,2.4756529,0.3913862,0.4467626,-2.5577641,0.023806,4.7609427,0.359706
 8,0.3696745,-0.0855225,0.1269705,-0.6242449,-2.8819758,-3.1838641,1.36
 11033,-2.4886243,4.3348955,-3.5318127,-10.4589365,6.023447,-2.0103793,
 2.2987126,-4.9233761,0.1221119,5.2156632,-1.5938772,3.631602,-8.455380
 9,-1.926934,-9.6850662,-9.8209037,-4.0426796,1.0643999,-5.2830628,1.37
 83275,-10.1153676,-21.5888175,-12.8239532,4.8155969,-6.8733382,3.15167
 51,-6.4671293,-14.6580346,4.8928948,-5.5727854,10.7129938,0.2298748,5.
 1711314,8.4032516,2.5317142,-0.8570745,2.7555984,-3.1838353,6.8488436,
 10.3802736,4.5497389,-1.0347513,2.8959781,1.0035669,3.1507386,6.624398
 6,-2.234649,1.0805784,-3.1318898,-0.3782492,-0.7285791,-5.3733227,0.02
 2746,-0.5539567,-1.2774439,-1.4792061,-2.7307518,-0.3425951,-1.5775736
 ,2.2481801,-0.3368049,-4.7727243,1.8339317,5.315286,2.9157851,-2.32145
 16,-6.3992787,2.1658669,2.283676,4.5258588,-2.6784336,1.1120834,3.2144
 9,4.8282266,3.6825537,2.4208069,8.2554248,-1.5122843,1.7169398,4.46584
 73,-0.500551,3.4316389,-2.4974624,1.9812712,-1.1202404,-1.2381177,0.80
 8394,-2.2348838,2.803596,-0.5597455,0.0202418,2.7361096,-1.0151204,3.5
 636821,1.0843178,1.5189556,1.231821,0.4895678,0.2505753,-0.7178721,1.6
 763089,2.4678718,11.2912589,0.431313,1.1837401,2.7950498,-0.5938342,-0
 .3089017,-1.0572162,-0.2232878,1.8903436,-1.3029665,-4.4367936,-0.9146
 325,-1.2773837,3.1704337,-0.1029566,-5.5266337,-0.9995591,-0.7432886,0
 .2461157,-0.0481436,1.4225844,-0.7466722,2.192746,-0.1513457,0.313532,
 -3.4700852,-0.183876,8.3094346,-5.1794912,0.1708175,1.278813,4.7835587
 ,0.372765,-2.0599185,-1.8000595,-2.0870359,-4.65044,1.8826858,0.078311
 7,-0.706356,0.4557646,-1.8239322,-3.1057425,-3.2801298,-0.9188998,1.77
 61179,12.9088785,-0.362401,2.1267414,-6.531061,0.5726696,3.6433997,-2.
 4606542,2.9995595,-2.1880679,0.0389583,-2.91223,-0.7411096,-5.8525572,
 -1.3800476,-2.7815228,6.5383748,-0.308587,-10.9419636,0.2272049,2.6882
 03,-1.0376521,2.2188465,1.1499008,-0.0638237,5.3299802,3.0174569,14.26
 59404,-1.1557991,2.5410817,2.9412541,6.0583565,3.1267696,4.9742876,-0.
 9717918,3.0962378,7.5127358\HyperPolar=-101.5214796,-10.1322523,76.052
 1947,-81.0786139,-47.5468203,29.3671968,88.0767135,-141.8861314,226.62
 5818,312.1440035\Quadrupole=16.2865931,-53.8848939,37.5983007,16.44436
 81,8.7644032,19.6611629\PG=C01 [X(C6H5N2O4)]\NImag=0\\0.49760019,0.186
 31483,0.45835217,-0.06773238,0.23660618,0.61999139,-0.23522101,-0.1342
 1588,-0.01279002,0.41359054,-0.15242359,-0.21188161,-0.02476639,0.1904
 5058,0.33755807,-0.03228773,-0.03800645,-0.09089601,-0.08614298,0.1233
 6208,0.37754112,0.00201716,-0.01259051,-0.00714479,-0.10230479,0.00868
 509,0.04838251,0.57375469,-0.03432474,-0.04531329,-0.04411525,0.000703
 09,-0.11022396,-0.06101621,0.31742394,0.51471520,-0.04398743,-0.073678
 66,-0.04544019,0.04328850,-0.06869798,-0.21140017,-0.04786406,0.194765
 63,0.46736039,-0.00201266,-0.00857546,0.00775874,-0.01500162,0.0207140
 6,0.07333135,-0.28685033,-0.11641123,0.08216387,0.55407509,0.01537335,
 -0.01262228,-0.05591706,-0.00782171,0.01840401,0.01469082,-0.10922824,
 -0.13360159,0.02440715,0.16310270,0.35137880,0.03917559,-0.02903441,-0
 .07252377,0.02739356,-0.02334840,-0.04576074,0.09666512,0.03687069,-0.
 12918533,-0.27930346,0.14722544,0.68062932,0.00133157,-0.00037676,0.00
 335709,0.00711581,0.01088590,0.00185552,-0.14833601,-0.13474983,-0.058
 54158,-0.00449802,-0.01227666,-0.01289800,0.14557550,-0.00050972,0.002
 42245,-0.00312796,-0.00264954,-0.00904609,-0.00249684,-0.13355714,-0.1
 9480992,-0.08950044,0.00012212,-0.00277786,-0.00424607,0.14036017,0.20
 204273,0.00273735,-0.00436127,-0.00440638,-0.01751506,-0.01770556,-0.0
 1060117,-0.05616024,-0.08806885,-0.09216486,0.00474818,0.00973906,0.00
 896710,0.06316123,0.10073900,0.09650184,-0.15282606,-0.01281445,0.0844
 5969,-0.07377821,-0.07174973,0.00674272,-0.04599614,-0.03663415,0.0131
 6567,-0.10646317,-0.04353736,-0.01052880,-0.00239470,-0.00361630,0.004
 72838,0.48067940,-0.00436690,-0.08378164,-0.01995907,-0.04669250,-0.01
 983032,-0.01725064,-0.06789703,-0.03889397,0.00761429,-0.04741621,-0.1
 5621444,-0.09036744,-0.00432296,0.00220286,0.00017317,0.20752966,0.418
 64906,0.09901802,-0.00982383,-0.20031849,0.04921596,0.01925283,-0.0070
 9822,-0.02957263,-0.03059928,0.00776973,-0.01494176,-0.08994060,-0.185
 08852,0.00363089,-0.00119150,0.00064939,-0.14863785,0.16748005,0.50817
 994,-0.00127495,-0.00341400,-0.00063762,-0.00145856,-0.00336871,0.0041
 6165,-0.00033251,0.00853883,0.01417129,-0.12797156,0.01179454,0.145888
 39,-0.00071515,0.00068158,-0.00104116,0.00846167,-0.00016634,-0.013282
 70,0.12402119,-0.00428682,-0.00286445,-0.00348533,-0.00473735,0.003703
 77,0.00101229,-0.00022628,0.00647517,0.01008756,0.00591863,-0.04774913
 ,-0.03965611,0.00113874,-0.00126118,0.00029582,0.01403355,-0.00197809,
 -0.01777131,-0.01318089,0.04251197,-0.00073044,-0.00215715,-0.00020435
 ,0.00121569,-0.00201301,0.00165424,-0.00212529,-0.00109744,0.00102260,
 0.13925237,-0.04575483,-0.26894550,-0.00026109,0.00084178,-0.00071866,
 0.00930513,-0.00044674,-0.01398531,-0.14927795,0.04893185,0.28155455,-
 0.07648552,-0.02032439,-0.00582736,-0.00060710,-0.00914016,-0.02265698
 ,-0.00208616,-0.00664437,0.00040344,-0.00373298,-0.00159820,0.00538299
 ,0.00085454,-0.00068770,-0.00057140,0.00296875,0.01468412,0.01821836,0
 .00110512,0.00030732,0.00098777,0.64136572,-0.01770436,-0.10567120,-0.
 05881015,-0.00416028,-0.02119346,-0.02302066,-0.00890477,0.00192697,0.
 00511308,-0.00058178,0.00699595,0.00546618,-0.00002290,0.00068424,-0.0
 0033265,0.00823943,-0.00332879,0.00069004,-0.00047920,0.00217320,-0.00
 051396,-0.26632902,0.52858533,0.00716861,-0.06460830,-0.18026787,-0.01
 322715,-0.00686319,-0.00963140,-0.00357376,0.00027964,0.01395454,0.008
 40894,0.01120705,0.00807089,0.00041326,-0.00012982,0.00186769,-0.00183
 819,-0.01885697,-0.02062063,0.00024925,-0.00010806,0.00024177,-0.01220
 840,0.22505528,0.53567828,0.00145196,0.01801481,0.01151986,-0.00222621
 ,-0.00108597,-0.00251573,-0.00055745,0.00048464,0.00376531,0.00197667,
 0.00226090,0.00099806,0.00012366,-0.00011186,0.00041069,0.00145002,-0.
 00201909,-0.00150506,-0.00004474,0.00029013,-0.00014597,-0.36555594,0.
 26359138,0.12233732,0.44206001,0.02934341,-0.00967849,-0.02214765,0.00
 113688,0.00146991,0.00249363,0.00137812,0.00023522,-0.00233141,0.00057
 589,-0.00149333,-0.00334623,-0.00011548,-0.00014904,-0.00026479,-0.002
 70613,-0.00255202,-0.00221168,-0.00037950,-0.00045698,-0.00033918,0.26
 078966,-0.32775047,-0.13573109,-0.34468084,0.35026313,0.02407925,-0.03
 075571,-0.00631999,0.00286283,-0.00002346,0.00283529,0.00199829,0.0004
 8187,-0.00521032,-0.00249835,-0.00390241,-0.00458287,-0.00022054,0.000
 03283,-0.00057385,0.00034224,-0.00004214,0.00121219,-0.00050153,0.0000
 2212,-0.00041170,0.12177066,-0.13037971,-0.15740214,-0.12469877,0.1499
 1975,0.14236548,-0.00788712,-0.00198891,-0.01665478,0.00213270,0.00132
 858,0.00104669,0.00188491,-0.00028584,-0.00258886,-0.00108808,-0.00268
 515,-0.00234631,0.00002134,-0.00012858,-0.00027893,-0.00085445,0.00240
 492,0.00005615,0.00005704,-0.00035065,0.00006006,-0.18885864,0.0394086
 5,-0.07058914,-0.08041380,0.06242817,-0.02219763,0.34724169,-0.0130242
 2,0.00769106,-0.01627610,-0.00066712,0.00152283,-0.00067701,0.00164408
 ,-0.00135059,-0.00137245,-0.00038537,-0.00144306,-0.00105462,0.0001527
 6,-0.00031239,-0.00003815,-0.00075635,0.00108811,0.00002972,0.00002773
 ,-0.00024200,0.00002945,0.02780889,-0.09011751,-0.01152894,0.06016005,
 -0.00585068,0.01084990,-0.08156479,0.21657453,-0.03567926,-0.00173660,
 -0.02726322,0.00145354,0.00137685,-0.00215481,0.00236740,-0.00228843,-
 0.00387112,-0.00205123,-0.00437353,-0.00294693,0.00024512,-0.00050029,
 -0.00051464,-0.00052549,0.00334709,0.00146692,0.00007117,-0.00038965,0
 .00005568,-0.08344353,-0.00301533,-0.15054277,-0.02211730,0.01487842,0
 .02598903,0.14777714,0.09879167,0.36225505,-0.00126751,0.00286424,-0.0
 0372220,-0.00004895,0.00052639,0.00044815,0.00057488,-0.00016130,-0.00
 032984,-0.00024323,-0.00055997,-0.00027298,0.00001127,-0.00001559,0.00
 003314,-0.00014978,-0.00008350,0.00005507,0.00002865,-0.00006241,0.000
 03653,-0.01389347,-0.01686565,-0.03689434,0.00263170,-0.00559925,0.000
 01043,-0.07730487,0.01228805,0.00230222,0.60877151,0.00418269,0.002007
 49,-0.00123004,0.00002446,0.00109116,0.00145541,0.00024817,0.00034655,
 0.00004205,-0.00000334,-0.00005699,0.00027519,-0.00005462,0.00009462,0
 .00012191,-0.00041261,-0.00003425,-0.00014012,0.00003734,-0.00002688,0
 .00004706,-0.01491168,0.01048795,-0.00202027,0.00647615,-0.00687792,0.
 00390765,-0.00051730,-0.10961509,-0.05987844,-0.02769745,0.54053437,-0
 .00279001,-0.00112729,0.00386632,-0.00055449,-0.00013103,-0.00133825,-
 0.00061715,0.00003558,0.00090700,0.00024138,0.00071331,0.00069141,0.00
 009309,-0.00000741,0.00009418,0.00070373,-0.00043148,0.00008173,-0.000
 00057,0.00015454,-0.00001204,-0.03504549,-0.00518972,-0.04109732,0.015
 17042,-0.00679445,-0.00087589,-0.01196818,-0.04542920,-0.13648383,-0.0
 1145306,-0.08322716,0.47149385,-0.00004960,0.00008240,-0.00006405,0.00
 001342,0.00005022,0.00001097,0.00009153,-0.00003316,-0.00013119,-0.000
 06059,-0.00012877,-0.00011688,-0.00000007,-0.00000987,-0.00001321,-0.0
 0002062,0.00007281,0.00004216,-0.00000165,-0.00001137,-0.00000182,0.00
 158415,-0.00033211,0.00125587,-0.00015142,-0.00019115,-0.00095148,-0.0
 0323632,-0.00055697,-0.00419362,-0.25247016,0.08488947,-0.09019179,0.2
 6648795,-0.00061128,0.00035620,-0.00037282,-0.00002394,0.00001975,-0.0
 0005871,0.00009795,-0.00007426,-0.00011113,-0.00005331,-0.00014111,-0.
 00010595,0.00000937,-0.00001708,-0.00001221,-0.00001344,0.00006172,0.0
 0005002,0.00000280,-0.00001699,0.00000395,0.00164398,-0.00322139,-0.00
 317330,-0.00004636,0.00147522,0.00139322,-0.02198299,0.00479691,-0.015
 86867,0.09203817,-0.08794697,0.04489327,-0.09167735,0.08955488,-0.0011
 5509,0.00028832,-0.00027710,0.00000430,-0.00000123,-0.00020963,0.00015
 903,-0.00015381,-0.00022840,-0.00010627,-0.00025004,-0.00020750,0.0000
 1689,-0.00003434,-0.00003249,-0.00000260,0.00014739,0.00009825,-0.0000
 0231,-0.00002209,-0.00000299,0.00383408,-0.00505498,-0.00251317,-0.000
 53063,0.00128015,0.00157457,-0.03139477,0.00537896,-0.02436829,-0.0812
 5617,0.03770814,-0.08350938,0.10077237,-0.03520858,0.10087404,0.000206
 32,0.00036770,-0.00017459,0.00000554,0.00005711,0.00009178,0.00003270,
 -0.00000018,-0.00005305,0.00000147,-0.00004935,-0.00002696,-0.00000381
 ,0.00000106,-0.00000199,-0.00008518,0.00002032,-0.00001865,0.00000633,
 -0.00002020,0.00000734,0.00200330,-0.00300315,-0.00029874,0.00002548,0
 .00091051,0.00113878,-0.00146354,-0.00605203,-0.00170619,-0.05260324,-
 0.02084916,0.00597074,0.00504645,0.02593918,-0.00632757,0.04803637,-0.
 00024506,-0.00000198,-0.00042916,0.00011319,0.00015277,0.00015221,0.00
 017012,-0.00005025,-0.00023397,-0.00012358,-0.00023994,-0.00016176,-0.
 00000419,-0.00000772,-0.00001883,-0.00005977,0.00025753,0.00016899,0.0
 0000142,-0.00002077,0.00000698,0.00611379,-0.00155808,0.00304866,-0.00
 185450,0.00175875,0.00070936,-0.00629027,-0.01956567,-0.01122705,-0.02
 323812,-0.29329859,0.06944503,-0.00127302,-0.00725422,0.00340362,0.026
 19992,0.32161696,0.00063081,0.00084741,-0.00080463,0.00011613,0.000239
 70,0.00034294,0.00021831,-0.00001280,-0.00028768,-0.00006272,-0.000290
 10,-0.00022789,-0.00000987,-0.00000638,-0.00001810,-0.00013250,0.00022
 465,0.00000762,0.00000881,-0.00005480,0.00000804,0.00419029,-0.0035643
 7,0.00289444,-0.00183861,0.00097212,0.00019502,-0.00851610,-0.03822668
 ,-0.00359532,0.00764821,0.07791579,-0.06958591,0.00277730,0.01045048,-
 0.00181233,-0.00497929,-0.06733896,0.07492922,-0.00049102,-0.00065453,
 0.00068657,0.00002236,-0.00013139,-0.00018198,-0.00007687,0.00002425,0
 .00000198,-0.00000163,-0.00000625,0.00000161,0.00000448,-0.00000253,-0
 .00001448,0.00006540,0.00009568,0.00008973,0.00000304,0.00000693,0.000
 00254,0.00035284,0.00016576,-0.00207190,-0.00012316,0.00005183,-0.0006
 6396,0.01009886,0.00368254,-0.00549960,-0.21372169,-0.03130652,0.13072
 319,-0.01720958,-0.00525529,0.01601515,-0.00112655,0.00045111,0.000280
 60,0.22217650,-0.00026549,-0.00025568,0.00036827,0.00001540,-0.0000752
 1,-0.00014098,-0.00002311,-0.00006491,-0.00006249,-0.00000239,-0.00002
 003,-0.00005713,0.00000674,-0.00001566,-0.00001930,0.00000030,0.000057
 02,0.00002658,-0.00000891,-0.00000203,-0.00001080,0.00279675,-0.000007
 91,0.00191859,-0.00125585,0.00040486,-0.00061631,0.01355939,-0.0006174
 8,-0.02170042,-0.03315037,-0.05610533,0.02780603,0.00911261,0.00240665
 ,-0.00746120,-0.02366926,-0.00193247,0.01885136,0.03284765,0.05610430,
 -0.00068389,-0.00031177,0.00059659,0.00001259,-0.00010864,-0.00028906,
 -0.00005076,-0.00011330,-0.00009425,-0.00000159,-0.00002586,-0.0000641
 8,0.00001430,-0.00002926,-0.00003318,-0.00003823,0.00011177,0.00007539
 ,-0.00000384,-0.00001034,-0.00000756,0.00812007,-0.00360234,0.00220804
 ,-0.00232461,0.00269994,0.00108651,0.01379314,-0.00476375,-0.03283698,
 0.12312190,0.02450045,-0.14620267,-0.00913984,-0.00191725,0.01066329,0
 .00654191,0.00223657,-0.00290247,-0.13937494,-0.01883663,0.16797151,-0
 .03541469,-0.00626153,0.01930126,0.01842513,0.01263055,0.00777746,0.01
 359049,0.00449150,-0.00578000,-0.01120573,-0.01994096,-0.02132771,0.00
 216819,0.00023391,0.00002436,-0.04911733,0.01058567,-0.00020211,-0.000
 71637,0.00217690,0.00199840,0.00024052,0.00801117,0.01046449,0.0014708
 8,-0.00437407,-0.00427160,-0.00205967,-0.00207424,-0.00502623,0.000309
 75,0.00079364,0.00151608,-0.00018592,-0.00012862,-0.00034756,-0.000058
 01,-0.00022855,-0.00040355,-0.00000314,-0.00021202,-0.00036192,0.41544
 029,-0.01524953,-0.00044087,0.02468035,0.01745536,0.01630303,-0.001500
 39,0.00777005,0.00314902,-0.00790645,-0.01216937,-0.02503414,-0.009651
 12,0.00048585,0.00159970,-0.00080763,0.00584865,-0.05931804,-0.0185306
 4,0.00038076,-0.00035834,0.00068807,0.01020093,0.01080101,0.00556439,-
 0.00069086,-0.00422449,-0.00340154,-0.00497577,-0.00484252,0.00081533,
 -0.00048088,-0.00041932,-0.00121863,-0.00002486,-0.00011626,-0.0001155
 1,0.00006845,-0.00014099,-0.00052601,-0.00003883,-0.00000555,0.0001117
 6,-0.08950996,0.53122127,0.01093665,0.01675214,0.00026110,0.00495746,-
 0.00331684,-0.00243728,-0.00348071,-0.00638848,-0.00397926,-0.01603504
 ,-0.00363107,0.01148867,-0.00070516,-0.00073683,0.00097745,0.00860511,
 -0.01580932,-0.08625804,-0.00014600,-0.00059443,-0.00205461,0.00776274
 ,0.00195717,-0.00582660,-0.00225749,0.00102452,0.00173764,-0.00190747,
 -0.00114734,0.00348029,-0.00086513,-0.00098351,-0.00218063,0.00013331,
 0.00002191,0.00019131,0.00006523,0.00010810,0.00006254,-0.00002865,0.0
 0021877,0.00046391,-0.22808883,0.30370408,0.65256178,0.00638360,-0.005
 70038,-0.01015287,-0.00949162,-0.00542061,0.00104668,-0.00258360,-0.00
 044746,0.00302277,0.00247051,0.00577774,0.00523660,-0.00044171,-0.0003
 3209,-0.00003851,-0.05730036,-0.01998631,0.05297320,-0.00123789,-0.000
 62774,0.00016350,0.00121741,-0.00203364,-0.00481547,-0.00119138,0.0017
 4445,0.00198898,0.00026076,-0.00000048,0.00296993,-0.00029483,-0.00056
 872,-0.00109688,0.00009423,0.00004211,0.00017236,0.00003709,0.00009828
 ,0.00007759,-0.00000678,0.00011927,0.00022134,-0.26402443,0.06591256,0
 .20445216,0.31726367,-0.00104009,0.00019859,-0.00382940,-0.00324596,-0
 .00266353,0.00238560,0.00007204,0.00101725,0.00119541,-0.00136065,0.00
 009404,0.00025670,-0.00006644,-0.00019377,0.00007437,-0.02733701,0.008
 52764,0.01687254,-0.00085053,-0.00014020,0.00174295,-0.00296587,-0.002
 67855,-0.00053023,0.00046989,0.00077149,0.00040568,0.00118355,0.001228
 83,-0.00079756,0.00022715,0.00024456,0.00054215,-0.00001180,0.00002394
 ,-0.00000833,-0.00002098,0.00001019,0.00013431,0.00001108,-0.00003063,
 -0.00007944,0.06486411,-0.11503072,-0.07974013,-0.06779029,0.12439390,
 -0.00349720,0.00069125,0.00868138,0.00386914,0.00523777,0.00044612,0.0
 0339502,0.00146410,-0.00143300,-0.00253711,-0.00615415,-0.00486075,0.0
 0024934,0.00029215,-0.00007205,0.04405768,0.01003969,-0.01479242,0.000
 04191,0.00125422,0.00129216,-0.00256330,-0.00035252,0.00385929,0.00128
 907,-0.00072960,-0.00148677,0.00020570,0.00055174,-0.00238892,0.000309
 48,0.00050301,0.00111948,-0.00007836,-0.00002062,-0.00012323,-0.000038
 50,-0.00005745,-0.00000300,0.00001672,-0.00009641,-0.00020225,0.203800
 67,-0.08119654,-0.31778429,-0.29408453,0.12612703,0.37784841,0.0039393
 6,-0.00072715,-0.00218255,-0.00116743,-0.00200831,-0.00111008,-0.00282
 249,-0.00197397,-0.00070680,0.00060585,-0.00047660,0.00607919,-0.00081
 690,0.00022207,-0.00020833,-0.00463926,-0.04244237,-0.01513876,0.00007
 032,-0.00036849,-0.00048678,-0.00047254,0.00100046,-0.00478065,-0.0009
 2627,-0.00031251,0.00181239,0.00146917,-0.00068254,0.00305593,-0.00033
 002,-0.00033052,-0.00070100,0.00006822,0.00001903,0.00014880,-0.000060
 73,0.00016922,-0.00000540,0.00003694,0.00012931,0.00015438,-0.08885995
 ,0.01501746,0.01660181,0.00884533,0.03786181,0.04556429,0.08506039,0.0
 0883753,0.00148354,-0.00718840,-0.00568469,-0.00531110,-0.00138414,-0.
 00506246,-0.00348263,0.00066983,-0.00335072,0.00452110,0.01093504,-0.0
 0104968,-0.00045588,0.00048594,-0.03601429,-0.06491237,-0.03436181,0.0
 0038308,0.00025294,0.00004104,-0.00174404,-0.00612728,-0.00352345,-0.0
 0000261,0.00265484,0.00139891,0.00045698,0.00105471,0.00256663,-0.0000
 2952,-0.00042536,-0.00003355,0.00004293,0.00009300,0.00010354,0.000100
 05,0.00027448,0.00038427,0.00005853,0.00016007,0.00013810,0.01894250,-
 0.35314281,-0.21143873,0.02921332,-0.01577302,-0.05755366,-0.00509691,
 0.43913578,0.00479715,0.00041615,-0.00467478,-0.00415999,-0.00249352,-
 0.00100296,-0.00259630,-0.00004364,0.00228034,0.00163271,0.00225683,0.
 00454660,-0.00040048,0.00010139,0.00007774,-0.01040667,-0.02597430,0.0
 0862046,0.00030120,0.00033373,0.00051369,-0.00835393,-0.00444537,-0.00
 087304,0.00244345,0.00062757,-0.00013220,0.00550330,0.00488279,-0.0062
 8011,0.00082859,0.00100289,0.00303197,-0.00010973,0.00003639,-0.000116
 96,-0.00019024,0.00018767,0.00079752,0.00001743,-0.00018792,-0.0004326
 3,0.02092679,-0.21070950,-0.25070396,0.03786316,-0.06475163,-0.0501001
 8,-0.04809644,0.29876047,0.29444850\\-0.00000272,0.00000275,0.00000037
 ,-0.00000452,0.00000767,-0.00000159,-0.00000229,0.00000321,-0.00000249
 ,0.00000113,-0.00000103,0.00000030,-0.00000108,0.00000245,-0.00000098,
 0.00000229,-0.00000190,-0.00000006,0.00000276,-0.00000222,-0.00000006,
 -0.00000204,0.00000376,-0.00000137,0.00000239,0.00000723,-0.00000567,-
 0.00000536,-0.00000321,-0.00000296,-0.00000117,-0.00000300,0.00000053,
 -0.00000215,-0.00000195,-0.00000057,0.00000010,0.00000509,0.00000003,-
 0.00000517,0.00000021,0.00000403,0.00000955,-0.00000292,0.00000118,-0.
 00000042,-0.00000443,0.00001253,0.00000870,-0.00001170,-0.00000322\\\@
 The archive entry for this job was punched.


 K N O W I N G  IS A BARRIER WHICH PREVENTS LEARNING

                     -- TEACHING OF THE BENE GESSERIT
 Job cpu time:       0 days  0 hours 44 minutes 44.6 seconds.
 Elapsed time:       0 days  0 hours  3 minutes 59.2 seconds.
 File lengths (MBytes):  RWF=    231 Int=      0 D2E=      0 Chk=     25 Scr=      1
 Normal termination of Gaussian 16 at Thu Jan 11 13:52:00 2024.
