 Entering Gaussian System, Link 0=g16
 Input=EDA-CO2_binding_direct-site_index-5-freq.gjf
 Output=EDA-CO2_binding_direct-site_index-5-freq.log
 Initial command:
 /software/commercial/gaussian/g16/AVX/g16/l1.exe "/scratch1/svicchi/G09-659885.pbs02/Gau-655936.inp" -scrdir="/scratch1/svicchi/G09-659885.pbs02/"
 Entering Link 1 = /software/commercial/gaussian/g16/AVX/g16/l1.exe PID=    655937.
  
 Copyright (c) 1988-2019, Gaussian, Inc.  All Rights Reserved.
  
 This is part of the Gaussian(R) 16 program.  It is based on
 the Gaussian(R) 09 system (copyright 2009, Gaussian, Inc.),
 the Gaussian(R) 03 system (copyright 2003, Gaussian, Inc.),
 the Gaussian(R) 98 system (copyright 1998, Gaussian, Inc.),
 the Gaussian(R) 94 system (copyright 1995, Gaussian, Inc.),
 the Gaussian 92(TM) system (copyright 1992, Gaussian, Inc.),
 the Gaussian 90(TM) system (copyright 1990, Gaussian, Inc.),
 the Gaussian 88(TM) system (copyright 1988, Gaussian, Inc.),
 the Gaussian 86(TM) system (copyright 1986, Carnegie Mellon
 University), and the Gaussian 82(TM) system (copyright 1983,
 Carnegie Mellon University). Gaussian is a federally registered
 trademark of Gaussian, Inc.
  
 This software contains proprietary and confidential information,
 including trade secrets, belonging to Gaussian, Inc.
  
 This software is provided under written license and may be
 used, copied, transmitted, or stored only in accord with that
 written license.
  
 The following legend is applicable only to US Government
 contracts under FAR:
  
                    RESTRICTED RIGHTS LEGEND
  
 Use, reproduction and disclosure by the US Government is
 subject to restrictions as set forth in subparagraphs (a)
 and (c) of the Commercial Computer Software - Restricted
 Rights clause in FAR 52.227-19.
  
 Gaussian, Inc.
 340 Quinnipiac St., Bldg. 40, Wallingford CT 06492
  
  
 ---------------------------------------------------------------
 Warning -- This program may not be used in any manner that
 competes with the business of Gaussian, Inc. or will provide
 assistance to any competitor of Gaussian, Inc.  The licensee
 of this program is prohibited from giving any competitor of
 Gaussian, Inc. access to this program.  By using this program,
 the user acknowledges that Gaussian, Inc. is engaged in the
 business of creating and licensing software in the field of
 computational chemistry and represents and warrants to the
 licensee that it is not a competitor of Gaussian, Inc. and that
 it will not use this program in any manner prohibited above.
 ---------------------------------------------------------------
  

 Cite this work as:
 Gaussian 16, Revision C.01,
 M. J. Frisch, G. W. Trucks, H. B. Schlegel, G. E. Scuseria, 
 M. A. Robb, J. R. Cheeseman, G. Scalmani, V. Barone, 
 G. A. Petersson, H. Nakatsuji, X. Li, M. Caricato, A. V. Marenich, 
 J. Bloino, B. G. Janesko, R. Gomperts, B. Mennucci, H. P. Hratchian, 
 J. V. Ortiz, A. F. Izmaylov, J. L. Sonnenberg, D. Williams-Young, 
 F. Ding, F. Lipparini, F. Egidi, J. Goings, B. Peng, A. Petrone, 
 T. Henderson, D. Ranasinghe, V. G. Zakrzewski, J. Gao, N. Rega, 
 G. Zheng, W. Liang, M. Hada, M. Ehara, K. Toyota, R. Fukuda, 
 J. Hasegawa, M. Ishida, T. Nakajima, Y. Honda, O. Kitao, H. Nakai, 
 T. Vreven, K. Throssell, J. A. Montgomery, Jr., J. E. Peralta, 
 F. Ogliaro, M. J. Bearpark, J. J. Heyd, E. N. Brothers, K. N. Kudin, 
 V. N. Staroverov, T. A. Keith, R. Kobayashi, J. Normand, 
 K. Raghavachari, A. P. Rendell, J. C. Burant, S. S. Iyengar, 
 J. Tomasi, M. Cossi, J. M. Millam, M. Klene, C. Adamo, R. Cammi, 
 J. W. Ochterski, R. L. Martin, K. Morokuma, O. Farkas, 
 J. B. Foresman, and D. J. Fox, Gaussian, Inc., Wallingford CT, 2019.
 
 ******************************************
 Gaussian 16:  ES64L-G16RevC.01  3-Jul-2019
                 2-Jun-2023 
 ******************************************
 %NProcShared=2
 Will use up to    2 processors via shared memory.
 %mem=55gb
 %chk=/scratch1/svicchi/G09-659885.pbs02/02-freq/EDA-CO2_binding_direct-site_inde
 x-5-freq.chk
 ----------------------------------------------------------------------
 #p freq=raman scale=0.967 pop=(nbo,full,hirshfeld) guess=read geom=all
 check b3lyp/6-311+G(d,p) int=grid=ultrafine EmpiricalDispersion=GD3BJ 
 SCRF=(Solvent=ethanol) scf=(xqc,intrep,maxconventionalcycle=350) nosym
 m
 ----------------------------------------------------------------------
 1/10=4,29=7,30=1,38=1,114=967000/1,3;
 2/12=2,15=1,40=1/2;
 3/5=4,6=6,7=111,11=2,14=-4,25=1,30=1,70=2201,71=2,72=4,74=-5,75=-5,116=-2,124=41,140=1/1,2,3;
 4/5=1/1;
 5/5=2,8=3,13=1,17=20,38=6,53=4,85=350,98=1/2,8;
 8/6=4,10=90,11=11/1;
 10/13=10,15=4,31=1/2;
 11/6=3,8=1,9=11,15=111,16=1,31=1/1,2,10;
 10/6=1,31=1/2;
 6/7=3,28=1,40=1,79=1/1,7;
 7/8=1,10=1,25=1,30=1/1,2,3,16;
 1/10=4,30=1/3;
 99//99;
 Leave Link    1 at Fri Jun  2 13:56:42 2023, MaxMem=  7381975040 cpu:               1.0 elap:               1.5
 (Enter /software/commercial/gaussian/g16/AVX/g16/l101.exe)
 Structure from the checkpoint file:  "/scratch1/svicchi/G09-659885.pbs02/02-freq/EDA-CO2_binding_direct-site_index-5-freq.chk"
 ---------------------------------------
 EDA-CO2_binding_direct-site_index-5.gjf
 ---------------------------------------
 Charge =  0 Multiplicity = 1
 No Z-Matrix found in chk file; cartesian coordinates used.
  N                                                 1.947243164021     -0.829309388770      0.057546821678
  C                                                 3.003187823689      0.126014259662      0.410903644868
  C                                                 4.428970358020     -0.343160459816      0.108680888449
  H                                                 2.915910296807      0.348628403680      1.480063108436
  H                                                 2.813734835770      1.061984702516     -0.121822346958
  N                                                 5.403786180671      0.687478667884      0.492766063046
  H                                                 4.527555041246     -0.515954945721     -0.967467798284
  H                                                 4.598008385249     -1.308148455548      0.610204441942
  H                                                 6.345428096342      0.386710126751      0.260531249441
  H                                                 2.088086280469     -1.708123116141      0.547933689406
  H                                                 1.986920590581     -1.044743282718     -0.934795859652
  H                                                 5.389710059200      0.827605627659      1.499400264481
  C                                                 5.024350063238      2.888747107353     -1.192285247410
  O                                                 4.769665168220      2.170973537849     -2.069824331505
  O                                                 5.265923656476      3.680492215361     -0.377219587937
 Recover connectivity data from disk.
 ITRead=  0  0  0  0  0  0  0  0  0  0  0  0  0  0  0
 MicOpt= -1 -1 -1 -1 -1 -1 -1 -1 -1 -1 -1 -1 -1 -1 -1
 NAtoms=     15 NQM=       15 NQMF=       0 NMMI=      0 NMMIF=      0
                NMic=       0 NMicF=      0.
                    Isotopes and Nuclear Properties:
 (Nuclear quadrupole moments (NQMom) in fm**2, nuclear magnetic moments (NMagM)
  in nuclear magnetons)

  Atom         1           2           3           4           5           6           7           8           9          10
 IAtWgt=          14          12          12           1           1          14           1           1           1           1
 AtmWgt=  14.0030740  12.0000000  12.0000000   1.0078250   1.0078250  14.0030740   1.0078250   1.0078250   1.0078250   1.0078250
 NucSpn=           2           0           0           1           1           2           1           1           1           1
 AtZEff=   4.5500000   3.6000000   3.6000000   1.0000000   1.0000000   4.5500000   1.0000000   1.0000000   1.0000000   1.0000000
 NQMom=    2.0440000   0.0000000   0.0000000   0.0000000   0.0000000   2.0440000   0.0000000   0.0000000   0.0000000   0.0000000
 NMagM=    0.4037610   0.0000000   0.0000000   2.7928460   2.7928460   0.4037610   2.7928460   2.7928460   2.7928460   2.7928460
 AtZNuc=   7.0000000   6.0000000   6.0000000   1.0000000   1.0000000   7.0000000   1.0000000   1.0000000   1.0000000   1.0000000

  Atom        11          12          13          14          15
 IAtWgt=           1           1          12          16          16
 AtmWgt=   1.0078250   1.0078250  12.0000000  15.9949146  15.9949146
 NucSpn=           1           1           0           0           0
 AtZEff=   1.0000000   1.0000000   3.6000000   5.6000000   5.6000000
 NQMom=    0.0000000   0.0000000   0.0000000   0.0000000   0.0000000
 NMagM=    2.7928460   2.7928460   0.0000000   0.0000000   0.0000000
 AtZNuc=   1.0000000   1.0000000   6.0000000   8.0000000   8.0000000
 Leave Link  101 at Fri Jun  2 13:56:44 2023, MaxMem=  7381975040 cpu:               0.3 elap:               1.0
 (Enter /software/commercial/gaussian/g16/AVX/g16/l103.exe)

 GradGradGradGradGradGradGradGradGradGradGradGradGradGradGradGradGradGrad
 Berny optimization.
 Initialization pass.
 Trust Radius=3.00D-01 FncErr=1.00D-07 GrdErr=1.00D-07 EigMax=2.50D+02 EigMin=1.00D-04
 Number of steps in this run=      2 maximum allowed number of steps=      2.
 GradGradGradGradGradGradGradGradGradGradGradGradGradGradGradGradGradGrad

 Leave Link  103 at Fri Jun  2 13:56:46 2023, MaxMem=  7381975040 cpu:               0.1 elap:               1.3
 (Enter /software/commercial/gaussian/g16/AVX/g16/l202.exe)
                          Input orientation:                          
 ---------------------------------------------------------------------
 Center     Atomic      Atomic             Coordinates (Angstroms)
 Number     Number       Type             X           Y           Z
 ---------------------------------------------------------------------
      1          7           0        1.947243   -0.829309    0.057547
      2          6           0        3.003188    0.126014    0.410904
      3          6           0        4.428970   -0.343160    0.108681
      4          1           0        2.915910    0.348628    1.480063
      5          1           0        2.813735    1.061985   -0.121822
      6          7           0        5.403786    0.687479    0.492766
      7          1           0        4.527555   -0.515955   -0.967468
      8          1           0        4.598008   -1.308148    0.610204
      9          1           0        6.345428    0.386710    0.260531
     10          1           0        2.088086   -1.708123    0.547934
     11          1           0        1.986921   -1.044743   -0.934796
     12          1           0        5.389710    0.827606    1.499400
     13          6           0        5.024350    2.888747   -1.192285
     14          8           0        4.769665    2.170974   -2.069824
     15          8           0        5.265924    3.680492   -0.377220
 ---------------------------------------------------------------------
                    Distance matrix (angstroms):
                    1          2          3          4          5
     1  N    0.000000
     2  C    1.467148   0.000000
     3  C    2.529412   1.531117   0.000000
     4  H    2.085523   1.095571   2.156064   0.000000
     5  H    2.088055   1.093494   2.153265   1.756518   0.000000
     6  N    3.799704   2.466742   1.469695   2.697981   2.688185
     7  H    2.794075   2.153074   1.094382   3.055374   2.478344
     8  H    2.749777   2.154065   1.100591   2.516151   3.055655
     9  H    4.567706   3.355763   2.056351   3.640096   3.615943
    10  H    1.016184   2.054324   2.745142   2.405075   2.940856
    11  H    1.016233   2.052895   2.746756   2.938716   2.404756
    12  H    4.083490   2.715243   2.056165   2.519817   3.052695
    13  C    4.985440   3.779948   3.534433   4.247254   3.061008
    14  O    4.636105   3.668285   3.344074   4.399892   2.974934
    15  O    5.616135   4.286657   4.138402   4.480332   3.596532
                    6          7          8          9         10
     6  N    0.000000
     7  H    2.085262   0.000000
     8  H    2.155365   1.766800   0.000000
     9  H    1.015423   2.372224   2.459328   0.000000
    10  H    4.090943   3.109456   2.542354   4.753513   0.000000
    11  H    4.088214   2.595286   3.045355   4.740723   1.627512
    12  H    1.016438   2.938351   2.445180   1.625602   4.270355
    13  C    2.798027   3.448093   4.587447   3.180584   5.725489
    14  O    3.028157   2.914342   4.395032   3.331243   5.393599
    15  O    3.119938   4.301599   5.129099   3.524352   6.323902
                   11         12         13         14         15
    11  H    0.000000
    12  H    4.583664   0.000000
    13  C    4.976407   3.409833   0.000000
    14  O    4.401453   3.863736   1.161954   0.000000
    15  O    5.778460   3.417014   1.161701   2.321601   0.000000
 Symmetry turned off by external request.
 Stoichiometry    C3H8N2O2
 Framework group  C1[X(C3H8N2O2)]
 Deg. of freedom    39
 Full point group                 C1      NOp   1
 Rotational constants (GHZ):           4.0613974           1.1486787           1.0504486
 Leave Link  202 at Fri Jun  2 13:56:49 2023, MaxMem=  7381975040 cpu:               0.0 elap:               0.9
 (Enter /software/commercial/gaussian/g16/AVX/g16/l301.exe)
 Standard basis: 6-311+G(d,p) (5D, 7F)
 Ernie: Thresh=  0.10000D-02 Tol=  0.10000D-05 Strict=F.
   202 basis functions,   316 primitive gaussians,   209 cartesian basis functions
    28 alpha electrons       28 beta electrons
       nuclear repulsion energy       293.4454580906 Hartrees.
 IExCor=  402 DFT=T Ex+Corr=B3LYP ExCW=0 ScaHFX=  0.200000
 ScaDFX=  0.800000  0.720000  1.000000  0.810000 ScalE2=  1.000000  1.000000
 IRadAn=      5 IRanWt=     -1 IRanGd=            0 ICorTp=0 IEmpDi=141
 NAtoms=   15 NActive=   15 NUniq=   15 SFac= 1.00D+00 NAtFMM=   60 NAOKFM=F Big=F
 Integral buffers will be    131072 words long.
 Raffenetti 2 integral format.
 Two-electron integral symmetry is turned off.
 R6Disp:  Grimme-D3(BJ) Dispersion energy=       -0.0177592102 Hartrees.
 Nuclear repulsion after empirical dispersion term =      293.4276988804 Hartrees.
 Force inversion solution in PCM.
 ------------------------------------------------------------------------------
 Polarizable Continuum Model (PCM)
 =================================
 Model                : PCM.
 Atomic radii         : UFF (Universal Force Field).
 Polarization charges : Total charges.
 Charge compensation  : None.
 Solution method      : Matrix inversion.
 Cavity type          : Scaled VdW (van der Waals Surface) (Alpha=1.100).
 Cavity algorithm     : GePol (No added spheres)
                        Default sphere list used, NSphG=   15.
                        Lebedev-Laikov grids with approx.  5.0 points / Ang**2.
                        Smoothing algorithm: York/Karplus (Gamma=1.0000).
                        Polarization charges: spherical gaussians, with
                                              point-specific exponents (IZeta= 3).
                        Self-potential: point-specific (ISelfS= 7).
                        Self-field    : sphere-specific E.n sum rule (ISelfD= 2).
 1st derivatives      : Analytical E(r).r(x)/FMM algorithm (CHGder, D1EAlg=3).
                        Cavity 1st derivative terms included.
 2nd derivatives      : Analytical E(r).r(xy)/FMM algorithm (CHGder, D2EAlg=3).
                        Cavity 2nd derivative terms included.
 Solvent              : Ethanol, Eps=  24.852000 Eps(inf)=   1.852593
 ------------------------------------------------------------------------------
 Spheres list:
 ISph  on   Nord     Re0    Alpha      Xe            Ye            Ze
    1   N      1    1.8300  1.100      1.947243     -0.829309      0.057547
    2   C      2    1.9255  1.100      3.003188      0.126014      0.410904
    3   C      3    1.9255  1.100      4.428970     -0.343160      0.108681
    4   H      4    1.4430  1.100      2.915910      0.348628      1.480063
    5   H      5    1.4430  1.100      2.813735      1.061985     -0.121822
    6   N      6    1.8300  1.100      5.403786      0.687479      0.492766
    7   H      7    1.4430  1.100      4.527555     -0.515955     -0.967468
    8   H      8    1.4430  1.100      4.598008     -1.308148      0.610204
    9   H      9    1.4430  1.100      6.345428      0.386710      0.260531
   10   H     10    1.4430  1.100      2.088086     -1.708123      0.547934
   11   H     11    1.4430  1.100      1.986921     -1.044743     -0.934796
   12   H     12    1.4430  1.100      5.389710      0.827606      1.499400
   13   C     13    1.9255  1.100      5.024350      2.888747     -1.192285
   14   O     14    1.7500  1.100      4.769665      2.170974     -2.069824
   15   O     15    1.7500  1.100      5.265924      3.680492     -0.377220
 ------------------------------------------------------------------------------
 GePol: Number of generator spheres                  =      15
 GePol: Total number of spheres                      =      15
 GePol: Number of exposed spheres                    =      15 (100.00%)
 GePol: Number of points                             =    1340
 GePol: Average weight of points                     =       0.14
 GePol: Minimum weight of points                     =   0.12D-08
 GePol: Maximum weight of points                     =    0.20577
 GePol: Number of points with low weight             =      74
 GePol: Fraction of low-weight points (<1% of avg)   =       5.52%
 GePol: Cavity surface area                          =    182.531 Ang**2
 GePol: Cavity volume                                =    169.428 Ang**3
 Leave Link  301 at Fri Jun  2 13:56:52 2023, MaxMem=  7381975040 cpu:               0.3 elap:               1.8
 (Enter /software/commercial/gaussian/g16/AVX/g16/l302.exe)
 NPDir=0 NMtPBC=     1 NCelOv=     1 NCel=       1 NClECP=     1 NCelD=      1
         NCelK=      1 NCelE2=     1 NClLst=     1 CellRange=     0.0.
 One-electron integrals computed using PRISM.
 NBasis=   202 RedAO= T EigKep=  6.33D-05  NBF=   202
 NBsUse=   202 1.00D-06 EigRej= -1.00D+00 NBFU=   202
 Precomputing XC quadrature grid using
 IXCGrd= 4 IRadAn=           5 IRanWt=          -1 IRanGd=           0 AccXCQ= 0.00D+00.
 Generated NRdTot=       0 NPtTot=           0 NUsed=           0 NTot=          32
 NSgBfM=   209   209   209   209   209 MxSgAt=    15 MxSgA2=    15.
 Leave Link  302 at Fri Jun  2 13:56:55 2023, MaxMem=  7381975040 cpu:               0.9 elap:               1.0
 (Enter /software/commercial/gaussian/g16/AVX/g16/l303.exe)
 DipDrv:  MaxL=1.
 Leave Link  303 at Fri Jun  2 13:56:57 2023, MaxMem=  7381975040 cpu:               0.1 elap:               0.6
 (Enter /software/commercial/gaussian/g16/AVX/g16/l401.exe)
 Initial guess from the checkpoint file:  "/scratch1/svicchi/G09-659885.pbs02/02-freq/EDA-CO2_binding_direct-site_index-5-freq.chk"
 B after Tr=     0.000000    0.000000    0.000000
         Rot=    1.000000    0.000000    0.000000    0.000000 Ang=   0.00 deg.
 Guess basis will be translated and rotated to current coordinates.
 JPrj=2 DoOrth=T DoCkMO=T.
 Leave Link  401 at Fri Jun  2 13:57:00 2023, MaxMem=  7381975040 cpu:               0.8 elap:               1.6
 (Enter /software/commercial/gaussian/g16/AVX/g16/l502.exe)
 Keep R1 ints in memory in canonical form, NReq=214828242.
 FoFCou: FMM=F IPFlag=           0 FMFlag=           0 FMFlg1=           0
         NFxFlg=           0 DoJE=F BraDBF=F KetDBF=F FulRan=T
         wScrn=  0.000000 ICntrl=       600 IOpCl=  0 I1Cent=           0 NGrid=           0
         NMat0=    1 NMatS0=  20503 NMatT0=    0 NMatD0=    1 NMtDS0=    0 NMtDT0=    0
 Symmetry not used in FoFCou.
 Two-electron integral symmetry not used.
 Closed shell SCF:
 Using DIIS extrapolation, IDIIS=  1040.
 NGot=  7381975040 LenX=  7171687647 LenY=  7171643525
 Requested convergence on RMS density matrix=1.00D-08 within 350 cycles.
 Requested convergence on MAX density matrix=1.00D-06.
 Requested convergence on             energy=1.00D-06.
 No special actions if energy rises.

 Cycle   1  Pass 1  IDiag  1:
 Inv3:  Mode=1 IEnd=     5386800.
 Iteration    1 A*A^-1 deviation from unit magnitude is 3.11D-15 for   1322.
 Iteration    1 A*A^-1 deviation from orthogonality  is 1.95D-15 for   1310    189.
 Iteration    1 A^-1*A deviation from unit magnitude is 3.11D-15 for   1322.
 Iteration    1 A^-1*A deviation from orthogonality  is 1.35D-15 for   1271     46.
 E= -379.262278418277    
 DIIS: error= 3.87D-08 at cycle   1 NSaved=   1.
 NSaved= 1 IEnMin= 1 EnMin= -379.262278418277     IErMin= 1 ErrMin= 3.87D-08
 ErrMax= 3.87D-08  0.00D+00 EMaxC= 1.00D-01 BMatC= 1.95D-13 BMatP= 1.95D-13
 IDIUse=1 WtCom= 1.00D+00 WtEn= 0.00D+00
 Coeff-Com:  0.100D+01
 Coeff:      0.100D+01
 Gap=     0.242 Goal=   None    Shift=    0.000
 RMSDP=3.68D-09 MaxDP=1.82D-07              OVMax= 2.24D-07

 Error on total polarization charges =  0.01222
 SCF Done:  E(RB3LYP) =  -379.262278418     A.U. after    1 cycles
            NFock=  1  Conv=0.37D-08     -V/T= 2.0039
 KE= 3.778020001927D+02 PE=-1.474884919665D+03 EE= 4.243929421735D+02
 Leave Link  502 at Fri Jun  2 13:57:19 2023, MaxMem=  7381975040 cpu:              27.8 elap:              17.6
 (Enter /software/commercial/gaussian/g16/AVX/g16/l508.exe)
 QCSCF skips out because SCF is already converged.
 Leave Link  508 at Fri Jun  2 13:57:22 2023, MaxMem=  7381975040 cpu:               0.0 elap:               1.8
 (Enter /software/commercial/gaussian/g16/AVX/g16/l801.exe)
 DoSCS=F DFT=T ScalE2(SS,OS)=  1.000000  1.000000
 Range of M.O.s used for correlation:     1   202
 NBasis=   202 NAE=    28 NBE=    28 NFC=     0 NFV=     0
 NROrb=    202 NOA=    28 NOB=    28 NVA=   174 NVB=   174

 **** Warning!!: The largest alpha MO coefficient is  0.36961847D+02

 Leave Link  801 at Fri Jun  2 13:57:25 2023, MaxMem=  7381975040 cpu:               0.3 elap:               1.2
 (Enter /software/commercial/gaussian/g16/AVX/g16/l1002.exe)
 Minotr:  Closed shell wavefunction.
 NEqPCM:  Using equilibrium solvation (IEInf=0, Eps=  24.8520, EpsInf=   1.8526)
          Direct CPHF calculation.
          Differentiating once with respect to electric field.
                with respect to dipole field.
          Electric field/nuclear overlap derivatives assumed to be zero.
          Requested convergence is 1.0D-08 RMS, and 1.0D-07 maximum.
          Secondary convergence is 1.0D-12 RMS, and 1.0D-12 maximum.
          NewPWx=F KeepS1=T KeepF1=T KeepIn=T MapXYZ=F SortEE=F KeepMc=T.
         4618 words used for storage of precomputed grid.
 Keep R1 ints in memory in canonical form, NReq=215714505.
 FoFCou: FMM=F IPFlag=           0 FMFlag=           0 FMFlg1=           0
         NFxFlg=           0 DoJE=F BraDBF=F KetDBF=F FulRan=T
         wScrn=  0.000000 ICntrl=       600 IOpCl=  0 I1Cent=           0 NGrid=           0
         NMat0=    1 NMatS0=  20503 NMatT0=    0 NMatD0=    1 NMtDS0=    0 NMtDT0=    0
 Symmetry not used in FoFCou.
 Two-electron integral symmetry not used.
          MDV=    7381975040 using IRadAn=       1.
          Solving linear equations simultaneously, MaxMat=       0.
          There are     3 degrees of freedom in the 1st order CPHF.  IDoFFX=0 NUNeed=     3.
      3 vectors produced by pass  0 Test12= 1.62D-13 3.33D-08 XBig12= 4.46D+01 2.03D+00.
 AX will form     3 AO Fock derivatives at one time.
      3 vectors produced by pass  1 Test12= 1.62D-13 3.33D-08 XBig12= 1.14D+01 8.45D-01.
      3 vectors produced by pass  2 Test12= 1.62D-13 3.33D-08 XBig12= 2.28D+00 2.73D-01.
      3 vectors produced by pass  3 Test12= 1.62D-13 3.33D-08 XBig12= 1.52D-01 1.18D-01.
      3 vectors produced by pass  4 Test12= 1.62D-13 3.33D-08 XBig12= 7.03D-02 6.63D-02.
      3 vectors produced by pass  5 Test12= 1.62D-13 3.33D-08 XBig12= 1.30D-02 1.94D-02.
      3 vectors produced by pass  6 Test12= 1.62D-13 3.33D-08 XBig12= 2.61D-03 9.49D-03.
      3 vectors produced by pass  7 Test12= 1.62D-13 3.33D-08 XBig12= 1.24D-04 1.88D-03.
      3 vectors produced by pass  8 Test12= 1.62D-13 3.33D-08 XBig12= 3.33D-06 2.39D-04.
      3 vectors produced by pass  9 Test12= 1.62D-13 3.33D-08 XBig12= 5.44D-08 2.88D-05.
      3 vectors produced by pass 10 Test12= 1.62D-13 3.33D-08 XBig12= 1.82D-09 6.45D-06.
      3 vectors produced by pass 11 Test12= 1.62D-13 3.33D-08 XBig12= 2.22D-11 6.32D-07.
      1 vectors produced by pass 12 Test12= 1.62D-13 3.33D-08 XBig12= 6.98D-13 1.48D-07.
 InvSVY:  IOpt=1 It=  1 EMax= 2.60D-15
 Solved reduced A of dimension    37 with     3 vectors.
 End of Minotr F.D. properties file   721 does not exist.
 End of Minotr F.D. properties file   722 does not exist.
 End of Minotr F.D. properties file   788 does not exist.
 Leave Link 1002 at Fri Jun  2 13:58:38 2023, MaxMem=  7381975040 cpu:             132.1 elap:              71.7
 (Enter /software/commercial/gaussian/g16/AVX/g16/l1101.exe)
 Using compressed storage, NAtomX=    15.
 Will process     16 centers per pass.
 R6Disp: Adding Grimme-D3(BJ) dispersion energy 1st derivatives to the gradient.
 Leave Link 1101 at Fri Jun  2 13:58:40 2023, MaxMem=  7381975040 cpu:               1.2 elap:               1.7
 (Enter /software/commercial/gaussian/g16/AVX/g16/l1102.exe)
 Symmetrizing basis deriv contribution to polar:
 IMax=3 JMax=2 DiffMx= 0.00D+00
 Leave Link 1102 at Fri Jun  2 13:58:42 2023, MaxMem=  7381975040 cpu:               0.1 elap:               0.6
 (Enter /software/commercial/gaussian/g16/AVX/g16/l1110.exe)
 Forming Gx(P) for the SCF density, NAtomX=    15.
 Integral derivatives from FoFJK, PRISM(SPDF).
 Do as many integral derivatives as possible in FoFJK.
 G2DrvN: MDV=    7381973359.
 G2DrvN: will do    16 centers at a time, making    1 passes.
 PxScal for G2LodP:  IOpCl= 0 ISclPx=1 IMOff=     1 NMtTot=     4 NTT=   20503 ScalPx= 1.03D+01
 Calling FoFCou, ICntrl=  3107 FMM=F I1Cent=   0 AccDes= 0.00D+00.
 FoFJK:  IHMeth= 1 ICntrl=    3107 DoSepK=F KAlg= 0 I1Cent=           0 FoldK=F
 IRaf=         0 NMat=       1 IRICut=       1 DoRegI=T DoRafI=F ISym2E= 0 IDoP0=0 IntGTp=1.
 FoFCou: FMM=F IPFlag=           0 FMFlag=      100000 FMFlg1=           0
         NFxFlg=           0 DoJE=F BraDBF=F KetDBF=F FulRan=T
         wScrn=  0.000000 ICntrl=      3107 IOpCl=  0 I1Cent=           0 NGrid=           0
         NMat0=    1 NMatS0=      1 NMatT0=    0 NMatD0=    4 NMtDS0=    3 NMtDT0=    0
 Symmetry not used in FoFCou.
 PxScal for G2LodP:  IOpCl= 0 ISclPx=0 IMOff=     1 NMtTot=     4 NTT=   20503 ScalPx= 1.00D+00
 NEqPCM:  Using equilibrium solvation (IEInf=0, Eps=  24.8520, EpsInf=   1.8526)
 G2PCM: DoFxE=T DoFxN=T DoGrad=T DoDP/DQ/DG/TGxP=TFFF NFrqRd=   0 IEInf=0 SqF1=F DoCFld=F IF1Alg=4.
 GePol: Maximum number of non-zero 1st derivatives   =     212
 End of G2Drv F.D. properties file   721 does not exist.
 End of G2Drv F.D. properties file   722 does not exist.
 End of G2Drv F.D. properties file   788 does not exist.
 Leave Link 1110 at Fri Jun  2 14:02:09 2023, MaxMem=  7381975040 cpu:             405.3 elap:             205.3
 (Enter /software/commercial/gaussian/g16/AVX/g16/l1002.exe)
 Minotr:  Closed shell wavefunction.
          IDoAtm=111111111111111
 NEqPCM:  Using equilibrium solvation (IEInf=0, Eps=  24.8520, EpsInf=   1.8526)
          Direct CPHF calculation.
          Differentiating once with respect to electric field.
                with respect to dipole field.
          Differentiating once with respect to nuclear coordinates.
          Requested convergence is 1.0D-08 RMS, and 1.0D-07 maximum.
          Secondary convergence is 1.0D-12 RMS, and 1.0D-12 maximum.
          NewPWx=T KeepS1=F KeepF1=F KeepIn=T MapXYZ=F SortEE=F KeepMc=T.
         4618 words used for storage of precomputed grid.
 Keep R1 ints in memory in canonical form, NReq=215714850.
 FoFCou: FMM=F IPFlag=           0 FMFlag=           0 FMFlg1=           0
         NFxFlg=           0 DoJE=F BraDBF=F KetDBF=F FulRan=T
         wScrn=  0.000000 ICntrl=       600 IOpCl=  0 I1Cent=           0 NGrid=           0
         NMat0=    1 NMatS0=  20503 NMatT0=    0 NMatD0=    1 NMtDS0=    0 NMtDT0=    0
 Symmetry not used in FoFCou.
 Two-electron integral symmetry not used.
          MDV=    7381975040 using IRadAn=       1.
          Solving linear equations simultaneously, MaxMat=       0.
          There are    48 degrees of freedom in the 1st order CPHF.  IDoFFX=5 NUNeed=    48.
 Will reuse    3 saved solutions.
     42 vectors produced by pass  0 Test12= 1.01D-14 2.08D-09 XBig12= 2.00D-01 1.31D-01.
 AX will form    42 AO Fock derivatives at one time.
     42 vectors produced by pass  1 Test12= 1.01D-14 2.08D-09 XBig12= 5.23D-03 1.49D-02.
     42 vectors produced by pass  2 Test12= 1.01D-14 2.08D-09 XBig12= 1.17D-04 1.42D-03.
     42 vectors produced by pass  3 Test12= 1.01D-14 2.08D-09 XBig12= 6.50D-07 9.84D-05.
     42 vectors produced by pass  4 Test12= 1.01D-14 2.08D-09 XBig12= 1.26D-09 4.18D-06.
     30 vectors produced by pass  5 Test12= 1.01D-14 2.08D-09 XBig12= 1.51D-12 1.95D-07.
      9 vectors produced by pass  6 Test12= 1.01D-14 2.08D-09 XBig12= 1.64D-15 5.26D-09.
 InvSVY:  IOpt=1 It=  1 EMax= 2.44D-15
 Solved reduced A of dimension   249 with    42 vectors.
 FullF1:  Do perturbations      1 to       3.
 Isotropic polarizability for W=    0.000000       75.48 Bohr**3.
 FullF1:  Do perturbations      1 to       6.
 End of Minotr F.D. properties file   721 does not exist.
 End of Minotr F.D. properties file   722 does not exist.
 End of Minotr F.D. properties file   788 does not exist.
 Leave Link 1002 at Fri Jun  2 14:05:15 2023, MaxMem=  7381975040 cpu:             357.5 elap:             185.5
 (Enter /software/commercial/gaussian/g16/AVX/g16/l601.exe)
 Copying SCF densities to generalized density rwf, IOpCl= 0 IROHF=0.

 **********************************************************************

            Population analysis using the SCF Density.

 **********************************************************************

 Alpha  occ. eigenvalues --  -19.19657 -19.19644 -14.29970 -14.29866 -10.35628
 Alpha  occ. eigenvalues --  -10.19244 -10.19118  -1.15817  -1.11915  -0.89869
 Alpha  occ. eigenvalues --   -0.87354  -0.70551  -0.60850  -0.56214  -0.52109
 Alpha  occ. eigenvalues --   -0.51604  -0.51272  -0.50574  -0.49018  -0.45984
 Alpha  occ. eigenvalues --   -0.41892  -0.41098  -0.37832  -0.37029  -0.36873
 Alpha  occ. eigenvalues --   -0.34829  -0.25931  -0.24858
 Alpha virt. eigenvalues --   -0.00613   0.00795   0.01819   0.02854   0.03220
 Alpha virt. eigenvalues --    0.03630   0.05222   0.05793   0.06237   0.07052
 Alpha virt. eigenvalues --    0.08265   0.09661   0.10422   0.10780   0.12187
 Alpha virt. eigenvalues --    0.12364   0.14464   0.15132   0.16065   0.17083
 Alpha virt. eigenvalues --    0.17559   0.18395   0.19149   0.19992   0.20323
 Alpha virt. eigenvalues --    0.21525   0.21672   0.21943   0.23504   0.23777
 Alpha virt. eigenvalues --    0.24475   0.26409   0.26870   0.27494   0.28060
 Alpha virt. eigenvalues --    0.28575   0.29397   0.30181   0.31022   0.33120
 Alpha virt. eigenvalues --    0.34373   0.38647   0.43676   0.45912   0.48085
 Alpha virt. eigenvalues --    0.51203   0.53150   0.55708   0.56535   0.58984
 Alpha virt. eigenvalues --    0.60135   0.62894   0.63854   0.65145   0.66131
 Alpha virt. eigenvalues --    0.67626   0.70303   0.70803   0.73986   0.76779
 Alpha virt. eigenvalues --    0.79584   0.81895   0.83055   0.83753   0.85798
 Alpha virt. eigenvalues --    0.88342   0.91053   0.92052   0.96124   1.01512
 Alpha virt. eigenvalues --    1.04042   1.06572   1.07687   1.09782   1.11901
 Alpha virt. eigenvalues --    1.14793   1.17091   1.18182   1.19430   1.23238
 Alpha virt. eigenvalues --    1.26351   1.28824   1.29945   1.34157   1.40292
 Alpha virt. eigenvalues --    1.41976   1.42397   1.44199   1.51878   1.53521
 Alpha virt. eigenvalues --    1.53916   1.58700   1.60684   1.62329   1.65529
 Alpha virt. eigenvalues --    1.67528   1.71516   1.71706   1.72936   1.78848
 Alpha virt. eigenvalues --    1.80821   1.81091   1.85325   1.89671   1.90294
 Alpha virt. eigenvalues --    1.97198   1.98608   2.05966   2.08859   2.15768
 Alpha virt. eigenvalues --    2.20652   2.25562   2.29613   2.40238   2.43468
 Alpha virt. eigenvalues --    2.47996   2.50495   2.54468   2.55420   2.56050
 Alpha virt. eigenvalues --    2.57626   2.60238   2.62553   2.65129   2.67934
 Alpha virt. eigenvalues --    2.69559   2.70294   2.72062   2.73840   2.74914
 Alpha virt. eigenvalues --    2.75657   2.78352   2.81355   2.82402   2.84793
 Alpha virt. eigenvalues --    2.86076   2.88014   2.91907   2.96148   3.01571
 Alpha virt. eigenvalues --    3.11137   3.12009   3.12203   3.14947   3.18820
 Alpha virt. eigenvalues --    3.21551   3.51324   3.54476   3.67295   3.68600
 Alpha virt. eigenvalues --    3.80231   3.81047   3.83791   3.85452   4.08896
 Alpha virt. eigenvalues --    4.14514   4.22473   4.71233   4.72075   4.76914
 Alpha virt. eigenvalues --    4.91402   4.96820   5.01008   5.03484   5.07495
 Alpha virt. eigenvalues --    5.65250   5.70161  23.84343  23.87016  24.39025
 Alpha virt. eigenvalues --   35.57798  35.59445  49.92740  50.06831
     Molecular Orbital Coefficients:
                           1         2         3         4         5
                           O         O         O         O         O
     Eigenvalues --   -19.19657 -19.19644 -14.29970 -14.29866 -10.35628
   1 1   N  1S          0.00000  -0.00000  -0.00047   0.55739   0.00000
   2        2S         -0.00000   0.00001  -0.00038   0.46575   0.00000
   3        2PX         0.00000   0.00000   0.00002   0.00112   0.00000
   4        2PY        -0.00000   0.00001   0.00001  -0.00037   0.00000
   5        2PZ        -0.00001  -0.00000   0.00001  -0.00024  -0.00001
   6        3S          0.00002  -0.00006  -0.00016   0.01560  -0.00000
   7        3PX        -0.00001  -0.00001  -0.00010   0.00025  -0.00000
   8        3PY         0.00001  -0.00003  -0.00007  -0.00083  -0.00001
   9        3PZ         0.00002   0.00001  -0.00004  -0.00040   0.00003
  10        4S         -0.00018   0.00039   0.00103  -0.00899  -0.00006
  11        4PX        -0.00004   0.00014   0.00059  -0.00135  -0.00005
  12        4PY        -0.00007   0.00018  -0.00019  -0.00208  -0.00008
  13        4PZ        -0.00013  -0.00007  -0.00023  -0.00078  -0.00022
  14        5S          0.00025  -0.00057   0.00079   0.00743  -0.00103
  15        5PX         0.00008  -0.00026   0.00037   0.00082  -0.00019
  16        5PY        -0.00022  -0.00010   0.00046   0.00174  -0.00018
  17        5PZ         0.00009   0.00019   0.00005   0.00036   0.00012
  18        6D 0        0.00000   0.00000   0.00004   0.00050   0.00001
  19        6D+1       -0.00000  -0.00000  -0.00001   0.00007  -0.00001
  20        6D-1        0.00001  -0.00000  -0.00001  -0.00020   0.00000
  21        6D+2        0.00000  -0.00000  -0.00002  -0.00051   0.00000
  22        6D-2        0.00000   0.00000  -0.00001  -0.00006  -0.00000
  23 2   C  1S          0.00000  -0.00000   0.00000   0.00001   0.00000
  24        2S         -0.00001   0.00001   0.00000  -0.00002  -0.00000
  25        2PX        -0.00002   0.00001   0.00005  -0.00023  -0.00002
  26        2PY        -0.00002   0.00001  -0.00004  -0.00026  -0.00001
  27        2PZ         0.00002  -0.00001  -0.00001  -0.00010   0.00001
  28        3S         -0.00002  -0.00003   0.00010  -0.00002  -0.00002
  29        3PX         0.00008  -0.00004  -0.00030   0.00030   0.00007
  30        3PY         0.00009  -0.00006   0.00019   0.00068   0.00005
  31        3PZ        -0.00009   0.00003   0.00007   0.00026  -0.00007
  32        4S          0.00086  -0.00033  -0.00229   0.00555   0.00056
  33        4PX        -0.00005   0.00013  -0.00079  -0.00116  -0.00042
  34        4PY        -0.00001   0.00027   0.00057  -0.00175   0.00009
  35        4PZ        -0.00001   0.00032   0.00066  -0.00074   0.00009
  36        5S          0.00398   0.00205   0.00671  -0.00920   0.00401
  37        5PX         0.00099   0.00068   0.00157   0.00108   0.00075
  38        5PY         0.00038   0.00049  -0.00052   0.00227   0.00023
  39        5PZ        -0.00055  -0.00023  -0.00023   0.00149  -0.00062
  40        6D 0        0.00000   0.00002   0.00003   0.00024  -0.00000
  41        6D+1       -0.00002   0.00000   0.00007  -0.00016  -0.00000
  42        6D-1       -0.00003   0.00002   0.00001  -0.00017  -0.00002
  43        6D+2       -0.00002   0.00001  -0.00012  -0.00004  -0.00003
  44        6D-2        0.00002  -0.00000   0.00010  -0.00044   0.00004
  45 3   C  1S          0.00000  -0.00000   0.00001   0.00000   0.00000
  46        2S         -0.00002   0.00001  -0.00003   0.00000  -0.00000
  47        2PX        -0.00001   0.00001   0.00019  -0.00008   0.00000
  48        2PY        -0.00002   0.00002   0.00026   0.00000   0.00001
  49        2PZ         0.00001   0.00000   0.00011   0.00002  -0.00000
  50        3S          0.00012  -0.00014   0.00009   0.00019  -0.00000
  51        3PX         0.00005  -0.00006  -0.00017   0.00038  -0.00001
  52        3PY         0.00013  -0.00013  -0.00063  -0.00007  -0.00001
  53        3PZ        -0.00006  -0.00003  -0.00032  -0.00010  -0.00002
  54        4S          0.00004   0.00057   0.00517  -0.00245   0.00061
  55        4PX         0.00043  -0.00023   0.00047   0.00061   0.00010
  56        4PY        -0.00027   0.00020   0.00206  -0.00061   0.00000
  57        4PZ         0.00010  -0.00016   0.00034  -0.00022   0.00002
  58        5S         -0.00258  -0.00012  -0.01291   0.00206  -0.00029
  59        5PX         0.00074   0.00008   0.00049  -0.00158   0.00051
  60        5PY        -0.00034   0.00006  -0.00306  -0.00113   0.00044
  61        5PZ         0.00031  -0.00026  -0.00078  -0.00010  -0.00032
  62        6D 0       -0.00002   0.00004   0.00027   0.00008   0.00002
  63        6D+1       -0.00002   0.00001  -0.00017   0.00003  -0.00001
  64        6D-1       -0.00002   0.00002  -0.00021   0.00001   0.00001
  65        6D+2        0.00002  -0.00000  -0.00003  -0.00019   0.00002
  66        6D-2        0.00004  -0.00003  -0.00041   0.00005   0.00000
  67 4   H  1S          0.00000  -0.00000   0.00004  -0.00002  -0.00001
  68        2S         -0.00002  -0.00005  -0.00022  -0.00102   0.00002
  69        3S         -0.00032  -0.00015  -0.00082  -0.00018  -0.00040
  70        4PX         0.00002   0.00000  -0.00011   0.00004   0.00004
  71        4PY         0.00001  -0.00000  -0.00004   0.00011   0.00001
  72        4PZ        -0.00000   0.00001   0.00009   0.00030  -0.00001
  73 5   H  1S          0.00004  -0.00004   0.00004  -0.00002   0.00002
  74        2S         -0.00014   0.00023  -0.00013  -0.00107  -0.00003
  75        3S         -0.00061  -0.00041  -0.00070  -0.00010  -0.00115
  76        4PX        -0.00006  -0.00000  -0.00015   0.00000  -0.00007
  77        4PY         0.00004  -0.00003   0.00004   0.00031   0.00003
  78        4PZ         0.00000   0.00000  -0.00010  -0.00012   0.00000
  79 6   N  1S          0.00000  -0.00000   0.55738   0.00047   0.00000
  80        2S         -0.00001   0.00000   0.46574   0.00040  -0.00001
  81        2PX        -0.00000  -0.00000   0.00020  -0.00003  -0.00001
  82        2PY         0.00000  -0.00002  -0.00107  -0.00001   0.00001
  83        2PZ         0.00000   0.00000   0.00053   0.00000  -0.00001
  84        3S          0.00011  -0.00001   0.01570  -0.00008   0.00012
  85        3PX        -0.00002   0.00002   0.00059   0.00012   0.00001
  86        3PY        -0.00001   0.00007  -0.00014   0.00003  -0.00001
  87        3PZ        -0.00001  -0.00003   0.00054  -0.00000  -0.00001
  88        4S         -0.00021  -0.00024  -0.00919   0.00045  -0.00064
  89        4PX        -0.00017  -0.00012   0.00232  -0.00061  -0.00017
  90        4PY         0.00025  -0.00040   0.00096  -0.00023  -0.00012
  91        4PZ         0.00064  -0.00045   0.00138   0.00019   0.00005
  92        5S         -0.00039  -0.00111   0.01021   0.00325  -0.00069
  93        5PX         0.00055   0.00081  -0.00203  -0.00048   0.00074
  94        5PY         0.00002   0.00026  -0.00069  -0.00037   0.00020
  95        5PZ        -0.00072   0.00003  -0.00042   0.00018   0.00001
  96        6D 0        0.00005  -0.00006   0.00034   0.00003  -0.00003
  97        6D+1        0.00000   0.00001  -0.00021  -0.00001  -0.00000
  98        6D-1        0.00002  -0.00002   0.00029   0.00001   0.00002
  99        6D+2       -0.00002   0.00000   0.00049   0.00001   0.00001
 100        6D-2        0.00001   0.00001  -0.00024   0.00001   0.00002
 101 7   H  1S          0.00001   0.00002   0.00004   0.00003   0.00002
 102        2S          0.00002  -0.00021  -0.00145  -0.00006  -0.00008
 103        3S          0.00011  -0.00029   0.00051  -0.00017  -0.00051
 104        4PX        -0.00002   0.00000   0.00001   0.00008  -0.00001
 105        4PY         0.00001  -0.00007  -0.00014   0.00003  -0.00004
 106        4PZ         0.00001  -0.00005  -0.00032  -0.00008  -0.00003
 107 8   H  1S          0.00002   0.00000  -0.00000   0.00002   0.00002
 108        2S         -0.00004  -0.00004  -0.00095  -0.00002  -0.00012
 109        3S         -0.00031   0.00034   0.00005  -0.00069   0.00001
 110        4PX        -0.00002   0.00001  -0.00006   0.00009  -0.00001
 111        4PY         0.00001  -0.00000  -0.00039  -0.00005  -0.00001
 112        4PZ         0.00001   0.00001   0.00008   0.00006   0.00000
 113 9   H  1S         -0.00003  -0.00001  -0.00003  -0.00001  -0.00002
 114        2S          0.00042   0.00006  -0.00169   0.00010   0.00036
 115        3S         -0.00041  -0.00007   0.00010  -0.00031  -0.00046
 116        4PX        -0.00008   0.00002   0.00144   0.00003  -0.00001
 117        4PY        -0.00000   0.00005  -0.00057   0.00005   0.00001
 118        4PZ        -0.00006   0.00006  -0.00049   0.00000   0.00003
 119 10  H  1S          0.00000  -0.00000   0.00001   0.00001   0.00001
 120        2S          0.00004   0.00001  -0.00036  -0.00187  -0.00001
 121        3S         -0.00026   0.00015  -0.00016   0.00096   0.00013
 122        4PX        -0.00001  -0.00000  -0.00002   0.00029  -0.00000
 123        4PY         0.00001  -0.00000  -0.00005  -0.00137   0.00001
 124        4PZ         0.00001   0.00001   0.00009   0.00088   0.00002
 125 11  H  1S          0.00001  -0.00001   0.00003   0.00001  -0.00000
 126        2S         -0.00006  -0.00005  -0.00050  -0.00184  -0.00008
 127        3S         -0.00016   0.00022  -0.00008   0.00081  -0.00012
 128        4PX         0.00000   0.00001  -0.00002   0.00013   0.00001
 129        4PY        -0.00000   0.00000   0.00003  -0.00024   0.00000
 130        4PZ        -0.00001  -0.00001  -0.00012  -0.00162  -0.00002
 131 12  H  1S          0.00005  -0.00004  -0.00002  -0.00001  -0.00002
 132        2S         -0.00051   0.00056  -0.00173  -0.00017   0.00028
 133        3S          0.00069   0.00033  -0.00054  -0.00089  -0.00001
 134        4PX         0.00000   0.00001  -0.00015   0.00003   0.00002
 135        4PY        -0.00003   0.00005   0.00019  -0.00000   0.00000
 136        4PZ         0.00009  -0.00014   0.00162   0.00005  -0.00006
 137 13  C  1S         -0.00009  -0.00009   0.00000   0.00000   0.56286
 138        2S          0.00039   0.00041  -0.00001   0.00000   0.46274
 139        2PX        -0.00002   0.00001   0.00001  -0.00001   0.00000
 140        2PY        -0.00006   0.00004  -0.00002  -0.00001  -0.00007
 141        2PZ        -0.00004   0.00005   0.00003   0.00001   0.00007
 142        3S         -0.00014  -0.00016  -0.00001   0.00001   0.02090
 143        3PX        -0.00009   0.00012  -0.00004   0.00001  -0.00004
 144        3PY        -0.00035   0.00030   0.00005  -0.00001   0.00044
 145        3PZ        -0.00040   0.00039  -0.00018  -0.00005  -0.00040
 146        4S         -0.00260  -0.00274   0.00210   0.00046  -0.00407
 147        4PX        -0.00295   0.00278  -0.00010  -0.00019   0.00003
 148        4PY        -0.00890   0.00847  -0.00071  -0.00043  -0.00001
 149        4PZ        -0.00976   0.00965  -0.00025  -0.00058   0.00059
 150        5S         -0.00380  -0.00397   0.00135   0.00149  -0.00603
 151        5PX         0.00024   0.00022  -0.00018  -0.00032   0.00029
 152        5PY         0.00065   0.00076  -0.00060  -0.00079   0.00109
 153        5PZ        -0.00051  -0.00046  -0.00010  -0.00007  -0.00047
 154        6D 0       -0.00063  -0.00067   0.00004   0.00000   0.00221
 155        6D+1       -0.00058  -0.00061   0.00006   0.00000   0.00200
 156        6D-1       -0.00177  -0.00188   0.00016   0.00002   0.00607
 157        6D+2        0.00069   0.00074  -0.00009   0.00000  -0.00242
 158        6D-2       -0.00052  -0.00055   0.00005   0.00001   0.00178
 159 14  O  1S          0.55114   0.01313  -0.00000  -0.00000  -0.00012
 160        2S          0.46951   0.01115  -0.00001  -0.00000   0.00013
 161        2PX         0.00029  -0.00003   0.00001  -0.00000   0.00020
 162        2PY         0.00086  -0.00007   0.00002  -0.00000   0.00054
 163        2PZ         0.00098  -0.00011  -0.00000  -0.00000   0.00067
 164        3S          0.01467   0.00024   0.00012   0.00004  -0.00150
 165        3PX         0.00025   0.00022  -0.00003   0.00000  -0.00096
 166        3PY         0.00063   0.00060  -0.00012   0.00001  -0.00263
 167        3PZ         0.00092   0.00081  -0.00001   0.00002  -0.00326
 168        4S         -0.01403   0.00726  -0.00096  -0.00040  -0.00692
 169        4PX        -0.00066   0.00056  -0.00010  -0.00003  -0.00050
 170        4PY        -0.00166   0.00142  -0.00003  -0.00013  -0.00121
 171        4PZ        -0.00246   0.00183  -0.00061  -0.00021  -0.00191
 172        5S         -0.00221   0.01012  -0.00166  -0.00134   0.00696
 173        5PX        -0.00039   0.00068  -0.00014  -0.00019   0.00053
 174        5PY        -0.00121   0.00164  -0.00021  -0.00026   0.00113
 175        5PZ        -0.00101   0.00254  -0.00034  -0.00009   0.00192
 176        6D 0        0.00016   0.00021  -0.00004  -0.00000  -0.00069
 177        6D+1        0.00012   0.00014  -0.00002  -0.00001  -0.00052
 178        6D-1        0.00033   0.00035  -0.00003  -0.00001  -0.00139
 179        6D+2       -0.00011  -0.00010   0.00002   0.00000   0.00046
 180        6D-2        0.00010   0.00010  -0.00001   0.00000  -0.00040
 181 15  O  1S         -0.01312   0.55114   0.00000   0.00000  -0.00012
 182        2S         -0.01121   0.46951   0.00000   0.00001   0.00013
 183        2PX         0.00004  -0.00028  -0.00000  -0.00000  -0.00018
 184        2PY         0.00014  -0.00087   0.00000   0.00000  -0.00060
 185        2PZ         0.00012  -0.00096  -0.00001   0.00000  -0.00062
 186        3S         -0.00046   0.01465  -0.00002  -0.00006  -0.00151
 187        3PX        -0.00022  -0.00025   0.00002   0.00001   0.00086
 188        3PY        -0.00070  -0.00090   0.00000   0.00000   0.00292
 189        3PZ        -0.00064  -0.00078   0.00005  -0.00002   0.00299
 190        4S          0.00781  -0.01361  -0.00004   0.00042  -0.00703
 191        4PX        -0.00043   0.00062   0.00002  -0.00005   0.00055
 192        4PY        -0.00171   0.00220   0.00024  -0.00009   0.00189
 193        4PZ        -0.00172   0.00187   0.00009   0.00002   0.00147
 194        5S          0.00986  -0.00223  -0.00075  -0.00015   0.00542
 195        5PX        -0.00072   0.00025   0.00010   0.00020  -0.00043
 196        5PY        -0.00232   0.00081   0.00056   0.00029  -0.00152
 197        5PZ        -0.00185   0.00135  -0.00013  -0.00024  -0.00086
 198        6D 0        0.00005   0.00009  -0.00001  -0.00000  -0.00034
 199        6D+1        0.00009   0.00011  -0.00001   0.00000  -0.00042
 200        6D-1        0.00035   0.00037  -0.00002  -0.00000  -0.00145
 201        6D+2       -0.00018  -0.00017   0.00003   0.00000   0.00069
 202        6D-2        0.00011   0.00011  -0.00001  -0.00000  -0.00043
                           6         7         8         9        10
                           O         O         O         O         O
     Eigenvalues --   -10.19244 -10.19118  -1.15817  -1.11915  -0.89869
   1 1   N  1S         -0.00003   0.00000  -0.00002   0.00002  -0.06631
   2        2S         -0.00005   0.00001  -0.00004   0.00002  -0.10409
   3        2PX         0.00019   0.00002   0.00001  -0.00002   0.02805
   4        2PY         0.00018   0.00001  -0.00000  -0.00002  -0.00269
   5        2PZ         0.00006   0.00001   0.00001  -0.00001  -0.00311
   6        3S          0.00042   0.00001   0.00024   0.00007   0.28457
   7        3PX        -0.00022  -0.00015   0.00008  -0.00002   0.04501
   8        3PY        -0.00015  -0.00010   0.00011   0.00005  -0.00197
   9        3PZ        -0.00005  -0.00005  -0.00005   0.00005  -0.00385
  10        4S         -0.00015  -0.00054  -0.00079  -0.00150   0.19734
  11        4PX         0.00031  -0.00020  -0.00042  -0.00053   0.02062
  12        4PY        -0.00009  -0.00053  -0.00047  -0.00070   0.00278
  13        4PZ        -0.00013  -0.00005   0.00055  -0.00035   0.00010
  14        5S          0.00770   0.00388   0.00263  -0.00003  -0.02070
  15        5PX         0.00194   0.00112   0.00096   0.00108  -0.00824
  16        5PY         0.00055   0.00006   0.00088  -0.00007  -0.00915
  17        5PZ        -0.00001  -0.00058  -0.00098  -0.00056  -0.00084
  18        6D 0        0.00014   0.00003  -0.00002   0.00001   0.00012
  19        6D+1       -0.00013  -0.00004   0.00001  -0.00001   0.00190
  20        6D-1       -0.00010  -0.00001  -0.00001   0.00001  -0.00005
  21        6D+2        0.00001  -0.00002  -0.00000   0.00001  -0.00084
  22        6D-2       -0.00033  -0.00011  -0.00001  -0.00001   0.00399
  23 2   C  1S          0.56086  -0.04920  -0.00012   0.00008  -0.04830
  24        2S          0.46151  -0.04048  -0.00019   0.00010  -0.07443
  25        2PX        -0.00030   0.00049   0.00008  -0.00011  -0.00594
  26        2PY        -0.00060  -0.00017   0.00008  -0.00009  -0.01960
  27        2PZ        -0.00020  -0.00010  -0.00009   0.00011  -0.00794
  28        3S          0.01867  -0.00154   0.00043  -0.00024   0.19330
  29        3PX        -0.00012  -0.00105   0.00004   0.00029  -0.00763
  30        3PY         0.00220   0.00058   0.00003   0.00034  -0.03765
  31        3PZ         0.00088   0.00025   0.00005  -0.00023  -0.01559
  32        4S         -0.01347   0.00527  -0.00050   0.00338   0.08583
  33        4PX        -0.00150   0.00186   0.00008  -0.00098   0.00747
  34        4PY         0.00070  -0.00056  -0.00086  -0.00064  -0.00427
  35        4PZ         0.00076  -0.00056  -0.00115  -0.00056  -0.00426
  36        5S         -0.01307   0.01320  -0.01946   0.01452   0.03062
  37        5PX        -0.00183   0.00320  -0.00525   0.00131   0.00016
  38        5PY        -0.00049  -0.00100  -0.00312  -0.00249   0.00051
  39        5PZ         0.00031   0.00011   0.00225  -0.00194  -0.00433
  40        6D 0        0.00075   0.00031  -0.00009  -0.00001  -0.00675
  41        6D+1        0.00001   0.00028   0.00000  -0.00002   0.00227
  42        6D-1       -0.00040  -0.00011  -0.00002  -0.00011   0.00400
  43        6D+2       -0.00063  -0.00047   0.00003  -0.00007   0.00337
  44        6D-2       -0.00035   0.00047  -0.00005   0.00011   0.00761
  45 3   C  1S          0.04917   0.56086  -0.00028   0.00016  -0.04893
  46        2S          0.04046   0.46152  -0.00042   0.00020  -0.07543
  47        2PX        -0.00042   0.00041   0.00011  -0.00008   0.00679
  48        2PY         0.00025   0.00052   0.00022  -0.00022   0.01958
  49        2PZ         0.00015   0.00023  -0.00007   0.00012   0.00921
  50        3S          0.00172   0.01869   0.00108   0.00020   0.19632
  51        3PX         0.00105  -0.00010   0.00019   0.00018   0.00914
  52        3PY        -0.00082  -0.00179   0.00048   0.00052   0.03700
  53        3PZ        -0.00050  -0.00103   0.00013  -0.00005   0.01834
  54        4S          0.00305  -0.01484  -0.00181  -0.00079   0.07955
  55        4PX        -0.00188   0.00108  -0.00001   0.00179   0.00191
  56        4PY         0.00073  -0.00167   0.00067  -0.00202  -0.00024
  57        4PZ        -0.00005  -0.00027   0.00001   0.00077   0.00498
  58        5S          0.00621  -0.02521   0.00990  -0.01660   0.03486
  59        5PX        -0.00089   0.00182  -0.00180   0.00508   0.00288
  60        5PY         0.00166  -0.00337   0.00185  -0.00254   0.00780
  61        5PZ         0.00042  -0.00125   0.00032   0.00142   0.00216
  62        6D 0        0.00047   0.00071  -0.00013  -0.00010  -0.00681
  63        6D+1        0.00022  -0.00014   0.00002  -0.00008   0.00261
  64        6D-1       -0.00014  -0.00036  -0.00007  -0.00004   0.00493
  65        6D+2       -0.00055  -0.00051  -0.00015   0.00011   0.00447
  66        6D-2        0.00041  -0.00041   0.00008   0.00011   0.00740
  67 4   H  1S          0.00006  -0.00011   0.00006  -0.00000   0.02464
  68        2S         -0.00299  -0.00038   0.00020  -0.00010   0.03142
  69        3S          0.00369  -0.00090   0.00161  -0.00065  -0.00460
  70        4PX        -0.00013   0.00006  -0.00003   0.00005   0.00074
  71        4PY         0.00029  -0.00000  -0.00001   0.00003  -0.00185
  72        4PZ         0.00215   0.00011  -0.00004  -0.00001  -0.00715
  73 5   H  1S          0.00008  -0.00007   0.00022   0.00001   0.02435
  74        2S         -0.00315  -0.00069   0.00028  -0.00120   0.03014
  75        3S          0.00429  -0.00046   0.00276  -0.00105  -0.00668
  76        4PX        -0.00037   0.00003   0.00028  -0.00024   0.00124
  77        4PY         0.00182   0.00012   0.00007   0.00014  -0.00641
  78        4PZ        -0.00124  -0.00009  -0.00012   0.00006   0.00331
  79 6   N  1S         -0.00000  -0.00003  -0.00085   0.00013  -0.06870
  80        2S          0.00000  -0.00006  -0.00131   0.00019  -0.10785
  81        2PX        -0.00003  -0.00016  -0.00007   0.00008  -0.00321
  82        2PY        -0.00006  -0.00017   0.00037   0.00016  -0.02568
  83        2PZ        -0.00002  -0.00006  -0.00036   0.00022   0.00849
  84        3S          0.00014   0.00052   0.00308  -0.00025   0.29445
  85        3PX         0.00008   0.00011  -0.00024   0.00002  -0.00732
  86        3PY         0.00017   0.00015   0.00070  -0.00009  -0.04157
  87        3PZ         0.00004  -0.00000  -0.00074   0.00029   0.01216
  88        4S         -0.00133  -0.00019   0.00381  -0.00046   0.20693
  89        4PX         0.00016  -0.00036   0.00067   0.00005  -0.00793
  90        4PY         0.00018  -0.00023   0.00067   0.00217  -0.01731
  91        4PZ         0.00052  -0.00034  -0.00059   0.00369   0.00106
  92        5S          0.00404   0.01657  -0.00029   0.00415  -0.04014
  93        5PX        -0.00135  -0.00130  -0.00398  -0.00275   0.01720
  94        5PY        -0.00031  -0.00276  -0.00038  -0.00072   0.00637
  95        5PZ         0.00008   0.00008   0.00201  -0.00190  -0.00022
  96        6D 0        0.00005   0.00009   0.00006   0.00011  -0.00063
  97        6D+1       -0.00007  -0.00010   0.00004  -0.00005   0.00001
  98        6D-1       -0.00005  -0.00014  -0.00015   0.00013   0.00296
  99        6D+2        0.00003   0.00006  -0.00008  -0.00009   0.00220
 100        6D-2       -0.00009  -0.00032  -0.00005  -0.00000   0.00349
 101 7   H  1S         -0.00005   0.00008   0.00012  -0.00017   0.02478
 102        2S         -0.00133  -0.00284   0.00112  -0.00030   0.03314
 103        3S          0.00005   0.00446   0.00073   0.00165  -0.00741
 104        4PX        -0.00002   0.00018   0.00005  -0.00007  -0.00087
 105        4PY        -0.00007  -0.00017   0.00033  -0.00006   0.00181
 106        4PZ        -0.00052  -0.00214   0.00012   0.00011   0.00745
 107 8   H  1S         -0.00007   0.00010   0.00001   0.00002   0.02477
 108        2S         -0.00090  -0.00279   0.00046  -0.00028   0.02939
 109        3S          0.00035   0.00318   0.00028  -0.00239  -0.00716
 110        4PX         0.00001   0.00033   0.00002  -0.00008  -0.00138
 111        4PY        -0.00037  -0.00175   0.00003   0.00003   0.00668
 112        4PZ         0.00026   0.00108  -0.00004   0.00001  -0.00309
 113 9   H  1S         -0.00006  -0.00011   0.00051  -0.00012   0.05107
 114        2S          0.00041   0.00036  -0.00059   0.00071   0.04842
 115        3S         -0.00069  -0.00309   0.00190   0.00001  -0.00458
 116        4PX        -0.00009  -0.00001  -0.00008  -0.00019  -0.01132
 117        4PY        -0.00002  -0.00005   0.00004  -0.00015   0.00186
 118        4PZ        -0.00001   0.00001  -0.00006  -0.00028   0.00329
 119 10  H  1S         -0.00014   0.00002   0.00002  -0.00001   0.05047
 120        2S          0.00038  -0.00026  -0.00012   0.00008   0.04647
 121        3S         -0.00133  -0.00135  -0.00017  -0.00084  -0.00395
 122        4PX         0.00010  -0.00007   0.00003  -0.00001   0.00016
 123        4PY         0.00015  -0.00009  -0.00001   0.00003   0.00991
 124        4PZ         0.00007   0.00004  -0.00003   0.00002  -0.00577
 125 11  H  1S         -0.00014   0.00002   0.00001   0.00000   0.05042
 126        2S          0.00036  -0.00014   0.00042  -0.00012   0.04659
 127        3S         -0.00147  -0.00162  -0.00093  -0.00084  -0.00280
 128        4PX         0.00011  -0.00008  -0.00002   0.00001   0.00126
 129        4PY         0.00016  -0.00002   0.00001   0.00001   0.00232
 130        4PZ         0.00004  -0.00008   0.00005  -0.00001   0.01120
 131 12  H  1S         -0.00001  -0.00015   0.00036   0.00021   0.05235
 132        2S         -0.00008   0.00072   0.00002  -0.00289   0.04860
 133        3S         -0.00164  -0.00253  -0.00210   0.00017   0.00455
 134        4PX         0.00006  -0.00011  -0.00003  -0.00001  -0.00010
 135        4PY        -0.00001  -0.00015   0.00001  -0.00016  -0.00333
 136        4PZ         0.00004  -0.00014  -0.00005   0.00047  -0.01151
 137 13  C  1S          0.00000  -0.00000  -0.08684  -0.00037   0.00070
 138        2S         -0.00000  -0.00000  -0.13167  -0.00056   0.00109
 139        2PX         0.00002  -0.00001  -0.00099   0.03592   0.00025
 140        2PY         0.00001   0.00000   0.00449   0.10931  -0.00087
 141        2PZ        -0.00000   0.00002  -0.00454   0.12247   0.00156
 142        3S          0.00002   0.00006   0.34827   0.00166  -0.00347
 143        3PX        -0.00010  -0.00001  -0.00139   0.03673   0.00044
 144        3PY        -0.00011  -0.00012   0.00634   0.11177  -0.00168
 145        3PZ        -0.00002  -0.00014  -0.00616   0.12515   0.00282
 146        4S          0.00090  -0.00011   0.10787  -0.00009  -0.00456
 147        4PX         0.00012  -0.00030  -0.00048  -0.01506   0.00052
 148        4PY        -0.00020  -0.00049   0.00007  -0.04561   0.00117
 149        4PZ        -0.00066  -0.00099  -0.00243  -0.05135   0.00361
 150        5S          0.00125   0.00157   0.03452   0.00131  -0.01507
 151        5PX        -0.00020   0.00006  -0.00182   0.00190   0.00134
 152        5PY        -0.00022  -0.00079  -0.00434   0.00512   0.00533
 153        5PZ         0.00042  -0.00003   0.00297   0.00638  -0.00148
 154        6D 0       -0.00003  -0.00001   0.01677  -0.00215  -0.00031
 155        6D+1        0.00002  -0.00001   0.01521  -0.00059  -0.00029
 156        6D-1        0.00002   0.00002   0.04711   0.00058  -0.00127
 157        6D+2        0.00002   0.00004  -0.01821  -0.00149   0.00002
 158        6D-2       -0.00003   0.00000   0.01379   0.00024  -0.00024
 159 14  O  1S         -0.00000  -0.00000  -0.07404   0.08019   0.00110
 160        2S         -0.00001  -0.00001  -0.11777   0.12849   0.00179
 161        2PX         0.00000   0.00000   0.01312  -0.01349  -0.00025
 162        2PY         0.00001  -0.00000   0.03785  -0.03780  -0.00169
 163        2PZ        -0.00001   0.00001   0.04520  -0.04659   0.00006
 164        3S          0.00006   0.00014   0.33292  -0.36931  -0.00574
 165        3PX        -0.00001  -0.00001   0.01646  -0.02076  -0.00021
 166        3PY        -0.00004  -0.00001   0.04841  -0.05804  -0.00217
 167        3PZ         0.00003  -0.00001   0.05630  -0.07164   0.00018
 168        4S         -0.00024  -0.00079   0.20264  -0.28288  -0.00059
 169        4PX        -0.00004  -0.00001   0.00480  -0.00856  -0.00013
 170        4PY        -0.00006  -0.00008   0.01489  -0.02358  -0.00125
 171        4PZ        -0.00025  -0.00026   0.01742  -0.03004   0.00243
 172        5S         -0.00189  -0.00071  -0.03988  -0.02801   0.00951
 173        5PX        -0.00017  -0.00030  -0.00179  -0.00357   0.00165
 174        5PY        -0.00002  -0.00026  -0.00496  -0.00963   0.00149
 175        5PZ        -0.00069   0.00006  -0.00836  -0.01155   0.00118
 176        6D 0       -0.00002   0.00000   0.00303  -0.00640   0.00018
 177        6D+1        0.00000  -0.00001   0.00270  -0.00498   0.00002
 178        6D-1       -0.00000  -0.00001   0.00841  -0.01391  -0.00025
 179        6D+2        0.00001   0.00002  -0.00320   0.00468   0.00004
 180        6D-2       -0.00001  -0.00000   0.00246  -0.00402  -0.00004
 181 15  O  1S          0.00000   0.00000  -0.07343  -0.08077   0.00066
 182        2S          0.00001   0.00001  -0.11678  -0.12942   0.00105
 183        2PX        -0.00000   0.00000  -0.01258  -0.01286   0.00016
 184        2PY         0.00001   0.00000  -0.04029  -0.04236  -0.00032
 185        2PZ         0.00001   0.00000  -0.04259  -0.04343   0.00083
 186        3S         -0.00009  -0.00014   0.33003   0.37206  -0.00286
 187        3PX         0.00001  -0.00001  -0.01586  -0.01974   0.00018
 188        3PY        -0.00003  -0.00001  -0.04990  -0.06507  -0.00053
 189        3PZ        -0.00003  -0.00002  -0.05414  -0.06657   0.00106
 190        4S          0.00057   0.00100   0.20175   0.28403  -0.00441
 191        4PX        -0.00007  -0.00004  -0.00531  -0.00802   0.00024
 192        4PY        -0.00005  -0.00028  -0.01555  -0.02695  -0.00065
 193        4PZ         0.00006  -0.00014  -0.01715  -0.02731   0.00046
 194        5S         -0.00090  -0.00013  -0.03572   0.02772   0.00549
 195        5PX         0.00002   0.00003   0.00252  -0.00325  -0.00101
 196        5PY         0.00028   0.00041   0.00686  -0.01060  -0.00246
 197        5PZ        -0.00013  -0.00006   0.00476  -0.01070   0.00065
 198        6D 0       -0.00000   0.00000   0.00293   0.00380  -0.00014
 199        6D+1        0.00000   0.00000   0.00267   0.00424  -0.00002
 200        6D-1        0.00001   0.00002   0.00834   0.01445  -0.00004
 201        6D+2        0.00000  -0.00000  -0.00318  -0.00639  -0.00014
 202        6D-2        0.00000   0.00000   0.00243   0.00428   0.00001
                          11        12        13        14        15
                           O         O         O         O         O
     Eigenvalues --    -0.87354  -0.70551  -0.60850  -0.56214  -0.52109
   1 1   N  1S         -0.07706   0.04359  -0.01428  -0.00012   0.00017
   2        2S         -0.12108   0.06891  -0.02257  -0.00018   0.00027
   3        2PX         0.02751   0.01437  -0.01825  -0.00028   0.00114
   4        2PY        -0.00770   0.04327  -0.06787  -0.00223  -0.01301
   5        2PZ        -0.00536   0.01824  -0.03033  -0.00002   0.01909
   6        3S          0.33249  -0.19408   0.06261   0.00027  -0.00092
   7        3PX         0.04408   0.02081  -0.02762  -0.00060   0.00161
   8        3PY        -0.00928   0.06370  -0.10063  -0.00345  -0.01913
   9        3PZ        -0.00725   0.02686  -0.04501  -0.00008   0.02784
  10        4S          0.23259  -0.15070   0.05345   0.00277  -0.00051
  11        4PX         0.02034   0.01142  -0.01275   0.00125   0.00152
  12        4PY        -0.00050   0.02860  -0.05791  -0.00045  -0.01144
  13        4PZ        -0.00226   0.01208  -0.02534  -0.00012   0.01617
  14        5S         -0.02287  -0.04972   0.05875   0.00925   0.00158
  15        5PX        -0.00521  -0.01390   0.01337  -0.00003   0.00131
  16        5PY        -0.00856   0.00614  -0.00313  -0.00226   0.00074
  17        5PZ        -0.00269   0.00580  -0.00164   0.00289  -0.00129
  18        6D 0        0.00115  -0.00529   0.00422   0.00005  -0.00095
  19        6D+1        0.00177   0.00107  -0.00313   0.00000   0.00175
  20        6D-1       -0.00019   0.00144  -0.00235  -0.00005  -0.00089
  21        6D+2       -0.00226   0.00579  -0.00172   0.00000  -0.00023
  22        6D-2        0.00338   0.00480  -0.00811  -0.00021  -0.00133
  23 2   C  1S         -0.02934  -0.06585   0.06175   0.00099   0.00089
  24        2S         -0.04528  -0.10228   0.09643   0.00156   0.00139
  25        2PX        -0.03216   0.04430   0.04358   0.00220   0.00691
  26        2PY        -0.02272   0.01330  -0.04163  -0.00145  -0.01046
  27        2PZ        -0.00820   0.00240  -0.02494   0.00032   0.01734
  28        3S          0.11939   0.27370  -0.26324  -0.00480  -0.00365
  29        3PX        -0.05231   0.06789   0.06916   0.00332   0.01071
  30        3PY        -0.03884   0.01394  -0.05564  -0.00193  -0.01508
  31        3PZ        -0.01393   0.00112  -0.03466   0.00013   0.02524
  32        4S          0.03530   0.17672  -0.18361   0.00163  -0.00330
  33        4PX        -0.01159   0.02506   0.01994   0.00725   0.00418
  34        4PY        -0.00623   0.00265  -0.02911   0.00190  -0.00869
  35        4PZ         0.00047  -0.00143  -0.01865   0.00253   0.01818
  36        5S          0.09457   0.00205  -0.12257   0.04356   0.00989
  37        5PX         0.00803   0.00498  -0.02668   0.01735   0.00067
  38        5PY        -0.01340   0.01002   0.00688   0.00964  -0.00182
  39        5PZ        -0.00770  -0.00015   0.00386  -0.00407   0.00248
  40        6D 0       -0.00365   0.00008  -0.00547  -0.00009  -0.00034
  41        6D+1        0.00476  -0.00496  -0.00443  -0.00028  -0.00084
  42        6D-1        0.00433  -0.00129   0.00375   0.00000   0.00015
  43        6D+2       -0.00349   0.00457   0.00362   0.00016   0.00023
  44        6D-2        0.01147  -0.01014  -0.00635  -0.00028  -0.00026
  45 3   C  1S          0.02705  -0.06503  -0.06432  -0.00209  -0.00267
  46        2S          0.04172  -0.10105  -0.10045  -0.00330  -0.00423
  47        2PX        -0.03286  -0.04481   0.03218  -0.00011  -0.00306
  48        2PY        -0.02141  -0.00536  -0.03802  -0.00126  -0.00796
  49        2PZ        -0.00869  -0.00356  -0.02913   0.00102   0.01846
  50        3S         -0.10992   0.27130   0.27378   0.00940   0.01211
  51        3PX        -0.05356  -0.06908   0.05136  -0.00013  -0.00436
  52        3PY        -0.03550  -0.00189  -0.05056  -0.00110  -0.01053
  53        3PZ        -0.01508  -0.00235  -0.04069   0.00054   0.02665
  54        4S         -0.03562   0.16693   0.19458   0.00538   0.01154
  55        4PX        -0.01526  -0.01638   0.01969   0.00201  -0.00334
  56        4PY        -0.00184  -0.00297  -0.03372  -0.00504  -0.01058
  57        4PZ        -0.00482   0.00139  -0.02089   0.00063   0.01658
  58        5S         -0.09718   0.03799   0.12586  -0.04153  -0.01851
  59        5PX         0.01173  -0.00844  -0.01202   0.00684   0.00430
  60        5PY        -0.01363  -0.00571   0.01370  -0.01095  -0.00666
  61        5PZ        -0.00491   0.00332   0.00772   0.00420   0.00119
  62        6D 0        0.00317  -0.00061   0.00486  -0.00018  -0.00019
  63        6D+1       -0.00521  -0.00574   0.00155  -0.00014  -0.00004
  64        6D-1       -0.00486  -0.00053  -0.00393  -0.00032   0.00033
  65        6D+2        0.00230   0.00226  -0.00493  -0.00029  -0.00078
  66        6D-2       -0.01097  -0.00961   0.00540   0.00013  -0.00032
  67 4   H  1S          0.01330   0.05147  -0.07670  -0.00098   0.00957
  68        2S          0.01760   0.05955  -0.09519  -0.00282   0.01085
  69        3S         -0.00519   0.00258  -0.00841  -0.00305  -0.00012
  70        4PX        -0.00125   0.00279   0.00045  -0.00004   0.00076
  71        4PY        -0.00162  -0.00129   0.00025  -0.00013  -0.00081
  72        4PZ        -0.00406  -0.00959   0.01202   0.00034  -0.00057
  73 5   H  1S          0.01345   0.05219  -0.07293  -0.00214  -0.01489
  74        2S          0.01930   0.06063  -0.09027  -0.00216  -0.01813
  75        3S         -0.00380   0.00144  -0.00931  -0.00240  -0.00337
  76        4PX        -0.00072   0.00391  -0.00013   0.00002  -0.00044
  77        4PY        -0.00433  -0.00795   0.00871   0.00049   0.00136
  78        4PZ         0.00161   0.00515  -0.00777  -0.00015  -0.00000
  79 6   N  1S          0.07577   0.04082   0.01927   0.00072   0.00114
  80        2S          0.11906   0.06454   0.03054   0.00113   0.00181
  81        2PX        -0.00431  -0.04939  -0.03371  -0.00252  -0.00854
  82        2PY         0.02561  -0.00873  -0.03796   0.00079  -0.00006
  83        2PZ        -0.01161  -0.02495  -0.04652  -0.00306   0.01814
  84        3S         -0.32675  -0.18173  -0.08613  -0.00294  -0.00496
  85        3PX        -0.00451  -0.07289  -0.05027  -0.00401  -0.01240
  86        3PY         0.04113  -0.01302  -0.05657   0.00201  -0.00048
  87        3PZ        -0.01667  -0.03676  -0.06840  -0.00490   0.02653
  88        4S         -0.22947  -0.14168  -0.07068  -0.00075  -0.00541
  89        4PX         0.00347  -0.03526  -0.02319  -0.00511  -0.00865
  90        4PY         0.01706  -0.00526  -0.03576   0.00003  -0.00075
  91        4PZ        -0.00336  -0.01602  -0.03769  -0.00184   0.01955
  92        5S          0.02788  -0.06170  -0.03529  -0.00842   0.01076
  93        5PX        -0.01153   0.00826  -0.00680   0.00980  -0.00366
  94        5PY        -0.00555   0.00657   0.00772   0.00239  -0.00005
  95        5PZ        -0.00437  -0.00985  -0.00449  -0.00944   0.00001
  96        6D 0       -0.00021  -0.00428  -0.00624  -0.00030   0.00123
  97        6D+1        0.00036   0.00156   0.00171   0.00011  -0.00046
  98        6D-1       -0.00305  -0.00008   0.00256  -0.00024  -0.00109
  99        6D+2       -0.00212  -0.00270  -0.00629  -0.00042  -0.00076
 100        6D-2       -0.00195   0.00701   0.00569   0.00037   0.00120
 101 7   H  1S         -0.01228   0.05009   0.07982   0.00050  -0.01106
 102        2S         -0.01846   0.05951   0.09707  -0.00074  -0.01512
 103        3S          0.00467   0.00111   0.00123   0.00237  -0.00301
 104        4PX        -0.00105  -0.00316  -0.00019  -0.00011   0.00009
 105        4PY        -0.00153   0.00137  -0.00007  -0.00055  -0.00135
 106        4PZ        -0.00394   0.00954   0.01209   0.00046  -0.00041
 107 8   H  1S         -0.01200   0.04738   0.07162   0.00296   0.01338
 108        2S         -0.01498   0.05494   0.08681   0.00335   0.01548
 109        3S          0.00585  -0.00160   0.00202  -0.00021   0.00024
 110        4PX        -0.00081  -0.00343  -0.00093  -0.00011  -0.00069
 111        4PY        -0.00383   0.00788   0.00878   0.00046   0.00147
 112        4PZ         0.00136  -0.00441  -0.00710  -0.00009  -0.00004
 113 9   H  1S         -0.06080  -0.05859  -0.02479  -0.00231  -0.01093
 114        2S         -0.05837  -0.06291  -0.03307   0.00037  -0.01293
 115        3S          0.00447   0.00525   0.00099  -0.00217  -0.00297
 116        4PX         0.01275   0.00851   0.00201  -0.00023   0.00123
 117        4PY        -0.00249  -0.00393  -0.00444   0.00044  -0.00052
 118        4PZ        -0.00402  -0.00470  -0.00453  -0.00048   0.00062
 119 10  H  1S          0.06094  -0.05352   0.04305   0.00150   0.01608
 120        2S          0.05831  -0.06064   0.04899   0.00241   0.02076
 121        3S         -0.00608   0.01082  -0.00612  -0.00329   0.00554
 122        4PX        -0.00018   0.00238  -0.00154  -0.00008   0.00008
 123        4PY         0.01183  -0.00737   0.00262   0.00010   0.00207
 124        4PZ        -0.00702   0.00698  -0.00623  -0.00016  -0.00022
 125 11  H  1S          0.06101  -0.05333   0.04435   0.00047  -0.01276
 126        2S          0.05774  -0.06088   0.05084  -0.00023  -0.01714
 127        3S         -0.00491   0.01391  -0.00504   0.00217  -0.00425
 128        4PX         0.00126   0.00119  -0.00070  -0.00003  -0.00018
 129        4PY         0.00266   0.00042  -0.00278  -0.00020  -0.00161
 130        4PZ         0.01338  -0.01030   0.00642   0.00006  -0.00128
 131 12  H  1S         -0.06004  -0.05016  -0.05468  -0.00292   0.01311
 132        2S         -0.05785  -0.05688  -0.06484  -0.00450   0.01456
 133        3S          0.00359   0.01668  -0.00635   0.01100   0.00268
 134        4PX        -0.00045  -0.00343  -0.00202  -0.00014  -0.00070
 135        4PY         0.00370   0.00119  -0.00032   0.00028  -0.00078
 136        4PZ         0.01310   0.00927   0.00780   0.00022  -0.00109
 137 13  C  1S         -0.00052   0.00048   0.00158  -0.07594   0.00082
 138        2S         -0.00079   0.00078   0.00249  -0.12048   0.00133
 139        2PX        -0.00037  -0.00118   0.00140  -0.00070  -0.03306
 140        2PY         0.00123   0.00158   0.00339   0.00236  -0.08955
 141        2PZ        -0.00139   0.00057  -0.00098  -0.00291  -0.13598
 142        3S          0.00239  -0.00264  -0.00696   0.37440  -0.00406
 143        3PX        -0.00054  -0.00186   0.00222  -0.00121  -0.04231
 144        3PY         0.00227   0.00234   0.00517   0.00479  -0.11191
 145        3PZ        -0.00214   0.00109  -0.00163  -0.00546  -0.17884
 146        4S          0.00297  -0.00333  -0.00775   0.25840  -0.00496
 147        4PX        -0.00047  -0.00115   0.00128  -0.00169  -0.01307
 148        4PY         0.00143   0.00227   0.00408  -0.00116  -0.03283
 149        4PZ        -0.00076   0.00118  -0.00121  -0.00434  -0.06316
 150        5S          0.00394  -0.00783  -0.00120  -0.01740  -0.00127
 151        5PX         0.00087   0.00028  -0.00027   0.00263   0.00219
 152        5PY        -0.00044   0.00319   0.00194   0.00865   0.00894
 153        5PZ         0.00127  -0.00135   0.00043  -0.00973   0.00197
 154        6D 0        0.00024  -0.00029  -0.00043   0.00597   0.00077
 155        6D+1        0.00014  -0.00033  -0.00010   0.00535   0.00005
 156        6D-1        0.00114  -0.00001   0.00019   0.01723  -0.00089
 157        6D+2        0.00002   0.00002  -0.00024  -0.00635   0.00037
 158        6D-2        0.00033   0.00046  -0.00017   0.00505  -0.00027
 159 14  O  1S         -0.00091  -0.00021  -0.00149   0.05058   0.03628
 160        2S         -0.00147  -0.00032  -0.00242   0.08239   0.05866
 161        2PX        -0.00007  -0.00175   0.00032   0.03430   0.04218
 162        2PY         0.00142  -0.00140  -0.00254   0.09809   0.12401
 163        2PZ        -0.00021  -0.00053  -0.00422   0.11781   0.12428
 164        3S          0.00447   0.00047   0.00710  -0.25153  -0.17504
 165        3PX        -0.00013  -0.00238   0.00044   0.04668   0.05984
 166        3PY         0.00187  -0.00178  -0.00337   0.13357   0.17620
 167        3PZ        -0.00051  -0.00085  -0.00581   0.16044   0.17513
 168        4S          0.00259   0.00428   0.01140  -0.32317  -0.26116
 169        4PX        -0.00033  -0.00198   0.00122   0.02786   0.03576
 170        4PY         0.00139  -0.00144  -0.00240   0.08003   0.10618
 171        4PZ        -0.00097   0.00165  -0.00290   0.09453   0.09880
 172        5S         -0.00229   0.00444  -0.00032  -0.05414  -0.05982
 173        5PX         0.00012   0.00060  -0.00104  -0.00024   0.00026
 174        5PY        -0.00055  -0.00064  -0.00076  -0.00388  -0.00009
 175        5PZ        -0.00142  -0.00030  -0.00142   0.00466   0.00693
 176        6D 0       -0.00018  -0.00002  -0.00044   0.00402   0.00451
 177        6D+1       -0.00007  -0.00027   0.00001   0.00345   0.00532
 178        6D-1        0.00023  -0.00014  -0.00039   0.01003   0.01561
 179        6D+2       -0.00006  -0.00007  -0.00010  -0.00387  -0.00653
 180        6D-2        0.00006  -0.00003   0.00001   0.00293   0.00503
 181 15  O  1S         -0.00071  -0.00049  -0.00128   0.05027  -0.03730
 182        2S         -0.00114  -0.00081  -0.00210   0.08191  -0.06036
 183        2PX        -0.00025  -0.00091   0.00077  -0.03255   0.03856
 184        2PY         0.00041   0.00073   0.00323  -0.10511   0.14063
 185        2PZ        -0.00092  -0.00066  -0.00152  -0.10991   0.11028
 186        3S          0.00346   0.00281   0.00673  -0.25035   0.18088
 187        3PX        -0.00034  -0.00125   0.00105  -0.04441   0.05450
 188        3PY         0.00068   0.00115   0.00456  -0.14312   0.19990
 189        3PZ        -0.00115  -0.00096  -0.00232  -0.14956   0.15437
 190        4S          0.00185  -0.00033   0.00530  -0.31768   0.26523
 191        4PX         0.00002  -0.00107   0.00092  -0.02619   0.03187
 192        4PY         0.00128   0.00104   0.00403  -0.08512   0.12067
 193        4PZ        -0.00042  -0.00070  -0.00163  -0.09013   0.08566
 194        5S         -0.00305   0.00546   0.00009  -0.04533   0.06625
 195        5PX         0.00018   0.00036  -0.00030  -0.00210   0.00055
 196        5PY         0.00049  -0.00299  -0.00139  -0.00688   0.00224
 197        5PZ         0.00043   0.00081  -0.00054   0.00079   0.00461
 198        6D 0        0.00015   0.00009   0.00037   0.00334  -0.00156
 199        6D+1        0.00003   0.00011  -0.00003   0.00322  -0.00436
 200        6D-1        0.00005   0.00008   0.00005   0.01001  -0.01554
 201        6D+2        0.00016   0.00012   0.00026  -0.00424   0.00846
 202        6D-2        0.00000   0.00014  -0.00013   0.00296  -0.00519
                          16        17        18        19        20
                           O         O         O         O         O
     Eigenvalues --    -0.51604  -0.51272  -0.50574  -0.49018  -0.45984
   1 1   N  1S          0.00053   0.00070  -0.00008   0.00080  -0.00555
   2        2S          0.00087   0.00111  -0.00010   0.00116  -0.00883
   3        2PX         0.00491   0.00509   0.00011   0.03253  -0.04717
   4        2PY        -0.03749   0.01151  -0.07040   0.02570  -0.07773
   5        2PZ         0.06772   0.00280   0.09875   0.11025   0.05022
   6        3S         -0.00306  -0.00308  -0.00032  -0.00105   0.02499
   7        3PX         0.00695   0.00755  -0.00015   0.04831  -0.06967
   8        3PY        -0.05513   0.01662  -0.10288   0.03891  -0.11269
   9        3PZ         0.09872   0.00423   0.14343   0.16083   0.07281
  10        4S          0.00071  -0.00332   0.00144  -0.01333   0.02501
  11        4PX         0.00714   0.00456   0.00120   0.02474  -0.05128
  12        4PY        -0.03128   0.01134  -0.06285   0.02285  -0.07091
  13        4PZ         0.05774   0.00125   0.08782   0.09759   0.04882
  14        5S          0.00274  -0.01203   0.02432  -0.04918   0.04799
  15        5PX        -0.00190  -0.00060   0.00622  -0.00814   0.01145
  16        5PY         0.00184   0.00025  -0.00108   0.00316  -0.01237
  17        5PZ        -0.00120   0.00014  -0.00271   0.00665  -0.00043
  18        6D 0       -0.00356  -0.00060  -0.00501  -0.00892  -0.00004
  19        6D+1        0.00604   0.00018   0.00820   0.00813   0.00299
  20        6D-1       -0.00300   0.00033  -0.00542  -0.00321  -0.00476
  21        6D+2       -0.00093   0.00074  -0.00296   0.00091  -0.01036
  22        6D-2       -0.00370   0.00123  -0.00684   0.00287  -0.00625
  23 2   C  1S          0.00125  -0.00328   0.00541  -0.00858   0.00166
  24        2S          0.00194  -0.00519   0.00856  -0.01356   0.00267
  25        2PX         0.01419  -0.00835   0.02776  -0.06146   0.01605
  26        2PY        -0.03076  -0.00335  -0.03119  -0.03621   0.07450
  27        2PZ         0.05635  -0.00199   0.07199   0.03234   0.03178
  28        3S         -0.00435   0.01473  -0.02420   0.03738  -0.00955
  29        3PX         0.02122  -0.01210   0.04069  -0.09072   0.02488
[...]
   x          0.573412D+03      0.495384D+01      0.183857D+01
   y         -0.593985D+02     -0.513157D+00     -0.190453D+00
   z         -0.559861D+03     -0.483676D+01     -0.179512D+01
   ||         0.160720D+03      0.138850D+01      0.515327D+00
   xxx        0.818091D+02      0.706767D+00      0.262309D+00
   xxy       -0.128720D+02     -0.111204D+00     -0.412724D-01
   yxy        0.369456D+01      0.319181D-01      0.118461D-01
   yyy        0.975040D+01      0.842359D-01      0.312633D-01
   xxz       -0.930770D+02     -0.804113D+00     -0.298439D+00
   yxz        0.177759D+01      0.153570D-01      0.569961D-02
   yyz        0.171773D+02      0.148398D+00      0.550765D-01
   zxz        0.105634D+03      0.912594D+00      0.338700D+00
   zyz       -0.166779D+02     -0.144084D+00     -0.534753D-01
   zzz       -0.110721D+03     -0.956539D+00     -0.355010D+00

 ----------------------------------------------------------------------
 Unable to Open any file for archive entry.
 1\1\GINC-NODE1941\Freq\RB3LYP\6-311+G(d,p)\C3H8N2O2\SVICCHI\02-Jun-202
 3\0\\#p freq=raman scale=0.967 pop=(nbo,full,hirshfeld) guess=read geo
 m=allcheck b3lyp/6-311+G(d,p) int=grid=ultrafine EmpiricalDispersion=G
 D3BJ SCRF=(Solvent=ethanol) scf=(xqc,intrep,maxconventionalcycle=350) 
 nosymm\\EDA-CO2_binding_direct-site_index-5.gjf\\0,1\N,1.947243164,-0.
 8293093888,0.0575468217\C,3.0031878237,0.1260142597,0.4109036449\C,4.4
 28970358,-0.3431604598,0.1086808884\H,2.9159102968,0.3486284037,1.4800
 631084\H,2.8137348358,1.0619847025,-0.121822347\N,5.4037861807,0.68747
 86679,0.492766063\H,4.5275550412,-0.5159549457,-0.9674677983\H,4.59800
 83852,-1.3081484555,0.6102044419\H,6.3454280963,0.3867101268,0.2605312
 494\H,2.0880862805,-1.7081231161,0.5479336894\H,1.9869205906,-1.044743
 2827,-0.9347958597\H,5.3897100592,0.8276056277,1.4994002645\C,5.024350
 0632,2.8887471074,-1.1922852474\O,4.7696651682,2.1709735378,-2.0698243
 315\O,5.2659236565,3.6804922154,-0.3772195879\\Version=ES64L-G16RevC.0
 1\HF=-379.2622784\RMSD=3.678e-09\RMSF=1.314e-06\ZeroPoint=0.1187758\Th
 ermal=0.1286362\ETot=-379.1336422\HTot=-379.132698\GTot=-379.1807772\D
 ipole=0.8277543,-1.0136599,0.2802302\DipoleDeriv=-0.9672931,-0.0958876
 ,0.0016978,-0.1493096,-0.4822185,-0.0735205,-0.0139167,-0.0747896,-0.3
 414273,0.5234405,0.0794339,0.0142197,0.2887666,0.455114,0.0575192,0.10
 32176,0.0893627,0.3272248,0.3380237,0.2351855,0.0751033,0.1642878,0.48
 77494,-0.0392324,0.1335772,0.0267781,0.3093946,-0.0031806,-0.0264936,-
 0.0016808,-0.0044196,0.0366503,-0.0524327,0.0035313,-0.0998338,-0.2088
 515,0.0103514,0.0166392,-0.0221921,0.0254592,-0.173619,0.0808447,-0.01
 76604,0.1243884,0.0096237,-0.6463221,-0.1762757,-0.0767856,-0.1798105,
 -0.784235,0.121998,-0.0699021,0.1135402,-0.3897457,0.0160026,-0.011808
 9,0.0050771,-0.0240947,0.0405898,-0.0315082,0.0184926,-0.0806959,-0.18
 80497,-0.0309721,-0.0434203,-0.0139168,-0.0324573,-0.3144415,0.090735,
 -0.0208887,0.1447956,0.0021487,0.0216497,0.0169385,-0.0068215,0.088679
 ,0.2196929,-0.0859777,-0.0473265,-0.0857852,0.2334303,0.2824773,0.0963
 992,-0.1239561,-0.0206433,0.0305124,0.0528204,-0.1027144,0.0388907,0.1
 923538,0.3077784,-0.029544,0.1274266,-0.0884295,0.1600664,-0.0639609,0
 .0280019,-0.0635089,0.0358053,0.1862033,-0.049319,0.0151086,-0.0553448
 ,0.2656311,0.0407939,-0.0161147,-0.035588,0.015123,0.7262029,0.3252207
 ,0.404376,0.3510099,2.0676178,0.8910809,0.3974209,0.9055692,2.0890036,
 -0.3873651,-0.1529463,-0.220388,-0.1732036,-0.8775652,-0.4988067,-0.21
 49704,-0.4419828,-1.1544319,-0.3769968,-0.1841215,-0.1772684,-0.190489
 5,-1.1315449,-0.490353,-0.1807476,-0.5611407,-0.9316018\Polar=71.52534
 65,5.5454773,80.2694708,3.8174164,7.6670556,74.6519761\PolarDeriv=-5.5
 171586,-3.9694552,-0.1345145,-1.6074775,0.707071,-0.6971672,-4.2550683
 ,-2.3191478,7.2571065,0.876018,-2.1442089,3.7501861,-1.8534456,1.08574
 01,-2.1327305,-2.363313,3.7818171,7.5391729,-4.2819594,1.9569864,0.970
 7765,1.2405141,0.1628107,0.5240714,5.3979729,3.0589471,-10.2490583,-0.
 3369527,3.1468568,-4.2692926,2.915383,-0.464006,4.6953691,1.580052,-6.
 235577,-10.6648068,2.5652911,-2.6857853,-1.7249026,-2.1473749,1.054183
 1,-1.444976,-4.7521659,-2.0041865,15.3263708,-0.9015213,-4.7728724,2.6
 811983,-2.0268957,-0.391767,-7.6150497,-1.4714392,6.5470367,10.1718162
 ,0.0739664,0.2454674,-0.3629395,2.0104975,0.1744371,-0.3236232,-0.8737
 372,-0.72098,1.6001274,-0.1312102,1.8056742,1.4065613,2.1915921,0.2227
 72,1.9192727,-1.225936,3.3662454,12.175241,-0.4876589,1.8449289,-0.490
 8379,-1.345322,-0.0097549,-0.5159879,1.5158722,-1.477911,10.3456912,0.
 3793886,-3.0841787,2.0031744,-2.2572751,0.2836993,-5.1474029,-0.743583
 4,3.3519934,-1.8466741,-4.1266683,4.0014735,-0.5844822,1.6465397,-0.70
 98548,-0.1701205,6.6150391,2.2310114,-1.6286495,-0.5537728,1.9829039,-
 0.8074481,1.4307418,-1.1678233,-0.4593111,-0.2054992,-0.4533088,-8.992
 4558,0.109744,0.0230941,0.9614149,-1.75414,-0.5570144,0.5000786,0.7025
 685,0.9255846,-1.6167103,0.1809334,-1.6643604,-1.3244604,-2.1861296,-0
 .0341689,-1.3706359,1.472914,-2.9415817,-11.4712298,-0.2673536,-2.0983
 124,0.8652874,1.2402342,-0.507218,0.6225132,-1.3993739,0.4672355,-14.0
 163686,-0.268317,2.9613385,-1.3558013,2.1821403,0.1669511,6.0684832,0.
 5964954,-3.7866909,1.4377186,14.0598203,-1.0322893,1.4588353,-0.614832
 7,0.2806259,1.4849137,-2.3833444,0.8752771,1.1016061,0.6701305,-0.9605
 801,-0.3569474,-2.6294134,0.7892408,-2.1317457,1.2493576,0.415157,-0.6
 077614,-0.8062986,0.3066324,-0.1753458,0.6482964,-0.2870951,0.7379444,
 -0.7988152,-0.6259597,-9.5434492,-0.0427341,2.8203711,-2.0118206,1.388
 1338,-0.4737063,4.8765599,0.1623234,-2.3615488,2.4626719,-1.0608551,0.
 5702578,-0.3899136,-0.1338425,-0.7313973,-0.6198907,0.3866507,-0.54283
 79,-0.8313412,-0.722018,-1.6161027,-1.3541342,-1.4765696,-0.597918,-2.
 8143982,-0.8392188,-3.1100345,-10.7145164,-0.0212138,0.1423952,-0.5853
 51,1.2443281,0.4875076,-0.2658635,-0.0137565,0.0703591,2.4686234,0.774
 4313,-0.5513,2.597706,2.2305361,0.554653,1.651755,1.8232206,2.3214606,
 11.1351508,-0.2260025,0.0028075,0.885483,-0.2855633,-1.0781357,1.34549
 9,0.8788376,-0.2126623,-11.3831086,-0.0374438,6.8853765,-3.0238597,-0.
 0560414,-0.4529626,7.1741211,0.4562509,-6.4972218,5.3961755,-2.6319167
 ,-2.6196352,-2.6883227,-3.3357763,1.0718194,-2.158503,-2.7035477,-1.27
 77977,-8.0549704,-0.2255702,-3.8875882,-3.453484,-2.2605535,0.0178016,
 -9.5334744,-1.617279,1.8131113,-15.0128546,2.6182636,3.3114343,1.99481
 27,3.1939193,-0.0579844,0.9811115,1.6828681,1.5530681,19.2241306,0.338
 6385,-0.9213296,5.5184222,2.4077968,0.4614942,4.8191875,1.1256546,3.78
 9142,8.992352\HyperPolar=-4.0705387,-0.969441,0.1220878,127.0378729,3.
 7528939,11.3988547,-117.3090111,11.5396522,78.9010382,-58.7302395\Quad
 rupole=6.9602418,-5.3825032,-1.5777386,-8.9224208,3.6870249,-0.4263842
 \PG=C01 [X(C3H8N2O2)]\NImag=0\\0.22427001,0.06833298,0.55377136,0.0613
 9663,-0.05989635,0.64600639,-0.13292639,-0.08958162,-0.03826363,0.4363
 7453,-0.04183715,-0.13333078,-0.01080357,-0.01484250,0.55496956,-0.017
 16847,-0.00725140,-0.10435835,0.00608671,-0.03092510,0.60250100,-0.027
 86765,-0.00321604,-0.00008449,-0.15182102,0.04669852,0.02630075,0.4530
 8215,-0.03210333,0.00120631,0.00268090,0.04371168,-0.09646446,-0.00939
 579,-0.02059403,0.52195674,-0.01214999,0.00113824,0.00182023,0.0222436
 9,-0.01072838,-0.08820692,-0.00956728,-0.01221087,0.59617822,-0.002850
 85,-0.00731878,-0.02981271,-0.04984628,0.00564861,0.02655054,-0.005681
 46,0.00579648,0.03227200,0.06172238,-0.00468063,-0.00639847,-0.0259695
 5,0.00576166,-0.05796422,-0.03820471,0.00303930,-0.00213974,-0.0130222
 3,-0.00093460,0.06195074,-0.00372327,-0.00374332,-0.00778252,0.0216057
 2,-0.04324039,-0.28847517,0.00079356,-0.00132967,-0.00808720,-0.021996
 15,0.05271701,0.31368656,0.00033379,-0.02688428,0.01479399,-0.05616874
 ,0.04365551,-0.02624407,-0.00839135,0.02769060,-0.01574182,0.00043621,
 -0.00209652,0.00144145,0.06743056,-0.00331991,-0.02268485,0.01119929,0
 .04053607,-0.22652813,0.10592044,0.00374756,-0.01174230,0.00637997,-0.
 00086654,0.00649063,-0.00219478,-0.03872093,0.25489543,0.00054706,-0.0
 0925254,0.00625541,-0.02376333,0.11135427,-0.11765333,0.00328180,-0.00
 646190,0.00386595,-0.00555909,0.02621481,-0.01511896,0.02563721,-0.118
 04553,0.11935045,-0.01103526,-0.00004538,0.00138120,-0.02655311,-0.030
 23872,-0.01219528,-0.13438653,-0.07346965,-0.00102973,0.00235127,-0.00
 057196,0.00010874,0.00248671,-0.00060966,-0.00056199,0.59672035,0.0021
 8577,0.00140030,0.00018413,-0.00085355,0.00529856,0.00095687,-0.040151
 16,-0.13642726,-0.02061996,0.00059943,0.00030859,0.00054304,-0.0003293
 0,0.00157076,-0.00013887,-0.00753906,0.25998722,0.00313939,0.00005951,
 0.00109399,0.00312590,0.00581108,0.00211526,-0.01422930,-0.04644555,-0
 .09559366,0.00014804,0.00061662,0.00113141,0.00015460,0.00000995,0.000
 02628,-0.06415357,0.14329838,0.57633125,0.00293507,0.00064844,-0.00040
 448,-0.00549722,0.00512195,0.03268924,-0.05011306,0.00476893,0.0279777
 3,-0.00572479,0.00187328,0.00118798,0.00149300,-0.00047050,-0.00067005
 ,0.00002649,-0.00904765,-0.02716774,0.05883214,-0.00068279,0.00013276,
 0.00096869,0.00212925,-0.00249537,-0.01201615,0.00285785,-0.05350920,-
 0.02710062,0.00182202,0.00002127,-0.00083727,-0.00054523,0.00037148,-0
 .00035217,-0.00004962,-0.00777617,-0.02731749,0.00026895,0.06054441,0.
 00024214,0.00074424,0.00177802,0.00064267,-0.00138256,-0.00733688,0.02
 365040,-0.03404793,-0.29509440,0.00100496,-0.00071356,0.00124335,0.000
 23014,-0.00024135,0.00093698,-0.00193357,-0.00507241,-0.00850226,-0.02
 461752,0.04117034,0.32071767,0.00280179,0.00032993,0.00039210,-0.00843
 407,0.02801335,-0.01584143,-0.05635929,0.03783269,-0.02002219,0.001486
 88,-0.00074843,0.00028762,-0.00566681,0.00206884,0.00132721,-0.0013511
 6,-0.02964447,0.00887529,0.00138353,-0.00273625,0.00211824,0.06486857,
 -0.00024170,0.00225718,-0.00065588,0.00232979,-0.01168275,0.00686451,0
 .03970808,-0.21703435,0.09674674,-0.00028414,0.00037755,-0.00038980,0.
 00167014,-0.00030660,-0.00098550,-0.00849129,-0.02790009,0.00513148,0.
 00006220,0.00406259,-0.00057277,-0.03560210,0.24730456,-0.00083844,-0.
 00070315,0.00000073,0.00339645,-0.00599415,0.00329411,-0.02052929,0.09
 692669,-0.10908383,-0.00075986,-0.00013807,0.00095274,0.00126722,-0.00
 078085,0.00113703,0.00033399,-0.01138915,0.00799213,-0.00640595,0.0270
 5465,-0.01522499,0.02210466,-0.10519300,0.10940912,-0.00194923,0.00018
 497,0.00029626,-0.00034798,-0.00527150,-0.00257557,-0.02208449,0.01134
 083,0.00466999,0.00037910,-0.00002278,0.00012452,0.00036078,0.00007033
 ,-0.00011357,-0.36903905,0.09295296,0.08813774,0.00076030,0.00038508,-
 0.00033315,0.00141468,0.00017689,0.00088975,0.39121892,-0.00205947,0.0
 0019276,-0.00029036,-0.00028821,-0.00360978,-0.00144817,-0.03150633,0.
 00365880,0.00829715,0.00004894,-0.00008453,0.00017416,-0.00033313,0.00
 027065,-0.00016614,0.12966833,-0.06617909,-0.05659953,0.00072472,0.000
 85953,-0.00012899,0.00001369,0.00103591,0.00049969,-0.10204345,0.06837
 684,-0.00157682,-0.00050046,0.00059785,-0.00085292,-0.00190457,-0.0008
 2575,-0.01067224,0.00649953,0.00238831,-0.00024198,0.00015059,0.000344
 30,0.00034572,-0.00013237,-0.00007327,0.06160113,-0.03867061,-0.064147
 27,-0.00005217,0.00028106,0.00019033,0.00018509,-0.00079356,-0.0000496
 4,-0.08807333,0.04710818,0.07178987,-0.03218801,0.06317215,-0.05785014
 ,-0.00137166,-0.02824697,0.01513725,0.00141967,-0.00222515,0.00150404,
 0.00077092,0.00091903,-0.00009983,-0.00251230,-0.00246316,-0.00110344,
 0.00013461,0.00071063,-0.00036697,-0.00010920,0.00017588,-0.00008793,-
 0.00050429,0.00068549,-0.00038754,0.00002204,0.00019036,-0.00002393,0.
 03693433,0.02741433,-0.32572440,0.16393998,0.00716779,-0.02355166,0.01
 212628,0.00075376,0.00175809,0.00035045,0.00050941,0.00046834,-0.00032
 024,-0.00434340,-0.00233931,-0.00259360,0.00047884,0.00029883,-0.00016
 104,-0.00004303,0.00003557,-0.00000066,-0.00094509,0.00043094,0.000134
 03,0.00005246,0.00014565,-0.00004165,-0.03222570,0.34158792,-0.0329704
 6,0.14212433,-0.14017612,0.00224631,-0.00908146,0.00664168,-0.00022415
 ,-0.00069291,-0.00033713,0.00050290,-0.00013635,0.00031304,-0.00203529
 ,-0.00240290,0.00089306,-0.00051178,-0.00012900,0.00012633,0.00005376,
 0.00008155,-0.00000766,0.00025656,0.00016384,-0.00004060,-0.00005428,-
 0.00003124,-0.00006703,0.03948553,-0.16633033,0.15187335,-0.02143546,-
 0.00585550,0.04744530,-0.00450605,-0.00806885,-0.03058061,0.00110535,0
 .00007026,-0.00253354,-0.00243594,-0.00271434,-0.00065939,0.00080929,0
 .00058541,0.00071915,0.00030776,0.00016411,0.00052579,-0.00054570,0.00
 002486,0.00067670,-0.00007466,0.00004955,0.00016697,0.00004409,0.00003
 297,0.00019189,-0.00262371,0.00110380,-0.00676321,0.02913200,-0.013523
 22,-0.07104296,-0.08142768,0.00339520,-0.00536629,-0.02751401,0.000378
 59,0.00047641,0.00037964,-0.00464605,-0.00341556,-0.00149666,0.0007790
 3,0.00020084,0.00010360,0.00009084,0.00003446,0.00017824,-0.00050878,0
 .00025058,0.00037792,-0.00001112,0.00004955,0.00008762,0.00001808,0.00
 001930,0.00001949,-0.00066359,0.00692050,0.03639926,0.01446226,0.07186
 879,0.00322305,-0.06267239,-0.40555559,0.00332096,-0.00310721,-0.00817
 535,0.00037057,0.00149572,0.00127681,-0.00134530,-0.00169899,0.0018668
 2,0.00005700,-0.00012018,0.00054493,0.00060643,0.00012519,0.00021113,-
 0.00079783,0.00014504,-0.00001669,-0.00011416,0.00000047,-0.00002414,0
 .00009004,0.00006316,0.00004731,0.00379630,-0.00709432,-0.01921464,-0.
 00938084,0.07286281,0.42906955,-0.00012764,0.00005873,0.00079265,0.001
 11709,-0.00040721,-0.00239094,0.00096728,-0.00225054,-0.02786404,-0.00
 062445,0.00017683,0.00096119,-0.00009493,-0.00001139,0.00005750,-0.059
 18676,-0.00910271,0.00315582,-0.00332854,-0.00363041,-0.00166489,0.000
 59243,-0.00002666,0.00073320,-0.00063218,0.00515033,0.03941440,0.00001
 605,0.00003042,-0.00000278,0.00021150,0.00021206,0.00017952,0.06116494
 ,0.00024451,-0.00003641,0.00023621,0.00047887,0.00092787,0.00047221,-0
 .00165576,-0.00916573,-0.03014422,-0.00035209,0.00030086,0.00021058,0.
 00009708,-0.00003753,0.00018162,-0.00870926,-0.02475797,-0.02441561,-0
 .00354574,-0.00267557,-0.00055343,0.00140110,0.00108693,-0.00047433,0.
 00179900,-0.00405034,-0.01230550,-0.00005503,-0.00008962,-0.00000356,0
 .00014837,-0.00001059,0.00001342,0.00993527,0.03741964,0.00002455,-0.0
 0000829,0.00032160,0.00001944,0.00038257,0.00074525,0.00057114,0.00303
 713,-0.00964117,-0.00075717,0.00009260,-0.00002041,-0.00001571,-0.0000
 2076,-0.00008548,0.01692701,-0.07013798,-0.41525410,-0.00170291,-0.001
 79781,0.00140831,0.00077322,0.00008195,0.00156782,-0.00285334,0.002535
 27,-0.01026170,-0.00000840,-0.00001375,-0.00000350,0.00018519,0.000048
 94,-0.00003405,-0.01308005,0.06596530,0.43172781,-0.00000817,0.0004877
 6,-0.00025944,0.00028391,-0.00135630,0.00047202,0.00104574,-0.00089119
 ,0.00135535,0.00002309,0.00021010,-0.00023129,-0.00104196,0.00000791,0
 .00017482,-0.00341634,-0.00147777,0.00019281,-0.00000978,-0.00037630,-
 0.00022559,-0.00054721,-0.00028945,-0.00028612,-0.00016027,0.00112920,
 -0.00071544,0.00003676,0.00015666,0.00008560,0.00000275,-0.00004005,0.
 00000804,-0.00011691,-0.00017368,-0.00014830,0.22553925,0.00129337,0.0
 0066353,-0.00043055,-0.00087092,-0.00100942,0.00090163,-0.00186450,-0.
 00305535,0.00009228,0.00009635,0.00030918,-0.00052587,-0.00140692,0.00
 035075,0.00039732,-0.00089993,-0.00040211,-0.00776390,0.00039875,-0.00
 091942,-0.00032889,0.00095874,0.00139028,-0.00059125,0.00071556,-0.000
 26966,0.00020050,-0.00010788,0.00017508,0.00020932,-0.00021793,-0.0000
 0963,-0.00003880,-0.00062501,0.00397143,-0.00114056,0.24271573,0.85526
 743,-0.00053524,0.00000618,-0.00012314,0.00040646,-0.00055989,-0.00051
 295,0.00261533,-0.00003418,0.00338471,0.00011559,0.00022980,-0.0002706
 5,-0.00052850,0.00044952,0.00048278,0.00001540,-0.00646450,-0.00192520
 ,-0.00016505,-0.00123244,-0.00083626,-0.00137536,-0.00150718,-0.000647
 07,-0.00016211,-0.00080991,0.00078620,0.00008941,0.00004111,-0.0000104
 8,0.00000874,-0.00012203,0.00002711,-0.00020490,0.00037111,-0.00104719
 ,0.26512044,0.83092240,1.04685598,0.00006873,-0.00023651,0.00014467,-0
 .00033120,0.00090455,-0.00012298,-0.00064834,0.00009857,-0.00065409,0.
 00000605,-0.00020435,0.00017164,0.00042225,-0.00053339,0.00007291,0.00
 119516,0.00060114,-0.00179601,-0.00008420,0.00024191,0.00018876,0.0002
 7918,0.00017563,0.00019546,0.00006979,-0.00027127,0.00025119,-0.000030
 18,-0.00008469,-0.00005551,-0.00000030,0.00004746,-0.00001160,0.000024
 22,0.00056469,-0.00001967,-0.11238289,-0.11903732,-0.13884724,0.082608
 67,-0.00036000,-0.00023855,0.00015624,0.00029977,0.00060064,-0.0001353
 7,0.00025479,0.00085835,-0.00070565,-0.00008802,-0.00015861,0.00025163
 ,0.00049817,-0.00043798,-0.00006677,0.00067165,-0.00049117,0.00586795,
 -0.00005890,0.00077655,0.00057354,0.00000136,-0.00010636,0.00040867,-0
 .00015728,0.00022450,-0.00023085,0.00002854,-0.00007834,-0.00008854,0.
 00010076,0.00002449,0.00000817,0.00027998,-0.00156471,0.00068190,-0.11
 711088,-0.40118907,-0.40318784,0.13496726,0.42691664,0.00039037,0.0000
 4722,0.00002114,-0.00023766,-0.00010245,0.00024264,-0.00141928,-0.0003
 6219,-0.00154081,-0.00006614,-0.00002422,0.00005852,0.00027255,0.00011
 720,-0.00033332,-0.00095601,0.00301163,-0.00545754,0.00012718,0.000430
 70,0.00033582,0.00066526,0.00071044,0.00037917,0.00001669,0.00054550,-
 0.00053124,-0.00006944,-0.00000068,0.00003429,-0.00003145,0.00005633,-
 0.00002134,-0.00034034,0.00152889,0.00006183,-0.13915972,-0.41036111,-
 0.54782214,0.16210052,0.46204754,0.59343927,-0.00002071,-0.00007684,0.
 00003209,0.00002818,0.00022671,-0.00011715,-0.00026700,0.00022388,-0.0
 0046013,-0.00001213,-0.00000661,0.00002751,0.00010350,-0.00002063,-0.0
 0004619,0.00174586,0.00093164,0.00025820,-0.00001804,0.00011481,0.0001
 0865,0.00011042,0.00007758,0.00011952,-0.00005651,-0.00045667,0.000219
 41,0.00000496,-0.00002554,-0.00001320,0.00000907,0.00000928,-0.0000021
 8,0.00001790,-0.00017734,0.00008499,-0.10924795,-0.12114807,-0.1265529
 7,0.02880306,-0.01932720,-0.02129251,0.07879937,-0.00066275,-0.0001677
 9,0.00010849,0.00062672,0.00020624,-0.00035123,0.00154935,-0.00037632,
 0.00114746,-0.00003103,-0.00006601,0.00018157,0.00026919,-0.00007383,-
 0.00018862,-0.00028512,-0.00496485,0.00172993,-0.00019261,0.00032099,0
 .00017650,-0.00093224,-0.00096535,0.00015261,-0.00020115,-0.00059054,0
 .00032022,0.00010543,-0.00003760,-0.00008202,0.00011428,0.00000009,0.0
 0001792,0.00021031,-0.00131826,0.00029349,-0.12299174,-0.45527302,-0.4
 1810215,-0.01723367,-0.02513636,-0.05764480,0.13965502,0.48844261,-0.0
 0000049,-0.00009180,0.00010036,0.00002323,0.00028181,0.00000475,-0.000
 85750,0.00034103,-0.00132912,-0.00005563,-0.00011375,0.00015817,0.0003
 6553,-0.00013765,-0.00022851,0.00036802,0.00450324,0.00185225,-0.00005
 219,0.00052192,0.00040866,0.00036788,0.00039825,0.00033741,-0.00005963
 ,0.00025121,-0.00018825,-0.00001491,-0.00003559,-0.00002458,0.00002931
 ,0.00004655,-0.00000185,0.00025366,-0.00108270,0.00051499,-0.12638318,
 -0.41154253,-0.49834170,-0.02161805,-0.06558062,-0.03886627,0.14763397
 ,0.47224061,0.53560368\\-0.00000022,-0.00000106,0.00000081,0.00000043,
 0.00000030,-0.00000006,-0.00000008,-0.00000030,0.00000196,-0.00000006,
 0.00000164,0.00000058,0.00000007,0.00000002,-0.00000147,-0.00000020,0.
 00000018,0.00000164,0.00000037,-0.00000167,0.00000176,-0.00000037,0.00
 000021,0.00000250,0.,-0.00000056,0.00000161,0.00000169,-0.00000048,-0.
 00000132,-0.00000231,0.00000137,0.00000023,-0.00000012,0.00000038,0.00
 000077,0.00000120,-0.00000143,-0.00000429,-0.00000027,-0.00000012,-0.0
 0000245,-0.00000012,0.00000151,-0.00000228\\\@
 The archive entry for this job was punched.


 DESK:  A WASTEBASKET WITH DRAWERS.
 Job cpu time:       0 days  0 hours 22 minutes 45.5 seconds.
 Elapsed time:       0 days  0 hours 12 minutes 11.1 seconds.
 File lengths (MBytes):  RWF=    131 Int=      0 D2E=      0 Chk=     16 Scr=      1
 Normal termination of Gaussian 16 at Fri Jun  2 14:09:21 2023.
