 Entering Gaussian System, Link 0=g16
 Input=EG-CO2_binding-site_index-0-freq.gjf
 Output=EG-CO2_binding-site_index-0-freq.log
 Initial command:
 /software/commercial/gaussian/g16/AVX/g16/l1.exe "/scratch1/svicchi/G09-659912.pbs02/Gau-1021266.inp" -scrdir="/scratch1/svicchi/G09-659912.pbs02/"
 Entering Link 1 = /software/commercial/gaussian/g16/AVX/g16/l1.exe PID=   1021267.
  
 Copyright (c) 1988-2019, Gaussian, Inc.  All Rights Reserved.
  
 This is part of the Gaussian(R) 16 program.  It is based on
 the Gaussian(R) 09 system (copyright 2009, Gaussian, Inc.),
 the Gaussian(R) 03 system (copyright 2003, Gaussian, Inc.),
 the Gaussian(R) 98 system (copyright 1998, Gaussian, Inc.),
 the Gaussian(R) 94 system (copyright 1995, Gaussian, Inc.),
 the Gaussian 92(TM) system (copyright 1992, Gaussian, Inc.),
 the Gaussian 90(TM) system (copyright 1990, Gaussian, Inc.),
 the Gaussian 88(TM) system (copyright 1988, Gaussian, Inc.),
 the Gaussian 86(TM) system (copyright 1986, Carnegie Mellon
 University), and the Gaussian 82(TM) system (copyright 1983,
 Carnegie Mellon University). Gaussian is a federally registered
 trademark of Gaussian, Inc.
  
 This software contains proprietary and confidential information,
 including trade secrets, belonging to Gaussian, Inc.
  
 This software is provided under written license and may be
 used, copied, transmitted, or stored only in accord with that
 written license.
  
 The following legend is applicable only to US Government
 contracts under FAR:
  
                    RESTRICTED RIGHTS LEGEND
  
 Use, reproduction and disclosure by the US Government is
 subject to restrictions as set forth in subparagraphs (a)
 and (c) of the Commercial Computer Software - Restricted
 Rights clause in FAR 52.227-19.
  
 Gaussian, Inc.
 340 Quinnipiac St., Bldg. 40, Wallingford CT 06492
  
  
 ---------------------------------------------------------------
 Warning -- This program may not be used in any manner that
 competes with the business of Gaussian, Inc. or will provide
 assistance to any competitor of Gaussian, Inc.  The licensee
 of this program is prohibited from giving any competitor of
 Gaussian, Inc. access to this program.  By using this program,
 the user acknowledges that Gaussian, Inc. is engaged in the
 business of creating and licensing software in the field of
 computational chemistry and represents and warrants to the
 licensee that it is not a competitor of Gaussian, Inc. and that
 it will not use this program in any manner prohibited above.
 ---------------------------------------------------------------
  

 Cite this work as:
 Gaussian 16, Revision C.01,
 M. J. Frisch, G. W. Trucks, H. B. Schlegel, G. E. Scuseria, 
 M. A. Robb, J. R. Cheeseman, G. Scalmani, V. Barone, 
 G. A. Petersson, H. Nakatsuji, X. Li, M. Caricato, A. V. Marenich, 
 J. Bloino, B. G. Janesko, R. Gomperts, B. Mennucci, H. P. Hratchian, 
 J. V. Ortiz, A. F. Izmaylov, J. L. Sonnenberg, D. Williams-Young, 
 F. Ding, F. Lipparini, F. Egidi, J. Goings, B. Peng, A. Petrone, 
 T. Henderson, D. Ranasinghe, V. G. Zakrzewski, J. Gao, N. Rega, 
 G. Zheng, W. Liang, M. Hada, M. Ehara, K. Toyota, R. Fukuda, 
 J. Hasegawa, M. Ishida, T. Nakajima, Y. Honda, O. Kitao, H. Nakai, 
 T. Vreven, K. Throssell, J. A. Montgomery, Jr., J. E. Peralta, 
 F. Ogliaro, M. J. Bearpark, J. J. Heyd, E. N. Brothers, K. N. Kudin, 
 V. N. Staroverov, T. A. Keith, R. Kobayashi, J. Normand, 
 K. Raghavachari, A. P. Rendell, J. C. Burant, S. S. Iyengar, 
 J. Tomasi, M. Cossi, J. M. Millam, M. Klene, C. Adamo, R. Cammi, 
 J. W. Ochterski, R. L. Martin, K. Morokuma, O. Farkas, 
 J. B. Foresman, and D. J. Fox, Gaussian, Inc., Wallingford CT, 2019.
 
 ******************************************
 Gaussian 16:  ES64L-G16RevC.01  3-Jul-2019
                 2-Jun-2023 
 ******************************************
 %NProcShared=2
 Will use up to    2 processors via shared memory.
 %mem=55gb
 %chk=/scratch1/svicchi/G09-659912.pbs02/02-freq/EG-CO2_binding-site_index-0-freq
 .chk
 ----------------------------------------------------------------------
 #p freq=raman scale=0.967 pop=(nbo,full,hirshfeld) guess=read geom=all
 check b3lyp/6-311+G(d,p) int=grid=ultrafine EmpiricalDispersion=GD3BJ 
 SCRF=(Solvent=ethanol) scf=(xqc,intrep,maxconventionalcycle=350) nosym
 m
 ----------------------------------------------------------------------
 1/10=4,29=7,30=1,38=1,114=967000/1,3;
 2/12=2,15=1,40=1/2;
 3/5=4,6=6,7=111,11=2,14=-4,25=1,30=1,70=2201,71=2,72=4,74=-5,75=-5,116=-2,124=41,140=1/1,2,3;
 4/5=1/1;
 5/5=2,8=3,13=1,17=20,38=6,53=4,85=350,98=1/2,8;
 8/6=4,10=90,11=11/1;
 10/13=10,15=4,31=1/2;
 11/6=3,8=1,9=11,15=111,16=1,31=1/1,2,10;
 10/6=1,31=1/2;
 6/7=3,28=1,40=1,79=1/1,7;
 7/8=1,10=1,25=1,30=1/1,2,3,16;
 1/10=4,30=1/3;
 99//99;
 Leave Link    1 at Fri Jun  2 11:35:43 2023, MaxMem=  7381975040 cpu:               0.5 elap:               0.5
 (Enter /software/commercial/gaussian/g16/AVX/g16/l101.exe)
 Structure from the checkpoint file:  "/scratch1/svicchi/G09-659912.pbs02/02-freq/EG-CO2_binding-site_index-0-freq.chk"
 -------------------------------
 EG-CO2_binding-site_index-0.gjf
 -------------------------------
 Charge = -1 Multiplicity = 1
 No Z-Matrix found in chk file; cartesian coordinates used.
  O                                                 2.440603336251     -1.093512258258     -0.402974788207
  C                                                 3.339622981882     -0.047263001043     -0.037570279574
  C                                                 4.747963312841     -0.332043630788     -0.552095089736
  H                                                 3.354692635280      0.079370485606      1.047643711566
  H                                                 2.954916573157      0.865023433619     -0.499858266442
  O                                                 5.648072273696      0.741143731254     -0.247797684802
  H                                                 4.736279118887     -0.418252301272     -1.640193799507
  H                                                 5.110739936227     -1.275874384749     -0.133322015210
  H                                                 5.771024019515      0.770770990838      0.707498680468
  C                                                 2.366858582030     -2.233055519735      0.447164643614
  O                                                 1.595225560687     -3.104492378219      0.004406073329
  O                                                 3.049466669548     -2.214106167254      1.488612814503
 Recover connectivity data from disk.
 ITRead=  0  0  0  0  0  0  0  0  0  0  0  0
 MicOpt= -1 -1 -1 -1 -1 -1 -1 -1 -1 -1 -1 -1
 NAtoms=     12 NQM=       12 NQMF=       0 NMMI=      0 NMMIF=      0
                NMic=       0 NMicF=      0.
                    Isotopes and Nuclear Properties:
 (Nuclear quadrupole moments (NQMom) in fm**2, nuclear magnetic moments (NMagM)
  in nuclear magnetons)

  Atom         1           2           3           4           5           6           7           8           9          10
 IAtWgt=          16          12          12           1           1          16           1           1           1          12
 AtmWgt=  15.9949146  12.0000000  12.0000000   1.0078250   1.0078250  15.9949146   1.0078250   1.0078250   1.0078250  12.0000000
 NucSpn=           0           0           0           1           1           0           1           1           1           0
 AtZEff=   5.6000000   3.6000000   3.6000000   1.0000000   1.0000000   5.6000000   1.0000000   1.0000000   1.0000000   3.6000000
 NQMom=    0.0000000   0.0000000   0.0000000   0.0000000   0.0000000   0.0000000   0.0000000   0.0000000   0.0000000   0.0000000
 NMagM=    0.0000000   0.0000000   0.0000000   2.7928460   2.7928460   0.0000000   2.7928460   2.7928460   2.7928460   0.0000000
 AtZNuc=   8.0000000   6.0000000   6.0000000   1.0000000   1.0000000   8.0000000   1.0000000   1.0000000   1.0000000   6.0000000

  Atom        11          12
 IAtWgt=          16          16
 AtmWgt=  15.9949146  15.9949146
 NucSpn=           0           0
 AtZEff=   5.6000000   5.6000000
 NQMom=    0.0000000   0.0000000
 NMagM=    0.0000000   0.0000000
 AtZNuc=   8.0000000   8.0000000
 Leave Link  101 at Fri Jun  2 11:35:45 2023, MaxMem=  7381975040 cpu:               0.3 elap:               0.7
 (Enter /software/commercial/gaussian/g16/AVX/g16/l103.exe)

 GradGradGradGradGradGradGradGradGradGradGradGradGradGradGradGradGradGrad
 Berny optimization.
 Initialization pass.
 Trust Radius=3.00D-01 FncErr=1.00D-07 GrdErr=1.00D-07 EigMax=2.50D+02 EigMin=1.00D-04
 Number of steps in this run=      2 maximum allowed number of steps=      2.
 GradGradGradGradGradGradGradGradGradGradGradGradGradGradGradGradGradGrad

 Leave Link  103 at Fri Jun  2 11:35:47 2023, MaxMem=  7381975040 cpu:               0.1 elap:               0.4
 (Enter /software/commercial/gaussian/g16/AVX/g16/l202.exe)
                          Input orientation:                          
 ---------------------------------------------------------------------
 Center     Atomic      Atomic             Coordinates (Angstroms)
 Number     Number       Type             X           Y           Z
 ---------------------------------------------------------------------
      1          8           0        2.440603   -1.093512   -0.402975
      2          6           0        3.339623   -0.047263   -0.037570
      3          6           0        4.747963   -0.332044   -0.552095
      4          1           0        3.354693    0.079370    1.047644
      5          1           0        2.954917    0.865023   -0.499858
      6          8           0        5.648072    0.741144   -0.247798
      7          1           0        4.736279   -0.418252   -1.640194
      8          1           0        5.110740   -1.275874   -0.133322
      9          1           0        5.771024    0.770771    0.707499
     10          6           0        2.366859   -2.233056    0.447165
     11          8           0        1.595226   -3.104492    0.004406
     12          8           0        3.049467   -2.214106    1.488613
 ---------------------------------------------------------------------
                    Distance matrix (angstroms):
                    1          2          3          4          5
     1  O    0.000000
     2  C    1.427023   0.000000
     3  C    2.434334   1.526191   0.000000
     4  H    2.077380   1.092681   2.160932   0.000000
     5  H    2.027256   1.092692   2.156552   1.780964   0.000000
     6  O    3.698364   2.448411   1.433361   2.715824   2.707761
     7  H    2.693847   2.157935   1.091571   3.062822   2.473947
     8  H    2.689907   2.157663   1.094438   2.512980   3.060289
     9  H    3.974972   2.671333   1.961996   2.536216   3.065462
    10  C    1.423634   2.441091   3.206560   2.585286   3.292531
    11  O    2.219158   3.520133   4.235082   3.784317   4.226121
    12  O    2.281348   2.666202   3.254464   2.355345   3.666606
                    6          7          8          9         10
     6  O    0.000000
     7  H    2.028382   0.000000
     8  H    2.090501   1.773809   0.000000
     9  H    0.963632   2.827744   2.309050   0.000000
    10  C    4.482767   3.642078   2.963452   4.547427   0.000000
    11  O    5.592682   4.448237   3.965054   5.740148   1.245333
    12  O    4.301322   3.982444   2.785642   4.114183   1.245362
                   11         12
    11  O    0.000000
    12  O    2.260636   0.000000
 Symmetry turned off by external request.
 Stoichiometry    C3H5O4(1-)
 Framework group  C1[X(C3H5O4)]
 Deg. of freedom    30
 Full point group                 C1      NOp   1
 Rotational constants (GHZ):           7.2637537           1.3437470           1.2431824
 Leave Link  202 at Fri Jun  2 11:35:48 2023, MaxMem=  7381975040 cpu:               0.0 elap:               0.2
 (Enter /software/commercial/gaussian/g16/AVX/g16/l301.exe)
 Standard basis: 6-311+G(d,p) (5D, 7F)
 Ernie: Thresh=  0.10000D-02 Tol=  0.10000D-05 Strict=F.
   184 basis functions,   292 primitive gaussians,   191 cartesian basis functions
    28 alpha electrons       28 beta electrons
       nuclear repulsion energy       304.2919750849 Hartrees.
 IExCor=  402 DFT=T Ex+Corr=B3LYP ExCW=0 ScaHFX=  0.200000
 ScaDFX=  0.800000  0.720000  1.000000  0.810000 ScalE2=  1.000000  1.000000
 IRadAn=      5 IRanWt=     -1 IRanGd=            0 ICorTp=0 IEmpDi=141
 NAtoms=   12 NActive=   12 NUniq=   12 SFac= 1.00D+00 NAtFMM=   60 NAOKFM=F Big=F
 Integral buffers will be    131072 words long.
 Raffenetti 2 integral format.
 Two-electron integral symmetry is turned off.
 R6Disp:  Grimme-D3(BJ) Dispersion energy=       -0.0141125398 Hartrees.
 Nuclear repulsion after empirical dispersion term =      304.2778625451 Hartrees.
 Force inversion solution in PCM.
 ------------------------------------------------------------------------------
 Polarizable Continuum Model (PCM)
 =================================
 Model                : PCM.
 Atomic radii         : UFF (Universal Force Field).
 Polarization charges : Total charges.
 Charge compensation  : None.
 Solution method      : Matrix inversion.
 Cavity type          : Scaled VdW (van der Waals Surface) (Alpha=1.100).
 Cavity algorithm     : GePol (No added spheres)
                        Default sphere list used, NSphG=   12.
                        Lebedev-Laikov grids with approx.  5.0 points / Ang**2.
                        Smoothing algorithm: York/Karplus (Gamma=1.0000).
                        Polarization charges: spherical gaussians, with
                                              point-specific exponents (IZeta= 3).
                        Self-potential: point-specific (ISelfS= 7).
                        Self-field    : sphere-specific E.n sum rule (ISelfD= 2).
 1st derivatives      : Analytical E(r).r(x)/FMM algorithm (CHGder, D1EAlg=3).
                        Cavity 1st derivative terms included.
 2nd derivatives      : Analytical E(r).r(xy)/FMM algorithm (CHGder, D2EAlg=3).
                        Cavity 2nd derivative terms included.
 Solvent              : Ethanol, Eps=  24.852000 Eps(inf)=   1.852593
 ------------------------------------------------------------------------------
 Spheres list:
 ISph  on   Nord     Re0    Alpha      Xe            Ye            Ze
    1   O      1    1.7500  1.100      2.440603     -1.093512     -0.402975
    2   C      2    1.9255  1.100      3.339623     -0.047263     -0.037570
    3   C      3    1.9255  1.100      4.747963     -0.332044     -0.552095
    4   H      4    1.4430  1.100      3.354693      0.079370      1.047644
    5   H      5    1.4430  1.100      2.954917      0.865023     -0.499858
    6   O      6    1.7500  1.100      5.648072      0.741144     -0.247798
    7   H      7    1.4430  1.100      4.736279     -0.418252     -1.640194
    8   H      8    1.4430  1.100      5.110740     -1.275874     -0.133322
    9   H      9    1.4430  1.100      5.771024      0.770771      0.707499
   10   C     10    1.9255  1.100      2.366859     -2.233056      0.447165
   11   O     11    1.7500  1.100      1.595226     -3.104492      0.004406
   12   O     12    1.7500  1.100      3.049467     -2.214106      1.488613
 ------------------------------------------------------------------------------
 GePol: Number of generator spheres                  =      12
 GePol: Total number of spheres                      =      12
 GePol: Number of exposed spheres                    =      12 (100.00%)
 GePol: Number of points                             =    1165
 GePol: Average weight of points                     =       0.13
 GePol: Minimum weight of points                     =   0.87D-10
 GePol: Maximum weight of points                     =    0.20577
 GePol: Number of points with low weight             =      67
 GePol: Fraction of low-weight points (<1% of avg)   =       5.75%
 GePol: Cavity surface area                          =    155.037 Ang**2
 GePol: Cavity volume                                =    142.681 Ang**3
 Leave Link  301 at Fri Jun  2 11:35:49 2023, MaxMem=  7381975040 cpu:               0.4 elap:               0.6
 (Enter /software/commercial/gaussian/g16/AVX/g16/l302.exe)
 NPDir=0 NMtPBC=     1 NCelOv=     1 NCel=       1 NClECP=     1 NCelD=      1
         NCelK=      1 NCelE2=     1 NClLst=     1 CellRange=     0.0.
 One-electron integrals computed using PRISM.
 NBasis=   184 RedAO= T EigKep=  7.78D-05  NBF=   184
 NBsUse=   184 1.00D-06 EigRej= -1.00D+00 NBFU=   184
 Precomputing XC quadrature grid using
 IXCGrd= 4 IRadAn=           5 IRanWt=          -1 IRanGd=           0 AccXCQ= 0.00D+00.
 Generated NRdTot=       0 NPtTot=           0 NUsed=           0 NTot=          32
 NSgBfM=   191   191   191   191   191 MxSgAt=    12 MxSgA2=    12.
 Leave Link  302 at Fri Jun  2 11:35:52 2023, MaxMem=  7381975040 cpu:               0.7 elap:               1.2
 (Enter /software/commercial/gaussian/g16/AVX/g16/l303.exe)
 DipDrv:  MaxL=1.
 Leave Link  303 at Fri Jun  2 11:35:53 2023, MaxMem=  7381975040 cpu:               0.1 elap:               0.5
 (Enter /software/commercial/gaussian/g16/AVX/g16/l401.exe)
 Initial guess from the checkpoint file:  "/scratch1/svicchi/G09-659912.pbs02/02-freq/EG-CO2_binding-site_index-0-freq.chk"
 B after Tr=     0.000000    0.000000    0.000000
         Rot=    1.000000    0.000000    0.000000    0.000000 Ang=   0.00 deg.
 Guess basis will be translated and rotated to current coordinates.
 JPrj=2 DoOrth=T DoCkMO=T.
 Leave Link  401 at Fri Jun  2 11:35:55 2023, MaxMem=  7381975040 cpu:               0.8 elap:               1.1
 (Enter /software/commercial/gaussian/g16/AVX/g16/l502.exe)
 Keep R1 ints in memory in canonical form, NReq=148388475.
 FoFCou: FMM=F IPFlag=           0 FMFlag=           0 FMFlg1=           0
         NFxFlg=           0 DoJE=F BraDBF=F KetDBF=F FulRan=T
         wScrn=  0.000000 ICntrl=       600 IOpCl=  0 I1Cent=           0 NGrid=           0
         NMat0=    1 NMatS0=  17020 NMatT0=    0 NMatD0=    1 NMtDS0=    0 NMtDT0=    0
 Symmetry not used in FoFCou.
 Two-electron integral symmetry not used.
 Closed shell SCF:
 Using DIIS extrapolation, IDIIS=  1040.
 NGot=  7381975040 LenX=  7237050453 LenY=  7237013531
 Requested convergence on RMS density matrix=1.00D-08 within 350 cycles.
 Requested convergence on MAX density matrix=1.00D-06.
 Requested convergence on             energy=1.00D-06.
 No special actions if energy rises.

 Cycle   1  Pass 1  IDiag  1:
 Inv3:  Mode=1 IEnd=     4071675.
 Iteration    1 A*A^-1 deviation from unit magnitude is 2.78D-15 for   1158.
 Iteration    1 A*A^-1 deviation from orthogonality  is 1.44D-15 for   1139    717.
 Iteration    1 A^-1*A deviation from unit magnitude is 2.78D-15 for   1158.
 Iteration    1 A^-1*A deviation from orthogonality  is 1.91D-15 for   1137    240.
 E= -418.540311967003    
 DIIS: error= 7.48D-08 at cycle   1 NSaved=   1.
 NSaved= 1 IEnMin= 1 EnMin= -418.540311967003     IErMin= 1 ErrMin= 7.48D-08
 ErrMax= 7.48D-08  0.00D+00 EMaxC= 1.00D-01 BMatC= 9.11D-13 BMatP= 9.11D-13
 IDIUse=1 WtCom= 1.00D+00 WtEn= 0.00D+00
 Coeff-Com:  0.100D+01
 Coeff:      0.100D+01
 Gap=     0.241 Goal=   None    Shift=    0.000
 RMSDP=9.91D-09 MaxDP=3.43D-07              OVMax= 7.51D-07

 Error on total polarization charges =  0.01662
 SCF Done:  E(RB3LYP) =  -418.540311967     A.U. after    1 cycles
            NFock=  1  Conv=0.99D-08     -V/T= 2.0036
 KE= 4.170433833886D+02 PE=-1.604216843363D+03 EE= 4.643552854623D+02
 Leave Link  502 at Fri Jun  2 11:36:08 2023, MaxMem=  7381975040 cpu:              19.6 elap:              11.7
 (Enter /software/commercial/gaussian/g16/AVX/g16/l508.exe)
 QCSCF skips out because SCF is already converged.
 Leave Link  508 at Fri Jun  2 11:36:09 2023, MaxMem=  7381975040 cpu:               0.1 elap:               0.2
 (Enter /software/commercial/gaussian/g16/AVX/g16/l801.exe)
 DoSCS=F DFT=T ScalE2(SS,OS)=  1.000000  1.000000
 Range of M.O.s used for correlation:     1   184
 NBasis=   184 NAE=    28 NBE=    28 NFC=     0 NFV=     0
 NROrb=    184 NOA=    28 NOB=    28 NVA=   156 NVB=   156

 **** Warning!!: The largest alpha MO coefficient is  0.33746938D+02

 Leave Link  801 at Fri Jun  2 11:36:12 2023, MaxMem=  7381975040 cpu:               0.2 elap:               1.2
 (Enter /software/commercial/gaussian/g16/AVX/g16/l1002.exe)
 Minotr:  Closed shell wavefunction.
 NEqPCM:  Using equilibrium solvation (IEInf=0, Eps=  24.8520, EpsInf=   1.8526)
          Direct CPHF calculation.
          Differentiating once with respect to electric field.
                with respect to dipole field.
          Electric field/nuclear overlap derivatives assumed to be zero.
          Requested convergence is 1.0D-08 RMS, and 1.0D-07 maximum.
          Secondary convergence is 1.0D-12 RMS, and 1.0D-12 maximum.
          NewPWx=F KeepS1=T KeepF1=T KeepIn=T MapXYZ=F SortEE=F KeepMc=T.
         3696 words used for storage of precomputed grid.
 Keep R1 ints in memory in canonical form, NReq=149394240.
 FoFCou: FMM=F IPFlag=           0 FMFlag=           0 FMFlg1=           0
         NFxFlg=           0 DoJE=F BraDBF=F KetDBF=F FulRan=T
         wScrn=  0.000000 ICntrl=       600 IOpCl=  0 I1Cent=           0 NGrid=           0
         NMat0=    1 NMatS0=  17020 NMatT0=    0 NMatD0=    1 NMtDS0=    0 NMtDT0=    0
 Symmetry not used in FoFCou.
 Two-electron integral symmetry not used.
          MDV=    7381975040 using IRadAn=       1.
          Solving linear equations simultaneously, MaxMat=       0.
          There are     3 degrees of freedom in the 1st order CPHF.  IDoFFX=0 NUNeed=     3.
      3 vectors produced by pass  0 Test12= 1.46D-13 3.33D-08 XBig12= 3.73D+01 1.57D+00.
 AX will form     3 AO Fock derivatives at one time.
      3 vectors produced by pass  1 Test12= 1.46D-13 3.33D-08 XBig12= 1.04D+01 8.47D-01.
      3 vectors produced by pass  2 Test12= 1.46D-13 3.33D-08 XBig12= 1.91D+00 2.51D-01.
      3 vectors produced by pass  3 Test12= 1.46D-13 3.33D-08 XBig12= 2.78D-01 9.91D-02.
      3 vectors produced by pass  4 Test12= 1.46D-13 3.33D-08 XBig12= 6.72D-02 3.43D-02.
      3 vectors produced by pass  5 Test12= 1.46D-13 3.33D-08 XBig12= 1.05D-02 1.55D-02.
      3 vectors produced by pass  6 Test12= 1.46D-13 3.33D-08 XBig12= 9.61D-04 5.08D-03.
      3 vectors produced by pass  7 Test12= 1.46D-13 3.33D-08 XBig12= 3.21D-05 7.11D-04.
      3 vectors produced by pass  8 Test12= 1.46D-13 3.33D-08 XBig12= 8.93D-07 1.79D-04.
      3 vectors produced by pass  9 Test12= 1.46D-13 3.33D-08 XBig12= 1.75D-08 1.68D-05.
      3 vectors produced by pass 10 Test12= 1.46D-13 3.33D-08 XBig12= 6.27D-10 5.95D-06.
      3 vectors produced by pass 11 Test12= 1.46D-13 3.33D-08 XBig12= 8.92D-12 8.44D-07.
      1 vectors produced by pass 12 Test12= 1.46D-13 3.33D-08 XBig12= 1.71D-13 7.95D-08.
 InvSVY:  IOpt=1 It=  1 EMax= 2.66D-15
 Solved reduced A of dimension    37 with     3 vectors.
 End of Minotr F.D. properties file   721 does not exist.
 End of Minotr F.D. properties file   722 does not exist.
 End of Minotr F.D. properties file   788 does not exist.
 Leave Link 1002 at Fri Jun  2 11:37:10 2023, MaxMem=  7381975040 cpu:             104.5 elap:              57.6
 (Enter /software/commercial/gaussian/g16/AVX/g16/l1101.exe)
 Using compressed storage, NAtomX=    12.
 Will process     13 centers per pass.
 R6Disp: Adding Grimme-D3(BJ) dispersion energy 1st derivatives to the gradient.
 Leave Link 1101 at Fri Jun  2 11:37:13 2023, MaxMem=  7381975040 cpu:               1.1 elap:               1.3
 (Enter /software/commercial/gaussian/g16/AVX/g16/l1102.exe)
 Symmetrizing basis deriv contribution to polar:
 IMax=3 JMax=2 DiffMx= 0.00D+00
 Leave Link 1102 at Fri Jun  2 11:37:14 2023, MaxMem=  7381975040 cpu:               0.1 elap:               0.3
 (Enter /software/commercial/gaussian/g16/AVX/g16/l1110.exe)
 Forming Gx(P) for the SCF density, NAtomX=    12.
 Integral derivatives from FoFJK, PRISM(SPDF).
 Do as many integral derivatives as possible in FoFJK.
 G2DrvN: MDV=    7381973668.
 G2DrvN: will do    13 centers at a time, making    1 passes.
 PxScal for G2LodP:  IOpCl= 0 ISclPx=1 IMOff=     1 NMtTot=     4 NTT=   17020 ScalPx= 6.08D+00
 Calling FoFCou, ICntrl=  3107 FMM=F I1Cent=   0 AccDes= 0.00D+00.
 FoFJK:  IHMeth= 1 ICntrl=    3107 DoSepK=F KAlg= 0 I1Cent=           0 FoldK=F
 IRaf=         0 NMat=       1 IRICut=       1 DoRegI=T DoRafI=F ISym2E= 0 IDoP0=0 IntGTp=1.
 FoFCou: FMM=F IPFlag=           0 FMFlag=      100000 FMFlg1=           0
         NFxFlg=           0 DoJE=F BraDBF=F KetDBF=F FulRan=T
         wScrn=  0.000000 ICntrl=      3107 IOpCl=  0 I1Cent=           0 NGrid=           0
         NMat0=    1 NMatS0=      1 NMatT0=    0 NMatD0=    4 NMtDS0=    3 NMtDT0=    0
 Symmetry not used in FoFCou.
 PxScal for G2LodP:  IOpCl= 0 ISclPx=0 IMOff=     1 NMtTot=     4 NTT=   17020 ScalPx= 1.00D+00
 NEqPCM:  Using equilibrium solvation (IEInf=0, Eps=  24.8520, EpsInf=   1.8526)
 G2PCM: DoFxE=T DoFxN=T DoGrad=T DoDP/DQ/DG/TGxP=TFFF NFrqRd=   0 IEInf=0 SqF1=F DoCFld=F IF1Alg=4.
 GePol: Maximum number of non-zero 1st derivatives   =     224
 End of G2Drv F.D. properties file   721 does not exist.
 End of G2Drv F.D. properties file   722 does not exist.
 End of G2Drv F.D. properties file   788 does not exist.
 Leave Link 1110 at Fri Jun  2 11:39:46 2023, MaxMem=  7381975040 cpu:             293.3 elap:             150.2
 (Enter /software/commercial/gaussian/g16/AVX/g16/l1002.exe)
 Minotr:  Closed shell wavefunction.
          IDoAtm=111111111111
 NEqPCM:  Using equilibrium solvation (IEInf=0, Eps=  24.8520, EpsInf=   1.8526)
          Direct CPHF calculation.
          Differentiating once with respect to electric field.
                with respect to dipole field.
          Differentiating once with respect to nuclear coordinates.
          Requested convergence is 1.0D-08 RMS, and 1.0D-07 maximum.
          Secondary convergence is 1.0D-12 RMS, and 1.0D-12 maximum.
          NewPWx=T KeepS1=F KeepF1=F KeepIn=T MapXYZ=F SortEE=F KeepMc=T.
         3696 words used for storage of precomputed grid.
 Keep R1 ints in memory in canonical form, NReq=149394516.
 FoFCou: FMM=F IPFlag=           0 FMFlag=           0 FMFlg1=           0
         NFxFlg=           0 DoJE=F BraDBF=F KetDBF=F FulRan=T
         wScrn=  0.000000 ICntrl=       600 IOpCl=  0 I1Cent=           0 NGrid=           0
         NMat0=    1 NMatS0=  17020 NMatT0=    0 NMatD0=    1 NMtDS0=    0 NMtDT0=    0
 Symmetry not used in FoFCou.
 Two-electron integral symmetry not used.
          MDV=    7381975040 using IRadAn=       1.
          Solving linear equations simultaneously, MaxMat=       0.
          There are    39 degrees of freedom in the 1st order CPHF.  IDoFFX=5 NUNeed=    39.
 Will reuse    3 saved solutions.
     33 vectors produced by pass  0 Test12= 1.12D-14 2.56D-09 XBig12= 1.70D-01 7.95D-02.
 AX will form    33 AO Fock derivatives at one time.
     33 vectors produced by pass  1 Test12= 1.12D-14 2.56D-09 XBig12= 9.63D-03 3.09D-02.
     33 vectors produced by pass  2 Test12= 1.12D-14 2.56D-09 XBig12= 4.13D-04 2.88D-03.
     33 vectors produced by pass  3 Test12= 1.12D-14 2.56D-09 XBig12= 1.67D-06 1.47D-04.
     33 vectors produced by pass  4 Test12= 1.12D-14 2.56D-09 XBig12= 4.07D-09 9.09D-06.
     30 vectors produced by pass  5 Test12= 1.12D-14 2.56D-09 XBig12= 9.04D-12 6.56D-07.
     11 vectors produced by pass  6 Test12= 1.12D-14 2.56D-09 XBig12= 1.63D-14 1.87D-08.
 InvSVY:  IOpt=1 It=  1 EMax= 2.44D-15
 Solved reduced A of dimension   206 with    33 vectors.
 FullF1:  Do perturbations      1 to       3.
 Isotropic polarizability for W=    0.000000       71.51 Bohr**3.
 FullF1:  Do perturbations      1 to       6.
 End of Minotr F.D. properties file   721 does not exist.
 End of Minotr F.D. properties file   722 does not exist.
 End of Minotr F.D. properties file   788 does not exist.
 Leave Link 1002 at Fri Jun  2 11:42:33 2023, MaxMem=  7381975040 cpu:             314.0 elap:             166.1
 (Enter /software/commercial/gaussian/g16/AVX/g16/l601.exe)
 Copying SCF densities to generalized density rwf, IOpCl= 0 IROHF=0.

 **********************************************************************

            Population analysis using the SCF Density.

 **********************************************************************

 Alpha  occ. eigenvalues --  -19.12880 -19.12384 -19.06036 -19.05678 -10.28641
 Alpha  occ. eigenvalues --  -10.21060 -10.20547  -1.06987  -1.02613  -0.97746
 Alpha  occ. eigenvalues --   -0.94631  -0.73449  -0.63214  -0.53823  -0.51321
 Alpha  occ. eigenvalues --   -0.46585  -0.44944  -0.43478  -0.42456  -0.40327
 Alpha  occ. eigenvalues --   -0.39150  -0.34102  -0.33188  -0.30120  -0.26985
 Alpha  occ. eigenvalues --   -0.26348  -0.25256  -0.23135
 Alpha virt. eigenvalues --    0.00966   0.01950   0.03586   0.03989   0.06269
 Alpha virt. eigenvalues --    0.07307   0.07510   0.08087   0.08671   0.08906
 Alpha virt. eigenvalues --    0.11301   0.11815   0.13525   0.15749   0.16122
 Alpha virt. eigenvalues --    0.17928   0.18795   0.20688   0.21285   0.22283
 Alpha virt. eigenvalues --    0.22520   0.23327   0.24031   0.25351   0.25954
 Alpha virt. eigenvalues --    0.26610   0.26879   0.28424   0.28930   0.29737
 Alpha virt. eigenvalues --    0.30236   0.31115   0.32678   0.33093   0.34090
 Alpha virt. eigenvalues --    0.35683   0.37500   0.38345   0.43219   0.45688
 Alpha virt. eigenvalues --    0.48738   0.52506   0.54576   0.58077   0.58808
 Alpha virt. eigenvalues --    0.61534   0.62571   0.63956   0.67913   0.69765
 Alpha virt. eigenvalues --    0.71733   0.71795   0.76930   0.78172   0.87556
 Alpha virt. eigenvalues --    0.93452   0.95675   0.97261   1.00134   1.04699
 Alpha virt. eigenvalues --    1.09362   1.12356   1.13932   1.15522   1.17384
 Alpha virt. eigenvalues --    1.18493   1.18963   1.21306   1.23183   1.26911
 Alpha virt. eigenvalues --    1.30736   1.32628   1.35973   1.38636   1.40107
 Alpha virt. eigenvalues --    1.44339   1.50569   1.51510   1.55088   1.55875
 Alpha virt. eigenvalues --    1.59909   1.63657   1.65331   1.67906   1.69654
 Alpha virt. eigenvalues --    1.70663   1.76393   1.77579   1.80061   1.86553
 Alpha virt. eigenvalues --    1.90637   1.91626   1.99276   2.01607   2.05454
 Alpha virt. eigenvalues --    2.09818   2.19155   2.21744   2.29858   2.45227
 Alpha virt. eigenvalues --    2.45509   2.51257   2.54330   2.57383   2.61270
 Alpha virt. eigenvalues --    2.64967   2.71506   2.72275   2.81113   2.86567
 Alpha virt. eigenvalues --    2.87113   2.87436   2.89977   2.91384   2.93059
 Alpha virt. eigenvalues --    2.98237   3.02099   3.08411   3.10588   3.14899
 Alpha virt. eigenvalues --    3.17565   3.26385   3.27722   3.31632   3.36631
 Alpha virt. eigenvalues --    3.44976   3.52446   3.58421   3.70538   3.77042
 Alpha virt. eigenvalues --    3.84949   3.88976   3.97749   4.01729   4.07844
 Alpha virt. eigenvalues --    4.10242   4.24839   5.02509   5.05616   5.08131
 Alpha virt. eigenvalues --    5.09194   5.13284   5.19669   5.27686   5.35840
 Alpha virt. eigenvalues --    5.50480   5.63372   5.86856   5.89691  23.82834
 Alpha virt. eigenvalues --   23.85209  23.88517  49.88815  49.91665  49.96742
 Alpha virt. eigenvalues --   50.04695
     Molecular Orbital Coefficients:
                           1         2         3         4         5
                           O         O         O         O         O
     Eigenvalues --   -19.12880 -19.12384 -19.06036 -19.05678 -10.28641
   1 1   O  1S         -0.00011   0.55132   0.00004   0.00005  -0.00003
   2        2S         -0.00009   0.46974   0.00004   0.00006  -0.00009
   3        2PX         0.00002   0.00070  -0.00001  -0.00001   0.00000
   4        2PY         0.00001   0.00004  -0.00007  -0.00007  -0.00007
   5        2PZ        -0.00000   0.00093   0.00005   0.00005   0.00006
   6        3S         -0.00008   0.01380   0.00016   0.00004   0.00073
   7        3PX        -0.00007  -0.00001   0.00009   0.00002  -0.00001
   8        3PY        -0.00003  -0.00006   0.00030   0.00023  -0.00018
   9        3PZ         0.00001  -0.00004  -0.00015  -0.00018   0.00012
  10        4S          0.00034  -0.01172  -0.00111  -0.00100  -0.00140
  11        4PX         0.00033  -0.00114  -0.00105   0.00025  -0.00027
  12        4PY         0.00019  -0.00001  -0.00100   0.00045   0.00056
  13        4PZ        -0.00002  -0.00124  -0.00056   0.00007  -0.00059
  14        5S          0.00030   0.00439   0.00159  -0.00155   0.00382
  15        5PX         0.00025  -0.00004  -0.00038   0.00022   0.00036
  16        5PY         0.00021  -0.00021  -0.00096   0.00146  -0.00223
  17        5PZ        -0.00004  -0.00034  -0.00000  -0.00090   0.00246
  18        6D 0       -0.00001  -0.00002  -0.00006   0.00004  -0.00000
  19        6D+1        0.00000  -0.00005  -0.00005   0.00005  -0.00004
  20        6D-1       -0.00001  -0.00000   0.00010   0.00009   0.00020
  21        6D+2        0.00001  -0.00000   0.00003   0.00009   0.00015
  22        6D-2        0.00000  -0.00003   0.00001  -0.00003  -0.00008
  23 2   C  1S          0.00000   0.00002  -0.00000  -0.00001  -0.00004
  24        2S         -0.00001  -0.00006   0.00001   0.00003   0.00001
  25        2PX         0.00005  -0.00009   0.00003  -0.00002   0.00002
  26        2PY         0.00001  -0.00014  -0.00000  -0.00002   0.00006
  27        2PZ        -0.00001  -0.00009   0.00004  -0.00002  -0.00001
  28        3S          0.00029  -0.00006  -0.00017  -0.00042  -0.00052
  29        3PX        -0.00026  -0.00019  -0.00019   0.00010  -0.00001
  30        3PY         0.00001   0.00006  -0.00007   0.00017  -0.00011
  31        3PZ         0.00007   0.00029  -0.00016   0.00011   0.00004
  32        4S         -0.00310   0.00555   0.00292   0.00161   0.00253
  33        4PX        -0.00110  -0.00017   0.00020   0.00017   0.00132
  34        4PY         0.00044  -0.00234  -0.00068  -0.00173  -0.00115
  35        4PZ         0.00052  -0.00027  -0.00042   0.00162   0.00046
  36        5S          0.00561  -0.01322  -0.00898  -0.00415   0.01402
  37        5PX         0.00128  -0.00192  -0.00305  -0.00104   0.00070
  38        5PY         0.00005   0.00221   0.00061   0.00035  -0.00299
  39        5PZ        -0.00031   0.00116   0.00123   0.00053  -0.00048
  40        6D 0        0.00004   0.00014  -0.00004   0.00009  -0.00002
  41        6D+1        0.00006  -0.00013   0.00001  -0.00001  -0.00009
  42        6D-1        0.00003  -0.00003   0.00008   0.00000  -0.00001
  43        6D+2       -0.00015   0.00001   0.00006  -0.00002  -0.00005
  44        6D-2       -0.00002  -0.00007   0.00008   0.00005   0.00015
  45 3   C  1S          0.00001   0.00000   0.00000  -0.00000   0.00001
  46        2S         -0.00006  -0.00000  -0.00001   0.00001  -0.00001
  47        2PX         0.00010  -0.00007  -0.00002  -0.00003  -0.00001
  48        2PY         0.00014   0.00001   0.00001  -0.00003  -0.00002
  49        2PZ         0.00003   0.00002  -0.00001   0.00001   0.00000
  50        3S         -0.00002   0.00021   0.00019   0.00003   0.00032
  51        3PX         0.00018   0.00036   0.00006   0.00008  -0.00001
  52        3PY        -0.00011  -0.00007  -0.00007   0.00014   0.00006
  53        3PZ        -0.00007  -0.00011   0.00010  -0.00009   0.00001
  54        4S          0.00525  -0.00261  -0.00140  -0.00123  -0.00287
  55        4PX        -0.00009   0.00069   0.00068  -0.00049   0.00138
  56        4PY         0.00147   0.00001  -0.00007   0.00019   0.00038
  57        4PZ         0.00058  -0.00082  -0.00050  -0.00131  -0.00112
  58        5S         -0.00681   0.01035   0.01108   0.00338  -0.00515
  59        5PX         0.00030  -0.00269  -0.00285  -0.00102   0.00132
  60        5PY        -0.00187   0.00004  -0.00016   0.00000  -0.00053
  61        5PZ        -0.00097   0.00076   0.00085  -0.00013  -0.00024
  62        6D 0        0.00010   0.00006   0.00001   0.00005   0.00003
  63        6D+1       -0.00004   0.00008   0.00004   0.00003   0.00005
  64        6D-1       -0.00007   0.00004   0.00001   0.00005   0.00003
  65        6D+2        0.00003  -0.00014  -0.00006   0.00004  -0.00003
  66        6D-2       -0.00016  -0.00002   0.00000  -0.00003  -0.00002
  67 4   H  1S          0.00001   0.00011   0.00005   0.00006  -0.00001
  68        2S          0.00016  -0.00172  -0.00051  -0.00098  -0.00053
  69        3S         -0.00065   0.00132   0.00049  -0.00003  -0.00223
  70        4PX        -0.00005   0.00010   0.00005  -0.00005  -0.00002
  71        4PY        -0.00003   0.00022   0.00011   0.00007   0.00018
  72        4PZ         0.00006   0.00034  -0.00001   0.00014   0.00003
  73 5   H  1S          0.00001   0.00002   0.00003  -0.00005  -0.00003
  74        2S          0.00012  -0.00068  -0.00030   0.00048   0.00043
  75        3S         -0.00067   0.00072   0.00048   0.00037  -0.00022
  76        4PX        -0.00010   0.00001  -0.00002   0.00007  -0.00002
  77        4PY         0.00002   0.00020   0.00002  -0.00001  -0.00007
  78        4PZ        -0.00004  -0.00003   0.00002  -0.00003   0.00003
  79 6   O  1S          0.55134   0.00011   0.00000   0.00000   0.00000
  80        2S          0.46975   0.00011   0.00001   0.00001   0.00001
  81        2PX        -0.00053  -0.00002  -0.00001  -0.00001  -0.00000
  82        2PY        -0.00076  -0.00001  -0.00001  -0.00002  -0.00001
  83        2PZ         0.00085   0.00000   0.00001  -0.00000   0.00001
  84        3S          0.01346  -0.00008  -0.00004  -0.00005  -0.00006
  85        3PX         0.00001   0.00008   0.00003   0.00003   0.00001
  86        3PY         0.00003   0.00003   0.00003   0.00006   0.00004
  87        3PZ         0.00018  -0.00001  -0.00003   0.00000  -0.00005
  88        4S         -0.00898   0.00033   0.00015   0.00029   0.00026
  89        4PX         0.00110  -0.00028  -0.00017  -0.00013  -0.00011
  90        4PY         0.00107  -0.00013  -0.00012  -0.00031  -0.00018
  91        4PZ         0.00059   0.00015   0.00006   0.00020   0.00026
  92        5S          0.00633   0.00069   0.00007   0.00139  -0.00033
  93        5PX        -0.00044  -0.00018   0.00004  -0.00026   0.00008
  94        5PY        -0.00046  -0.00026   0.00012  -0.00017   0.00033
  95        5PZ         0.00029   0.00021   0.00013   0.00034  -0.00009
  96        6D 0        0.00029   0.00001  -0.00000   0.00001   0.00000
  97        6D+1        0.00006  -0.00000   0.00000  -0.00000   0.00000
  98        6D-1        0.00002  -0.00000  -0.00000  -0.00001  -0.00001
  99        6D+2        0.00001   0.00000   0.00000  -0.00001  -0.00000
 100        6D-2       -0.00002   0.00001   0.00001   0.00001   0.00001
 101 7   H  1S          0.00002   0.00003  -0.00004   0.00003  -0.00002
 102        2S         -0.00104  -0.00010   0.00025  -0.00034   0.00015
 103        3S         -0.00016  -0.00059  -0.00072  -0.00067  -0.00062
 104        4PX        -0.00004   0.00007  -0.00002   0.00002  -0.00004
 105        4PY        -0.00012   0.00001  -0.00000  -0.00003  -0.00003
 106        4PZ        -0.00023  -0.00010   0.00003  -0.00006   0.00001
 107 8   H  1S          0.00002   0.00003   0.00003  -0.00007  -0.00000
 108        2S         -0.00091   0.00010   0.00007   0.00060   0.00039
 109        3S         -0.00031  -0.00020  -0.00055   0.00040  -0.00049
 110        4PX        -0.00002   0.00013   0.00010  -0.00005   0.00006
 111        4PY        -0.00033  -0.00003  -0.00001   0.00011   0.00009
 112        4PZ         0.00003   0.00004  -0.00001   0.00000  -0.00004
 113 9   H  1S          0.00006  -0.00001  -0.00002   0.00000  -0.00003
 114        2S         -0.00046  -0.00010   0.00004  -0.00019  -0.00004
 115        3S         -0.00109  -0.00038  -0.00017  -0.00037  -0.00002
 116        4PX         0.00007   0.00001  -0.00002   0.00000  -0.00001
 117        4PY        -0.00002  -0.00003  -0.00002  -0.00003  -0.00004
 118        4PZ         0.00090   0.00003  -0.00001   0.00004   0.00002
 119 10  C  1S         -0.00000   0.00002  -0.00002  -0.00002   0.56311
 120        2S          0.00001  -0.00007   0.00008   0.00009   0.46336
 121        2PX         0.00001  -0.00003   0.00020  -0.00025   0.00005
 122        2PY         0.00000   0.00012   0.00000  -0.00029   0.00058
 123        2PZ         0.00001  -0.00013   0.00031  -0.00012  -0.00042
 124        3S         -0.00006   0.00032   0.00043   0.00024   0.01793
 125        3PX        -0.00005   0.00017  -0.00045   0.00060  -0.00006
 126        3PY        -0.00002   0.00017  -0.00005   0.00068  -0.00127
 127        3PZ        -0.00003   0.00005  -0.00066   0.00029   0.00101
 128        4S         -0.00029   0.00325   0.00110   0.00402  -0.01180
 129        4PX         0.00019  -0.00017   0.00340  -0.00405  -0.00094
 130        4PY         0.00030   0.00136   0.00084  -0.00310  -0.00167
 131        4PZ         0.00011  -0.00131   0.00455  -0.00348  -0.00002
 132        5S         -0.00082  -0.00000  -0.00523  -0.00160  -0.00985
 133        5PX        -0.00003  -0.00017  -0.00143   0.00053  -0.00146
 134        5PY        -0.00002  -0.00001  -0.00143   0.00068  -0.00289
 135        5PZ         0.00042   0.00021  -0.00025   0.00043   0.00071
 136        6D 0       -0.00000  -0.00002  -0.00049   0.00033   0.00037
 137        6D+1        0.00002   0.00022  -0.00060  -0.00019   0.00178
 138        6D-1       -0.00002   0.00019  -0.00013  -0.00057   0.00061
 139        6D+2        0.00001   0.00003  -0.00036  -0.00006   0.00020
 140        6D-2       -0.00001   0.00024   0.00013  -0.00055   0.00114
 141 11  O  1S         -0.00000  -0.00005  -0.00157   0.55131  -0.00007
 142        2S          0.00000  -0.00002  -0.00131   0.46973  -0.00004
 143        2PX         0.00001   0.00003   0.00003   0.00066   0.00029
 144        2PY         0.00001   0.00003   0.00002   0.00075   0.00035
 145        2PZ         0.00000   0.00002   0.00003   0.00038   0.00015
 146        3S         -0.00003  -0.00006  -0.00031   0.01374   0.00041
 147        3PX        -0.00003  -0.00013  -0.00013   0.00040  -0.00086
 148        3PY        -0.00003  -0.00014  -0.00014   0.00048  -0.00104
 149        3PZ        -0.00002  -0.00009  -0.00012   0.00020  -0.00043
 150        4S          0.00014  -0.00055   0.00137  -0.01098  -0.00379
 151        4PX         0.00013  -0.00008   0.00001  -0.00123  -0.00116
 152        4PY         0.00012  -0.00038   0.00071  -0.00161  -0.00140
 153        4PZ         0.00006   0.00026  -0.00049  -0.00049  -0.00056
 154        5S          0.00082  -0.00075   0.00203   0.00237   0.00331
 155        5PX        -0.00002  -0.00012   0.00063  -0.00017   0.00109
 156        5PY         0.00014  -0.00054   0.00060  -0.00001   0.00181
 157        5PZ        -0.00004   0.00007   0.00013  -0.00044   0.00007
 158        6D 0       -0.00000   0.00006  -0.00007  -0.00007   0.00035
 159        6D+1        0.00000   0.00002  -0.00014   0.00011  -0.00032
 160        6D-1       -0.00000  -0.00002  -0.00011   0.00012  -0.00034
 161        6D+2        0.00000   0.00003  -0.00010  -0.00002   0.00017
 162        6D-2        0.00000  -0.00006  -0.00001   0.00019  -0.00077
 163 12  O  1S         -0.00000  -0.00004   0.55131   0.00158  -0.00007
 164        2S         -0.00000  -0.00003   0.46972   0.00138  -0.00005
 165        2PX         0.00000  -0.00004  -0.00060  -0.00004  -0.00027
 166        2PY         0.00001  -0.00000  -0.00000  -0.00003   0.00001
 167        2PZ        -0.00000  -0.00004  -0.00091  -0.00004  -0.00041
 168        3S         -0.00003   0.00005   0.01376  -0.00024   0.00046
 169        3PX         0.00000   0.00016  -0.00029   0.00017   0.00084
 170        3PY        -0.00003   0.00003   0.00006   0.00007  -0.00003
 171        3PZ         0.00001   0.00017  -0.00054   0.00020   0.00126
 172        4S         -0.00001  -0.00064  -0.01080   0.00141  -0.00346
 173        4PX        -0.00005  -0.00017   0.00083   0.00004   0.00072
 174        4PY         0.00005  -0.00061  -0.00034   0.00063  -0.00012
 175        4PZ        -0.00003   0.00037   0.00167  -0.00049   0.00140
 176        5S          0.00003   0.00036   0.00327   0.00214   0.00562
 177        5PX         0.00017   0.00018   0.00045  -0.00030  -0.00121
 178        5PY        -0.00001  -0.00009   0.00050   0.00002   0.00024
 179        5PZ        -0.00011   0.00019   0.00009  -0.00048  -0.00209
 180        6D 0        0.00000  -0.00008   0.00014   0.00003  -0.00058
 181        6D+1        0.00001  -0.00004   0.00020  -0.00009  -0.00078
 182        6D-1       -0.00001   0.00010   0.00003  -0.00015   0.00010
 183        6D+2       -0.00000   0.00001   0.00008  -0.00006  -0.00020
 184        6D-2        0.00001   0.00005   0.00000  -0.00010   0.00000
                           6         7         8         9        10
                           O         O         O         O         O
     Eigenvalues --   -10.21060 -10.20547  -1.06987  -1.02613  -0.97746
   1 1   O  1S          0.00000  -0.00002  -0.07557   0.00011  -0.08147
   2        2S         -0.00000  -0.00007  -0.12085   0.00019  -0.13054
   3        2PX         0.00001   0.00006   0.01432   0.00191   0.02302
   4        2PY         0.00002   0.00007  -0.01054   0.00313   0.01472
   5        2PZ         0.00001   0.00003   0.02778  -0.00105   0.01847
   6        3S          0.00010   0.00051   0.34797  -0.00072   0.37946
   7        3PX        -0.00004   0.00013   0.02309   0.00320   0.03706
   8        3PY        -0.00004   0.00018  -0.01811   0.00537   0.02395
   9        3PZ        -0.00004   0.00004   0.04618  -0.00177   0.02988
  10        4S         -0.00072   0.00020   0.26623  -0.00043   0.29983
  11        4PX        -0.00054  -0.00012   0.01736   0.00069   0.02002
  12        4PY        -0.00064  -0.00045  -0.00244   0.00121   0.00936
  13        4PZ         0.00007  -0.00032   0.02290   0.00017   0.01645
  14        5S          0.00318   0.00615  -0.03414   0.00202  -0.02328
  15        5PX         0.00164   0.00311  -0.00420  -0.00342  -0.00592
  16        5PY         0.00015   0.00455   0.00175  -0.00206  -0.00109
  17        5PZ         0.00151  -0.00007  -0.00288   0.00129  -0.00341
  18        6D 0        0.00001   0.00006  -0.00072  -0.00028  -0.00190
  19        6D+1       -0.00004  -0.00009   0.00223   0.00015   0.00253
  20        6D-1       -0.00004  -0.00007  -0.00458   0.00046  -0.00010
  21        6D+2        0.00002   0.00007  -0.00380   0.00035  -0.00155
  22        6D-2       -0.00008  -0.00018   0.00395   0.00040   0.00506
  23 2   C  1S          0.01238   0.56289  -0.02386  -0.00888  -0.03339
  24        2S          0.01019   0.46315  -0.03664  -0.01368  -0.05147
  25        2PX         0.00047  -0.00048  -0.01535   0.00848  -0.02271
  26        2PY        -0.00018  -0.00080  -0.02092   0.00114  -0.02673
  27        2PZ        -0.00019  -0.00037  -0.00494  -0.00161  -0.00958
  28        3S          0.00054   0.01928   0.09510   0.03340   0.13391
  29        3PX        -0.00120  -0.00016  -0.02309   0.01752  -0.03594
  30        3PY         0.00059   0.00176  -0.03713  -0.00033  -0.04705
  31        3PZ         0.00053   0.00110  -0.00926  -0.00524  -0.01766
  32        4S          0.00356  -0.01707  -0.00075   0.03485   0.03113
  33        4PX         0.00260  -0.00088  -0.00273   0.01181  -0.00735
  34        4PY        -0.00048   0.00256   0.00721   0.00037  -0.00317
  35        4PZ        -0.00076   0.00097   0.00042  -0.00448   0.00404
  36        5S          0.01048  -0.02026   0.09214  -0.06214   0.05190
  37        5PX         0.00153  -0.00229   0.01861  -0.01404   0.00403
  38        5PY        -0.00196   0.00240  -0.01237   0.00258  -0.00741
  39        5PZ        -0.00082   0.00111  -0.00837   0.00485  -0.00243
  40        6D 0        0.00035   0.00080  -0.00665  -0.00204  -0.00808
  41        6D+1        0.00051   0.00016   0.00255  -0.00217   0.00446
  42        6D-1       -0.00011  -0.00041   0.00338   0.00011   0.00628
  43        6D+2       -0.00056  -0.00033  -0.00273   0.00428  -0.00274
  44        6D-2        0.00026  -0.00074   0.01125  -0.00014   0.01478
  45 3   C  1S          0.56290  -0.01241  -0.00675  -0.03989  -0.00365
  46        2S          0.46318  -0.01021  -0.01039  -0.06138  -0.00565
  47        2PX         0.00054  -0.00044  -0.00309   0.02625  -0.01110
  48        2PY         0.00089   0.00014   0.00081   0.03242  -0.00457
  49        2PZ         0.00031   0.00019   0.00165   0.01187  -0.00001
  50        3S          0.01880  -0.00041   0.02535   0.15896   0.01380
  51        3PX        -0.00005   0.00100  -0.00842   0.04198  -0.02073
  52        3PY        -0.00214  -0.00056   0.00295   0.05814  -0.00569
  53        3PZ        -0.00111  -0.00056   0.00436   0.02339   0.00131
  54        4S         -0.01487   0.00561   0.02640   0.02756   0.02140
  55        4PX         0.00192  -0.00214  -0.00676   0.00932  -0.01081
  56        4PY        -0.00073   0.00029  -0.00031  -0.00043  -0.00113
  57        4PZ        -0.00104   0.00086   0.00659   0.00342  -0.00105
  58        5S         -0.01338   0.01305  -0.08006   0.08898  -0.03459
  59        5PX         0.00267  -0.00282   0.02123  -0.01115   0.00622
  60        5PY         0.00105   0.00050   0.00097   0.01143  -0.00401
  61        5PZ        -0.00051   0.00106  -0.00559   0.01236  -0.00530
  62        6D 0        0.00076   0.00028  -0.00179  -0.00927  -0.00045
  63        6D+1        0.00015   0.00044  -0.00118   0.00648  -0.00253
  64        6D-1       -0.00044  -0.00017   0.00028   0.00895  -0.00088
  65        6D+2       -0.00047  -0.00058   0.00242  -0.00263   0.00384
  66        6D-2       -0.00071   0.00030   0.00104   0.01853  -0.00234
  67 4   H  1S         -0.00007   0.00007   0.00948   0.00434   0.01247
  68        2S         -0.00094  -0.00284   0.02024   0.00437   0.01912
  69        3S         -0.00039   0.00462  -0.00851   0.00194  -0.00989
  70        4PX         0.00005   0.00008  -0.00053   0.00077  -0.00071
  71        4PY         0.00005   0.00005  -0.00153   0.00024  -0.00093
  72        4PZ         0.00037   0.00218  -0.00441  -0.00191  -0.00564
  73 5   H  1S         -0.00009   0.00005   0.00810   0.00443   0.01408
  74        2S         -0.00078  -0.00277   0.01480   0.00329   0.02225
  75        3S          0.00016   0.00270  -0.00650   0.00128  -0.00556
  76        4PX        -0.00010  -0.00075   0.00074   0.00127   0.00143
  77        4PY         0.00028   0.00171  -0.00411  -0.00104  -0.00540
  78        4PZ        -0.00016  -0.00106   0.00152   0.00081   0.00198
  79 6   O  1S         -0.00002   0.00000  -0.00647  -0.11126   0.01200
  80        2S         -0.00007  -0.00000  -0.01034  -0.17801   0.01923
  81        2PX        -0.00008  -0.00001  -0.00181  -0.02109   0.00073
  82        2PY        -0.00010  -0.00002  -0.00203  -0.02915   0.00219
  83        2PZ        -0.00000  -0.00001   0.00160   0.03150  -0.00407
  84        3S          0.00054   0.00012   0.02992   0.51527  -0.05614
  85        3PX        -0.00007   0.00006  -0.00326  -0.03444   0.00125
  86        3PY        -0.00007   0.00007  -0.00365  -0.04756   0.00364
  87        3PZ        -0.00017   0.00004   0.00250   0.04802  -0.00623
  88        4S         -0.00078  -0.00087   0.02039   0.37784  -0.04100
  89        4PX        -0.00009   0.00038  -0.00027  -0.02079   0.00109
  90        4PY         0.00027   0.00028  -0.00070  -0.02438   0.00103
  91        4PZ        -0.00036   0.00010   0.00005   0.01455  -0.00134
  92        5S          0.00480   0.00080  -0.00804  -0.04355   0.00595
  93        5PX        -0.00127  -0.00034   0.00231   0.00879  -0.00004
  94        5PY        -0.00120  -0.00035   0.00156   0.00785  -0.00026
  95        5PZ         0.00040   0.00042  -0.00202  -0.00312  -0.00021
  96        6D 0       -0.00003   0.00003   0.00012   0.00446  -0.00072
  97        6D+1       -0.00006  -0.00004   0.00013   0.00210  -0.00022
  98        6D-1       -0.00005  -0.00001   0.00006   0.00074  -0.00007
  99        6D+2        0.00006   0.00003  -0.00003  -0.00123   0.00023
 100        6D-2       -0.00018  -0.00006   0.00062   0.00761  -0.00042
 101 7   H  1S          0.00005  -0.00007   0.00282   0.01501   0.00247
 102        2S         -0.00294  -0.00089   0.00386   0.02684   0.00074
 103        3S          0.00395  -0.00023   0.00466  -0.00505  -0.00181
 104        4PX        -0.00008  -0.00002  -0.00037   0.00077  -0.00063
 105        4PY        -0.00003   0.00001  -0.00007   0.00164  -0.00034
 106        4PZ        -0.00221  -0.00029   0.00151   0.00712   0.00066
 107 8   H  1S          0.00007  -0.00007   0.00338   0.01526   0.00207
 108        2S         -0.00305  -0.00089   0.00289   0.02438   0.00180
 109        3S          0.00422  -0.00018   0.00140  -0.00824   0.00045
 110        4PX         0.00074   0.00005  -0.00121  -0.00140  -0.00081
 111        4PY        -0.00183  -0.00028   0.00083   0.00689   0.00056
 112        4PZ         0.00099   0.00017  -0.00049  -0.00237  -0.00052
 113 9   H  1S         -0.00009   0.00005   0.00507   0.09158  -0.01064
 114        2S          0.00090  -0.00022   0.00424   0.07436  -0.00991
 115        3S         -0.00106  -0.00075   0.00257   0.00399   0.00109
 116        4PX        -0.00018   0.00004  -0.00031  -0.00522   0.00047
 117        4PY        -0.00024   0.00006  -0.00008  -0.00336   0.00037
 118        4PZ        -0.00035   0.00002  -0.00128  -0.02316   0.00284
 119 10  C  1S         -0.00001   0.00003  -0.07070   0.00857   0.03661
 120        2S         -0.00002   0.00006  -0.10821   0.01310   0.05568
 121        2PX         0.00002   0.00001   0.00202   0.00091   0.00899
 122        2PY        -0.00001   0.00000   0.00287   0.00408   0.06332
 123        2PZ        -0.00001   0.00003   0.00079  -0.00232  -0.04069
 124        3S          0.00024  -0.00044   0.28940  -0.03538  -0.15387
 125        3PX         0.00000  -0.00008   0.00312   0.00130   0.01253
 126        3PY         0.00008  -0.00012   0.01276   0.00479   0.08943
 127        3PZ         0.00006  -0.00009  -0.00563  -0.00233  -0.05753
 128        4S         -0.00197  -0.00084   0.06828  -0.00798  -0.03746
 129        4PX         0.00043   0.00228   0.00594  -0.00141  -0.00023
 130        4PY        -0.00056   0.00264   0.00475  -0.00279  -0.00168
 131        4PZ         0.00113   0.00155   0.00352  -0.00122   0.00071
 132        5S          0.00008   0.00130   0.02630  -0.00302  -0.01637
 133        5PX         0.00027  -0.00061   0.00428  -0.00133   0.00094
 134        5PY        -0.00057   0.00054   0.00243  -0.00058   0.00266
 135        5PZ        -0.00050  -0.00046  -0.00078  -0.00249  -0.00071
 136        6D 0        0.00002  -0.00005   0.00293  -0.00051  -0.00426
 137        6D+1       -0.00001  -0.00000   0.01417  -0.00254  -0.01982
 138        6D-1        0.00002  -0.00010  -0.00563  -0.00064  -0.01939
 139        6D+2        0.00003  -0.00007  -0.00579  -0.00020  -0.01159
 140        6D-2       -0.00007   0.00007   0.01154  -0.00159  -0.00989
 141 11  O  1S          0.00000   0.00000  -0.04629   0.00800   0.05590
 142        2S          0.00001   0.00003  -0.07382   0.01277   0.08929
 143        2PX         0.00000   0.00001   0.02264  -0.00373  -0.02434
 144        2PY        -0.00000   0.00002   0.02683  -0.00404  -0.02200
 145        2PZ        -0.00001   0.00002   0.01193  -0.00230  -0.01870
 146        3S         -0.00010  -0.00028   0.21081  -0.03645  -0.25621
 147        3PX        -0.00000  -0.00007   0.03433  -0.00536  -0.03498
 148        3PY         0.00001  -0.00009   0.04020  -0.00579  -0.03057
 149        3PZ         0.00004  -0.00008   0.01857  -0.00346  -0.02782
 150        4S          0.00067   0.00170   0.14242  -0.02580  -0.17923
 151        4PX         0.00020   0.00053   0.01212  -0.00285  -0.01270
 152        4PY         0.00024   0.00071   0.01473  -0.00252  -0.00820
 153        4PZ        -0.00009   0.00030   0.00581  -0.00158  -0.01253
 154        5S          0.00033   0.00499  -0.01017  -0.00406   0.01041
 155        5PX        -0.00007   0.00122  -0.00152   0.00034   0.00115
 156        5PY         0.00044   0.00166  -0.00017  -0.00138   0.00145
 157        5PZ         0.00021   0.00011  -0.00014  -0.00008  -0.00003
 158        6D 0       -0.00001  -0.00002  -0.00278   0.00033   0.00079
 159        6D+1        0.00000  -0.00001   0.00273  -0.00055  -0.00441
 160        6D-1        0.00001  -0.00001   0.00385  -0.00067  -0.00478
 161        6D+2       -0.00001  -0.00001  -0.00061  -0.00002  -0.00134
 162        6D-2        0.00002   0.00001   0.00602  -0.00089  -0.00460
 163 12  O  1S         -0.00000   0.00000  -0.04975   0.00732   0.05208
 164        2S         -0.00001   0.00001  -0.07936   0.01167   0.08319
 165        2PX         0.00000   0.00001  -0.02057   0.00321   0.02165
 166        2PY        -0.00001   0.00005   0.00173   0.00042   0.00757
 167        2PZ        -0.00000  -0.00003  -0.03340   0.00447   0.02697
 168        3S          0.00009  -0.00003   0.22654  -0.03342  -0.23893
 169        3PX         0.00000  -0.00006  -0.03178   0.00479   0.03106
 170        3PY         0.00005  -0.00020   0.00179   0.00093   0.01196
 171        3PZ        -0.00000   0.00010  -0.05061   0.00650   0.03782
 172        4S         -0.00030  -0.00090   0.15054  -0.02200  -0.16555
 173        4PX        -0.00002   0.00000  -0.00903   0.00215   0.01225
 174        4PY        -0.00022   0.00011   0.00300   0.00028   0.00759
 175        4PZ         0.00015  -0.00013  -0.01696   0.00228   0.01232
 176        5S         -0.00205  -0.00049  -0.02397   0.00342   0.00693
 177        5PX         0.00026   0.00070   0.00032  -0.00271  -0.00086
 178        5PY        -0.00006  -0.00027  -0.00071  -0.00062   0.00070
 179        5PZ         0.00081   0.00073   0.00273   0.00017  -0.00185
 180        6D 0        0.00000   0.00002   0.00494  -0.00058  -0.00252
 181        6D+1        0.00000   0.00005   0.00668  -0.00097  -0.00563
 182        6D-1        0.00001  -0.00001   0.00006  -0.00022  -0.00303
 183        6D+2       -0.00000   0.00000   0.00240  -0.00039  -0.00268
 184        6D-2       -0.00001   0.00004  -0.00034  -0.00006  -0.00144
                          11        12        13        14        15
                           O         O         O         O         O
     Eigenvalues --    -0.94631  -0.73449  -0.63214  -0.53823  -0.51321
   1 1   O  1S          0.00656   0.02868  -0.00810   0.02753  -0.00341
   2        2S          0.01054   0.04635  -0.01311   0.04470  -0.00549
   3        2PX         0.00719   0.03196  -0.03042  -0.02864   0.05422
   4        2PY         0.00745   0.05500  -0.10022  -0.12394   0.01849
   5        2PZ         0.00477  -0.01543   0.01143   0.07563  -0.02506
   6        3S         -0.03115  -0.13989   0.03969  -0.13665   0.01610
   7        3PX         0.01038   0.04647  -0.04496  -0.04309   0.07941
   8        3PY         0.01088   0.08239  -0.14821  -0.18225   0.02714
   9        3PZ         0.00686  -0.02413   0.01730   0.11003  -0.03689
  10        4S         -0.02488  -0.12316   0.03657  -0.14386   0.01954
  11        4PX         0.00883   0.02854  -0.02475  -0.02465   0.06126
  12        4PY         0.00953   0.04308  -0.09144  -0.11949   0.01006
  13        4PZ         0.00570  -0.01159   0.00795   0.08027  -0.02690
  14        5S         -0.00962  -0.01813   0.00773  -0.00958  -0.00551
  15        5PX         0.00113  -0.01457  -0.00214   0.00825  -0.00938
  16        5PY         0.00884  -0.01105   0.00309   0.02343  -0.00404
  17        5PZ        -0.00512   0.00064   0.00160  -0.00992   0.00162
  18        6D 0        0.00224  -0.00290   0.00206   0.00594  -0.00321
  19        6D+1        0.00167   0.00169  -0.00235   0.00173   0.00258
  20        6D-1        0.00005   0.00545  -0.00877  -0.00814   0.00187
  21        6D+2        0.00160   0.00327  -0.00069  -0.00223   0.00529
  22        6D-2       -0.00161   0.00395  -0.00549  -0.00538   0.00061
  23 2   C  1S         -0.00186  -0.07373   0.05657  -0.02738   0.01404
  24        2S         -0.00277  -0.11471   0.08861  -0.04252   0.02197
  25        2PX         0.00028   0.03539   0.05038   0.07228   0.02601
  26        2PY        -0.00152   0.00814  -0.01617   0.04477  -0.08211
  27        2PZ         0.00183  -0.01111  -0.01072   0.08127  -0.01482
  28        3S          0.00572   0.30878  -0.24401   0.11521  -0.05927
  29        3PX         0.00128   0.05370   0.08257   0.10787   0.03696
  30        3PY        -0.00123   0.00241  -0.01508   0.06560  -0.12149
  31        3PZ         0.00391  -0.02233  -0.01233   0.12218  -0.02265
  32        4S          0.00325   0.18474  -0.15275   0.09014  -0.06265
  33        4PX         0.00305   0.01405   0.02524   0.05340   0.01307
  34        4PY        -0.00922   0.00198  -0.01758   0.03195  -0.06502
  35        4PZ         0.00991  -0.00513  -0.01566   0.06794  -0.01764
  36        5S         -0.00064   0.03428  -0.09103  -0.13136   0.00132
  37        5PX         0.00420   0.00410  -0.01174  -0.00073  -0.00125
  38        5PY        -0.00035   0.00390   0.00705   0.03930  -0.00899
  39        5PZ        -0.00023  -0.00040   0.00450   0.01253  -0.00006
  40        6D 0        0.00070  -0.00094  -0.00089   0.00962  -0.00623
  41        6D+1       -0.00050  -0.00414  -0.01062  -0.01005   0.00156
  42        6D-1       -0.00100   0.00217  -0.00117  -0.01037   0.01120
  43        6D+2       -0.00078   0.00588   0.00439  -0.00012  -0.00133
  44        6D-2       -0.00008  -0.00512  -0.00915  -0.01567  -0.00131
  45 3   C  1S         -0.00050  -0.07254  -0.06418   0.00080  -0.01901
  46        2S         -0.00075  -0.11285  -0.10051   0.00148  -0.02937
  47        2PX        -0.00083  -0.03973   0.03900  -0.04173  -0.02781
  48        2PY        -0.00070  -0.00669  -0.01629  -0.00678  -0.12078
  49        2PZ         0.00050   0.00095  -0.02853   0.06268   0.03371
  50        3S          0.00189   0.30384   0.27690  -0.00558   0.07734
  51        3PX        -0.00130  -0.05991   0.06569  -0.06309  -0.04300
  52        3PY        -0.00043  -0.00017  -0.01403  -0.01214  -0.18178
  53        3PZ         0.00043   0.00674  -0.03924   0.09313   0.05129
  54        4S         -0.00306   0.18354   0.17655   0.00283   0.07959
  55        4PX        -0.00177  -0.01822   0.02260  -0.02352  -0.01816
  56        4PY         0.00305  -0.00185  -0.01756   0.00104  -0.10057
  57        4PZ        -0.00449   0.00325  -0.01597   0.05608   0.04632
  58        5S         -0.01153   0.00061   0.07360   0.06728   0.02158
  59        5PX         0.00179  -0.00431  -0.01525  -0.02423  -0.00779
  60        5PY         0.00157  -0.01332   0.00025  -0.00841  -0.00892
  61        5PZ        -0.00291  -0.00386   0.00232   0.00968   0.01110
  62        6D 0        0.00010  -0.00156   0.00090   0.00261   0.00911
  63        6D+1       -0.00027  -0.00638   0.00379  -0.00551   0.00505
  64        6D-1        0.00001  -0.00023  -0.00344   0.00474  -0.00514
  65        6D+2        0.00037   0.00490  -0.00664  -0.00015   0.00416
  66        6D-2       -0.00023  -0.00541   0.00833  -0.01103  -0.01655
  67 4   H  1S          0.00322   0.04945  -0.05482   0.08727  -0.03014
  68        2S          0.00003   0.05746  -0.06715   0.09987  -0.03200
  69        3S         -0.00083  -0.00487   0.00483   0.03094  -0.00907
  70        4PX        -0.00033   0.00147   0.00190   0.00400   0.00242
  71        4PY        -0.00048  -0.00037  -0.00041   0.00159  -0.00403
  72        4PZ         0.00052  -0.01103   0.01006  -0.00876   0.00324
  73 5   H  1S         -0.00003   0.05429  -0.06319   0.01263  -0.06580
  74        2S          0.00371   0.06388  -0.07851   0.01780  -0.08387
  75        3S          0.00295  -0.00427  -0.00071   0.00213  -0.01810
  76        4PX         0.00014   0.00614  -0.00231   0.00302  -0.00291
  77        4PY        -0.00018  -0.00891   0.00869   0.00038   0.00467
  78        4PZ         0.00001   0.00444  -0.00575   0.00431  -0.00515
  79 6   O  1S          0.00103   0.02999   0.01436   0.01169   0.01577
  80        2S          0.00165   0.04838   0.02315   0.01905   0.02575
  81        2PX         0.00000  -0.03314  -0.03729  -0.00367   0.07254
  82        2PY         0.00010  -0.02593  -0.05666   0.01666   0.02491
  83        2PZ        -0.00033  -0.03865  -0.07321   0.06942   0.14467
  84        3S         -0.00483  -0.14521  -0.06901  -0.05897  -0.07990
  85        3PX         0.00001  -0.04836  -0.05486  -0.00453   0.10662
  86        3PY         0.00023  -0.03798  -0.08352   0.02508   0.03738
  87        3PZ        -0.00050  -0.05741  -0.10675   0.09998   0.20818
  88        4S         -0.00344  -0.12139  -0.05946  -0.06886  -0.10023
  89        4PX         0.00021  -0.02752  -0.03074  -0.00769   0.07222
  90        4PY        -0.00039  -0.02081  -0.05161   0.01734   0.01726
  91        4PZ         0.00061  -0.02361  -0.06111   0.06991   0.13595
  92        5S          0.00377  -0.02909  -0.02022  -0.02531   0.00880
  93        5PX        -0.00047   0.00664  -0.00158   0.00418   0.00005
  94        5PY        -0.00065   0.00337   0.00119   0.00114  -0.00105
  95        5PZ         0.00149  -0.00946  -0.00344  -0.00856   0.00824
  96        6D 0       -0.00005  -0.00687  -0.00906   0.00374   0.01143
  97        6D+1       -0.00004  -0.00061   0.00098  -0.00333  -0.00190
  98        6D-1       -0.00003   0.00052   0.00203  -0.00371  -0.00551
  99        6D+2       -0.00001   0.00047  -0.00308   0.00206  -0.00303
 100        6D-2       -0.00002   0.00392   0.00510  -0.00035  -0.00481
 101 7   H  1S          0.00020   0.05408   0.07141  -0.04295   0.00384
 102        2S         -0.00106   0.06417   0.08907  -0.05165   0.01023
 103        3S         -0.00163  -0.00522   0.00332  -0.00661   0.00747
 104        4PX         0.00003  -0.00210   0.00171  -0.00136  -0.00086
 105        4PY        -0.00017   0.00031  -0.00031  -0.00036  -0.00542
 106        4PZ        -0.00006   0.01136   0.01197  -0.00447   0.00191
 107 8   H  1S          0.00060   0.05007   0.06392   0.01137   0.09662
 108        2S          0.00397   0.05774   0.07839   0.01201   0.11168
 109        3S          0.00412  -0.00493   0.00320   0.00298   0.01730
 110        4PX        -0.00071  -0.00519  -0.00260  -0.00294  -0.00607
 111        4PY         0.00032   0.00866   0.00928   0.00056   0.00562
 112        4PZ         0.00020  -0.00430  -0.00642   0.00282  -0.00373
 113 9   H  1S         -0.00089  -0.05346  -0.07023   0.04294   0.10597
 114        2S         -0.00137  -0.05852  -0.08048   0.05402   0.14257
 115        3S         -0.00193   0.01014  -0.00819   0.02848   0.02819
 116        4PX         0.00006  -0.00057   0.00059  -0.00422   0.00035
 117        4PY        -0.00003  -0.00134  -0.00334  -0.00082  -0.00205
 118        4PZ         0.00035   0.01204   0.01244  -0.00532  -0.01701
 119 10  C  1S          0.00131   0.01433  -0.02256  -0.03962   0.01535
 120        2S          0.00211   0.02283  -0.03594  -0.06305   0.02452
 121        2PX         0.08762  -0.00433   0.00641   0.00206   0.01809
 122        2PY         0.05044  -0.04044   0.04461   0.06253  -0.02086
 123        2PZ         0.09210   0.02385  -0.03643  -0.04601   0.00070
 124        3S         -0.00715  -0.06598   0.10553   0.18599  -0.07499
 125        3PX         0.11315  -0.00623   0.00962   0.00352   0.02791
 126        3PY         0.06461  -0.06222   0.06804   0.09414  -0.03355
 127        3PZ         0.11925   0.03769  -0.05589  -0.06864   0.00222
 128        4S          0.00711  -0.03799   0.07373   0.14974  -0.05330
 129        4PX        -0.00293  -0.00515   0.00973   0.01864   0.01526
 130        4PY         0.00186  -0.01368   0.01670   0.04632  -0.01662
 131        4PZ        -0.00616   0.00029  -0.00645  -0.00833  -0.00149
 132        5S          0.01200  -0.02157   0.01731   0.05078  -0.01977
 133        5PX         0.01193  -0.00232   0.00270   0.00671   0.00172
 134        5PY         0.01140  -0.00635   0.00713   0.02376  -0.00729
 135        5PZ         0.00720   0.00633  -0.00216  -0.00416   0.00029
 136        6D 0        0.01608  -0.00297   0.00449  -0.00005  -0.00229
 137        6D+1        0.00832   0.00176  -0.00068   0.00210  -0.00350
 138        6D-1       -0.00636   0.01280  -0.01255  -0.00592   0.00261
 139        6D+2        0.00735   0.00634  -0.00383  -0.00512   0.00299
 140        6D-2       -0.01343   0.00411  -0.00324   0.00286   0.00335
 141 11  O  1S          0.08057  -0.01533   0.01675   0.01993  -0.01022
 142        2S          0.12893  -0.02463   0.02699   0.03230  -0.01653
 143        2PX        -0.02867   0.00202   0.00404   0.01439  -0.00319
 144        2PY        -0.03744  -0.00580   0.01594   0.03838  -0.02297
 145        2PZ        -0.01213   0.00721  -0.00973  -0.00891  -0.00523
 146        3S         -0.37026   0.07212  -0.07935  -0.09645   0.04911
 147        3PX        -0.04249   0.00221   0.00649   0.01922  -0.00388
 148        3PY        -0.05608  -0.00945   0.02358   0.05377  -0.03294
 149        3PZ        -0.01743   0.01000  -0.01392  -0.01390  -0.00780
 150        4S         -0.27599   0.05808  -0.07528  -0.09964   0.05585
 151        4PX        -0.01478   0.00056   0.00280   0.01281  -0.00137
 152        4PY        -0.02317  -0.00632   0.01409   0.03773  -0.02139
 153        4PZ        -0.00309   0.00614  -0.00954  -0.01002  -0.00451
 154        5S          0.00870   0.00161  -0.00947   0.00393   0.01230
 155        5PX        -0.00144  -0.00012  -0.00022   0.00540  -0.00177
 156        5PY         0.00051  -0.00224  -0.00067   0.00519  -0.00084
 157        5PZ        -0.00217  -0.00137   0.00011   0.00107   0.00005
 158        6D 0        0.00529   0.00096  -0.00177  -0.00293   0.00056
 159        6D+1       -0.00221   0.00113  -0.00123  -0.00155  -0.00029
 160        6D-1       -0.00426   0.00087  -0.00093  -0.00037  -0.00125
 161        6D+2        0.00244   0.00132  -0.00148  -0.00269   0.00220
 162        6D-2       -0.00907  -0.00044   0.00152   0.00280  -0.00109
 163 12  O  1S         -0.08246  -0.00562   0.00850   0.02137  -0.00489
 164        2S         -0.13194  -0.00901   0.01370   0.03462  -0.00792
 165        2PX        -0.02448   0.00093   0.00089  -0.00438   0.01858
 166        2PY         0.00485  -0.00436   0.00691   0.03013  -0.00642
 167        2PZ        -0.04213   0.00309  -0.00987  -0.03053   0.00493
 168        3S          0.37838   0.02543  -0.03962  -0.10304   0.02295
 169        3PX        -0.03586   0.00158   0.00153  -0.00514   0.02632
 170        3PY         0.00788  -0.00681   0.01085   0.04413  -0.00975
 171        3PZ        -0.06230   0.00532  -0.01466  -0.04257   0.00628
 172        4S          0.28525   0.02843  -0.04638  -0.11967   0.03136
 173        4PX        -0.01213   0.00037   0.00338   0.00013   0.02024
 174        4PY         0.00732  -0.00315   0.00548   0.03069  -0.00592
 175        4PZ        -0.02539   0.00073  -0.00590  -0.02405   0.00216
 176        5S         -0.00799   0.01462  -0.01932  -0.04340   0.00411
 177        5PX        -0.00250  -0.00252   0.00266   0.00328  -0.00406
 178        5PY        -0.00424   0.00168  -0.00095   0.00050  -0.00242
 179        5PZ         0.00059  -0.00432   0.00480   0.00632   0.00181
 180        6D 0        0.00732  -0.00106   0.00174   0.00223   0.00058
 181        6D+1        0.00831  -0.00021  -0.00025   0.00062  -0.00188
 182        6D-1       -0.00173   0.00155  -0.00195  -0.00387   0.00097
 183        6D+2        0.00270   0.00003  -0.00010  -0.00074  -0.00081
 184        6D-2       -0.00168   0.00139  -0.00143  -0.00214   0.00112
                          16        17        18        19        20
                           O         O         O         O         O
     Eigenvalues --    -0.46585  -0.44944  -0.43478  -0.42456  -0.40327
   1 1   O  1S         -0.00160  -0.01419   0.01004  -0.01469   0.00724
   2        2S         -0.00262  -0.02307   0.01632  -0.02389   0.01180
   3        2PX        -0.00684  -0.05751   0.12977   0.02091   0.03142
   4        2PY         0.04387  -0.07522  -0.04075   0.01306  -0.01528
   5        2PZ         0.06586  -0.06565   0.01776  -0.07981  -0.01149
   6        3S          0.00855   0.07008  -0.04930   0.07278  -0.03659
   7        3PX        -0.00946  -0.08331   0.19005   0.03164   0.04576
   8        3PY         0.06520  -0.11014  -0.06037   0.01913  -0.02190
   9        3PZ         0.09714  -0.09568   0.02567  -0.11667  -0.01686
  10        4S          0.00814   0.08135  -0.05876   0.09805  -0.04618
  11        4PX        -0.01664  -0.06404   0.15830   0.02999   0.04067
  12        4PY         0.04269  -0.08002  -0.05443   0.01157  -0.02185
  13        4PZ         0.08024  -0.08092   0.01532  -0.09315  -0.01775
  14        5S          0.00112   0.00767  -0.00502   0.03696  -0.03926
  15        5PX         0.00616  -0.00943   0.00406  -0.00469  -0.00130
  16        5PY         0.00207  -0.00699   0.01133   0.00124  -0.00407
  17        5PZ        -0.00572   0.00068   0.00136   0.00401  -0.00779
  18        6D 0        0.00623  -0.00349  -0.00220  -0.00649  -0.00416
  19        6D+1        0.00455  -0.00573   0.00926  -0.00040   0.00334
  20        6D-1        0.00573  -0.00433  -0.00191   0.00185   0.00293
  21        6D+2        0.00101  -0.00225   0.00584   0.00090  -0.00337
  22        6D-2        0.00124  -0.00231  -0.00348  -0.00042  -0.00175
  23 2   C  1S          0.00412   0.00291  -0.00457   0.00350  -0.01041
  24        2S          0.00624   0.00497  -0.00727   0.00536  -0.01650
  25        2PX        -0.04099   0.05586   0.04936   0.02589  -0.05259
  26        2PY        -0.04388   0.05303  -0.07556  -0.01653   0.01563
  27        2PZ         0.10824  -0.02678   0.00197  -0.01504   0.06126
  28        3S         -0.01710  -0.01771   0.02084  -0.01112   0.04509
  29        3PX        -0.06121   0.08314   0.07088   0.03824  -0.07807
  30        3PY        -0.06639   0.08166  -0.11351  -0.02427   0.02164
  31        3PZ         0.15929  -0.03934   0.00306  -0.02409   0.08865
  32        4S         -0.01322   0.00164   0.02395  -0.04028   0.06374
  33        4PX        -0.03390   0.04257   0.07178   0.02143  -0.04944
  34        4PY        -0.04832   0.04446  -0.08156   0.00889   0.00523
  35        4PZ         0.09911  -0.03384   0.02906  -0.02877   0.06273
  36        5S         -0.05220   0.11705  -0.04989   0.13211   0.01300
  37        5PX        -0.01670   0.03684   0.01113   0.03686  -0.01345
  38        5PY        -0.00222  -0.00584   0.00586  -0.00313  -0.01585
  39        5PZ         0.00928  -0.01480   0.02128  -0.02020   0.00994
  40        6D 0        0.00113   0.00390  -0.00119  -0.00767   0.00842
  41        6D+1        0.00405  -0.00226  -0.00658   0.00992   0.00475
  42        6D-1       -0.00026  -0.00284   0.00724   0.00568   0.00023
  43        6D+2        0.00248   0.00324  -0.00825   0.00574  -0.00932
  44        6D-2        0.01188  -0.01222   0.00775   0.00242  -0.00319
  45 3   C  1S          0.00229  -0.00311   0.01129   0.00102   0.01272
  46        2S          0.00322  -0.00477   0.01774   0.00113   0.02033
  47        2PX         0.09342  -0.04430  -0.05825   0.02750   0.04842
  48        2PY        -0.01164   0.02944   0.05371   0.05899  -0.05971
  49        2PZ         0.06320   0.00700  -0.00420   0.13169  -0.03422
  50        3S         -0.00799   0.01320  -0.04588   0.00026  -0.06149
  51        3PX         0.13997  -0.06379  -0.08608   0.04569   0.07067
  52        3PY        -0.01383   0.04413   0.07902   0.09341  -0.09083
  53        3PZ         0.09382   0.00977  -0.00756   0.19558  -0.05393
  54        4S         -0.00430   0.00155  -0.08094  -0.01340  -0.04397
  55        4PX         0.07930  -0.03684  -0.05353   0.01294   0.04432
  56        4PY        -0.00768   0.02229   0.05252   0.02648  -0.05450
  57        4PZ         0.06396   0.01486  -0.03464   0.15611  -0.04379
  58        5S          0.04747  -0.10925   0.01542  -0.12098  -0.00044
  59        5PX        -0.00132   0.01971  -0.02001   0.01748   0.01408
  60        5PY         0.00104  -0.00743   0.00873  -0.02403   0.02022
  61        5PZ         0.01237  -0.00362  -0.01415   0.01182  -0.00653
  62        6D 0       -0.00656   0.00078  -0.00402  -0.01871   0.00258
  63        6D+1        0.00180  -0.00071  -0.01085   0.00732  -0.00447
  64        6D-1       -0.00187   0.00525   0.00131   0.00937  -0.01133
  65        6D+2       -0.00353  -0.00203   0.00185  -0.00306   0.00219
  66        6D-2        0.01450  -0.00649   0.00836   0.01232  -0.00100
  67 4   H  1S          0.07395  -0.01333  -0.00051  -0.02118   0.06327
  68        2S          0.09290  -0.01389  -0.01410  -0.02027   0.08645
  69        3S          0.03378  -0.00535  -0.01360  -0.01898   0.02116
  70        4PX        -0.00177   0.00305   0.00234   0.00231  -0.00287
  71        4PY        -0.00300   0.00077  -0.00303  -0.00093   0.00060
  72        4PZ        -0.00589   0.00241   0.00133  -0.00051  -0.00583
  73 5   H  1S         -0.05762   0.02661  -0.06030  -0.01905   0.01810
  74        2S         -0.07027   0.02966  -0.07061  -0.03048   0.02716
  75        3S         -0.01207   0.00324  -0.01357  -0.02869   0.02038
  76        4PX        -0.00515   0.00371   0.00024   0.00030  -0.00242
  77        4PY         0.00447   0.00040   0.00207   0.00182  -0.00091
  78        4PZ         0.00303  -0.00069  -0.00371  -0.00180   0.00448
  79 6   O  1S          0.00028   0.00600  -0.01500   0.01119  -0.01460
  80        2S          0.00036   0.00979  -0.02443   0.01815  -0.02378
  81        2PX        -0.01795  -0.03087  -0.02728  -0.10407   0.09570
  82        2PY        -0.08481   0.02190   0.05074  -0.10137   0.01467
  83        2PZ        -0.04857   0.03183  -0.06275   0.01340  -0.06922
  84        3S          0.00068  -0.03052   0.07452  -0.05335   0.07197
  85        3PX        -0.02616  -0.04476  -0.04046  -0.15124   0.13915
  86        3PY        -0.12459   0.03251   0.07385  -0.14736   0.02039
  87        3PZ        -0.06987   0.04584  -0.08939   0.02035  -0.09924
  88        4S         -0.00129  -0.03568   0.10261  -0.06416   0.09551
  89        4PX        -0.01171  -0.03959  -0.03389  -0.11990   0.11898
  90        4PY        -0.09160   0.02612   0.05977  -0.11369   0.01373
  91        4PZ        -0.04359   0.03365  -0.06647   0.02410  -0.08326
  92        5S         -0.01939  -0.01470   0.02738  -0.04150   0.04662
  93        5PX        -0.00607   0.00007   0.00462  -0.01175   0.01071
  94        5PY        -0.00430   0.00296   0.00479  -0.01222   0.00038
  95        5PZ        -0.01137  -0.00399  -0.00370  -0.02686   0.00525
  96        6D 0       -0.00722   0.00158  -0.00255  -0.00708  -0.00097
  97        6D+1       -0.00133  -0.00166   0.00069  -0.00632   0.00466
  98        6D-1       -0.00210  -0.00071   0.00345  -0.00674   0.00360
  99        6D+2       -0.00579   0.00374   0.00518  -0.00068  -0.00457
 100        6D-2        0.00395   0.00077   0.00012   0.00838  -0.00500
 101 7   H  1S         -0.05296  -0.00244  -0.01312  -0.11504   0.01872
 102        2S         -0.06472  -0.00082  -0.02271  -0.14254   0.02028
 103        3S         -0.01637   0.00757  -0.01803  -0.04170   0.01081
 104        4PX         0.00537  -0.00269  -0.00375   0.00070   0.00296
 105        4PY        -0.00204   0.00200   0.00241   0.00213  -0.00336
 106        4PZ        -0.00396  -0.00011  -0.00213  -0.00720  -0.00010
 107 8   H  1S          0.04619  -0.02368  -0.06423   0.00520   0.03429
 108        2S          0.06194  -0.03351  -0.07466  -0.00422   0.05036
 109        3S          0.01151  -0.00786  -0.01319  -0.00929   0.02701
 110        4PX         0.00139  -0.00086  -0.00215   0.00073   0.00006
 111        4PY         0.00617  -0.00239  -0.00471   0.00303   0.00028
[...]
 RMS     Displacement     0.000318     0.001200     YES
 Predicted change in Energy=-2.550698D-08
 Optimization completed.
    -- Stationary point found.
 GradGradGradGradGradGradGradGradGradGradGradGradGradGradGradGradGradGrad

 Leave Link  103 at Fri Jun  2 11:45:35 2023, MaxMem=  7381975040 cpu:               1.5 elap:               2.0
 (Enter /software/commercial/gaussian/g16/AVX/g16/l9999.exe)

 ----------------------------------------------------------------------

 Electric dipole moment (input orientation):
 (Debye = 10**-18 statcoulomb cm , SI units = C m)
                  (au)            (Debye)         (10**-30 SI)
   Tot        0.649772D+01      0.165156D+02      0.550900D+02
   x         -0.430628D+01     -0.109455D+02     -0.365101D+02
   y          0.484361D+01      0.123112D+02      0.410659D+02
   z         -0.464575D+00     -0.118083D+01     -0.393883D+01

 Dipole polarizability, Alpha (input orientation).
 (esu units = cm**3 , SI units = C**2 m**2 J**-1)
 Alpha(0;0):
               (au)            (10**-24 esu)      (10**-40 SI)
   iso        0.715121D+02      0.105970D+02      0.117908D+02
   aniso      0.253987D+02      0.376370D+01      0.418768D+01
   xx         0.691536D+02      0.102475D+02      0.114019D+02
   yx         0.124541D+02      0.184550D+01      0.205340D+01
   yy         0.768635D+02      0.113900D+02      0.126731D+02
   zx         0.613096D+01      0.908515D+00      0.101086D+01
   zy        -0.871967D+00     -0.129212D+00     -0.143768D+00
   zz         0.685193D+02      0.101535D+02      0.112973D+02

 First dipole hyperpolarizability, Beta (input orientation).
 ||, _|_  parallel and perpendicular components, (z) with respect to z axis,
 vector components x,y,z.  Values do not include the 1/n! factor of 1/2.
 (esu units = statvolt**-1 cm**4 , SI units = C**3 m**3 J**-2)
 Beta(0;0,0):
               (au)            (10**-30 esu)      (10**-50 SI)
   || (z)     0.325496D+02      0.281203D+00      0.104366D+00
   _|_(z)     0.108499D+02      0.937345D-01      0.347886D-01
   x          0.165387D+03      0.142881D+01      0.530290D+00
   y          0.334304D+03      0.288813D+01      0.107190D+01
   z          0.162748D+03      0.140602D+01      0.521829D+00
   ||         0.813877D+02      0.703127D+00      0.260959D+00
   xxx        0.507523D+02      0.438461D+00      0.162730D+00
   xxy        0.599757D+02      0.518143D+00      0.192304D+00
   yxy        0.332388D+02      0.287157D+00      0.106576D+00
   yyy        0.510451D+02      0.440990D+00      0.163669D+00
   xxz       -0.196601D+01     -0.169848D-01     -0.630374D-02
   yxz        0.343134D+02      0.296441D+00      0.110021D+00
   yyz        0.760097D+02      0.656665D+00      0.243715D+00
   zxz       -0.288622D+02     -0.249347D+00     -0.925425D-01
   zyz        0.413910D+00      0.357586D-02      0.132714D-02
   zzz       -0.197943D+02     -0.171008D+00     -0.634678D-01

 ----------------------------------------------------------------------

 Dipole orientation:
     8          0.82621064          2.19182155         -4.54252911
     6          3.23105297          3.37491745         -4.24401039
     6          3.70276995          5.29964598         -6.33944244
     1          4.73249504          1.95745930         -4.23112503
     1          3.18626165          4.33156595         -2.41464379
     8          6.05925233          6.59035720         -5.99608497
     1          2.24173190          6.75524623         -6.29923302
     1          3.63950923          4.35830979         -8.17990032
     1          7.40788100          5.39077143         -6.23740562
     6          0.67171563          0.05542336         -6.17026779
     8         -1.52738452         -0.75797609         -6.37162107
     8          2.67481455         -0.71091166         -7.13917792

 Electric dipole moment (dipole orientation):
 (Debye = 10**-18 statcoulomb cm , SI units = C m)
                  (au)            (Debye)         (10**-30 SI)
   Tot        0.649772D+01      0.165156D+02      0.550900D+02
   x          0.000000D+00      0.000000D+00      0.000000D+00
   y          0.000000D+00      0.000000D+00      0.000000D+00
   z          0.649772D+01      0.165156D+02      0.550900D+02

 Dipole polarizability, Alpha (dipole orientation).
 (esu units = cm**3 , SI units = C**2 m**2 J**-1)
 Alpha(0;0):
               (au)            (10**-24 esu)      (10**-40 SI)
   iso        0.715121D+02      0.105970D+02      0.117908D+02
   aniso      0.253987D+02      0.376370D+01      0.418768D+01
   xx         0.817087D+02      0.121080D+02      0.134719D+02
   yx         0.798885D+01      0.118383D+01      0.131718D+01
   yy         0.710245D+02      0.105247D+02      0.117104D+02
   zx         0.267087D+00      0.395782D-01      0.440367D-01
   zy         0.720440D+01      0.106758D+01      0.118785D+01
   zz         0.618033D+02      0.915830D+01      0.101900D+02

 First dipole hyperpolarizability, Beta (dipole orientation).
 ||, _|_  parallel and perpendicular components, (z) with respect to z axis,
 vector components x,y,z.  Values do not include the 1/n! factor of 1/2.
 (esu units = statvolt**-1 cm**4 , SI units = C**3 m**3 J**-2)
 Beta(0;0,0):
               (au)            (10**-30 esu)      (10**-50 SI)
   || (z)     0.255914D+02      0.221090D+00      0.820553D-01
   _|_(z)     0.853047D+01      0.736966D-01      0.273518D-01
   x          0.372883D+03      0.322142D+01      0.119560D+01
   y          0.100916D+03      0.871840D+00      0.323575D+00
   z          0.127957D+03      0.110545D+01      0.410276D+00
   ||         0.813877D+02      0.703127D+00      0.260959D+00
   xxx        0.111015D+03      0.959084D+00      0.355955D+00
   xxy        0.783094D+02      0.676532D+00      0.251088D+00
   yxy        0.130349D+02      0.112611D+00      0.417946D-01
   yyy       -0.361171D+02     -0.312024D+00     -0.115804D+00
   xxz        0.496163D+02      0.428646D+00      0.159088D+00
   yxz       -0.191011D+02     -0.165018D+00     -0.612450D-01
   yyz       -0.342252D+02     -0.295679D+00     -0.109738D+00
   zxz        0.244390D+00      0.211134D-02      0.783601D-03
   zyz       -0.855348D+01     -0.738954D-01     -0.274256D-01
   zzz        0.272613D+02      0.235516D+00      0.874094D-01

 ----------------------------------------------------------------------
 Unable to Open any file for archive entry.
 1\1\GINC-NODE1711\Freq\RB3LYP\6-311+G(d,p)\C3H5O4(1-)\SVICCHI\02-Jun-2
 023\0\\#p freq=raman scale=0.967 pop=(nbo,full,hirshfeld) guess=read g
 eom=allcheck b3lyp/6-311+G(d,p) int=grid=ultrafine EmpiricalDispersion
 =GD3BJ SCRF=(Solvent=ethanol) scf=(xqc,intrep,maxconventionalcycle=350
 ) nosymm\\EG-CO2_binding-site_index-0.gjf\\-1,1\O,2.4406033363,-1.0935
 122583,-0.4029747882\C,3.3396229819,-0.047263001,-0.0375702796\C,4.747
 9633128,-0.3320436308,-0.5520950897\H,3.3546926353,0.0793704856,1.0476
 437116\H,2.9549165732,0.8650234336,-0.4998582664\O,5.6480722737,0.7411
 437313,-0.2477976848\H,4.7362791189,-0.4182523013,-1.6401937995\H,5.11
 07399362,-1.2758743847,-0.1333220152\H,5.7710240195,0.7707709908,0.707
 4986805\C,2.366858582,-2.2330555197,0.4471646436\O,1.5952255607,-3.104
 4923782,0.0044060733\O,3.0494666695,-2.2141061673,1.4886128145\\Versio
 n=ES64L-G16RevC.01\HF=-418.540312\RMSD=9.911e-09\RMSF=2.356e-05\ZeroPo
 int=0.0843783\Thermal=0.0918353\ETot=-418.4484767\HTot=-418.4475325\GT
 ot=-418.4884537\Dipole=2.1023443,2.7470169,-0.2802504\DipoleDeriv=-0.7
 877273,-0.3891496,-0.0197147,-0.5644998,-1.7078596,0.4667532,0.0795395
 ,0.5639581,-0.8971063,0.5609768,0.2658268,-0.0038323,0.2727868,0.72805
 1,-0.0685919,0.1000564,0.1549748,0.3520713,0.6569024,0.314094,0.068500
 7,0.3409597,0.6551209,0.0746429,0.1768044,0.100599,0.416094,-0.0099834
 ,-0.0582675,0.0023915,-0.0195693,0.0566154,-0.0301495,-0.0182346,-0.14
 54555,-0.1372741,-0.0242703,0.0506712,-0.0226162,0.0343027,-0.1899593,
 0.0827042,-0.0332541,0.1259897,0.0372939,-1.0222211,-0.2890056,-0.0603
 52,-0.2785137,-0.9005753,-0.1184848,-0.1536272,-0.2000477,-0.4270304,0
 .0223762,-0.0265596,0.0073019,-0.0279581,0.0486776,-0.0031515,0.014160
 4,-0.0471134,-0.1894672,-0.0238732,0.0566981,-0.042003,0.0301439,-0.17
 94102,0.0240325,-0.0451293,0.080293,0.0378195,0.4014416,-0.043673,0.05
 70814,-0.0592403,0.3252858,0.0520712,0.0161998,0.0307484,0.1840494,1.5
 632437,0.95438,0.9868435,1.2115845,2.6437513,-0.2900224,0.7920298,-0.5
 357035,2.2201026,-1.2896564,-0.6813634,-0.3827819,-0.7839305,-1.567204
 2,-0.3007594,-0.3489209,-0.2268332,-0.9727653,-1.0472091,-0.1536514,-0
 .5908191,-0.156066,-0.9124936,0.1109555,-0.5796242,0.0985904,-1.623787
 5\Polar=69.1536159,12.4540508,76.863522,6.1309641,-0.8719669,68.519295
 7\PolarDeriv=-6.2977298,-2.4801421,-3.2130481,-2.1411724,1.0883061,-0.
 4872438,-2.961548,-4.4330589,0.8589555,0.6621858,-1.1077664,2.7240838,
 -2.239677,0.0267794,-3.0937859,-1.4312533,1.9313771,-4.2241035,-0.4491
 129,3.1278073,6.7506696,2.8684653,-2.9037656,-0.4790214,2.4223506,7.15
 44559,-4.3414417,-1.0321224,1.5920235,-1.7786654,2.6898018,-2.0082966,
 3.7023056,0.6972083,-5.6543628,-9.0760516,1.4047785,-2.4970223,-4.0873
 475,-2.7929592,0.8375293,2.1951801,-2.2477315,-5.8469632,6.7924732,0.7
 026443,-1.7900424,2.0893596,-3.1147852,0.8932437,-4.4351366,-0.6012014
 ,3.1326512,11.1529479,0.3065186,0.3977347,-0.8768661,1.5172661,0.87115
 43,0.4633614,-0.7105189,-1.1836893,0.5271042,0.757969,2.4591145,1.1133
 488,2.0349211,0.8247516,3.2889502,-0.7857249,3.0148058,10.5456403,-2.0
 913465,2.2505763,-2.7590417,-1.3906911,0.8550456,-0.8071613,2.0537854,
 -2.8734133,11.7612517,0.6023196,-2.9507131,1.6276649,-2.2384256,0.5502
 27,-5.0965238,-0.8548234,3.2403791,-1.6472604,7.6988404,4.9344868,1.81
 77723,-0.4273753,-0.9548718,-1.7824575,4.387295,4.870763,4.3472417,-0.
 720595,-0.5744418,-0.9650932,-1.2949548,-0.9275628,-1.8583786,-0.25827
 01,0.0883112,-8.6585058,-0.3727832,-0.1293765,0.3863306,-1.6641542,-0.
 4844944,-0.5936588,0.7347051,0.9511466,-0.4456422,-0.0518138,-1.703451
 4,-0.3910216,-1.9303431,-0.4227293,-1.2848362,1.1519593,-1.360962,-12.
 8839986,1.8741511,-2.4886973,1.6205023,1.4504474,0.0057437,0.3517966,-
 2.4202969,2.4507878,-10.0230105,-0.2704567,1.6310055,-1.5284986,2.4184
 477,-0.4428417,3.624625,0.5095185,-2.2609902,0.7191395,0.4588316,0.377
 2819,0.0916949,1.1615313,0.7506277,1.3808534,0.2072978,0.4336363,1.093
 235,0.4990703,0.9022427,0.5119469,2.3581519,1.3097688,2.2018635,2.4468
 706,1.9544958,9.1192246,0.6204723,2.6828281,0.9321991,-0.5640757,1.232
 1404,-1.4211577,2.7155543,2.0513478,-0.2805613,0.6729702,1.4433822,-1.
 4895786,-1.0285499,0.404385,2.4948519,-0.753277,0.6764068,-3.2561648,-
 9.644261,-5.7323556,-3.5738469,-1.6387408,0.0983066,-1.7146591,-3.2788
 816,-5.0503994,-10.5193442,-0.7851161,-2.2191238,-2.1523083,-1.493286,
 -1.2059114,-3.7806768,-2.8669343,-3.4581486,-4.0111138,6.4916409,-0.44
 31212,2.9109815,3.6214586,-1.3957217,2.8941681,-0.9020114,1.4753866,0.
 2297386,-1.0370553,2.3177705,0.2387618,3.8386991,0.9981863,4.2367417,2
 .7459277,-1.3039634,12.2202461\HyperPolar=50.7523358,59.9756956,33.238
 7961,51.0451275,-1.9660105,34.3133961,76.0097444,-28.8621511,0.4139096
 ,-19.794348\Quadrupole=-5.364051,-9.700934,15.064985,15.425487,-0.8373
 861,6.7450226\PG=C01 [X(C3H5O4)]\NImag=0\\0.21345353,0.14204804,0.3411
 7616,0.08950489,-0.04040805,0.23346091,-0.11817917,-0.06110810,-0.0308
 0259,0.44755774,-0.04723881,-0.12837519,-0.00905630,-0.05538282,0.5331
 8225,-0.03919589,-0.02258205,-0.10090395,0.01569932,-0.04559856,0.5980
 5140,-0.02056641,-0.00730668,-0.00209702,-0.15777234,0.04448380,0.0434
 7758,0.44449534,-0.03470197,-0.00631459,0.00849208,0.04385581,-0.08446
 134,-0.01042496,-0.04933676,0.52251687,-0.01365385,-0.00223423,0.00560
 461,0.04071293,-0.01235590,-0.10282915,0.01500106,-0.03104584,0.619205
 68,-0.00612503,-0.01294201,-0.02619931,-0.05082817,0.00198059,0.003585
 09,-0.00143798,0.00316412,0.03374418,0.05937924,-0.00852659,-0.0132189
 8,-0.02803517,0.00283325,-0.04879382,-0.01611949,0.00072079,-0.0000796
 0,-0.00907437,0.00504454,0.05422041,-0.00801504,-0.01117588,-0.0065299
 4,0.00098521,-0.02479298,-0.30216444,-0.00021131,-0.00129099,-0.012213
 04,0.00205923,0.02943978,0.33027764,0.00440662,-0.02917601,0.01219655,
 -0.08411986,0.08430189,-0.04378146,-0.01292469,0.02753528,-0.01356706,
 0.00092933,0.00010520,0.00069794,0.09403849,-0.00315737,-0.03284791,0.
 01215732,0.07941225,-0.21536676,0.09109863,0.00377151,-0.00725129,0.00
 370694,-0.00073430,0.00471401,-0.00040181,-0.07959876,0.24677225,0.001
 14968,-0.01136678,0.00592074,-0.04211388,0.09653179,-0.10426790,0.0076
 5962,-0.01091090,0.00530860,-0.01186750,0.02487603,-0.01050887,0.04461
 738,-0.10005056,0.10380967,-0.01455576,-0.00631861,0.00660477,-0.01916
 134,-0.03717747,-0.01342511,-0.11395379,-0.06786533,-0.00002244,0.0028
 6382,0.00009999,0.00036728,0.00279201,0.00042352,-0.00140970,0.1689608
 0,-0.00293208,-0.00005202,0.00178794,-0.00709769,-0.00548008,-0.003178
 14,-0.06695085,-0.14624253,0.00496459,0.00106884,0.00037658,0.00119810
 ,-0.00134289,0.00227916,-0.00017634,0.13778620,0.21309258,0.00202728,-
 0.00064412,0.00196071,0.00322527,0.00571758,0.00248157,-0.03006533,-0.
 03061073,-0.09630870,-0.00101713,0.00102100,0.00221634,0.00018314,0.00
 001113,-0.00011307,0.08587517,0.03267368,0.59944583,0.00254654,0.00098
 932,-0.00142588,-0.00182551,0.00255806,0.03348028,-0.04787473,0.002941
 11,0.00477196,-0.00569295,0.00101871,0.00158381,0.00166852,-0.00017593
 ,-0.00079872,-0.00523827,-0.00768312,-0.02812387,0.05712597,-0.0000542
 5,0.00034186,0.00061397,0.00173349,-0.00010566,-0.00880609,0.00345508,
 -0.05090237,-0.00312099,0.00086834,0.00020659,-0.00083251,-0.00058161,
 0.00053553,-0.00031225,-0.00753619,-0.00686377,-0.03200101,0.00491946,
 0.05708389,0.00024367,0.00114563,0.00127293,-0.00016345,-0.00085734,-0
 .01194316,-0.00072443,-0.01248665,-0.31024428,0.00191177,-0.00080845,0
 .00061378,0.00011645,-0.00023999,0.00112306,-0.00508000,-0.00541415,-0
 .00668826,0.00296771,0.01974061,0.33490259,0.00288853,-0.00139880,0.00
 036902,-0.01225712,0.02833988,-0.01276248,-0.08315423,0.07916602,-0.03
 896539,0.00150061,-0.00046274,0.00007765,-0.00553576,0.00082253,0.0025
 8809,0.00381305,-0.03072404,0.00778384,0.00114216,0.00042632,0.0005314
 9,0.09073959,0.00081291,0.00203147,-0.00062278,0.00371948,-0.00678750,
 0.00399344,0.07835966,-0.22402298,0.08319224,-0.00020619,0.00026215,0.
 00003217,0.00063860,0.00032536,-0.00064817,-0.00540843,-0.03157236,0.0
 0368311,0.00005238,0.00402696,-0.00004188,-0.07677421,0.25556585,-0.00
 113067,0.00028727,0.00001551,0.00630118,-0.01027925,0.00550240,-0.0371
 9028,0.08926066,-0.09773839,-0.00076434,-0.00008568,0.00080540,0.00228
 934,-0.00091688,0.00031506,0.00091948,-0.01191372,0.00649014,-0.011180
 53,0.02634890,-0.01110827,0.03955029,-0.09199416,0.09501194,0.00069338
 ,0.00093262,0.00077683,-0.00042993,-0.00040321,-0.00330624,-0.00611651
 ,-0.00259164,-0.02857324,-0.00100211,-0.00007730,0.00121453,-0.0000278
 0,0.00001201,0.00021979,-0.02448926,-0.02194528,-0.03970511,-0.0021077
 4,-0.00283253,-0.00009540,0.00118411,0.00005801,0.00096550,0.03227105,
 0.00024540,-0.00000155,0.00023718,0.00007763,0.00067282,0.00038926,-0.
 00666632,-0.00510320,-0.03591545,-0.00054624,0.00024182,0.00031609,0.0
 0014785,-0.00005390,0.00014048,-0.01733543,-0.02702154,0.02000148,-0.0
 0409369,-0.00411625,-0.00108699,0.00097795,0.00076527,-0.00071888,0.02
 700880,0.03451310,0.00133554,0.00061979,-0.00047768,-0.00065819,0.0015
 6684,0.00218064,0.00164941,0.00187407,-0.00917035,-0.00044539,0.000024
 29,-0.00049549,0.00007900,-0.00003686,-0.00007742,-0.07046147,-0.01945
 973,-0.50944682,-0.00116471,-0.00212156,0.00209284,0.00147610,0.001029
 68,0.00134031,0.06817732,0.01677498,0.51387236,-0.07532901,0.00248845,
 -0.02712094,-0.00610906,-0.01617689,0.01668400,-0.00125374,-0.00556159
 ,0.00016169,0.00082666,-0.00145904,-0.00160935,-0.00048132,0.00096852,
 -0.00168290,-0.00015906,0.00191836,-0.00005476,0.00036288,0.00041300,-
 0.00053031,-0.00191817,0.00066792,0.00037411,-0.00028623,-0.00022819,-
 0.00011831,0.53137103,-0.00637599,-0.06264603,-0.00396346,-0.01839357,
 -0.04952354,-0.00226656,-0.00503827,0.00408506,0.00346370,0.00322846,0
 .00264923,0.00498810,0.00015601,0.00452081,-0.00042235,0.00926543,0.00
 387595,0.00036886,-0.00014774,0.00006592,-0.00067284,-0.00028194,-0.00
 039545,0.00032187,-0.00109517,-0.00007439,-0.00072074,0.19432232,0.468
 38158,-0.01946530,0.01243287,-0.09621487,0.01788650,0.00802180,0.01992
 685,0.00396876,-0.00332370,-0.00317436,-0.00317819,-0.00515463,-0.0044
 1816,-0.00470969,-0.00759723,-0.00358915,-0.00618546,-0.00137172,-0.00
 023351,0.00017727,0.00056908,-0.00020838,-0.00176741,0.00146561,0.0005
 1839,0.00055964,-0.00026681,0.00046515,0.28343855,0.09971854,0.5916258
 5,-0.00424587,-0.04265788,0.00438950,0.00711051,0.00039176,0.00245976,
 0.00172531,0.00041390,-0.00007502,-0.00042892,0.00011612,0.00013229,-0
 .00146259,-0.00228251,0.00004091,-0.00152011,-0.00089141,-0.00016442,-
 0.00016249,-0.00008091,0.00029247,0.00022060,0.00002883,-0.00017509,0.
 00028617,0.00008914,0.00011827,-0.23981213,-0.17109016,-0.08909716,0.2
 7051377,-0.05274147,-0.08557059,0.00738146,0.00535468,0.00475422,0.010
 70719,0.00276553,-0.00234445,-0.00153564,-0.00072199,-0.00024641,-0.00
 104164,-0.00227264,-0.00350855,-0.00010292,-0.00436031,-0.00166684,-0.
 00006250,-0.00003834,-0.00007347,0.00049868,0.00009503,0.00012843,-0.0
 0022099,0.00053545,0.00009433,0.00031841,-0.16845343,-0.27730580,-0.09
 563766,0.25647853,0.35876266,0.01312853,0.02209773,0.01707788,-0.00228
 561,0.00272832,0.00000326,-0.00037366,0.00009262,0.00020659,0.00048619
 ,0.00116349,0.00077607,0.00070014,0.00064668,0.00090844,0.00021256,-0.
 00030545,0.00000639,0.00003012,-0.00014796,0.00017606,0.00057289,-0.00
 030133,-0.00021412,-0.00001338,0.00008974,-0.00001593,-0.09140868,-0.1
 0027389,-0.14206795,0.14561147,0.11645727,0.15887953,0.01501264,0.0144
 4966,-0.02619583,-0.00398575,-0.00567678,-0.00291484,-0.00116623,0.002
 98104,0.00046518,0.00001549,0.00058707,0.00271775,0.00071705,0.0005385
 3,0.00159720,0.00064789,-0.00120604,0.00003591,0.00005562,-0.00073018,
 0.00053003,0.00137662,-0.00194895,0.00004101,0.00002485,0.00032312,0.0
 0001245,-0.20721184,-0.00454937,-0.18162751,-0.03222425,-0.03664105,-0
 .06666058,0.22673791,0.01262219,-0.01452262,0.05141579,0.00499559,0.00
 028458,0.00278734,0.00174250,0.00012041,-0.00004505,-0.00020414,-0.000
 33198,0.00356156,0.00008709,-0.00011871,0.00244198,-0.00157336,-0.0007
 2514,-0.00015849,-0.00034022,-0.00019922,0.00022335,-0.00018602,-0.000
 32721,-0.00008914,0.00039824,0.00008350,0.00013082,-0.00889943,-0.0936
 3334,-0.00885614,-0.04051539,0.00697646,-0.04224722,0.03187295,0.10239
 327,-0.02592884,0.05182780,-0.06118685,-0.00878667,-0.01162601,-0.0060
 3751,-0.00109440,0.00037434,0.00135280,0.00168541,0.00275320,0.0016407
 3,0.00117826,0.00162262,0.00117083,0.00260490,0.00119495,0.00018937,-0
 .00031746,0.00006980,0.00001109,0.00054590,0.00021207,-0.00093836,-0.0
 0022025,0.00003891,-0.00026762,-0.17813311,-0.00054122,-0.36262985,-0.
 06353298,-0.03676166,-0.03573622,0.27199924,-0.00916481,0.46243158\\-0
 .00000035,-0.00002720,0.00001431,-0.00000763,0.00000185,-0.00001295,-0
 .00000460,0.00001612,-0.00001249,-0.00000512,0.00000586,-0.00000582,-0
 .00000788,-0.00000707,-0.00000847,0.00001290,0.00002443,0.00003766,-0.
 00000636,-0.00000748,-0.00000475,0.00000352,-0.00000497,0.00000588,-0.
 00003010,-0.00000505,-0.00009361,0.00000372,-0.00001627,0.00002369,0.0
 0004278,0.00000734,0.00005614,-0.00000088,0.00001245,0.00000040\\\@
 The archive entry for this job was punched.


 A MAN IS EXACTLY AS GREAT AS THE TIDE SURGING
 BENEATH HIM.      - BISMARCK
 Job cpu time:       0 days  0 hours 17 minutes 49.5 seconds.
 Elapsed time:       0 days  0 hours  9 minutes 29.4 seconds.
 File lengths (MBytes):  RWF=    108 Int=      0 D2E=      0 Chk=     13 Scr=      1
 Normal termination of Gaussian 16 at Fri Jun  2 11:45:38 2023.
