 Entering Gaussian System, Link 0=g16
 Input=123triz-isolated-freq.gjf
 Output=123triz-isolated-freq.log
 Initial command:
 /software/commercial/gaussian/g16/AVX/g16/l1.exe "/scratch1/svicchi/G09-659760.pbs02/Gau-1155912.inp" -scrdir="/scratch1/svicchi/G09-659760.pbs02/"
 Entering Link 1 = /software/commercial/gaussian/g16/AVX/g16/l1.exe PID=   1155913.
  
 Copyright (c) 1988-2019, Gaussian, Inc.  All Rights Reserved.
  
 This is part of the Gaussian(R) 16 program.  It is based on
 the Gaussian(R) 09 system (copyright 2009, Gaussian, Inc.),
 the Gaussian(R) 03 system (copyright 2003, Gaussian, Inc.),
 the Gaussian(R) 98 system (copyright 1998, Gaussian, Inc.),
 the Gaussian(R) 94 system (copyright 1995, Gaussian, Inc.),
 the Gaussian 92(TM) system (copyright 1992, Gaussian, Inc.),
 the Gaussian 90(TM) system (copyright 1990, Gaussian, Inc.),
 the Gaussian 88(TM) system (copyright 1988, Gaussian, Inc.),
 the Gaussian 86(TM) system (copyright 1986, Carnegie Mellon
 University), and the Gaussian 82(TM) system (copyright 1983,
 Carnegie Mellon University). Gaussian is a federally registered
 trademark of Gaussian, Inc.
  
 This software contains proprietary and confidential information,
 including trade secrets, belonging to Gaussian, Inc.
  
 This software is provided under written license and may be
 used, copied, transmitted, or stored only in accord with that
 written license.
  
 The following legend is applicable only to US Government
 contracts under FAR:
  
                    RESTRICTED RIGHTS LEGEND
  
 Use, reproduction and disclosure by the US Government is
 subject to restrictions as set forth in subparagraphs (a)
 and (c) of the Commercial Computer Software - Restricted
 Rights clause in FAR 52.227-19.
  
 Gaussian, Inc.
 340 Quinnipiac St., Bldg. 40, Wallingford CT 06492
  
  
 ---------------------------------------------------------------
 Warning -- This program may not be used in any manner that
 competes with the business of Gaussian, Inc. or will provide
 assistance to any competitor of Gaussian, Inc.  The licensee
 of this program is prohibited from giving any competitor of
 Gaussian, Inc. access to this program.  By using this program,
 the user acknowledges that Gaussian, Inc. is engaged in the
 business of creating and licensing software in the field of
 computational chemistry and represents and warrants to the
 licensee that it is not a competitor of Gaussian, Inc. and that
 it will not use this program in any manner prohibited above.
 ---------------------------------------------------------------
  

 Cite this work as:
 Gaussian 16, Revision C.01,
 M. J. Frisch, G. W. Trucks, H. B. Schlegel, G. E. Scuseria, 
 M. A. Robb, J. R. Cheeseman, G. Scalmani, V. Barone, 
 G. A. Petersson, H. Nakatsuji, X. Li, M. Caricato, A. V. Marenich, 
 J. Bloino, B. G. Janesko, R. Gomperts, B. Mennucci, H. P. Hratchian, 
 J. V. Ortiz, A. F. Izmaylov, J. L. Sonnenberg, D. Williams-Young, 
 F. Ding, F. Lipparini, F. Egidi, J. Goings, B. Peng, A. Petrone, 
 T. Henderson, D. Ranasinghe, V. G. Zakrzewski, J. Gao, N. Rega, 
 G. Zheng, W. Liang, M. Hada, M. Ehara, K. Toyota, R. Fukuda, 
 J. Hasegawa, M. Ishida, T. Nakajima, Y. Honda, O. Kitao, H. Nakai, 
 T. Vreven, K. Throssell, J. A. Montgomery, Jr., J. E. Peralta, 
 F. Ogliaro, M. J. Bearpark, J. J. Heyd, E. N. Brothers, K. N. Kudin, 
 V. N. Staroverov, T. A. Keith, R. Kobayashi, J. Normand, 
 K. Raghavachari, A. P. Rendell, J. C. Burant, S. S. Iyengar, 
 J. Tomasi, M. Cossi, J. M. Millam, M. Klene, C. Adamo, R. Cammi, 
 J. W. Ochterski, R. L. Martin, K. Morokuma, O. Farkas, 
 J. B. Foresman, and D. J. Fox, Gaussian, Inc., Wallingford CT, 2019.
 
 ******************************************
 Gaussian 16:  ES64L-G16RevC.01  3-Jul-2019
                 2-Jun-2023 
 ******************************************
 %NProcShared=2
 Will use up to    2 processors via shared memory.
 %mem=55gb
 %chk=/scratch1/svicchi/G09-659760.pbs02/02-freq/123triz-isolated-freq.chk
 ----------------------------------------------------------------------
 #p freq=raman scale=0.967 pop=(nbo,full,hirshfeld) guess=read geom=all
 check b3lyp/6-311+G(d,p) int=grid=ultrafine EmpiricalDispersion=GD3BJ 
 SCRF=(Solvent=ethanol) scf=(xqc,intrep,maxconventionalcycle=350) nosym
 m
 ----------------------------------------------------------------------
 1/10=4,29=7,30=1,38=1,114=967000/1,3;
 2/12=2,15=1,40=1/2;
 3/5=4,6=6,7=111,11=2,14=-4,25=1,30=1,70=2201,71=2,72=4,74=-5,75=-5,116=-2,124=41,140=1/1,2,3;
 4/5=1/1;
 5/5=2,8=3,13=1,17=20,38=6,53=4,85=350,98=1/2,8;
 8/6=4,10=90,11=11/1;
 10/13=10,15=4,31=1/2;
 11/6=3,8=1,9=11,15=111,16=1,31=1/1,2,10;
 10/6=1,31=1/2;
 6/7=3,28=1,40=1,79=1/1,7;
 7/8=1,10=1,25=1,30=1/1,2,3,16;
 1/10=4,30=1/3;
 99//99;
 Leave Link    1 at Fri Jun  2 11:07:27 2023, MaxMem=  7381975040 cpu:               1.9 elap:               2.0
 (Enter /software/commercial/gaussian/g16/AVX/g16/l101.exe)
 Structure from the checkpoint file:  "/scratch1/svicchi/G09-659760.pbs02/02-freq/123triz-isolated-freq.chk"
 --------------------
 123triz-isolated.gjf
 --------------------
 Charge = -1 Multiplicity = 1
 No Z-Matrix found in chk file; cartesian coordinates used.
  C                                                -3.702686627531      0.594784071515      0.000000000002
  C                                                -3.793681759264     -0.790999042148     -0.000000000002
  N                                                -2.388638652975      0.918059447787      0.000000000003
  N                                                -1.699430743014     -0.232580887590      0.000000000000
  N                                                -2.533232323894     -1.283252350419     -0.000000000003
  H                                                -4.477260417887      1.347367791731     -0.000000000003
  H                                                -4.659769475436     -1.436158030876      0.000000000003
 Recover connectivity data from disk.
 ITRead=  0  0  0  0  0  0  0
 MicOpt= -1 -1 -1 -1 -1 -1 -1
 NAtoms=      7 NQM=        7 NQMF=       0 NMMI=      0 NMMIF=      0
                NMic=       0 NMicF=      0.
                    Isotopes and Nuclear Properties:
 (Nuclear quadrupole moments (NQMom) in fm**2, nuclear magnetic moments (NMagM)
  in nuclear magnetons)

  Atom         1           2           3           4           5           6           7
 IAtWgt=          12          12          14          14          14           1           1
 AtmWgt=  12.0000000  12.0000000  14.0030740  14.0030740  14.0030740   1.0078250   1.0078250
 NucSpn=           0           0           2           2           2           1           1
 AtZEff=   3.6000000   3.6000000   4.5500000   4.5500000   4.5500000   1.0000000   1.0000000
 NQMom=    0.0000000   0.0000000   2.0440000   2.0440000   2.0440000   0.0000000   0.0000000
 NMagM=    0.0000000   0.0000000   0.4037610   0.4037610   0.4037610   2.7928460   2.7928460
 AtZNuc=   6.0000000   6.0000000   7.0000000   7.0000000   7.0000000   1.0000000   1.0000000
 Leave Link  101 at Fri Jun  2 11:07:31 2023, MaxMem=  7381975040 cpu:               0.4 elap:               1.5
 (Enter /software/commercial/gaussian/g16/AVX/g16/l103.exe)

 GradGradGradGradGradGradGradGradGradGradGradGradGradGradGradGradGradGrad
 Berny optimization.
 Initialization pass.
 Trust Radius=3.00D-01 FncErr=1.00D-07 GrdErr=1.00D-07 EigMax=2.50D+02 EigMin=1.00D-04
 Number of steps in this run=      2 maximum allowed number of steps=      2.
 GradGradGradGradGradGradGradGradGradGradGradGradGradGradGradGradGradGrad

 Leave Link  103 at Fri Jun  2 11:07:33 2023, MaxMem=  7381975040 cpu:               0.1 elap:               1.0
 (Enter /software/commercial/gaussian/g16/AVX/g16/l202.exe)
                          Input orientation:                          
 ---------------------------------------------------------------------
 Center     Atomic      Atomic             Coordinates (Angstroms)
 Number     Number       Type             X           Y           Z
 ---------------------------------------------------------------------
      1          6           0       -3.702687    0.594784    0.000000
      2          6           0       -3.793682   -0.790999   -0.000000
      3          7           0       -2.388639    0.918059    0.000000
      4          7           0       -1.699431   -0.232581    0.000000
      5          7           0       -2.533232   -1.283252   -0.000000
      6          1           0       -4.477260    1.347368   -0.000000
      7          1           0       -4.659769   -1.436158    0.000000
 ---------------------------------------------------------------------
                    Distance matrix (angstroms):
                    1          2          3          4          5
     1  C    0.000000
     2  C    1.388767   0.000000
     3  N    1.353229   2.212471   0.000000
     4  N    2.167387   2.167422   1.341261   0.000000
     5  N    2.212384   1.353162   2.206056   1.341319   0.000000
     6  H    1.079975   2.244970   2.132287   3.195712   3.270995
     7  H    2.245158   1.079971   3.271143   3.195654   2.132027
                    6          7
     6  H    0.000000
     7  H    2.789503   0.000000
 Symmetry turned off by external request.
 Stoichiometry    C2H2N3(1-)
 Framework group  CS[SG(C2H2N3)]
 Deg. of freedom    11
 Full point group                 CS      NOp   2
 Rotational constants (GHZ):          10.4763523          10.1957927           5.1670843
 Leave Link  202 at Fri Jun  2 11:07:35 2023, MaxMem=  7381975040 cpu:               0.1 elap:               1.0
 (Enter /software/commercial/gaussian/g16/AVX/g16/l301.exe)
 Standard basis: 6-311+G(d,p) (5D, 7F)
 Ernie: Thresh=  0.10000D-02 Tol=  0.10000D-05 Strict=F.
   122 basis functions,   196 primitive gaussians,   127 cartesian basis functions
    18 alpha electrons       18 beta electrons
       nuclear repulsion energy       154.5400888364 Hartrees.
 IExCor=  402 DFT=T Ex+Corr=B3LYP ExCW=0 ScaHFX=  0.200000
 ScaDFX=  0.800000  0.720000  1.000000  0.810000 ScalE2=  1.000000  1.000000
 IRadAn=      5 IRanWt=     -1 IRanGd=            0 ICorTp=0 IEmpDi=141
 NAtoms=    7 NActive=    7 NUniq=    7 SFac= 1.00D+00 NAtFMM=   60 NAOKFM=F Big=F
 Integral buffers will be    131072 words long.
 Raffenetti 2 integral format.
 Two-electron integral symmetry is turned off.
 R6Disp:  Grimme-D3(BJ) Dispersion energy=       -0.0090393249 Hartrees.
 Nuclear repulsion after empirical dispersion term =      154.5310495116 Hartrees.
 Force inversion solution in PCM.
 ------------------------------------------------------------------------------
 Polarizable Continuum Model (PCM)
 =================================
 Model                : PCM.
 Atomic radii         : UFF (Universal Force Field).
 Polarization charges : Total charges.
 Charge compensation  : None.
 Solution method      : Matrix inversion.
 Cavity type          : Scaled VdW (van der Waals Surface) (Alpha=1.100).
 Cavity algorithm     : GePol (No added spheres)
                        Default sphere list used, NSphG=    7.
                        Lebedev-Laikov grids with approx.  5.0 points / Ang**2.
                        Smoothing algorithm: York/Karplus (Gamma=1.0000).
                        Polarization charges: spherical gaussians, with
                                              point-specific exponents (IZeta= 3).
                        Self-potential: point-specific (ISelfS= 7).
                        Self-field    : sphere-specific E.n sum rule (ISelfD= 2).
 1st derivatives      : Analytical E(r).r(x)/FMM algorithm (CHGder, D1EAlg=3).
                        Cavity 1st derivative terms included.
 2nd derivatives      : Analytical E(r).r(xy)/FMM algorithm (CHGder, D2EAlg=3).
                        Cavity 2nd derivative terms included.
 Solvent              : Ethanol, Eps=  24.852000 Eps(inf)=   1.852593
 ------------------------------------------------------------------------------
 Spheres list:
 ISph  on   Nord     Re0    Alpha      Xe            Ye            Ze
    1   C      1    1.9255  1.100     -3.702687      0.594784      0.000000
    2   C      2    1.9255  1.100     -3.793682     -0.790999     -0.000000
    3   N      3    1.8300  1.100     -2.388639      0.918059      0.000000
    4   N      4    1.8300  1.100     -1.699431     -0.232581      0.000000
    5   N      5    1.8300  1.100     -2.533232     -1.283252     -0.000000
    6   H      6    1.4430  1.100     -4.477260      1.347368     -0.000000
    7   H      7    1.4430  1.100     -4.659769     -1.436158      0.000000
 ------------------------------------------------------------------------------
 GePol: Number of generator spheres                  =       7
 GePol: Total number of spheres                      =       7
 GePol: Number of exposed spheres                    =       7 (100.00%)
 GePol: Number of points                             =     800
 GePol: Average weight of points                     =       0.14
 GePol: Minimum weight of points                     =   0.33D-05
 GePol: Maximum weight of points                     =    0.20577
 GePol: Number of points with low weight             =      26
 GePol: Fraction of low-weight points (<1% of avg)   =       3.25%
 GePol: Cavity surface area                          =    110.104 Ang**2
 GePol: Cavity volume                                =     97.991 Ang**3
 Leave Link  301 at Fri Jun  2 11:07:38 2023, MaxMem=  7381975040 cpu:               0.6 elap:               1.7
 (Enter /software/commercial/gaussian/g16/AVX/g16/l302.exe)
 NPDir=0 NMtPBC=     1 NCelOv=     1 NCel=       1 NClECP=     1 NCelD=      1
         NCelK=      1 NCelE2=     1 NClLst=     1 CellRange=     0.0.
 One-electron integrals computed using PRISM.
 NBasis=   122 RedAO= T EigKep=  6.64D-05  NBF=   122
 NBsUse=   122 1.00D-06 EigRej= -1.00D+00 NBFU=   122
 Precomputing XC quadrature grid using
 IXCGrd= 4 IRadAn=           5 IRanWt=          -1 IRanGd=           0 AccXCQ= 0.00D+00.
 Generated NRdTot=       0 NPtTot=           0 NUsed=           0 NTot=          32
 NSgBfM=   127   127   127   127   127 MxSgAt=     7 MxSgA2=     7.
 Leave Link  302 at Fri Jun  2 11:07:40 2023, MaxMem=  7381975040 cpu:               0.8 elap:               1.7
 (Enter /software/commercial/gaussian/g16/AVX/g16/l303.exe)
 DipDrv:  MaxL=1.
 Leave Link  303 at Fri Jun  2 11:07:42 2023, MaxMem=  7381975040 cpu:               0.2 elap:               1.2
 (Enter /software/commercial/gaussian/g16/AVX/g16/l401.exe)
 Initial guess from the checkpoint file:  "/scratch1/svicchi/G09-659760.pbs02/02-freq/123triz-isolated-freq.chk"
 B after Tr=     0.000000    0.000000    0.000000
         Rot=    1.000000    0.000000    0.000000    0.000000 Ang=   0.00 deg.
 Guess basis will be translated and rotated to current coordinates.
 JPrj=2 DoOrth=T DoCkMO=T.
 Leave Link  401 at Fri Jun  2 11:07:45 2023, MaxMem=  7381975040 cpu:               0.9 elap:               2.1
 (Enter /software/commercial/gaussian/g16/AVX/g16/l502.exe)
 Keep R1 ints in memory in canonical form, NReq=30055015.
 FoFCou: FMM=F IPFlag=           0 FMFlag=           0 FMFlg1=           0
         NFxFlg=           0 DoJE=F BraDBF=F KetDBF=F FulRan=T
         wScrn=  0.000000 ICntrl=       600 IOpCl=  0 I1Cent=           0 NGrid=           0
         NMat0=    1 NMatS0=   7503 NMatT0=    0 NMatD0=    1 NMtDS0=    0 NMtDT0=    0
 Symmetry not used in FoFCou.
 Two-electron integral symmetry not used.
 Closed shell SCF:
 Using DIIS extrapolation, IDIIS=  1040.
 NGot=  7381975040 LenX=  7353789599 LenY=  7353773029
 Requested convergence on RMS density matrix=1.00D-08 within 350 cycles.
 Requested convergence on MAX density matrix=1.00D-06.
 Requested convergence on             energy=1.00D-06.
 No special actions if energy rises.

 Cycle   1  Pass 1  IDiag  1:
 Inv3:  Mode=1 IEnd=     1920000.
 Iteration    1 A*A^-1 deviation from unit magnitude is 3.33D-15 for    799.
 Iteration    1 A*A^-1 deviation from orthogonality  is 1.41D-15 for    799    608.
 Iteration    1 A^-1*A deviation from unit magnitude is 3.11D-15 for    799.
 Iteration    1 A^-1*A deviation from orthogonality  is 1.65D-15 for    522    341.
 E= -241.840863478641    
 DIIS: error= 4.27D-08 at cycle   1 NSaved=   1.
 NSaved= 1 IEnMin= 1 EnMin= -241.840863478641     IErMin= 1 ErrMin= 4.27D-08
 ErrMax= 4.27D-08  0.00D+00 EMaxC= 1.00D-01 BMatC= 7.99D-14 BMatP= 7.99D-14
 IDIUse=1 WtCom= 1.00D+00 WtEn= 0.00D+00
 Coeff-Com:  0.100D+01
 Coeff:      0.100D+01
 Gap=     0.245 Goal=   None    Shift=    0.000
 RMSDP=7.31D-09 MaxDP=1.37D-07              OVMax= 3.47D-07

 Error on total polarization charges =  0.02177
 SCF Done:  E(RB3LYP) =  -241.840863479     A.U. after    1 cycles
            NFock=  1  Conv=0.73D-08     -V/T= 2.0040
 KE= 2.408856099630D+02 PE=-8.819840941715D+02 EE= 2.447265712183D+02
 Leave Link  502 at Fri Jun  2 11:07:53 2023, MaxMem=  7381975040 cpu:               8.0 elap:               6.1
 (Enter /software/commercial/gaussian/g16/AVX/g16/l508.exe)
 QCSCF skips out because SCF is already converged.
 Leave Link  508 at Fri Jun  2 11:07:55 2023, MaxMem=  7381975040 cpu:               0.0 elap:               0.6
 (Enter /software/commercial/gaussian/g16/AVX/g16/l801.exe)
 DoSCS=F DFT=T ScalE2(SS,OS)=  1.000000  1.000000
 Range of M.O.s used for correlation:     1   122
 NBasis=   122 NAE=    18 NBE=    18 NFC=     0 NFV=     0
 NROrb=    122 NOA=    18 NOB=    18 NVA=   104 NVB=   104

 **** Warning!!: The largest alpha MO coefficient is  0.41412932D+02

 Leave Link  801 at Fri Jun  2 11:07:57 2023, MaxMem=  7381975040 cpu:               0.1 elap:               1.5
 (Enter /software/commercial/gaussian/g16/AVX/g16/l1002.exe)
 Minotr:  Closed shell wavefunction.
 NEqPCM:  Using equilibrium solvation (IEInf=0, Eps=  24.8520, EpsInf=   1.8526)
          Direct CPHF calculation.
          Differentiating once with respect to electric field.
                with respect to dipole field.
          Electric field/nuclear overlap derivatives assumed to be zero.
          Requested convergence is 1.0D-08 RMS, and 1.0D-07 maximum.
          Secondary convergence is 1.0D-12 RMS, and 1.0D-12 maximum.
          NewPWx=F KeepS1=T KeepF1=T KeepIn=T MapXYZ=F SortEE=F KeepMc=T.
         2122 words used for storage of precomputed grid.
 Keep R1 ints in memory in canonical form, NReq=31095339.
 FoFCou: FMM=F IPFlag=           0 FMFlag=           0 FMFlg1=           0
         NFxFlg=           0 DoJE=F BraDBF=F KetDBF=F FulRan=T
         wScrn=  0.000000 ICntrl=       600 IOpCl=  0 I1Cent=           0 NGrid=           0
         NMat0=    1 NMatS0=   7503 NMatT0=    0 NMatD0=    1 NMtDS0=    0 NMtDT0=    0
 Symmetry not used in FoFCou.
 Two-electron integral symmetry not used.
          MDV=    7381975040 using IRadAn=       1.
          Solving linear equations simultaneously, MaxMat=       0.
          There are     3 degrees of freedom in the 1st order CPHF.  IDoFFX=0 NUNeed=     3.
      3 vectors produced by pass  0 Test12= 6.24D-14 3.33D-08 XBig12= 6.01D+01 5.00D+00.
 AX will form     3 AO Fock derivatives at one time.
      3 vectors produced by pass  1 Test12= 6.24D-14 3.33D-08 XBig12= 4.34D+01 2.67D+00.
      3 vectors produced by pass  2 Test12= 6.24D-14 3.33D-08 XBig12= 4.57D+00 6.38D-01.
      3 vectors produced by pass  3 Test12= 6.24D-14 3.33D-08 XBig12= 1.97D+00 4.86D-01.
      3 vectors produced by pass  4 Test12= 6.24D-14 3.33D-08 XBig12= 1.06D-01 1.08D-01.
      3 vectors produced by pass  5 Test12= 6.24D-14 3.33D-08 XBig12= 6.96D-03 2.28D-02.
      3 vectors produced by pass  6 Test12= 6.24D-14 3.33D-08 XBig12= 2.05D-03 1.36D-02.
      3 vectors produced by pass  7 Test12= 6.24D-14 3.33D-08 XBig12= 9.70D-05 2.60D-03.
      3 vectors produced by pass  8 Test12= 6.24D-14 3.33D-08 XBig12= 3.81D-06 6.15D-04.
      2 vectors produced by pass  9 Test12= 6.24D-14 3.33D-08 XBig12= 1.08D-07 9.76D-05.
      2 vectors produced by pass 10 Test12= 6.24D-14 3.33D-08 XBig12= 1.95D-09 8.00D-06.
      2 vectors produced by pass 11 Test12= 6.24D-14 3.33D-08 XBig12= 3.04D-11 1.32D-06.
      1 vectors produced by pass 12 Test12= 6.24D-14 3.33D-08 XBig12= 3.91D-13 1.58D-07.
 InvSVY:  IOpt=1 It=  1 EMax= 2.32D-15
 Solved reduced A of dimension    34 with     3 vectors.
 End of Minotr F.D. properties file   721 does not exist.
 End of Minotr F.D. properties file   722 does not exist.
 End of Minotr F.D. properties file   788 does not exist.
 Leave Link 1002 at Fri Jun  2 11:08:25 2023, MaxMem=  7381975040 cpu:              41.7 elap:              26.1
 (Enter /software/commercial/gaussian/g16/AVX/g16/l1101.exe)
 Using compressed storage, NAtomX=     7.
 Will process      8 centers per pass.
 R6Disp: Adding Grimme-D3(BJ) dispersion energy 1st derivatives to the gradient.
 Leave Link 1101 at Fri Jun  2 11:08:28 2023, MaxMem=  7381975040 cpu:               0.6 elap:               1.6
 (Enter /software/commercial/gaussian/g16/AVX/g16/l1102.exe)
 Symmetrizing basis deriv contribution to polar:
 IMax=3 JMax=2 DiffMx= 0.00D+00
 Leave Link 1102 at Fri Jun  2 11:08:29 2023, MaxMem=  7381975040 cpu:               0.1 elap:               0.9
 (Enter /software/commercial/gaussian/g16/AVX/g16/l1110.exe)
 Forming Gx(P) for the SCF density, NAtomX=     7.
 Integral derivatives from FoFJK, PRISM(SPDF).
 Do as many integral derivatives as possible in FoFJK.
 G2DrvN: MDV=    7381974197.
 G2DrvN: will do     8 centers at a time, making    1 passes.
 PxScal for G2LodP:  IOpCl= 0 ISclPx=1 IMOff=     1 NMtTot=     4 NTT=    7503 ScalPx= 8.04D+00
 Calling FoFCou, ICntrl=  3107 FMM=F I1Cent=   0 AccDes= 0.00D+00.
 FoFJK:  IHMeth= 1 ICntrl=    3107 DoSepK=F KAlg= 0 I1Cent=           0 FoldK=F
 IRaf=         0 NMat=       1 IRICut=       1 DoRegI=T DoRafI=F ISym2E= 0 IDoP0=0 IntGTp=1.
 FoFCou: FMM=F IPFlag=           0 FMFlag=      100000 FMFlg1=           0
         NFxFlg=           0 DoJE=F BraDBF=F KetDBF=F FulRan=T
         wScrn=  0.000000 ICntrl=      3107 IOpCl=  0 I1Cent=           0 NGrid=           0
         NMat0=    1 NMatS0=      1 NMatT0=    0 NMatD0=    4 NMtDS0=    3 NMtDT0=    0
 Symmetry not used in FoFCou.
 PxScal for G2LodP:  IOpCl= 0 ISclPx=0 IMOff=     1 NMtTot=     4 NTT=    7503 ScalPx= 1.00D+00
 NEqPCM:  Using equilibrium solvation (IEInf=0, Eps=  24.8520, EpsInf=   1.8526)
 G2PCM: DoFxE=T DoFxN=T DoGrad=T DoDP/DQ/DG/TGxP=TFFF NFrqRd=   0 IEInf=0 SqF1=F DoCFld=F IF1Alg=4.
 GePol: Maximum number of non-zero 1st derivatives   =     200
 End of G2Drv F.D. properties file   721 does not exist.
 End of G2Drv F.D. properties file   722 does not exist.
 End of G2Drv F.D. properties file   788 does not exist.
 Leave Link 1110 at Fri Jun  2 11:09:20 2023, MaxMem=  7381975040 cpu:              92.5 elap:              49.6
 (Enter /software/commercial/gaussian/g16/AVX/g16/l1002.exe)
 Minotr:  Closed shell wavefunction.
          IDoAtm=1111111
 NEqPCM:  Using equilibrium solvation (IEInf=0, Eps=  24.8520, EpsInf=   1.8526)
          Direct CPHF calculation.
          Differentiating once with respect to electric field.
                with respect to dipole field.
          Differentiating once with respect to nuclear coordinates.
          Requested convergence is 1.0D-08 RMS, and 1.0D-07 maximum.
          Secondary convergence is 1.0D-12 RMS, and 1.0D-12 maximum.
          NewPWx=T KeepS1=F KeepF1=F KeepIn=T MapXYZ=F SortEE=F KeepMc=T.
         2122 words used for storage of precomputed grid.
 Keep R1 ints in memory in canonical form, NReq=31095500.
 FoFCou: FMM=F IPFlag=           0 FMFlag=           0 FMFlg1=           0
         NFxFlg=           0 DoJE=F BraDBF=F KetDBF=F FulRan=T
         wScrn=  0.000000 ICntrl=       600 IOpCl=  0 I1Cent=           0 NGrid=           0
         NMat0=    1 NMatS0=   7503 NMatT0=    0 NMatD0=    1 NMtDS0=    0 NMtDT0=    0
 Symmetry not used in FoFCou.
 Two-electron integral symmetry not used.
          MDV=    7381975040 using IRadAn=       1.
          Solving linear equations simultaneously, MaxMat=       0.
          There are    24 degrees of freedom in the 1st order CPHF.  IDoFFX=5 NUNeed=    24.
 Will reuse    3 saved solutions.
     18 vectors produced by pass  0 Test12= 7.80D-15 4.17D-09 XBig12= 1.27D-01 1.16D-01.
 AX will form    18 AO Fock derivatives at one time.
     18 vectors produced by pass  1 Test12= 7.80D-15 4.17D-09 XBig12= 5.54D-02 1.09D-01.
     18 vectors produced by pass  2 Test12= 7.80D-15 4.17D-09 XBig12= 7.58D-04 6.77D-03.
     18 vectors produced by pass  3 Test12= 7.80D-15 4.17D-09 XBig12= 8.16D-06 9.10D-04.
     18 vectors produced by pass  4 Test12= 7.80D-15 4.17D-09 XBig12= 5.73D-08 5.94D-05.
     18 vectors produced by pass  5 Test12= 7.80D-15 4.17D-09 XBig12= 2.00D-10 2.73D-06.
     13 vectors produced by pass  6 Test12= 7.80D-15 4.17D-09 XBig12= 3.92D-13 1.22D-07.
      3 vectors produced by pass  7 Test12= 7.80D-15 4.17D-09 XBig12= 7.36D-16 5.51D-09.
 InvSVY:  IOpt=1 It=  1 EMax= 1.11D-15
 Solved reduced A of dimension   124 with    18 vectors.
 FullF1:  Do perturbations      1 to       3.
 Isotropic polarizability for W=    0.000000       66.53 Bohr**3.
 FullF1:  Do perturbations      1 to       6.
 End of Minotr F.D. properties file   721 does not exist.
 End of Minotr F.D. properties file   722 does not exist.
 End of Minotr F.D. properties file   788 does not exist.
 Leave Link 1002 at Fri Jun  2 11:10:15 2023, MaxMem=  7381975040 cpu:              85.5 elap:              53.7
 (Enter /software/commercial/gaussian/g16/AVX/g16/l601.exe)
 Copying SCF densities to generalized density rwf, IOpCl= 0 IROHF=0.

 **********************************************************************

            Population analysis using the SCF Density.

 **********************************************************************

 Alpha  occ. eigenvalues --  -14.31413 -14.29342 -14.29338 -10.15825 -10.15769
 Alpha  occ. eigenvalues --   -1.02529  -0.82070  -0.74598  -0.56777  -0.54276
 Alpha  occ. eigenvalues --   -0.47079  -0.40811  -0.40674  -0.31039  -0.24708
 Alpha  occ. eigenvalues --   -0.24704  -0.24384  -0.22317
 Alpha virt. eigenvalues --    0.02165   0.03863   0.04292   0.05229   0.06050
 Alpha virt. eigenvalues --    0.06791   0.07686   0.08688   0.09638   0.11704
 Alpha virt. eigenvalues --    0.13845   0.14294   0.16620   0.16870   0.20116
 Alpha virt. eigenvalues --    0.20548   0.21416   0.21522   0.22501   0.23049
 Alpha virt. eigenvalues --    0.25398   0.25514   0.26608   0.31625   0.32157
 Alpha virt. eigenvalues --    0.34779   0.37424   0.45469   0.48962   0.50599
 Alpha virt. eigenvalues --    0.55913   0.60166   0.62079   0.65044   0.71201
 Alpha virt. eigenvalues --    0.76462   0.79997   0.80888   0.81808   0.85376
 Alpha virt. eigenvalues --    0.86817   0.87623   0.88480   0.88981   0.89634
 Alpha virt. eigenvalues --    0.94949   0.96940   1.04370   1.06003   1.13724
 Alpha virt. eigenvalues --    1.24560   1.27941   1.31607   1.37939   1.40123
 Alpha virt. eigenvalues --    1.53611   1.61494   1.67943   1.71429   1.72627
 Alpha virt. eigenvalues --    1.76789   1.82543   1.83905   1.84269   2.04888
 Alpha virt. eigenvalues --    2.10365   2.12978   2.26184   2.26222   2.33920
 Alpha virt. eigenvalues --    2.35666   2.46754   2.53508   2.63031   2.63928
 Alpha virt. eigenvalues --    2.66732   2.70364   2.71534   2.76339   2.79381
 Alpha virt. eigenvalues --    2.80237   2.87026   2.97465   3.11704   3.13012
 Alpha virt. eigenvalues --    3.27274   3.34598   3.57294   3.64461   3.74919
 Alpha virt. eigenvalues --    3.91669   3.93508   4.02494   4.02824   4.12680
 Alpha virt. eigenvalues --    4.58967   4.61893   4.81639   5.63821  23.82654
 Alpha virt. eigenvalues --   24.15080  35.42989  35.53428  35.63565
     Molecular Orbital Coefficients:
                           1         2         3         4         5
                           O         O         O         O         O
     Eigenvalues --   -14.31413 -14.29342 -14.29338 -10.15825 -10.15769
   1 1   C  1S         -0.00001   0.00001  -0.00001   0.40019  -0.39581
   2        2S          0.00005   0.00001   0.00007   0.32949  -0.32556
   3        2PX         0.00004   0.00041   0.00021   0.00003  -0.00015
   4        2PY         0.00003   0.00023   0.00003  -0.00033  -0.00083
   5        2PZ         0.00000  -0.00000   0.00000  -0.00000   0.00000
   6        3S         -0.00043   0.00036   0.00001   0.01361  -0.01383
   7        3PX        -0.00046  -0.00102  -0.00072   0.00010   0.00041
   8        3PY         0.00006  -0.00127   0.00045   0.00179   0.00319
   9        3PZ         0.00000  -0.00000  -0.00000  -0.00000  -0.00000
  10        4S          0.00058   0.00775   0.00026  -0.00750   0.00931
  11        4PX         0.00002   0.00573   0.00020  -0.00132   0.00236
  12        4PY         0.00021  -0.00318   0.00067   0.00028  -0.00473
  13        4PZ        -0.00000  -0.00000  -0.00000   0.00000   0.00000
  14        5S         -0.00190  -0.02225   0.00101  -0.00417   0.00859
  15        5PX        -0.00089  -0.00118  -0.00109  -0.00075  -0.00006
  16        5PY        -0.00050   0.00498  -0.00068  -0.00023  -0.00178
  17        5PZ         0.00000   0.00000   0.00000   0.00000  -0.00000
  18        6D 0       -0.00014   0.00009   0.00005  -0.00080   0.00199
  19        6D+1       -0.00000  -0.00000  -0.00000  -0.00000   0.00000
  20        6D-1        0.00000  -0.00000  -0.00000  -0.00000  -0.00000
  21        6D+2       -0.00012  -0.00124  -0.00029   0.00086   0.00185
  22        6D-2       -0.00027  -0.00028  -0.00056  -0.00072   0.00080
  23 2   C  1S         -0.00001  -0.00001  -0.00000   0.39572   0.40029
  24        2S          0.00005   0.00001   0.00007   0.32581   0.32925
  25        2PX         0.00003  -0.00027   0.00033   0.00007   0.00004
  26        2PY        -0.00004   0.00024  -0.00015   0.00033  -0.00084
  27        2PZ        -0.00000   0.00000  -0.00000   0.00000  -0.00000
  28        3S         -0.00043  -0.00033   0.00013   0.01345   0.01398
  29        3PX        -0.00046   0.00052  -0.00102  -0.00014   0.00001
  30        3PY         0.00000  -0.00143   0.00017  -0.00182   0.00319
  31        3PZ        -0.00000  -0.00000   0.00000   0.00000  -0.00000
  32        4S          0.00057  -0.00714   0.00301  -0.00740  -0.00939
  33        4PX        -0.00000  -0.00565   0.00228  -0.00131  -0.00297
  34        4PY        -0.00021  -0.00249   0.00021  -0.00006  -0.00438
  35        4PZ         0.00000  -0.00000   0.00000  -0.00000   0.00000
  36        5S         -0.00190   0.02114  -0.00703  -0.00407  -0.00864
  37        5PX        -0.00082   0.00134  -0.00158  -0.00072  -0.00018
  38        5PY         0.00061   0.00475  -0.00095   0.00035  -0.00176
  39        5PZ        -0.00000   0.00000  -0.00000  -0.00000  -0.00000
  40        6D 0       -0.00014  -0.00007   0.00008  -0.00078  -0.00200
  41        6D+1        0.00000  -0.00000   0.00000  -0.00000   0.00000
  42        6D-1       -0.00000   0.00000  -0.00000  -0.00000   0.00000
  43        6D+2       -0.00004   0.00100  -0.00053   0.00103  -0.00156
  44        6D-2        0.00029  -0.00033   0.00079   0.00046   0.00126
  45 3   N  1S          0.00331   0.45927   0.31579  -0.00004   0.00004
  46        2S          0.00281   0.38383   0.26402  -0.00001   0.00005
  47        2PX         0.00022  -0.00038  -0.00024  -0.00037   0.00025
  48        2PY        -0.00027  -0.00112  -0.00081  -0.00013   0.00017
  49        2PZ         0.00000   0.00000   0.00000  -0.00000  -0.00000
  50        3S          0.00007   0.01309   0.00832   0.00044  -0.00051
  51        3PX        -0.00050  -0.00063  -0.00045   0.00110  -0.00035
  52        3PY         0.00046  -0.00050  -0.00005   0.00045  -0.00047
  53        3PZ        -0.00000  -0.00000   0.00000   0.00000   0.00000
  54        4S          0.00289  -0.01383  -0.00678  -0.00283  -0.00010
  55        4PX         0.00070   0.00145   0.00043   0.00025  -0.00058
  56        4PY        -0.00209   0.00258   0.00115   0.00022   0.00073
  57        4PZ         0.00000   0.00000  -0.00000  -0.00000  -0.00000
  58        5S         -0.01242   0.01692   0.00468   0.02195  -0.00962
  59        5PX        -0.00205   0.00156  -0.00023  -0.00138  -0.00020
  60        5PY         0.00442  -0.00406  -0.00059  -0.00529   0.00292
  61        5PZ        -0.00000  -0.00000  -0.00000  -0.00000  -0.00000
  62        6D 0        0.00022  -0.00023  -0.00018   0.00052  -0.00041
  63        6D+1        0.00000   0.00000  -0.00000   0.00000   0.00000
  64        6D-1       -0.00000  -0.00000   0.00000   0.00000   0.00000
  65        6D+2        0.00025   0.00026   0.00018  -0.00063   0.00015
  66        6D-2        0.00047  -0.00006   0.00006  -0.00032   0.00033
  67 4   N  1S          0.55737  -0.00086  -0.00463   0.00000   0.00000
  68        2S          0.46594  -0.00071  -0.00382   0.00004   0.00000
  69        2PX        -0.00172  -0.00001  -0.00019   0.00009   0.00000
  70        2PY         0.00011   0.00037  -0.00005  -0.00001   0.00004
  71        2PZ         0.00000  -0.00000   0.00000  -0.00000  -0.00000
  72        3S          0.01495  -0.00003  -0.00014  -0.00049  -0.00000
  73        3PX        -0.00023   0.00002   0.00034  -0.00025  -0.00001
  74        3PY         0.00002  -0.00061   0.00009   0.00002  -0.00019
  75        3PZ        -0.00000   0.00000  -0.00000   0.00000  -0.00000
  76        4S         -0.01437   0.00063   0.00340   0.00266   0.00002
  77        4PX         0.00285  -0.00020  -0.00180  -0.00120   0.00006
  78        4PY        -0.00019   0.00196  -0.00024   0.00007   0.00104
  79        4PZ         0.00000  -0.00000   0.00000  -0.00000   0.00000
  80        5S          0.03165  -0.00094  -0.00508  -0.02881  -0.00016
  81        5PX        -0.00682  -0.00026   0.00078   0.00745   0.00022
  82        5PY         0.00045  -0.00590   0.00104  -0.00050   0.00277
  83        5PZ         0.00000  -0.00000   0.00000   0.00000   0.00000
  84        6D 0       -0.00015   0.00006   0.00031  -0.00013  -0.00000
  85        6D+1       -0.00000   0.00000  -0.00000   0.00000  -0.00000
  86        6D-1       -0.00000  -0.00000  -0.00000   0.00000  -0.00000
  87        6D+2       -0.00020   0.00013   0.00026   0.00026   0.00001
  88        6D-2        0.00003   0.00060  -0.00015  -0.00003   0.00005
  89 5   N  1S          0.00331  -0.31581   0.45925  -0.00004  -0.00004
  90        2S          0.00280  -0.26390   0.38391  -0.00001  -0.00005
  91        2PX         0.00025   0.00017  -0.00020  -0.00035  -0.00023
  92        2PY         0.00024  -0.00079   0.00119   0.00017   0.00021
  93        2PZ        -0.00000   0.00000   0.00000   0.00000   0.00000
  94        3S          0.00007  -0.00925   0.01245   0.00044   0.00052
  95        3PX        -0.00056   0.00037  -0.00062   0.00103   0.00029
  96        3PY        -0.00039  -0.00050   0.00031  -0.00059  -0.00052
  97        3PZ         0.00000  -0.00000   0.00000  -0.00000   0.00000
  98        4S          0.00289   0.01049  -0.01128  -0.00283   0.00007
  99        4PX         0.00096  -0.00093   0.00065   0.00021   0.00068
 100        4PY         0.00198   0.00214  -0.00210  -0.00026   0.00065
 101        4PZ        -0.00000   0.00000  -0.00000   0.00000  -0.00000
 102        5S         -0.01242  -0.01413   0.01043   0.02184   0.00986
 103        5PX        -0.00261  -0.00200   0.00061  -0.00068   0.00058
 104        5PY        -0.00411  -0.00335   0.00194   0.00539   0.00292
 105        5PZ        -0.00000  -0.00000  -0.00000  -0.00000  -0.00000
 106        6D 0        0.00022   0.00015  -0.00025   0.00051   0.00042
 107        6D+1       -0.00000   0.00000   0.00000   0.00000   0.00000
 108        6D-1       -0.00000   0.00000  -0.00000   0.00000  -0.00000
 109        6D+2        0.00012  -0.00019   0.00025  -0.00052  -0.00007
 110        6D-2       -0.00052  -0.00003  -0.00010   0.00047   0.00036
 111 6   H  1S         -0.00008  -0.00018  -0.00013  -0.00000  -0.00016
 112        2S         -0.00033   0.00080  -0.00080  -0.00319   0.00337
 113        3S         -0.00001   0.00230  -0.00003   0.00180  -0.00062
 114        4PX        -0.00014  -0.00025  -0.00037  -0.00135   0.00138
 115        4PY         0.00012  -0.00018   0.00021   0.00143  -0.00090
 116        4PZ         0.00000   0.00000  -0.00000  -0.00000   0.00000
 117 7   H  1S         -0.00008   0.00012  -0.00018  -0.00000   0.00016
 118        2S         -0.00033  -0.00104  -0.00046  -0.00315  -0.00341
 119        3S         -0.00001  -0.00216   0.00080   0.00179   0.00064
 120        4PX        -0.00015   0.00007  -0.00044  -0.00151  -0.00150
 121        4PY        -0.00010  -0.00026  -0.00007  -0.00123  -0.00073
 122        4PZ        -0.00000   0.00000   0.00000   0.00000   0.00000
                           6         7         8         9        10
                           O         O         O         O         O
     Eigenvalues --    -1.02529  -0.82070  -0.74598  -0.56777  -0.54276
   1 1   C  1S         -0.03231   0.03553   0.07320  -0.05303  -0.03142
   2        2S         -0.04926   0.05468   0.11319  -0.08291  -0.04929
   3        2PX         0.03230  -0.04502  -0.00918  -0.00198  -0.11177
   4        2PY        -0.01175  -0.02571   0.02818   0.06102  -0.06775
   5        2PZ        -0.00000   0.00000   0.00000  -0.00000  -0.00000
   6        3S          0.12232  -0.14275  -0.29874   0.22493   0.13075
   7        3PX         0.04420  -0.06484  -0.01320   0.00223  -0.15599
   8        3PY        -0.01640  -0.03871   0.03955   0.08411  -0.09626
   9        3PZ        -0.00000  -0.00000   0.00000   0.00000  -0.00000
  10        4S          0.04485  -0.04597  -0.16615   0.20597   0.10484
  11        4PX         0.00640   0.00425  -0.00498   0.01494  -0.06255
  12        4PY        -0.00542  -0.01403   0.01057   0.01041  -0.03651
  13        4PZ         0.00000   0.00000  -0.00000  -0.00000   0.00000
  14        5S          0.03114  -0.16967  -0.01006  -0.10390  -0.00283
  15        5PX         0.01281  -0.00731  -0.00006   0.00539  -0.00465
  16        5PY        -0.00548   0.03861  -0.00291   0.03765   0.00504
  17        5PZ         0.00000  -0.00000  -0.00000  -0.00000   0.00000
  18        6D 0       -0.00956   0.00654   0.01074  -0.00548  -0.00056
  19        6D+1       -0.00000   0.00000   0.00000  -0.00000  -0.00000
  20        6D-1       -0.00000  -0.00000   0.00000   0.00000  -0.00000
  21        6D+2        0.00625  -0.01663   0.00621   0.00307  -0.01589
  22        6D-2       -0.00324  -0.00502  -0.00096   0.00035  -0.00394
  23 2   C  1S         -0.03231  -0.03556   0.07319   0.05300  -0.03147
  24        2S         -0.04927  -0.05472   0.11316   0.08286  -0.04936
  25        2PX         0.03357   0.04128  -0.01278   0.00986  -0.10194
  26        2PY         0.00742  -0.03137  -0.02675   0.06034   0.08173
  27        2PZ        -0.00000   0.00000  -0.00000  -0.00000   0.00000
  28        3S          0.12233   0.14287  -0.29868  -0.22482   0.13095
  29        3PX         0.04597   0.05924  -0.01824   0.00868  -0.14205
  30        3PY         0.01048  -0.04685  -0.03751   0.08382   0.11575
  31        3PZ        -0.00000  -0.00000   0.00000   0.00000   0.00000
  32        4S          0.04486   0.04605  -0.16613  -0.20582   0.10503
  33        4PX         0.00707  -0.00603  -0.00632  -0.01348  -0.05721
  34        4PY         0.00454  -0.01336  -0.00984   0.01229   0.04437
  35        4PZ         0.00000   0.00000   0.00000  -0.00000  -0.00000
  36        5S          0.03115   0.16968  -0.01001   0.10391  -0.00306
  37        5PX         0.01343   0.01230   0.00032  -0.00043  -0.00527
  38        5PY         0.00376   0.03732   0.00290   0.03803  -0.00446
  39        5PZ        -0.00000   0.00000   0.00000  -0.00000  -0.00000
  40        6D 0       -0.00956  -0.00655   0.01074   0.00548  -0.00057
  41        6D+1        0.00000   0.00000   0.00000  -0.00000   0.00000
  42        6D-1       -0.00000  -0.00000   0.00000  -0.00000  -0.00000
  43        6D+2        0.00688   0.01475   0.00626  -0.00289  -0.01433
  44        6D-2        0.00151  -0.00916  -0.00069   0.00114   0.00792
  45 3   N  1S         -0.05866   0.07903   0.00375   0.01749   0.04241
  46        2S         -0.09177   0.12453   0.00581   0.02783   0.06758
  47        2PX        -0.00461   0.02118   0.07394  -0.10147   0.07019
  48        2PY        -0.05107   0.03125  -0.02681   0.04571  -0.03396
  49        2PZ         0.00000  -0.00000  -0.00000   0.00000  -0.00000
  50        3S          0.24990  -0.34879  -0.01406  -0.08152  -0.19425
  51        3PX        -0.00597   0.02998   0.11122  -0.14992   0.10166
  52        3PY        -0.08081   0.05098  -0.03987   0.06997  -0.04836
  53        3PZ        -0.00000  -0.00000  -0.00000  -0.00000  -0.00000
  54        4S          0.14102  -0.26423  -0.02529  -0.09875  -0.19365
  55        4PX        -0.00908   0.01528   0.03594  -0.06804   0.04962
  56        4PY        -0.01897   0.02548  -0.00692   0.04248  -0.01900
  57        4PZ         0.00000  -0.00000   0.00000  -0.00000  -0.00000
  58        5S         -0.05373   0.08878   0.09118   0.00027   0.00736
  59        5PX         0.00879   0.00122  -0.00342   0.00827  -0.00307
  60        5PY         0.01244  -0.02636  -0.02383  -0.01398  -0.00785
  61        5PZ        -0.00000  -0.00000   0.00000   0.00000  -0.00000
  62        6D 0       -0.01029   0.00680   0.00001   0.00109  -0.00027
  63        6D+1        0.00000  -0.00000   0.00000  -0.00000   0.00000
  64        6D-1       -0.00000   0.00000  -0.00000   0.00000  -0.00000
  65        6D+2       -0.00624  -0.00434  -0.01185   0.01030  -0.00915
  66        6D-2       -0.00269   0.00216  -0.01488   0.01145  -0.00695
  67 4   N  1S         -0.07234   0.00001  -0.06709  -0.00002  -0.04966
  68        2S         -0.11338   0.00002  -0.10618  -0.00003  -0.07911
  69        2PX        -0.05747  -0.00575  -0.01634  -0.00856   0.01645
  70        2PY         0.00378  -0.08763   0.00105  -0.13043  -0.00102
  71        2PZ        -0.00000  -0.00000   0.00000  -0.00000  -0.00000
  72        3S          0.31306  -0.00007   0.30560   0.00009   0.23218
  73        3PX        -0.09487  -0.00871  -0.02797  -0.01277   0.02135
  74        3PY         0.00624  -0.13287   0.00181  -0.19463  -0.00131
  75        3PZ         0.00000  -0.00000   0.00000  -0.00000   0.00000
  76        4S          0.18760  -0.00004   0.24707   0.00009   0.23564
  77        4PX        -0.03216  -0.00190  -0.02108  -0.00515   0.00462
  78        4PY         0.00210  -0.02906   0.00136  -0.07850  -0.00028
  79        4PZ         0.00000   0.00000   0.00000   0.00000  -0.00000
  80        5S         -0.00739   0.00005  -0.13991   0.00006  -0.00118
  81        5PX         0.00825  -0.00148   0.03968  -0.00046   0.01239
  82        5PY        -0.00054  -0.02233  -0.00261  -0.00690  -0.00081
  83        5PZ         0.00000   0.00000  -0.00000  -0.00000   0.00000
  84        6D 0       -0.01337   0.00000  -0.00379  -0.00000   0.00116
  85        6D+1       -0.00000  -0.00000  -0.00000  -0.00000  -0.00000
  86        6D-1       -0.00000  -0.00000  -0.00000  -0.00000  -0.00000
  87        6D+2        0.00205   0.00319  -0.00874   0.00245  -0.00562
  88        6D-2       -0.00027   0.02419   0.00116   0.01855   0.00073
  89 5   N  1S         -0.05866  -0.07904   0.00372  -0.01745   0.04242
  90        2S         -0.09177  -0.12454   0.00576  -0.02777   0.06760
  91        2PX         0.00210  -0.01695   0.07681   0.10664   0.07391
  92        2PY         0.05123   0.03374   0.01691   0.03207   0.02446
  93        2PZ         0.00000  -0.00000   0.00000   0.00000   0.00000
  94        3S          0.24989   0.34881  -0.01392   0.08134  -0.19430
  95        3PX         0.00464  -0.02310   0.11548   0.15787   0.10693
  96        3PY         0.08089   0.05445   0.02500   0.04980   0.03460
  97        3PZ         0.00000  -0.00000   0.00000   0.00000   0.00000
  98        4S          0.14099   0.26425  -0.02519   0.09859  -0.19374
  99        4PX        -0.00652  -0.01180   0.03654   0.07309   0.05158
 100        4PY         0.01998   0.02725   0.00217   0.03324   0.01231
 101        4PZ        -0.00000  -0.00000  -0.00000  -0.00000   0.00000
 102        5S         -0.05374  -0.08886   0.09116  -0.00035   0.00740
 103        5PX         0.00709  -0.00466  -0.00027  -0.01002  -0.00201
 104        5PY        -0.01348  -0.02600   0.02407  -0.01280   0.00820
 105        5PZ        -0.00000  -0.00000  -0.00000   0.00000   0.00000
 106        6D 0       -0.01029  -0.00680   0.00001  -0.00109  -0.00027
 107        6D+1       -0.00000  -0.00000  -0.00000  -0.00000  -0.00000
 108        6D-1       -0.00000  -0.00000  -0.00000  -0.00000  -0.00000
 109        6D+2       -0.00533   0.00476  -0.00758  -0.00698  -0.00703
 110        6D-2        0.00421   0.00095   0.01744   0.01374   0.00907
 111 6   H  1S          0.00597  -0.01779  -0.04274   0.07967   0.05506
 112        2S          0.00539  -0.01745  -0.04756   0.10526   0.07180
 113        3S          0.00125   0.00901  -0.00150   0.02894   0.01124
 114        4PX         0.00089  -0.00460  -0.00449   0.00998   0.00177
 115        4PY         0.00054   0.00049   0.00623  -0.00784  -0.01056
 116        4PZ        -0.00000   0.00000   0.00000  -0.00000  -0.00000
 117 7   H  1S          0.00598   0.01782  -0.04272  -0.07964   0.05509
 118        2S          0.00539   0.01747  -0.04755  -0.10524   0.07185
 119        3S          0.00126  -0.00901  -0.00151  -0.02894   0.01126
 120        4PX         0.00081   0.00463  -0.00526  -0.01091   0.00313
 121        4PY        -0.00065  -0.00011  -0.00559  -0.00646   0.01024
 122        4PZ         0.00000   0.00000  -0.00000  -0.00000   0.00000
                          11        12        13        14        15
                           O         O         O         O         O
     Eigenvalues --    -0.47079  -0.40811  -0.40674  -0.31039  -0.24708
   1 1   C  1S          0.00155  -0.01601  -0.00000  -0.00934  -0.00000
   2        2S          0.00258  -0.02556  -0.00000  -0.01525  -0.00000
   3        2PX        -0.05943  -0.12243  -0.00000   0.00372   0.00000
   4        2PY         0.13846   0.03600   0.00000  -0.10924  -0.00000
   5        2PZ        -0.00000  -0.00000   0.08760   0.00000   0.08729
   6        3S         -0.00755   0.06477   0.00000   0.05169   0.00000
   7        3PX        -0.07854  -0.16989  -0.00000   0.00379   0.00000
   8        3PY         0.18932   0.04705   0.00000  -0.15346   0.00000
   9        3PZ        -0.00000  -0.00000   0.13386   0.00000   0.13438
  10        4S          0.01039   0.08285   0.00000   0.04098   0.00000
  11        4PX        -0.05748  -0.10011  -0.00000  -0.00555   0.00000
  12        4PY         0.10432   0.04263  -0.00000  -0.07666  -0.00000
  13        4PZ        -0.00000  -0.00000   0.08943   0.00000   0.13048
  14        5S         -0.00227   0.05660  -0.00000  -0.01482   0.00000
  15        5PX        -0.00851  -0.00933  -0.00000  -0.00318   0.00000
  16        5PY         0.02350  -0.00704   0.00000  -0.00125  -0.00000
  17        5PZ         0.00000  -0.00000   0.00679  -0.00000   0.03734
  18        6D 0        0.00421  -0.00046   0.00000   0.00453  -0.00000
  19        6D+1       -0.00000  -0.00000   0.01674   0.00000   0.02182
  20        6D-1        0.00000   0.00000  -0.00844  -0.00000   0.01407
  21        6D+2        0.00601  -0.01058  -0.00000  -0.01734   0.00000
  22        6D-2        0.01065  -0.02880  -0.00000   0.01744  -0.00000
  23 2   C  1S          0.00155   0.01602   0.00000  -0.00935   0.00000
  24        2S          0.00259   0.02558   0.00000  -0.01526   0.00000
  25        2PX        -0.07703   0.12609   0.00000   0.01797  -0.00000
  26        2PY        -0.12951   0.01966   0.00000   0.10782  -0.00000
  27        2PZ         0.00000  -0.00000   0.08761  -0.00000  -0.08738
  28        3S         -0.00758  -0.06483  -0.00000   0.05173  -0.00000
  29        3PX        -0.10262   0.17459   0.00000   0.02383  -0.00000
  30        3PY        -0.17742   0.02440   0.00000   0.15164  -0.00000
  31        3PZ         0.00000  -0.00000   0.13387  -0.00000  -0.13452
  32        4S          0.01041  -0.08296  -0.00000   0.04110  -0.00000
  33        4PX        -0.07060   0.10482  -0.00000   0.00456  -0.00000
  34        4PY        -0.09590   0.02917  -0.00000   0.07670  -0.00000
  35        4PZ         0.00000  -0.00000   0.08940  -0.00000  -0.13059
  36        5S         -0.00237  -0.05662   0.00000  -0.01523  -0.00000
  37        5PX        -0.01150   0.00833   0.00000  -0.00300  -0.00000
  38        5PY        -0.02222  -0.00820   0.00000   0.00153  -0.00000
  39        5PZ        -0.00000  -0.00000   0.00676   0.00000  -0.03735
  40        6D 0        0.00420   0.00046   0.00000   0.00453  -0.00000
  41        6D+1        0.00000  -0.00000   0.01770  -0.00000  -0.01979
  42        6D-1        0.00000  -0.00000   0.00618  -0.00000   0.01679
  43        6D+2        0.00304   0.00276  -0.00000  -0.02125  -0.00000
  44        6D-2       -0.01184  -0.03057  -0.00000  -0.01234  -0.00000
  45 3   N  1S         -0.02330   0.01393   0.00000  -0.02102   0.00000
  46        2S         -0.03732   0.02238   0.00000  -0.03383   0.00000
  47        2PX         0.02296   0.10809   0.00000   0.04027  -0.00000
  48        2PY         0.06940  -0.02602  -0.00000   0.11257  -0.00000
  49        2PZ         0.00000  -0.00000   0.12373   0.00000   0.17975
  50        3S          0.10973  -0.06502  -0.00000   0.09577  -0.00000
  51        3PX         0.03520   0.15820   0.00000   0.05588  -0.00000
  52        3PY         0.10210  -0.03518  -0.00000   0.16437  -0.00000
  53        3PZ         0.00000  -0.00000   0.18723   0.00000   0.27084
  54        4S          0.11845  -0.06941  -0.00000   0.15354  -0.00000
  55        4PX         0.02049   0.09307   0.00000   0.06429  -0.00000
  56        4PY         0.06669  -0.02179  -0.00000   0.12009  -0.00000
  57        4PZ         0.00000  -0.00000   0.14399   0.00000   0.25757
  58        5S          0.11346  -0.01386  -0.00000   0.13398  -0.00000
  59        5PX         0.00892   0.01449  -0.00000   0.00799  -0.00000
  60        5PY        -0.03588   0.00197   0.00000   0.00110   0.00000
  61        5PZ        -0.00000   0.00000   0.00510   0.00000   0.05883
  62        6D 0        0.00497  -0.00057   0.00000   0.00798  -0.00000
  63        6D+1       -0.00000   0.00000  -0.00498  -0.00000  -0.01068
  64        6D-1        0.00000   0.00000  -0.02122   0.00000  -0.01332
  65        6D+2        0.01090  -0.00472  -0.00000   0.01626  -0.00000
  66        6D-2       -0.01568  -0.01681  -0.00000   0.00023   0.00000
  67 4   N  1S         -0.01258   0.00000   0.00000  -0.00270  -0.00000
  68        2S         -0.02025   0.00001   0.00000  -0.00413  -0.00000
  69        2PX         0.05627   0.00676   0.00000   0.15842   0.00000
  70        2PY        -0.00371   0.10295   0.00000  -0.01040   0.00000
  71        2PZ         0.00000  -0.00000   0.13979   0.00000   0.00005
  72        3S          0.06116  -0.00002  -0.00000   0.00439   0.00000
  73        3PX         0.08581   0.01011   0.00000   0.24167   0.00000
  74        3PY        -0.00565   0.15399   0.00000  -0.01586   0.00000
  75        3PZ         0.00000  -0.00000   0.21277   0.00000   0.00008
  76        4S          0.05949  -0.00002   0.00000  -0.00735   0.00000
  77        4PX         0.05889   0.00629   0.00000   0.19705  -0.00000
  78        4PY        -0.00390   0.09598  -0.00000  -0.01297   0.00000
  79        4PZ        -0.00000  -0.00000   0.16303  -0.00000   0.00007
  80        5S         -0.12113  -0.00005  -0.00000  -0.04434   0.00000
  81        5PX         0.01948  -0.00027   0.00000   0.04104  -0.00000
  82        5PY        -0.00129  -0.00431   0.00000  -0.00274   0.00000
  83        5PZ         0.00000  -0.00000   0.01809   0.00000  -0.00001
  84        6D 0        0.00502  -0.00000   0.00000   0.00908  -0.00000
  85        6D+1        0.00000   0.00000  -0.02521   0.00000   0.00167
  86        6D-1        0.00000  -0.00000   0.00165   0.00000   0.02555
  87        6D+2       -0.01659  -0.00101  -0.00000  -0.02366  -0.00000
  88        6D-2        0.00219  -0.00767  -0.00000   0.00312  -0.00000
  89 5   N  1S         -0.02330  -0.01395  -0.00000  -0.02101  -0.00000
  90        2S         -0.03732  -0.02241  -0.00000  -0.03382  -0.00000
  91        2PX         0.01372  -0.11057  -0.00000   0.02519   0.00000
  92        2PY        -0.07182  -0.01167  -0.00000  -0.11684  -0.00000
  93        2PZ        -0.00000  -0.00000   0.12373  -0.00000  -0.17974
  94        3S          0.10972   0.06510   0.00000   0.09574   0.00000
  95        3PX         0.02159  -0.16144  -0.00000   0.03387   0.00000
  96        3PY        -0.10584  -0.01421  -0.00000  -0.17021  -0.00000
  97        3PZ        -0.00000  -0.00000   0.18722  -0.00000  -0.27082
  98        4S          0.11840   0.06948   0.00000   0.15337   0.00000
  99        4PX         0.01164  -0.09514  -0.00000   0.04805   0.00000
 100        4PY        -0.06882  -0.00945   0.00000  -0.12745  -0.00000
 101        4PZ        -0.00000  -0.00000   0.14400   0.00000  -0.25754
 102        5S          0.11342   0.01394   0.00000   0.13391  -0.00000
 103        5PX         0.01355  -0.01413   0.00000   0.00781  -0.00000
 104        5PY         0.03441   0.00386   0.00000  -0.00210  -0.00000
 105        5PZ         0.00000   0.00000   0.00513  -0.00000  -0.05880
 106        6D 0        0.00497   0.00057  -0.00000   0.00798   0.00000
 107        6D+1        0.00000   0.00000  -0.00216   0.00000   0.00885
 108        6D-1        0.00000  -0.00000   0.02169   0.00000  -0.01460
 109        6D+2        0.01459   0.00020   0.00000   0.01564   0.00000
 110        6D-2        0.01232  -0.01746  -0.00000  -0.00444   0.00000
 111 6   H  1S          0.10034   0.11938   0.00000  -0.06989   0.00000
 112        2S          0.13445   0.16492   0.00000  -0.11666   0.00000
 113        3S          0.02306   0.06382   0.00000  -0.08300   0.00000
 114        4PX         0.01326   0.00446   0.00000  -0.00653  -0.00000
 115        4PY        -0.00866  -0.00958  -0.00000  -0.00102   0.00000
 116        4PZ        -0.00000  -0.00000   0.00659   0.00000   0.00763
 117 7   H  1S          0.10034  -0.11938  -0.00000  -0.06989   0.00000
 118        2S          0.13446  -0.16490  -0.00000  -0.11667  -0.00000
 119        3S          0.02306  -0.06382  -0.00000  -0.08297   0.00000
 120        4PX         0.01428  -0.00566  -0.00000  -0.00635  -0.00000
 121        4PY         0.00686  -0.00892  -0.00000   0.00186   0.00000
 122        4PZ         0.00000  -0.00000   0.00659  -0.00000  -0.00764
                          16        17        18        19        20
                           O         O         O         V         V
     Eigenvalues --    -0.24704  -0.24384  -0.22317   0.02165   0.03863
   1 1   C  1S          0.02192  -0.01275   0.00000   0.01531   0.00000
   2        2S          0.03518  -0.02050   0.00000   0.02593   0.00000
   3        2PX        -0.04087   0.07840  -0.00000   0.03290   0.00000
   4        2PY         0.00573   0.05064   0.00000  -0.02625  -0.00000
   5        2PZ         0.00000  -0.00000  -0.15011  -0.00000   0.03909
   6        3S         -0.10613   0.06535  -0.00000  -0.10151  -0.00000
   7        3PX        -0.06669   0.11920   0.00000   0.04822   0.00000
   8        3PY         0.00612   0.07399  -0.00000  -0.05257  -0.00000
   9        3PZ         0.00000  -0.00000  -0.23191  -0.00000   0.05769
  10        4S         -0.14614   0.09711   0.00000   0.00637  -0.00000
  11        4PX        -0.01564   0.09499  -0.00000   0.10817  -0.00000
  12        4PY         0.03954   0.06097  -0.00000  -0.00919   0.00000
  13        4PZ         0.00000  -0.00000  -0.22602  -0.00000   0.11712
  14        5S         -0.12980   0.02939   0.00000   1.87127  -0.00000
  15        5PX         0.01214   0.01906  -0.00000   0.16227  -0.00000
  16        5PY         0.04311   0.01140  -0.00000   0.82291   0.00000
  17        5PZ         0.00000  -0.00000  -0.05014  -0.00000   0.42051
  18        6D 0        0.00099  -0.00094  -0.00000   0.00876   0.00000
  19        6D+1        0.00000  -0.00000   0.00244   0.00000  -0.02942
  20        6D-1        0.00000  -0.00000   0.01590   0.00000  -0.01503
  21        6D+2       -0.02087   0.00366  -0.00000   0.00192   0.00000
  22        6D-2        0.01165  -0.00440   0.00000  -0.00706  -0.00000
  23 2   C  1S         -0.02196  -0.01267  -0.00000   0.01530  -0.00000
  24        2S         -0.03524  -0.02038  -0.00000   0.02591  -0.00000
  25        2PX         0.04148   0.07099   0.00000   0.03604  -0.00000
  26        2PY         0.00012  -0.06045   0.00000   0.02172  -0.00000
  27        2PZ        -0.00000   0.00000  -0.15005  -0.00000   0.03900
  28        3S          0.10632   0.06498   0.00000  -0.10147   0.00000
  29        3PX         0.06725   0.10831  -0.00000   0.05466  -0.00000
  30        3PY        -0.00296  -0.08892  -0.00000   0.04580  -0.00000
  31        3PZ        -0.00000   0.00000  -0.23182   0.00000   0.05757
  32        4S          0.14631   0.09657  -0.00000   0.00650   0.00000
  33        4PX         0.02091   0.08613   0.00000   0.10850   0.00000
  34        4PY         0.03693  -0.07292  -0.00000  -0.00510   0.00000
  35        4PZ        -0.00000   0.00000  -0.22593   0.00000   0.11685
  36        5S          0.12985   0.02855  -0.00000   1.87414   0.00000
  37        5PX        -0.00636   0.01741   0.00000   0.05395   0.00000
  38        5PY         0.04428  -0.01404  -0.00000  -0.83610   0.00000
  39        5PZ        -0.00000   0.00000  -0.05014   0.00000   0.41979
  40        6D 0       -0.00099  -0.00094   0.00000   0.00876   0.00000
  41        6D+1       -0.00000   0.00000   0.00035   0.00000  -0.02720
  42        6D-1        0.00000  -0.00000  -0.01609  -0.00000   0.01875
  43        6D+2        0.02320   0.00460   0.00000   0.00369  -0.00000
  44        6D-2        0.00586   0.00328   0.00000   0.00632  -0.00000
  45 3   N  1S         -0.02321   0.03520  -0.00000   0.00992   0.00000
  46        2S         -0.03711   0.05671  -0.00000   0.01641   0.00000
  47        2PX         0.06239  -0.11154   0.00000  -0.00499  -0.00000
  48        2PY         0.18166  -0.02435   0.00000  -0.01327  -0.00000
  49        2PZ         0.00000  -0.00000   0.02818   0.00000  -0.15569
  50        3S          0.09821  -0.16690   0.00000  -0.05608  -0.00000
  51        3PX         0.08855  -0.16411   0.00000  -0.00008  -0.00000
  52        3PY         0.26781  -0.02495   0.00000  -0.02011  -0.00000
  53        3PZ         0.00000  -0.00000   0.04221   0.00000  -0.23134
  54        4S          0.16339  -0.28476  -0.00000  -0.13183   0.00000
  55        4PX         0.07327  -0.11783  -0.00000  -0.03930  -0.00000
  56        4PY         0.23389  -0.02934   0.00000   0.03222  -0.00000
  57        4PZ         0.00000  -0.00000   0.04582   0.00000  -0.30979
  58        5S          0.16485  -0.20753  -0.00000  -0.54809   0.00000
  59        5PX         0.04556  -0.03363  -0.00000   0.65464   0.00000
  60        5PY         0.04031  -0.00706   0.00000  -0.36261  -0.00000
  61        5PZ         0.00000  -0.00000   0.02408   0.00000  -0.62013
  62        6D 0        0.00930  -0.00478   0.00000   0.00346  -0.00000
  63        6D+1       -0.00000   0.00000   0.01937  -0.00000   0.01162
  64        6D-1       -0.00000   0.00000  -0.01137   0.00000  -0.00659
  65        6D+2        0.00536   0.01613   0.00000  -0.00280  -0.00000
  66        6D-2       -0.00616   0.00444   0.00000   0.00660   0.00000
  67 4   N  1S         -0.00008  -0.05139   0.00000   0.00720   0.00000
  68        2S         -0.00014  -0.08276   0.00000   0.01216   0.00000
  69        2PX        -0.00502   0.17679  -0.00000  -0.00943   0.00000
  70        2PY        -0.08050  -0.01148  -0.00000   0.00062   0.00000
  71        2PZ        -0.00000   0.00000   0.17548  -0.00000   0.17734
  72        3S          0.00039   0.23665   0.00000  -0.04952   0.00000
  73        3PX        -0.00786   0.24925  -0.00000  -0.00591   0.00000
  74        3PY        -0.12542  -0.01617  -0.00000   0.00040   0.00000
  75        3PZ        -0.00000   0.00000   0.26419  -0.00000   0.26246
  76        4S          0.00069   0.39464  -0.00000   0.04180  -0.00000
  77        4PX        -0.00351   0.21356   0.00000  -0.09603   0.00000
  78        4PY        -0.05830  -0.01399   0.00000   0.00633  -0.00000
  79        4PZ        -0.00000   0.00000   0.25896  -0.00000   0.35935
  80        5S          0.00054   0.31211   0.00000  -1.38917  -0.00000
  81        5PX        -0.00348   0.04655  -0.00000   0.09679  -0.00000
  82        5PY        -0.05405  -0.00299   0.00000  -0.00684  -0.00000
  83        5PZ        -0.00000   0.00000   0.07186  -0.00000   0.67634
  84        6D 0        0.00002   0.01247   0.00000   0.00133  -0.00000
  85        6D+1        0.00000  -0.00000  -0.01430  -0.00000   0.00441
  86        6D-1        0.00000  -0.00000   0.00093   0.00000  -0.00030
  87        6D+2        0.00331   0.00706  -0.00000   0.00536  -0.00000
  88        6D-2        0.02498  -0.00097  -0.00000  -0.00071  -0.00000
  89 5   N  1S          0.02332   0.03512   0.00000   0.00992  -0.00000
  90        2S          0.03729   0.05659   0.00000   0.01642  -0.00000
  91        2PX        -0.03845  -0.10730   0.00000  -0.00322   0.00000
  92        2PY         0.18840   0.03812   0.00000   0.01381  -0.00000
  93        2PZ        -0.00000   0.00000   0.02827   0.00000  -0.15564
  94        3S         -0.09875  -0.16658  -0.00000  -0.05608   0.00000
  95        3PX        -0.05327  -0.15930  -0.00000   0.00254   0.00000
  96        3PY         0.27726   0.04531   0.00000   0.01994  -0.00000
  97        3PZ        -0.00000   0.00000   0.04235   0.00000  -0.23126
  98        4S         -0.16430  -0.28431   0.00000  -0.13189  -0.00000
  99        4PX        -0.04248  -0.11293   0.00000  -0.04316   0.00000
 100        4PY         0.24161   0.04370   0.00000  -0.02682  -0.00000
 101        4PZ        -0.00000   0.00000   0.04597   0.00000  -0.30968
 102        5S         -0.16549  -0.20688   0.00000  -0.54956  -0.00000
 103        5PX        -0.04009  -0.03231   0.00000   0.69626  -0.00000
 104        5PY         0.04595   0.01130   0.00000   0.27367  -0.00000
 105        5PZ        -0.00000   0.00000   0.02417   0.00000  -0.61973
 106        6D 0       -0.00931  -0.00475  -0.00000   0.00346   0.00000
 107        6D+1        0.00000  -0.00000   0.02069  -0.00000   0.01239
 108        6D-1       -0.00000   0.00000   0.00875  -0.00000   0.00501
 109        6D+2       -0.00673   0.01445  -0.00000  -0.00441   0.00000
 110        6D-2       -0.00458  -0.00846   0.00000  -0.00565   0.00000
 111 6   H  1S         -0.00104  -0.00180  -0.00000  -0.01640  -0.00000
 112        2S         -0.00014  -0.00494   0.00000   0.04788  -0.00000
 113        3S         -0.00099   0.00076  -0.00000  -0.30078  -0.00000
 114        4PX        -0.00075   0.00368   0.00000  -0.00816  -0.00000
 115        4PY        -0.00168   0.00452   0.00000   0.00893   0.00000
 116        4PZ         0.00000  -0.00000  -0.01364  -0.00000   0.00989
 117 7   H  1S          0.00106  -0.00181   0.00000  -0.01640   0.00000
 118        2S          0.00018  -0.00494  -0.00000   0.04786   0.00000
 119        3S          0.00101   0.00076   0.00000  -0.30063   0.00000
 120        4PX         0.00054   0.00306  -0.00000  -0.00925   0.00000
 121        4PY        -0.00178  -0.00495   0.00000  -0.00778   0.00000
 122        4PZ        -0.00000   0.00000  -0.01364  -0.00000   0.00988
                          21        22        23        24        25
                           V         V         V         V         V
     Eigenvalues --     0.04292   0.05229   0.06050   0.06791   0.07686
   1 1   C  1S         -0.01415   0.00724   0.00000  -0.00000  -0.01653
   2        2S         -0.02355   0.01125   0.00000  -0.00000  -0.02626
   3        2PX        -0.03515   0.02103  -0.00000   0.00000  -0.00336
   4        2PY         0.01679  -0.02526  -0.00000   0.00000   0.01448
   5        2PZ         0.00000  -0.00000   0.13622  -0.08453   0.00000
   6        3S          0.08475  -0.01947  -0.00000  -0.00000   0.04895
   7        3PX        -0.05116   0.04998  -0.00000  -0.00000  -0.02880
   8        3PY         0.04742  -0.05054   0.00000  -0.00000   0.01164
   9        3PZ         0.00000  -0.00000   0.20408  -0.09721   0.00000
  10        4S          0.21452  -0.21683  -0.00000   0.00000   0.75008
  11        4PX        -0.00709  -0.07166  -0.00000   0.00000   0.31959
  12        4PY        -0.19987  -0.02110   0.00000  -0.00000  -0.08602
  13        4PZ         0.00000  -0.00000   0.42769  -0.31289   0.00000
  14        5S          8.87301  -1.39233  -0.00000   0.00000  12.06197
  15        5PX        -0.40901  -1.28236  -0.00000   0.00000   3.80050
  16        5PY        -3.89101   0.42622   0.00000  -0.00000  -2.44481
  17        5PZ         0.00000  -0.00000   1.56789   0.61650   0.00000
  18        6D 0        0.00031  -0.00623   0.00000  -0.00000  -0.00254
  19        6D+1       -0.00000   0.00000  -0.01105   0.00144  -0.00000
  20        6D-1       -0.00000  -0.00000   0.02044   0.01701  -0.00000
  21        6D+2        0.00131   0.00742   0.00000  -0.00000  -0.00330
  22        6D-2        0.00213   0.00628  -0.00000   0.00000  -0.00697
  23 2   C  1S          0.01415   0.00725  -0.00000   0.00000   0.01651
  24        2S          0.02356   0.01127   0.00000   0.00000   0.02623
  25        2PX         0.03705   0.02416   0.00000  -0.00000   0.00521
  26        2PY         0.01205   0.02230  -0.00000   0.00000   0.01395
  27        2PZ         0.00000   0.00000  -0.13630  -0.08442   0.00000
  28        3S         -0.08479  -0.01952  -0.00000   0.00000  -0.04893
  29        3PX         0.05692   0.05616  -0.00000   0.00000   0.03006
  30        3PY         0.04032   0.04360   0.00000  -0.00000   0.00782
  31        3PZ         0.00000   0.00000  -0.20418  -0.09704   0.00000
  32        4S         -0.21440  -0.21710   0.00000  -0.00000  -0.74945
  33        4PX        -0.01899  -0.06832   0.00000  -0.00000  -0.32809
  34        4PY        -0.19914   0.03022   0.00000  -0.00000  -0.04357
  35        4PZ         0.00000   0.00000  -0.42798  -0.31256   0.00000
  36        5S         -8.87166  -1.40667   0.00000  -0.00000 -12.06013
  37        5PX        -0.10262  -1.32823   0.00000  -0.00000  -4.08638
  38        5PY        -3.91111  -0.25916   0.00000  -0.00000  -1.92917
  39        5PZ         0.00000   0.00000  -1.56779   0.61715  -0.00000
  40        6D 0       -0.00031  -0.00622  -0.00000   0.00000   0.00255
  41        6D+1       -0.00000   0.00000   0.01365  -0.00081  -0.00000
  42        6D-1        0.00000  -0.00000   0.01879  -0.01707   0.00000
  43        6D+2       -0.00071   0.00554  -0.00000   0.00000   0.00134
  44        6D-2        0.00240  -0.00799  -0.00000   0.00000  -0.00758
  45 3   N  1S         -0.00691  -0.01351  -0.00000   0.00000   0.01758
  46        2S         -0.01134  -0.02255  -0.00000   0.00000   0.02929
  47        2PX         0.01908  -0.00966   0.00000  -0.00000  -0.00938
  48        2PY         0.03434   0.02057   0.00000  -0.00000  -0.02770
  49        2PZ        -0.00000   0.00000  -0.10099   0.04317  -0.00000
  50        3S          0.03803   0.08136   0.00000  -0.00000  -0.10302
  51        3PX         0.02095  -0.01287   0.00000  -0.00000  -0.01346
  52        3PY         0.05529   0.02393   0.00000  -0.00000  -0.04449
  53        3PZ        -0.00000   0.00000  -0.15189   0.06009  -0.00000
  54        4S          0.02603   0.10195   0.00000  -0.00000  -0.18440
  55        4PX         0.08230  -0.02103  -0.00000   0.00000   0.05780
  56        4PY         0.04551   0.01301  -0.00000   0.00000   0.03255
  57        4PZ        -0.00000   0.00000  -0.21265   0.12800  -0.00000
  58        5S         -1.61235   1.78104   0.00000  -0.00000  -4.71893
  59        5PX        -1.21543  -0.30462  -0.00000   0.00000   0.79022
  60        5PY         1.02529  -0.29184   0.00000   0.00000   0.53181
  61        5PZ        -0.00000   0.00000  -0.50372  -0.00941  -0.00000
  62        6D 0        0.00088  -0.00257   0.00000   0.00000  -0.00177
  63        6D+1        0.00000   0.00000  -0.01390   0.00081   0.00000
  64        6D-1       -0.00000   0.00000   0.00732   0.00879  -0.00000
  65        6D+2        0.00269   0.00221  -0.00000   0.00000   0.00279
  66        6D-2       -0.00371  -0.00120  -0.00000   0.00000   0.00199
  67 4   N  1S          0.00001  -0.00949  -0.00000  -0.00000  -0.00003
  68        2S          0.00001  -0.01634  -0.00000  -0.00000  -0.00005
  69        2PX        -0.00055   0.05421   0.00000   0.00000   0.00122
  70        2PY        -0.00812  -0.00356  -0.00000   0.00000   0.01824
  71        2PZ         0.00000  -0.00000  -0.00008  -0.09261   0.00000
  72        3S         -0.00005   0.06947   0.00000   0.00000   0.00016
  73        3PX        -0.00106   0.06517   0.00000   0.00000   0.00160
  74        3PY        -0.01594  -0.00429  -0.00000   0.00000   0.02427
  75        3PZ         0.00000  -0.00000  -0.00011  -0.12642   0.00000
  76        4S         -0.00001  -0.07804  -0.00000   0.00000   0.00032
  77        4PX        -0.00137   0.17547   0.00000   0.00000   0.00586
  78        4PY        -0.01965  -0.01154  -0.00000   0.00000   0.08672
  79        4PZ         0.00000  -0.00000  -0.00017  -0.24312   0.00000
  80        5S         -0.00140   0.39914   0.00000   0.00000   0.00734
  81        5PX         0.11377  -0.25252  -0.00000  -0.00000   0.01574
  82        5PY         1.72661   0.01753  -0.00000   0.00000   0.27753
  83        5PZ         0.00000  -0.00000  -0.00013   0.00513   0.00000
  84        6D 0       -0.00000  -0.00217   0.00000  -0.00000   0.00001
  85        6D+1        0.00000  -0.00000  -0.00143   0.00507  -0.00000
  86        6D-1        0.00000   0.00000  -0.02173  -0.00032  -0.00000
  87        6D+2        0.00046  -0.00473   0.00000   0.00000   0.00058
  88        6D-2        0.00344   0.00063  -0.00000   0.00000   0.00442
  89 5   N  1S          0.00691  -0.01351   0.00000  -0.00000  -0.01755
  90        2S          0.01135  -0.02256   0.00000  -0.00000  -0.02924
  91        2PX        -0.01442  -0.01225  -0.00000   0.00000   0.00570
  92        2PY         0.03656  -0.01913   0.00000  -0.00000  -0.02874
  93        2PZ        -0.00000   0.00000   0.10109   0.04309  -0.00000
  94        3S         -0.03806   0.08138  -0.00000   0.00000   0.10284
  95        3PX        -0.01353  -0.01587  -0.00000   0.00000   0.00756
  96        3PY         0.05759  -0.02204   0.00000  -0.00000  -0.04592
  97        3PZ        -0.00000  -0.00000   0.15203   0.05999  -0.00000
  98        4S         -0.02614   0.10196  -0.00000   0.00000   0.18426
  99        4PX        -0.07565  -0.02252   0.00000  -0.00000  -0.05292
 100        4PY         0.05588  -0.01016  -0.00000   0.00000   0.03969
 101        4PZ        -0.00000  -0.00000   0.21287   0.12782  -0.00000
 102        5S          1.61224   1.78476  -0.00000   0.00000   4.70915
 103        5PX         1.33984  -0.26358  -0.00000  -0.00000  -0.71538
 104        5PY         0.85789   0.33006  -0.00000   0.00000   0.62831
 105        5PZ        -0.00000   0.00000   0.50411  -0.00963  -0.00000
 106        6D 0       -0.00088  -0.00257   0.00000  -0.00000   0.00177
 107        6D+1        0.00000  -0.00000   0.01473  -0.00036   0.00000
 108        6D-1        0.00000   0.00000   0.00543  -0.00883   0.00000
 109        6D+2       -0.00356   0.00244  -0.00000  -0.00000  -0.00218
 110        6D-2       -0.00289   0.00059   0.00000   0.00000   0.00267
 111 6   H  1S          0.01110  -0.01301   0.00000  -0.00000  -0.00432
 112        2S          0.00674   0.03172  -0.00000   0.00000  -0.05894
 113        3S          0.16451  -0.27515   0.00000   0.00000   0.41363
 114        4PX         0.00731  -0.01023  -0.00000   0.00000   0.00488
 115        4PY        -0.01370  -0.00087   0.00000  -0.00000  -0.00453
 116        4PZ         0.00000  -0.00000   0.02601   0.00150   0.00000
 117 7   H  1S         -0.01109  -0.01303  -0.00000   0.00000   0.00430
 118        2S         -0.00672   0.03172  -0.00000  -0.00000   0.05887
 119        3S         -0.16435  -0.27528   0.00000  -0.00000  -0.41403
 120        4PX        -0.00903  -0.01002  -0.00000  -0.00000  -0.00542
 121        4PY        -0.01263   0.00219   0.00000  -0.00000  -0.00387
 122        4PZ         0.00000   0.00000  -0.02601   0.00152  -0.00000
                          26        27        28        29        30
                           V         V         V         V         V
     Eigenvalues --     0.08688   0.09638   0.11704   0.13845   0.14294
   1 1   C  1S         -0.00902   0.00062   0.00000   0.00000   0.00151
   2        2S         -0.01408   0.00157   0.00000   0.00000   0.00323
   3        2PX        -0.00005  -0.01354  -0.00000   0.00000   0.02464
   4        2PY        -0.03160   0.01944   0.00000  -0.00000  -0.01999
   5        2PZ         0.00000   0.00000  -0.13725   0.02470   0.00000
   6        3S          0.02706  -0.02274   0.00000  -0.00000  -0.01838
   7        3PX         0.01476  -0.02796   0.00000   0.00000   0.01930
   8        3PY        -0.03186   0.01942  -0.00000  -0.00000  -0.04713
   9        3PZ         0.00000   0.00000  -0.17319   0.04972   0.00000
  10        4S          0.25827   0.22378  -0.00000  -0.00000   0.06826
  11        4PX        -0.04545  -0.00181  -0.00000   0.00000   0.15745
  12        4PY        -0.06527   0.17586  -0.00000   0.00000   0.02444
  13        4PZ         0.00000   0.00000  -0.62188   0.03461   0.00000
  14        5S         -0.44299   1.30615   0.00000   0.00000  36.65305
  15        5PX         0.04927   0.51315  -0.00000  -0.00000  -1.90640
  16        5PY         1.49711  -0.73497  -0.00000  -0.00000  -9.95496
  17        5PZ        -0.00000  -0.00000   1.68936  -0.55701   0.00000
  18        6D 0       -0.01297   0.01610   0.00000   0.00000   0.00712
  19        6D+1        0.00000   0.00000  -0.00291   0.00084  -0.00000
  20        6D-1       -0.00000  -0.00000  -0.01027  -0.00542  -0.00000
  21        6D+2       -0.01798  -0.00189  -0.00000   0.00000   0.00793
  22        6D-2       -0.01031   0.01197   0.00000   0.00000   0.00339
  23 2   C  1S         -0.00904   0.00060  -0.00000  -0.00000  -0.00151
  24        2S         -0.01410   0.00154  -0.00000  -0.00000  -0.00323
  25        2PX         0.00408  -0.01598  -0.00000  -0.00000  -0.02702
  26        2PY         0.03132  -0.01751  -0.00000  -0.00000  -0.01657
  27        2PZ        -0.00000  -0.00000   0.13724   0.02487  -0.00000
  28        3S          0.02708  -0.02270   0.00000   0.00000   0.01840
  29        3PX         0.01876  -0.03032   0.00000  -0.00000  -0.02525
  30        3PY         0.02966  -0.01560  -0.00000  -0.00000  -0.04416
  31        3PZ        -0.00000  -0.00000   0.17316   0.04996  -0.00000
  32        4S          0.25956   0.22479  -0.00000  -0.00000  -0.06896
  33        4PX        -0.03590  -0.02420  -0.00000  -0.00000  -0.15280
  34        4PY         0.07073  -0.17399  -0.00000   0.00000   0.04509
  35        4PZ        -0.00000  -0.00000   0.62190   0.03531  -0.00000
  36        5S         -0.41588   1.31129  -0.00000  -0.00000 -36.65299
  37        5PX        -0.13807   0.61202   0.00000   0.00000   0.58856
  38        5PY        -1.48670   0.66014  -0.00000  -0.00000 -10.11922
  39        5PZ         0.00000   0.00000  -1.68892  -0.55976   0.00000
  40        6D 0       -0.01298   0.01609   0.00000  -0.00000  -0.00712
  41        6D+1       -0.00000  -0.00000   0.00153   0.00154  -0.00000
  42        6D-1        0.00000   0.00000  -0.01057   0.00525   0.00000
  43        6D+2       -0.01470  -0.00492  -0.00000  -0.00000  -0.00679
  44        6D-2        0.01464  -0.01106  -0.00000   0.00000   0.00535
  45 3   N  1S          0.00817   0.00606   0.00000   0.00000   0.00187
  46        2S          0.01325   0.01031   0.00000   0.00000   0.00370
  47        2PX         0.00944  -0.00018   0.00000  -0.00000  -0.02108
  48        2PY         0.00812   0.02591   0.00000  -0.00000  -0.00345
  49        2PZ        -0.00000  -0.00000   0.01775  -0.05221  -0.00000
  50        3S         -0.03898  -0.04304  -0.00000  -0.00000  -0.02988
  51        3PX         0.01377  -0.01007   0.00000  -0.00000  -0.02497
  52        3PY         0.01124   0.02865   0.00000   0.00000   0.00203
  53        3PZ        -0.00000   0.00000   0.02596  -0.04987   0.00000
  54        4S         -0.07778   0.01236  -0.00000   0.00000   0.12801
  55        4PX         0.02161   0.07960   0.00000   0.00000  -0.03336
  56        4PY         0.00886   0.04583   0.00000  -0.00000  -0.08336
  57        4PZ        -0.00000  -0.00000   0.07104  -0.21293  -0.00000
  58        5S         -0.43046  -6.62439   0.00000  -0.00000  -5.06179
  59        5PX        -0.18711  -0.48988  -0.00000  -0.00000   0.60003
  60        5PY         0.09077   1.74325  -0.00000   0.00000   1.70751
  61        5PZ        -0.00000   0.00000   0.19764   0.38446  -0.00000
  62        6D 0       -0.00630   0.00577   0.00000  -0.00000  -0.00012
  63        6D+1       -0.00000  -0.00000   0.01412   0.00113  -0.00000
  64        6D-1        0.00000  -0.00000   0.00367   0.00786  -0.00000
  65        6D+2       -0.00496  -0.00095   0.00000   0.00000   0.00524
  66        6D-2       -0.00297  -0.01074  -0.00000   0.00000   0.00989
  67 4   N  1S         -0.01875  -0.02200  -0.00000  -0.00000   0.00001
  68        2S         -0.03089  -0.03661  -0.00000  -0.00000   0.00002
  69        2PX         0.01404   0.03358   0.00000  -0.00000  -0.00212
  70        2PY        -0.00094  -0.00223  -0.00000  -0.00000  -0.03219
  71        2PZ         0.00000   0.00000   0.00006  -0.07846   0.00000
  72        3S          0.10354   0.13310   0.00000  -0.00000  -0.00008
  73        3PX        -0.00322   0.02321  -0.00000  -0.00000  -0.00276
  74        3PY         0.00019  -0.00155  -0.00000  -0.00000  -0.04207
  75        3PZ         0.00000   0.00000   0.00007  -0.06527   0.00000
  76        4S          0.18155   0.04250   0.00000   0.00000   0.00013
  77        4PX         0.10504   0.19509   0.00000   0.00000  -0.01076
  78        4PY        -0.00700  -0.01295  -0.00000  -0.00000  -0.16222
  79        4PZ         0.00000   0.00000   0.00023  -0.36628   0.00000
  80        5S          1.53803   9.88007  -0.00000  -0.00000  -0.00482
  81        5PX        -0.83001  -3.29001   0.00000   0.00000   0.12750
  82        5PY         0.05531   0.21808   0.00000   0.00000   1.91321
  83        5PZ         0.00000  -0.00000  -0.00069   1.19339   0.00000
  84        6D 0       -0.00029   0.01596   0.00000   0.00000  -0.00001
  85        6D+1       -0.00000  -0.00000   0.00056   0.01656  -0.00000
  86        6D-1       -0.00000  -0.00000   0.00857  -0.00108  -0.00000
  87        6D+2       -0.00119  -0.00499  -0.00000   0.00000   0.00156
  88        6D-2        0.00015   0.00066   0.00000   0.00000   0.01186
  89 5   N  1S          0.00820   0.00608   0.00000  -0.00000  -0.00188
  90        2S          0.01330   0.01034   0.00000  -0.00000  -0.00371
  91        2PX         0.00828  -0.00356   0.00000   0.00000   0.02048
  92        2PY        -0.00922  -0.02563  -0.00000  -0.00000  -0.00618
  93        2PZ         0.00000  -0.00000  -0.01773  -0.05229   0.00000
  94        3S         -0.03918  -0.04313  -0.00000   0.00000   0.02990
  95        3PX         0.01216  -0.01372   0.00000   0.00000   0.02506
  96        3PY        -0.01284  -0.02702  -0.00000  -0.00000  -0.00125
  97        3PZ         0.00000  -0.00000  -0.02596  -0.04996  -0.00000
[...]
     XX                                                                                                                              
     XX                                                                                                                              
     XX                                                                                                                              
     X                                                                                                                               
     X                                                                                                                               
     X                                                                                                                               
     X                                                                                                                               
     X                                                                                                                               
     X                                                                                                                               
 
 -------------------------------------------------------------------
 Center     Atomic                   Forces (Hartrees/Bohr)
 Number     Number              X              Y              Z
 -------------------------------------------------------------------
      1        6           0.000017355    0.000016092   -0.000000000
      2        6          -0.000003375    0.000004373    0.000000000
      3        7           0.000016930   -0.000005555   -0.000000000
      4        7           0.000002407   -0.000021354   -0.000000000
      5        7          -0.000017546   -0.000012615    0.000000000
      6        1           0.000000619    0.000010807    0.000000000
      7        1          -0.000016391    0.000008253   -0.000000000
 -------------------------------------------------------------------
 Cartesian Forces:  Max     0.000021354 RMS     0.000010445
 Force constants in Cartesian coordinates: 
                1             2             3             4             5 
      1  0.685157D+00
      2 -0.160784D+00  0.726261D+00
      3  0.000000D+00  0.000000D+00  0.122012D+00
      4 -0.102556D+00 -0.355244D-01  0.000000D+00  0.727359D+00
      5  0.625428D-02 -0.325558D+00  0.000000D+00  0.160450D+00  0.684154D+00
      6  0.000000D+00  0.000000D+00 -0.642032D-01  0.000000D+00  0.000000D+00
      7 -0.276136D+00 -0.636932D-01  0.000000D+00 -0.233381D-01 -0.102085D+00
      8 -0.599517D-01 -0.128161D+00  0.000000D+00 -0.136401D-01 -0.344340D-01
      9  0.000000D+00  0.000000D+00 -0.711698D-01  0.000000D+00  0.000000D+00
     10 -0.107569D+00  0.141770D-01  0.000000D+00 -0.117961D+00 -0.786875D-03
     11  0.782560D-01 -0.168418D-01  0.000000D+00 -0.648968D-01 -0.640170D-02
     12  0.000000D+00  0.000000D+00  0.226601D-01  0.000000D+00  0.000000D+00
     13 -0.846401D-02  0.986506D-01  0.000000D+00 -0.257529D+00  0.808183D-01
     14  0.102464D-01 -0.492881D-01  0.000000D+00  0.770635D-01 -0.146816D+00
     15  0.000000D+00  0.000000D+00  0.178948D-01  0.000000D+00  0.000000D+00
     16 -0.197133D+00  0.142789D+00  0.000000D+00  0.882638D-02 -0.571025D-02
     17  0.147816D+00 -0.205245D+00  0.000000D+00  0.205259D-01 -0.330045D-02
     18  0.000000D+00  0.000000D+00 -0.247044D-01  0.000000D+00  0.000000D+00
     19  0.670187D-02  0.438413D-02  0.000000D+00 -0.234801D+00 -0.138940D+00
     20 -0.218377D-01 -0.116684D-02  0.000000D+00 -0.143978D+00 -0.167643D+00
     21  0.000000D+00  0.000000D+00 -0.248991D-02  0.000000D+00  0.000000D+00
                6             7             8             9            10 
      6  0.121979D+00
      7  0.000000D+00  0.472851D+00
      8  0.000000D+00  0.538366D-01  0.477505D+00
      9  0.178832D-01  0.000000D+00  0.000000D+00  0.110494D+00
     10  0.000000D+00 -0.145233D+00  0.319078D-01  0.000000D+00  0.548452D+00
     11  0.000000D+00  0.997349D-01 -0.185717D+00  0.000000D+00 -0.120161D-01
     12  0.227785D-01  0.000000D+00  0.000000D+00 -0.924978D-01  0.000000D+00
     13  0.000000D+00 -0.116766D-01 -0.397169D-01  0.000000D+00 -0.165491D+00
     14  0.000000D+00  0.234012D-01 -0.135401D+00  0.000000D+00 -0.339384D-01
     15 -0.710719D-01  0.000000D+00  0.000000D+00  0.361142D-01  0.000000D+00
     16  0.000000D+00 -0.161392D-01  0.243189D-01  0.000000D+00 -0.645940D-02
     17  0.000000D+00 -0.800640D-02  0.119929D-01  0.000000D+00 -0.438540D-02
     18 -0.248966D-02  0.000000D+00  0.000000D+00 -0.789206D-02  0.000000D+00
     19  0.000000D+00 -0.328291D-03  0.324533D-02  0.000000D+00 -0.573835D-02
     20  0.000000D+00 -0.318808D-02 -0.578480D-02  0.000000D+00  0.504190D-02
     21 -0.248757D-01  0.000000D+00  0.000000D+00  0.706802D-02  0.000000D+00
               11            12            13            14            15 
     11  0.379728D+00
     12  0.000000D+00  0.123600D+00
     13 -0.101736D+00  0.000000D+00  0.461389D+00
     14 -0.168447D+00  0.000000D+00 -0.524293D-01  0.492026D+00
     15  0.000000D+00 -0.933735D-01  0.000000D+00  0.000000D+00  0.111242D+00
     16 -0.308149D-03  0.000000D+00 -0.422721D-03 -0.394428D-02  0.000000D+00
     17 -0.812951D-03  0.000000D+00  0.249275D-02 -0.567602D-02  0.000000D+00
     18  0.000000D+00  0.841790D-02  0.000000D+00  0.000000D+00  0.707029D-02
     19  0.966414D-03  0.000000D+00 -0.178056D-01 -0.203991D-01  0.000000D+00
     20 -0.150790D-02  0.000000D+00  0.119207D-01  0.136013D-01  0.000000D+00
     21  0.000000D+00  0.841513D-02  0.000000D+00  0.000000D+00 -0.787594D-02
               16            17            18            19            20 
     16  0.211725D+00
     17 -0.157808D+00  0.203231D+00
     18  0.000000D+00  0.000000D+00  0.212050D-01
     19 -0.397358D-03 -0.634862D-03  0.000000D+00  0.252369D+00
     20  0.662642D-03 -0.189058D-03  0.000000D+00  0.151378D+00  0.162691D+00
     21  0.000000D+00  0.000000D+00 -0.160710D-02  0.000000D+00  0.000000D+00
               21 
     21  0.213655D-01
 Leave Link  716 at Fri Jun  2 11:11:34 2023, MaxMem=  7381975040 cpu:               0.1 elap:               0.9
 (Enter /software/commercial/gaussian/g16/AVX/g16/l103.exe)

 GradGradGradGradGradGradGradGradGradGradGradGradGradGradGradGradGradGrad
 Berny optimization.
 Search for a local minimum.
 Step number   1 out of a maximum of    2
 All quantities printed in internal units (Hartrees-Bohrs-Radians)
 Second derivative matrix not updated -- analytic derivatives used.
 ITU=  0
     Eigenvalues ---    0.03951   0.04893   0.05292   0.10374   0.21917
     Eigenvalues ---    0.23620   0.28361   0.28432   0.52545   0.63463
     Eigenvalues ---    0.73033   0.75380   0.81609   1.05288   1.24243
 Angle between quadratic step and forces=  75.73 degrees.
 Linear search not attempted -- first point.
 B after Tr=     0.000011   -0.000001   -0.000000
         Rot=    1.000000    0.000000   -0.000000   -0.000000 Ang=  -0.00 deg.
 Variable       Old X    -DE/DX   Delta X   Delta X   Delta X     New X
                                 (Linear)    (Quad)   (Total)
    X1       -6.99706   0.00002   0.00000   0.00001   0.00002  -6.99704
    Y1        1.12398   0.00002   0.00000   0.00001   0.00001   1.12399
    Z1        0.00000  -0.00000   0.00000  -0.00000  -0.00000  -0.00000
    X2       -7.16902  -0.00000   0.00000   0.00001   0.00002  -7.16900
    Y2       -1.49477   0.00000   0.00000  -0.00001  -0.00001  -1.49478
    Z2       -0.00000   0.00000   0.00000   0.00000   0.00000   0.00000
    X3       -4.51387   0.00002   0.00000   0.00001   0.00002  -4.51385
    Y3        1.73488  -0.00001   0.00000   0.00001   0.00001   1.73489
    Z3        0.00000  -0.00000   0.00000  -0.00000  -0.00000  -0.00000
    X4       -3.21146   0.00000   0.00000   0.00001   0.00002  -3.21144
    Y4       -0.43951  -0.00002   0.00000  -0.00000  -0.00000  -0.43952
    Z4        0.00000  -0.00000   0.00000  -0.00000  -0.00000  -0.00000
    X5       -4.78712  -0.00002   0.00000   0.00001   0.00002  -4.78710
    Y5       -2.42500  -0.00001   0.00000  -0.00001  -0.00002  -2.42501
    Z5       -0.00000   0.00000   0.00000   0.00000   0.00000   0.00000
    X6       -8.46080   0.00000   0.00000  -0.00007  -0.00006  -8.46085
    Y6        2.54616   0.00001   0.00000  -0.00004  -0.00004   2.54611
    Z6       -0.00000   0.00000   0.00000   0.00000   0.00000   0.00000
    X7       -8.80569  -0.00002   0.00000  -0.00006  -0.00005  -8.80574
    Y7       -2.71395   0.00001   0.00000   0.00005   0.00005  -2.71390
    Z7        0.00000  -0.00000   0.00000  -0.00000  -0.00000  -0.00000
         Item               Value     Threshold  Converged?
 Maximum Force            0.000021     0.000450     YES
 RMS     Force            0.000010     0.000300     YES
 Maximum Displacement     0.000056     0.001800     YES
 RMS     Displacement     0.000025     0.001200     YES
 Predicted change in Energy=-6.899999D-10
 Optimization completed.
    -- Stationary point found.
 GradGradGradGradGradGradGradGradGradGradGradGradGradGradGradGradGradGrad

 Leave Link  103 at Fri Jun  2 11:11:37 2023, MaxMem=  7381975040 cpu:               1.9 elap:               2.3
 (Enter /software/commercial/gaussian/g16/AVX/g16/l9999.exe)

 ----------------------------------------------------------------------

 Electric dipole moment (input orientation):
 (Debye = 10**-18 statcoulomb cm , SI units = C m)
                  (au)            (Debye)         (10**-30 SI)
   Tot        0.334731D+01      0.850801D+01      0.283797D+02
   x          0.331925D+01      0.843668D+01      0.281418D+02
   y          0.432516D+00      0.109935D+01      0.366702D+01
   z          0.000000D+00      0.000000D+00      0.000000D+00

 Dipole polarizability, Alpha (input orientation).
 (esu units = cm**3 , SI units = C**2 m**2 J**-1)
 Alpha(0;0):
               (au)            (10**-24 esu)      (10**-40 SI)
   iso        0.665348D+02      0.985944D+01      0.109701D+02
   aniso      0.317271D+02      0.470147D+01      0.523109D+01
   xx         0.767879D+02      0.113788D+02      0.126606D+02
   yx         0.345161D-01      0.511476D-02      0.569094D-02
   yy         0.774298D+02      0.114739D+02      0.127664D+02
   zx         0.000000D+00      0.000000D+00      0.000000D+00
   zy         0.000000D+00      0.000000D+00      0.000000D+00
   zz         0.453867D+02      0.672561D+01      0.748325D+01

 First dipole hyperpolarizability, Beta (input orientation).
 ||, _|_  parallel and perpendicular components, (z) with respect to z axis,
 vector components x,y,z.  Values do not include the 1/n! factor of 1/2.
 (esu units = statvolt**-1 cm**4 , SI units = C**3 m**3 J**-2)
 Beta(0;0,0):
               (au)            (10**-30 esu)      (10**-50 SI)
   || (z)     0.000000D+00      0.000000D+00      0.000000D+00
   _|_(z)     0.000000D+00      0.000000D+00      0.000000D+00
   x          0.116053D+03      0.100260D+01      0.372107D+00
   y         -0.716267D+01     -0.618799D-01     -0.229661D-01
   z          0.000000D+00      0.000000D+00      0.000000D+00
   ||         0.232547D+02      0.200903D+00      0.745630D-01
   xxx        0.162895D+03      0.140729D+01      0.522301D+00
   xxy       -0.121630D+02     -0.105079D+00     -0.389989D-01
   yxy       -0.846316D+01     -0.731151D-01     -0.271359D-01
   yyy        0.216741D+01      0.187247D-01      0.694949D-02
   xxz        0.000000D+00      0.000000D+00      0.000000D+00
   yxz        0.000000D+00      0.000000D+00      0.000000D+00
   yyz        0.000000D+00      0.000000D+00      0.000000D+00
   zxz       -0.115748D+03     -0.999971D+00     -0.371129D+00
   zyz        0.760803D+01      0.657275D-01      0.243941D-01
   zzz        0.000000D+00      0.000000D+00      0.000000D+00

 ----------------------------------------------------------------------

 Dipole orientation:
     6         -0.26083809          2.00174518         -6.79317365
     6          0.07183083         -0.55125006         -7.30206455
     7         -0.29765348          2.28427684         -4.25186333
     7          0.00269636         -0.02069260         -3.24132752
     7          0.23078846         -1.77113582         -5.06032515
     1         -0.46749978          3.58772532         -8.06087157
     1          0.20071747         -1.54036258         -9.08254580

 Electric dipole moment (dipole orientation):
 (Debye = 10**-18 statcoulomb cm , SI units = C m)
                  (au)            (Debye)         (10**-30 SI)
   Tot        0.334731D+01      0.850801D+01      0.283797D+02
   x          0.000000D+00      0.000000D+00      0.000000D+00
   y          0.000000D+00      0.000000D+00      0.000000D+00
   z          0.334731D+01      0.850801D+01      0.283797D+02

 Dipole polarizability, Alpha (dipole orientation).
 (esu units = cm**3 , SI units = C**2 m**2 J**-1)
 Alpha(0;0):
               (au)            (10**-24 esu)      (10**-40 SI)
   iso        0.665348D+02      0.985944D+01      0.109701D+02
   aniso      0.317271D+02      0.470147D+01      0.523109D+01
   xx         0.459213D+02      0.680484D+01      0.757141D+01
   yx        -0.410317D+01     -0.608027D+00     -0.676521D+00
   yy         0.768756D+02      0.113918D+02      0.126751D+02
   zx        -0.149380D-01     -0.221359D-02     -0.246295D-02
   zy         0.114639D+00      0.169877D-01      0.189013D-01
   zz         0.768075D+02      0.113817D+02      0.126638D+02

 First dipole hyperpolarizability, Beta (dipole orientation).
 ||, _|_  parallel and perpendicular components, (z) with respect to z axis,
 vector components x,y,z.  Values do not include the 1/n! factor of 1/2.
 (esu units = statvolt**-1 cm**4 , SI units = C**3 m**3 J**-2)
 Beta(0;0,0):
               (au)            (10**-30 esu)      (10**-50 SI)
   || (z)     0.228309D+02      0.197241D+00      0.732040D-01
   _|_(z)     0.761029D+01      0.657469D-01      0.244013D-01
   x          0.285537D+01      0.246681D-01      0.915533D-02
   y         -0.219129D+02     -0.189310D+00     -0.702606D-01
   z          0.114154D+03      0.986204D+00      0.366020D+00
   ||         0.232547D+02      0.200903D+00      0.745630D-01
   xxx       -0.858586D+01     -0.741751D-01     -0.275294D-01
   xxy        0.212668D+02      0.183728D+00      0.681890D-01
   yxy        0.511208D+01      0.441644D-01      0.163912D-01
   yyy        0.539192D+01      0.465820D-01      0.172884D-01
   xxz       -0.111927D+03     -0.966961D+00     -0.358878D+00
   yxz       -0.143325D+02     -0.123822D+00     -0.459552D-01
   yyz       -0.380267D+01     -0.328521D-01     -0.121927D-01
   zxz        0.442556D+01      0.382334D-01      0.141899D-01
   zyz       -0.339630D+02     -0.293414D+00     -0.108898D+00
   zzz        0.153781D+03      0.132855D+01      0.493077D+00

 ----------------------------------------------------------------------
 Unable to Open any file for archive entry.
 1\1\GINC-NODE1723\Freq\RB3LYP\6-311+G(d,p)\C2H2N3(1-)\SVICCHI\02-Jun-2
 023\0\\#p freq=raman scale=0.967 pop=(nbo,full,hirshfeld) guess=read g
 eom=allcheck b3lyp/6-311+G(d,p) int=grid=ultrafine EmpiricalDispersion
 =GD3BJ SCRF=(Solvent=ethanol) scf=(xqc,intrep,maxconventionalcycle=350
 ) nosymm\\123triz-isolated.gjf\\-1,1\C,-3.7026866275,0.5947840715,0.\C
 ,-3.7936817593,-0.7909990421,0.\N,-2.388638653,0.9180594478,0.\N,-1.69
 9430743,-0.2325808876,0.\N,-2.5332323239,-1.2832523504,0.\H,-4.4772604
 179,1.3473677917,0.\H,-4.6597694754,-1.4361580309,0.\\Version=ES64L-G1
 6RevC.01\HF=-241.8408635\RMSD=7.308e-09\RMSF=1.044e-05\ZeroPoint=0.044
 0348\Thermal=0.0475133\ETot=-241.7933502\HTot=-241.792406\GTot=-241.82
 28878\Dipole=-2.1050415,0.1382315,0.\DipoleDeriv=-0.0864758,0.1646622,
 0.,-0.0493833,0.1818867,0.,0.,0.,-0.2116315,-0.0974995,-0.1279355,0.,0
 .0867198,0.1941773,0.,0.,0.,-0.2111097,-0.0448387,-0.0818887,0.,-0.259
 2827,-0.838205,0.,0.,0.,-0.3471749,-0.6782296,0.0678054,0.,0.0662628,0
 .3213675,0.,0.,0.,-0.3481384,-0.0097313,-0.029485,0.,0.1494553,-0.8700
 068,0.,0.,0.,-0.3476003,-0.0261524,0.1086659,0.,0.1394858,-0.0103449,0
 .,0.,0.,0.2323903,-0.0570727,-0.1018243,0.,-0.1332576,0.0211252,0.,0.,
 0.,0.2332645\Polar=76.7878959,0.0345161,77.4297773,0.,0.,45.3866692\Po
 larDeriv=5.3525456,-0.4885757,-9.31081,0.,0.,-3.5103893,10.1940881,2.7
 400432,-3.104176,0.,0.,7.4465115,0.,0.,0.,-5.7756139,6.216714,0.,3.898
 0036,-0.8953149,-8.8215222,0.,0.,-4.5552027,-9.8771601,4.5044837,3.363
 3295,0.,0.,-6.9427956,0.,0.,0.,-6.5821619,-5.4379826,0.,-3.5491069,-1.
 8732996,10.1682022,0.,0.,4.3590212,8.4433345,3.5683841,7.7497107,0.,0.
 ,1.1143116,0.,0.,0.,3.0297031,4.6025957,0.,15.7402902,-0.9070286,7.586
 3411,0.,0.,0.3278587,-1.5928884,-4.0441251,0.033525,0.,0.,-0.0118986,0
 .,0.,0.,5.2782786,-0.366906,0.,-3.944492,4.1189547,8.1789104,0.,0.,4.2
 538773,-7.0413056,3.0000147,-9.8804123,0.,0.,-1.6745702,0.,0.,0.,2.408
 3938,-4.9591548,0.,-7.7632237,5.3464069,-4.2367962,0.,0.,-0.4374154,5.
 043248,-5.2073861,6.7802881,0.,0.,0.1097244,0.,0.,0.,0.7477845,-0.6269
 761,0.,-9.7340167,-5.3011428,-3.5643253,0.,0.,-0.4377498,-5.1693166,-4
 .5614145,-4.9422649,0.,0.,-0.0412832,0.,0.,0.,0.8936158,0.5717099,0.\H
 yperPolar=162.8952336,-12.1629917,-8.4631587,2.1674054,0.,0.,0.,-115.7
 47844,7.6080312,0.\Quadrupole=-4.2831564,-0.4820866,4.765243,-1.897503
 4,0.,0.\PG=CS [SG(C2H2N3)]\NImag=0\\0.68515660,-0.16078355,0.72626127,
 0.,0.,0.12201241,-0.10255644,-0.03552436,0.,0.72735890,0.00625428,-0.3
 2555839,0.,0.16044991,0.68415423,0.,0.,-0.06420322,0.,0.,0.12197878,-0
 .27613555,-0.06369319,0.,-0.02333808,-0.10208497,0.,0.47285056,-0.0599
 5165,-0.12816086,0.,-0.01364009,-0.03443395,0.,0.05383663,0.47750484,0
 .,0.,-0.07116978,0.,0.,0.01788316,0.,0.,0.11049419,-0.10756934,0.01417
 701,0.,-0.11796091,-0.00078688,0.,-0.14523290,0.03190783,0.,0.54845163
 ,0.07825598,-0.01684185,0.,-0.06489678,-0.00640170,0.,0.09973485,-0.18
 571747,0.,-0.01201606,0.37972838,0.,0.,0.02266011,0.,0.,0.02277852,0.,
 0.,-0.09249778,0.,0.,0.12359966,-0.00846401,0.09865061,0.,-0.25752902,
 0.08081835,0.,-0.01167658,-0.03971691,0.,-0.16549075,-0.10173626,0.,0.
 46138866,0.01024638,-0.04928806,0.,0.07706346,-0.14681640,0.,0.0234011
 7,-0.13540066,0.,-0.03393841,-0.16844651,0.,-0.05242925,0.49202630,0.,
 0.,0.01789480,0.,0.,-0.07107192,0.,0.,0.03611424,0.,0.,-0.09337354,0.,
 0.,0.11124207,-0.19713313,0.14278934,0.,0.00882638,-0.00571025,0.,-0.0
 1613915,0.02431887,0.,-0.00645940,-0.00030815,0.,-0.00042272,-0.003944
 28,0.,0.21172539,0.14781623,-0.20524529,0.,0.02052587,-0.00330045,0.,-
 0.00800640,0.01199290,0.,-0.00438540,-0.00081295,0.,0.00249275,-0.0056
 7602,0.,-0.15780817,0.20323087,0.,0.,-0.02470442,0.,0.,-0.00248966,0.,
 0.,-0.00789206,0.,0.,0.00841790,0.,0.,0.00707029,0.,0.,0.02120505,0.00
 670187,0.00438413,0.,-0.23480084,-0.13894044,0.,-0.00032829,0.00324533
 ,0.,-0.00573835,0.00096641,0.,-0.01780558,-0.02039905,0.,-0.00039736,-
 0.00063486,0.,0.25236854,-0.02183766,-0.00116684,0.,-0.14397801,-0.167
 64334,0.,-0.00318808,-0.00578480,0.,0.00504190,-0.00150790,0.,0.011920
 72,0.01360134,0.,0.00066264,-0.00018906,0.,0.15137849,0.16269060,0.,0.
 ,-0.00248991,0.,0.,-0.02487566,0.,0.,0.00706802,0.,0.,0.00841513,0.,0.
 ,-0.00787594,0.,0.,-0.00160710,0.,0.,0.02136547\\-0.00001736,-0.000016
 09,0.,0.00000337,-0.00000437,0.,-0.00001693,0.00000555,0.,-0.00000241,
 0.00002135,0.,0.00001755,0.00001262,0.,-0.00000062,-0.00001081,0.,0.00
 001639,-0.00000825,0.\\\@
 The archive entry for this job was punched.


 IN-LAWS ARE LIKE SEEDS. YOU DON'T NEED THEM
 BUT THEY COME WITH THE TOMATO.
 Job cpu time:       0 days  0 hours  6 minutes  0.5 seconds.
 Elapsed time:       0 days  0 hours  3 minutes 48.5 seconds.
 File lengths (MBytes):  RWF=     62 Int=      0 D2E=      0 Chk=      8 Scr=      1
 Normal termination of Gaussian 16 at Fri Jun  2 11:11:43 2023.
