 Entering Gaussian System, Link 0=g16
 Input=124triz-CO2_binding-site_index-3-freq.gjf
 Output=124triz-CO2_binding-site_index-3-freq.log
 Initial command:
 /software/commercial/gaussian/g16/AVX/g16/l1.exe "/scratch1/svicchi/G09-659770.pbs02/Gau-1508317.inp" -scrdir="/scratch1/svicchi/G09-659770.pbs02/"
 Entering Link 1 = /software/commercial/gaussian/g16/AVX/g16/l1.exe PID=   1508318.
  
 Copyright (c) 1988-2019, Gaussian, Inc.  All Rights Reserved.
  
 This is part of the Gaussian(R) 16 program.  It is based on
 the Gaussian(R) 09 system (copyright 2009, Gaussian, Inc.),
 the Gaussian(R) 03 system (copyright 2003, Gaussian, Inc.),
 the Gaussian(R) 98 system (copyright 1998, Gaussian, Inc.),
 the Gaussian(R) 94 system (copyright 1995, Gaussian, Inc.),
 the Gaussian 92(TM) system (copyright 1992, Gaussian, Inc.),
 the Gaussian 90(TM) system (copyright 1990, Gaussian, Inc.),
 the Gaussian 88(TM) system (copyright 1988, Gaussian, Inc.),
 the Gaussian 86(TM) system (copyright 1986, Carnegie Mellon
 University), and the Gaussian 82(TM) system (copyright 1983,
 Carnegie Mellon University). Gaussian is a federally registered
 trademark of Gaussian, Inc.
  
 This software contains proprietary and confidential information,
 including trade secrets, belonging to Gaussian, Inc.
  
 This software is provided under written license and may be
 used, copied, transmitted, or stored only in accord with that
 written license.
  
 The following legend is applicable only to US Government
 contracts under FAR:
  
                    RESTRICTED RIGHTS LEGEND
  
 Use, reproduction and disclosure by the US Government is
 subject to restrictions as set forth in subparagraphs (a)
 and (c) of the Commercial Computer Software - Restricted
 Rights clause in FAR 52.227-19.
  
 Gaussian, Inc.
 340 Quinnipiac St., Bldg. 40, Wallingford CT 06492
  
  
 ---------------------------------------------------------------
 Warning -- This program may not be used in any manner that
 competes with the business of Gaussian, Inc. or will provide
 assistance to any competitor of Gaussian, Inc.  The licensee
 of this program is prohibited from giving any competitor of
 Gaussian, Inc. access to this program.  By using this program,
 the user acknowledges that Gaussian, Inc. is engaged in the
 business of creating and licensing software in the field of
 computational chemistry and represents and warrants to the
 licensee that it is not a competitor of Gaussian, Inc. and that
 it will not use this program in any manner prohibited above.
 ---------------------------------------------------------------
  

 Cite this work as:
 Gaussian 16, Revision C.01,
 M. J. Frisch, G. W. Trucks, H. B. Schlegel, G. E. Scuseria, 
 M. A. Robb, J. R. Cheeseman, G. Scalmani, V. Barone, 
 G. A. Petersson, H. Nakatsuji, X. Li, M. Caricato, A. V. Marenich, 
 J. Bloino, B. G. Janesko, R. Gomperts, B. Mennucci, H. P. Hratchian, 
 J. V. Ortiz, A. F. Izmaylov, J. L. Sonnenberg, D. Williams-Young, 
 F. Ding, F. Lipparini, F. Egidi, J. Goings, B. Peng, A. Petrone, 
 T. Henderson, D. Ranasinghe, V. G. Zakrzewski, J. Gao, N. Rega, 
 G. Zheng, W. Liang, M. Hada, M. Ehara, K. Toyota, R. Fukuda, 
 J. Hasegawa, M. Ishida, T. Nakajima, Y. Honda, O. Kitao, H. Nakai, 
 T. Vreven, K. Throssell, J. A. Montgomery, Jr., J. E. Peralta, 
 F. Ogliaro, M. J. Bearpark, J. J. Heyd, E. N. Brothers, K. N. Kudin, 
 V. N. Staroverov, T. A. Keith, R. Kobayashi, J. Normand, 
 K. Raghavachari, A. P. Rendell, J. C. Burant, S. S. Iyengar, 
 J. Tomasi, M. Cossi, J. M. Millam, M. Klene, C. Adamo, R. Cammi, 
 J. W. Ochterski, R. L. Martin, K. Morokuma, O. Farkas, 
 J. B. Foresman, and D. J. Fox, Gaussian, Inc., Wallingford CT, 2019.
 
 ******************************************
 Gaussian 16:  ES64L-G16RevC.01  3-Jul-2019
                 2-Jun-2023 
 ******************************************
 %NProcShared=2
 Will use up to    2 processors via shared memory.
 %mem=55gb
 %chk=/scratch1/svicchi/G09-659770.pbs02/02-freq/124triz-CO2_binding-site_index-3
 -freq.chk
 ----------------------------------------------------------------------
 #p freq=raman scale=0.967 pop=(nbo,full,hirshfeld) guess=read geom=all
 check b3lyp/6-311+G(d,p) int=grid=ultrafine EmpiricalDispersion=GD3BJ 
 SCRF=(Solvent=ethanol) scf=(xqc,intrep,maxconventionalcycle=350) nosym
 m
 ----------------------------------------------------------------------
 1/10=4,29=7,30=1,38=1,114=967000/1,3;
 2/12=2,15=1,40=1/2;
 3/5=4,6=6,7=111,11=2,14=-4,25=1,30=1,70=2201,71=2,72=4,74=-5,75=-5,116=-2,124=41,140=1/1,2,3;
 4/5=1/1;
 5/5=2,8=3,13=1,17=20,38=6,53=4,85=350,98=1/2,8;
 8/6=4,10=90,11=11/1;
 10/13=10,15=4,31=1/2;
 11/6=3,8=1,9=11,15=111,16=1,31=1/1,2,10;
 10/6=1,31=1/2;
 6/7=3,28=1,40=1,79=1/1,7;
 7/8=1,10=1,25=1,30=1/1,2,3,16;
 1/10=4,30=1/3;
 99//99;
 Leave Link    1 at Fri Jun  2 11:27:07 2023, MaxMem=  7381975040 cpu:               2.1 elap:               2.2
 (Enter /software/commercial/gaussian/g16/AVX/g16/l101.exe)
 Structure from the checkpoint file:  "/scratch1/svicchi/G09-659770.pbs02/02-freq/124triz-CO2_binding-site_index-3-freq.chk"
 ------------------------------------
 124triz-CO2_binding-site_index-3.gjf
 ------------------------------------
 Charge = -1 Multiplicity = 1
 No Z-Matrix found in chk file; cartesian coordinates used.
  C                                                -1.593938747102      1.415524283623     -0.000000000026
  N                                                -1.738228628594      0.056632506781      0.000000000034
  C                                                -0.481801606932     -0.366815875265      0.000000000053
  N                                                 0.371053280027      0.679071335710      0.000000000039
  N                                                -0.342302841093      1.837236309754     -0.000000000032
  H                                                -0.142693624697     -1.388715234257      0.000000000078
  H                                                -2.428523621958      2.100828621606     -0.000000000071
  C                                                 1.885760186816      0.614174290112     -0.000000000015
  O                                                 2.301241754214     -0.552262386732     -0.000000000201
  O                                                 2.447848849320      1.709868148668      0.000000000142
 Recover connectivity data from disk.
 ITRead=  0  0  0  0  0  0  0  0  0  0
 MicOpt= -1 -1 -1 -1 -1 -1 -1 -1 -1 -1
 NAtoms=     10 NQM=       10 NQMF=       0 NMMI=      0 NMMIF=      0
                NMic=       0 NMicF=      0.
                    Isotopes and Nuclear Properties:
 (Nuclear quadrupole moments (NQMom) in fm**2, nuclear magnetic moments (NMagM)
  in nuclear magnetons)

  Atom         1           2           3           4           5           6           7           8           9          10
 IAtWgt=          12          14          12          14          14           1           1          12          16          16
 AtmWgt=  12.0000000  14.0030740  12.0000000  14.0030740  14.0030740   1.0078250   1.0078250  12.0000000  15.9949146  15.9949146
 NucSpn=           0           2           0           2           2           1           1           0           0           0
 AtZEff=   3.6000000   4.5500000   3.6000000   4.5500000   4.5500000   1.0000000   1.0000000   3.6000000   5.6000000   5.6000000
 NQMom=    0.0000000   2.0440000   0.0000000   2.0440000   2.0440000   0.0000000   0.0000000   0.0000000   0.0000000   0.0000000
 NMagM=    0.0000000   0.4037610   0.0000000   0.4037610   0.4037610   2.7928460   2.7928460   0.0000000   0.0000000   0.0000000
 AtZNuc=   6.0000000   7.0000000   6.0000000   7.0000000   7.0000000   1.0000000   1.0000000   6.0000000   8.0000000   8.0000000
 Leave Link  101 at Fri Jun  2 11:27:10 2023, MaxMem=  7381975040 cpu:               0.4 elap:               1.2
 (Enter /software/commercial/gaussian/g16/AVX/g16/l103.exe)

 GradGradGradGradGradGradGradGradGradGradGradGradGradGradGradGradGradGrad
 Berny optimization.
 Initialization pass.
 Trust Radius=3.00D-01 FncErr=1.00D-07 GrdErr=1.00D-07 EigMax=2.50D+02 EigMin=1.00D-04
 Number of steps in this run=      2 maximum allowed number of steps=      2.
 GradGradGradGradGradGradGradGradGradGradGradGradGradGradGradGradGradGrad

 Leave Link  103 at Fri Jun  2 11:27:14 2023, MaxMem=  7381975040 cpu:               0.2 elap:               3.1
 (Enter /software/commercial/gaussian/g16/AVX/g16/l202.exe)
                          Input orientation:                          
 ---------------------------------------------------------------------
 Center     Atomic      Atomic             Coordinates (Angstroms)
 Number     Number       Type             X           Y           Z
 ---------------------------------------------------------------------
      1          6           0       -1.593939    1.415524   -0.000000
      2          7           0       -1.738229    0.056633    0.000000
      3          6           0       -0.481802   -0.366816    0.000000
      4          7           0        0.371053    0.679071    0.000000
      5          7           0       -0.342303    1.837236   -0.000000
      6          1           0       -0.142694   -1.388715    0.000000
      7          1           0       -2.428524    2.100829   -0.000000
      8          6           0        1.885760    0.614174   -0.000000
      9          8           0        2.301242   -0.552262   -0.000000
     10          8           0        2.447849    1.709868    0.000000
 ---------------------------------------------------------------------
                    Distance matrix (angstroms):
                    1          2          3          4          5
     1  C    0.000000
     2  N    1.366531   0.000000
     3  C    2.100854   1.325865   0.000000
     4  N    2.098465   2.199204   1.349534   0.000000
     5  N    1.320770   2.262556   2.208462   1.360229   0.000000
     6  H    3.157510   2.152850   1.076695   2.130652   3.232121
     7  H    1.079895   2.157602   3.143087   3.139908   2.102807
     8  C    3.570780   3.666626   2.562751   1.516097   2.541682
     9  O    4.364014   4.085104   2.789215   2.289500   3.563430
    10  O    4.052491   4.500715   3.591026   2.318539   2.793057
                    6          7          8          9         10
     6  H    0.000000
     7  H    4.171563   0.000000
     8  C    2.850648   4.563243   0.000000
     9  O    2.583113   5.423059   1.238224   0.000000
    10  O    4.038828   4.892020   1.231458   2.266876   0.000000
 Symmetry turned off by external request.
 Stoichiometry    C3H2N3O2(1-)
 Framework group  CS[SG(C3H2N3O2)]
 Deg. of freedom    17
 Full point group                 CS      NOp   2
 Rotational constants (GHZ):           5.5426678           1.7500114           1.3300643
 Leave Link  202 at Fri Jun  2 11:27:17 2023, MaxMem=  7381975040 cpu:               0.1 elap:               1.1
 (Enter /software/commercial/gaussian/g16/AVX/g16/l301.exe)
 Standard basis: 6-311+G(d,p) (5D, 7F)
 Ernie: Thresh=  0.10000D-02 Tol=  0.10000D-05 Strict=F.
   188 basis functions,   304 primitive gaussians,   196 cartesian basis functions
    29 alpha electrons       29 beta electrons
       nuclear repulsion energy       346.8697122855 Hartrees.
 IExCor=  402 DFT=T Ex+Corr=B3LYP ExCW=0 ScaHFX=  0.200000
 ScaDFX=  0.800000  0.720000  1.000000  0.810000 ScalE2=  1.000000  1.000000
 IRadAn=      5 IRanWt=     -1 IRanGd=            0 ICorTp=0 IEmpDi=141
 NAtoms=   10 NActive=   10 NUniq=   10 SFac= 1.00D+00 NAtFMM=   60 NAOKFM=F Big=F
 Integral buffers will be    131072 words long.
 Raffenetti 2 integral format.
 Two-electron integral symmetry is turned off.
 R6Disp:  Grimme-D3(BJ) Dispersion energy=       -0.0153848802 Hartrees.
 Nuclear repulsion after empirical dispersion term =      346.8543274053 Hartrees.
 Force inversion solution in PCM.
 ------------------------------------------------------------------------------
 Polarizable Continuum Model (PCM)
 =================================
 Model                : PCM.
 Atomic radii         : UFF (Universal Force Field).
 Polarization charges : Total charges.
 Charge compensation  : None.
 Solution method      : Matrix inversion.
 Cavity type          : Scaled VdW (van der Waals Surface) (Alpha=1.100).
 Cavity algorithm     : GePol (No added spheres)
                        Default sphere list used, NSphG=   10.
                        Lebedev-Laikov grids with approx.  5.0 points / Ang**2.
                        Smoothing algorithm: York/Karplus (Gamma=1.0000).
                        Polarization charges: spherical gaussians, with
                                              point-specific exponents (IZeta= 3).
                        Self-potential: point-specific (ISelfS= 7).
                        Self-field    : sphere-specific E.n sum rule (ISelfD= 2).
 1st derivatives      : Analytical E(r).r(x)/FMM algorithm (CHGder, D1EAlg=3).
                        Cavity 1st derivative terms included.
 2nd derivatives      : Analytical E(r).r(xy)/FMM algorithm (CHGder, D2EAlg=3).
                        Cavity 2nd derivative terms included.
 Solvent              : Ethanol, Eps=  24.852000 Eps(inf)=   1.852593
 ------------------------------------------------------------------------------
 Spheres list:
 ISph  on   Nord     Re0    Alpha      Xe            Ye            Ze
    1   C      1    1.9255  1.100     -1.593939      1.415524     -0.000000
    2   N      2    1.8300  1.100     -1.738229      0.056633      0.000000
    3   C      3    1.9255  1.100     -0.481802     -0.366816      0.000000
    4   N      4    1.8300  1.100      0.371053      0.679071      0.000000
    5   N      5    1.8300  1.100     -0.342303      1.837236     -0.000000
    6   H      6    1.4430  1.100     -0.142694     -1.388715      0.000000
    7   H      7    1.4430  1.100     -2.428524      2.100829     -0.000000
    8   C      8    1.9255  1.100      1.885760      0.614174     -0.000000
    9   O      9    1.7500  1.100      2.301242     -0.552262     -0.000000
   10   O     10    1.7500  1.100      2.447849      1.709868      0.000000
 ------------------------------------------------------------------------------
 GePol: Number of generator spheres                  =      10
 GePol: Total number of spheres                      =      10
 GePol: Number of exposed spheres                    =      10 (100.00%)
 GePol: Number of points                             =    1108
 GePol: Average weight of points                     =       0.13
 GePol: Minimum weight of points                     =   0.23D-07
 GePol: Maximum weight of points                     =    0.20577
 GePol: Number of points with low weight             =      42
 GePol: Fraction of low-weight points (<1% of avg)   =       3.79%
 GePol: Cavity surface area                          =    148.716 Ang**2
 GePol: Cavity volume                                =    139.734 Ang**3
 Leave Link  301 at Fri Jun  2 11:27:21 2023, MaxMem=  7381975040 cpu:               1.1 elap:               2.4
 (Enter /software/commercial/gaussian/g16/AVX/g16/l302.exe)
 NPDir=0 NMtPBC=     1 NCelOv=     1 NCel=       1 NClECP=     1 NCelD=      1
         NCelK=      1 NCelE2=     1 NClLst=     1 CellRange=     0.0.
 One-electron integrals computed using PRISM.
 NBasis=   188 RedAO= T EigKep=  5.92D-05  NBF=   188
 NBsUse=   188 1.00D-06 EigRej= -1.00D+00 NBFU=   188
 Precomputing XC quadrature grid using
 IXCGrd= 4 IRadAn=           5 IRanWt=          -1 IRanGd=           0 AccXCQ= 0.00D+00.
 Generated NRdTot=       0 NPtTot=           0 NUsed=           0 NTot=          32
 NSgBfM=   196   196   196   196   196 MxSgAt=    10 MxSgA2=    10.
 Leave Link  302 at Fri Jun  2 11:27:25 2023, MaxMem=  7381975040 cpu:               1.0 elap:               2.0
 (Enter /software/commercial/gaussian/g16/AVX/g16/l303.exe)
 DipDrv:  MaxL=1.
 Leave Link  303 at Fri Jun  2 11:27:26 2023, MaxMem=  7381975040 cpu:               0.2 elap:               0.7
 (Enter /software/commercial/gaussian/g16/AVX/g16/l401.exe)
 Initial guess from the checkpoint file:  "/scratch1/svicchi/G09-659770.pbs02/02-freq/124triz-CO2_binding-site_index-3-freq.chk"
 B after Tr=     0.000000    0.000000    0.000000
         Rot=    1.000000    0.000000    0.000000    0.000000 Ang=   0.00 deg.
 Guess basis will be translated and rotated to current coordinates.
 JPrj=2 DoOrth=T DoCkMO=T.
 Leave Link  401 at Fri Jun  2 11:27:30 2023, MaxMem=  7381975040 cpu:               0.9 elap:               3.2
 (Enter /software/commercial/gaussian/g16/AVX/g16/l502.exe)
 Keep R1 ints in memory in canonical form, NReq=161647647.
 FoFCou: FMM=F IPFlag=           0 FMFlag=           0 FMFlg1=           0
         NFxFlg=           0 DoJE=F BraDBF=F KetDBF=F FulRan=T
         wScrn=  0.000000 ICntrl=       600 IOpCl=  0 I1Cent=           0 NGrid=           0
         NMat0=    1 NMatS0=  17766 NMatT0=    0 NMatD0=    1 NMtDS0=    0 NMtDT0=    0
 Symmetry not used in FoFCou.
 Two-electron integral symmetry not used.
 Closed shell SCF:
 Using DIIS extrapolation, IDIIS=  1040.
 NGot=  7381975040 LenX=  7224071105 LenY=  7224032248
 Requested convergence on RMS density matrix=1.00D-08 within 350 cycles.
 Requested convergence on MAX density matrix=1.00D-06.
 Requested convergence on             energy=1.00D-06.
 No special actions if energy rises.

 Cycle   1  Pass 1  IDiag  1:
 Inv3:  Mode=1 IEnd=     3682992.
 Iteration    1 A*A^-1 deviation from unit magnitude is 2.44D-15 for   1092.
 Iteration    1 A*A^-1 deviation from orthogonality  is 2.04D-15 for   1092    530.
 Iteration    1 A^-1*A deviation from unit magnitude is 2.44D-15 for   1092.
 Iteration    1 A^-1*A deviation from orthogonality  is 1.19D-15 for   1100    620.
 E= -430.532679670023    
 DIIS: error= 1.13D-07 at cycle   1 NSaved=   1.
 NSaved= 1 IEnMin= 1 EnMin= -430.532679670023     IErMin= 1 ErrMin= 1.13D-07
 ErrMax= 1.13D-07  0.00D+00 EMaxC= 1.00D-01 BMatC= 1.56D-12 BMatP= 1.56D-12
 IDIUse=1 WtCom= 1.00D+00 WtEn= 0.00D+00
 Coeff-Com:  0.100D+01
 Coeff:      0.100D+01
 Gap=     0.237 Goal=   None    Shift=    0.000
 RMSDP=1.59D-08 MaxDP=3.35D-07              OVMax= 9.39D-07

 Cycle   2  Pass 1  IDiag  1:
 E= -430.532679670018     Delta-E=        0.000000000005 Rises=F Damp=F
 DIIS: error= 2.58D-07 at cycle   2 NSaved=   2.
 NSaved= 2 IEnMin= 1 EnMin= -430.532679670023     IErMin= 1 ErrMin= 1.13D-07
 ErrMax= 2.58D-07  0.00D+00 EMaxC= 1.00D-01 BMatC= 6.95D-12 BMatP= 1.56D-12
 IDIUse=1 WtCom= 1.00D+00 WtEn= 0.00D+00
 Coeff-Com:  0.679D+00 0.321D+00
 Coeff:      0.679D+00 0.321D+00
 Gap=     0.237 Goal=   None    Shift=    0.000
 RMSDP=1.09D-08 MaxDP=2.21D-07 DE= 5.00D-12 OVMax= 6.32D-07

 Cycle   3  Pass 1  IDiag  1:
 E= -430.532679670023     Delta-E=       -0.000000000005 Rises=F Damp=F
 DIIS: error= 1.37D-08 at cycle   3 NSaved=   3.
 NSaved= 3 IEnMin= 1 EnMin= -430.532679670023     IErMin= 3 ErrMin= 1.37D-08
 ErrMax= 1.37D-08  0.00D+00 EMaxC= 1.00D-01 BMatC= 3.68D-14 BMatP= 1.56D-12
 IDIUse=1 WtCom= 1.00D+00 WtEn= 0.00D+00
 Coeff-Com:  0.415D+00 0.200D+00 0.384D+00
 Coeff:      0.415D+00 0.200D+00 0.384D+00
 Gap=     0.237 Goal=   None    Shift=    0.000
 RMSDP=6.72D-10 MaxDP=2.61D-08 DE=-5.00D-12 OVMax= 5.53D-08

 Error on total polarization charges =  0.01687
 SCF Done:  E(RB3LYP) =  -430.532679670     A.U. after    3 cycles
            NFock=  3  Conv=0.67D-09     -V/T= 2.0036
 KE= 4.289752669718D+02 PE=-1.713765575734D+03 EE= 5.074033016867D+02
 Leave Link  502 at Fri Jun  2 11:27:55 2023, MaxMem=  7381975040 cpu:              36.9 elap:              23.2
 (Enter /software/commercial/gaussian/g16/AVX/g16/l508.exe)
 QCSCF skips out because SCF is already converged.
 Leave Link  508 at Fri Jun  2 11:27:57 2023, MaxMem=  7381975040 cpu:               0.0 elap:               0.6
 (Enter /software/commercial/gaussian/g16/AVX/g16/l801.exe)
 DoSCS=F DFT=T ScalE2(SS,OS)=  1.000000  1.000000
 Range of M.O.s used for correlation:     1   188
 NBasis=   188 NAE=    29 NBE=    29 NFC=     0 NFV=     0
 NROrb=    188 NOA=    29 NOB=    29 NVA=   159 NVB=   159

 **** Warning!!: The largest alpha MO coefficient is  0.46842330D+02

 Leave Link  801 at Fri Jun  2 11:28:00 2023, MaxMem=  7381975040 cpu:               0.5 elap:               2.0
 (Enter /software/commercial/gaussian/g16/AVX/g16/l1002.exe)
 Minotr:  Closed shell wavefunction.
 NEqPCM:  Using equilibrium solvation (IEInf=0, Eps=  24.8520, EpsInf=   1.8526)
          Direct CPHF calculation.
          Differentiating once with respect to electric field.
                with respect to dipole field.
          Electric field/nuclear overlap derivatives assumed to be zero.
          Requested convergence is 1.0D-08 RMS, and 1.0D-07 maximum.
          Secondary convergence is 1.0D-12 RMS, and 1.0D-12 maximum.
          NewPWx=F KeepS1=T KeepF1=T KeepIn=T MapXYZ=F SortEE=F KeepMc=T.
         3072 words used for storage of precomputed grid.
 Keep R1 ints in memory in canonical form, NReq=162079604.
 FoFCou: FMM=F IPFlag=           0 FMFlag=           0 FMFlg1=           0
         NFxFlg=           0 DoJE=F BraDBF=F KetDBF=F FulRan=T
         wScrn=  0.000000 ICntrl=       600 IOpCl=  0 I1Cent=           0 NGrid=           0
         NMat0=    1 NMatS0=  17766 NMatT0=    0 NMatD0=    1 NMtDS0=    0 NMtDT0=    0
 Symmetry not used in FoFCou.
 Two-electron integral symmetry not used.
          MDV=    7381975040 using IRadAn=       1.
          Solving linear equations simultaneously, MaxMat=       0.
          There are     3 degrees of freedom in the 1st order CPHF.  IDoFFX=0 NUNeed=     3.
      3 vectors produced by pass  0 Test12= 1.54D-13 3.33D-08 XBig12= 7.33D+01 4.16D+00.
 AX will form     3 AO Fock derivatives at one time.
      3 vectors produced by pass  1 Test12= 1.54D-13 3.33D-08 XBig12= 4.29D+01 1.56D+00.
      3 vectors produced by pass  2 Test12= 1.54D-13 3.33D-08 XBig12= 7.03D+00 9.38D-01.
      3 vectors produced by pass  3 Test12= 1.54D-13 3.33D-08 XBig12= 3.96D+00 4.31D-01.
      3 vectors produced by pass  4 Test12= 1.54D-13 3.33D-08 XBig12= 5.84D-01 2.08D-01.
      3 vectors produced by pass  5 Test12= 1.54D-13 3.33D-08 XBig12= 2.26D-01 8.65D-02.
      3 vectors produced by pass  6 Test12= 1.54D-13 3.33D-08 XBig12= 1.40D-02 3.35D-02.
      3 vectors produced by pass  7 Test12= 1.54D-13 3.33D-08 XBig12= 5.25D-03 1.68D-02.
      3 vectors produced by pass  8 Test12= 1.54D-13 3.33D-08 XBig12= 2.95D-04 3.35D-03.
      3 vectors produced by pass  9 Test12= 1.54D-13 3.33D-08 XBig12= 1.14D-05 7.56D-04.
      2 vectors produced by pass 10 Test12= 1.54D-13 3.33D-08 XBig12= 2.69D-07 7.37D-05.
      2 vectors produced by pass 11 Test12= 1.54D-13 3.33D-08 XBig12= 8.85D-09 1.53D-05.
      2 vectors produced by pass 12 Test12= 1.54D-13 3.33D-08 XBig12= 3.06D-10 2.66D-06.
      2 vectors produced by pass 13 Test12= 1.54D-13 3.33D-08 XBig12= 6.62D-12 4.44D-07.
      1 vectors produced by pass 14 Test12= 1.54D-13 3.33D-08 XBig12= 9.35D-14 6.23D-08.
 InvSVY:  IOpt=1 It=  1 EMax= 3.23D-15
 Solved reduced A of dimension    39 with     3 vectors.
 End of Minotr F.D. properties file   721 does not exist.
 End of Minotr F.D. properties file   722 does not exist.
 End of Minotr F.D. properties file   788 does not exist.
 Leave Link 1002 at Fri Jun  2 11:29:12 2023, MaxMem=  7381975040 cpu:             119.5 elap:              70.9
 (Enter /software/commercial/gaussian/g16/AVX/g16/l1101.exe)
 Using compressed storage, NAtomX=    10.
 Will process     11 centers per pass.
 R6Disp: Adding Grimme-D3(BJ) dispersion energy 1st derivatives to the gradient.
 Leave Link 1101 at Fri Jun  2 11:29:16 2023, MaxMem=  7381975040 cpu:               0.8 elap:               1.3
 (Enter /software/commercial/gaussian/g16/AVX/g16/l1102.exe)
 Symmetrizing basis deriv contribution to polar:
 IMax=3 JMax=2 DiffMx= 0.00D+00
 Leave Link 1102 at Fri Jun  2 11:29:19 2023, MaxMem=  7381975040 cpu:               0.1 elap:               1.5
 (Enter /software/commercial/gaussian/g16/AVX/g16/l1110.exe)
 Forming Gx(P) for the SCF density, NAtomX=    10.
 Integral derivatives from FoFJK, PRISM(SPDF).
 Do as many integral derivatives as possible in FoFJK.
 G2DrvN: MDV=    7381973894.
 G2DrvN: will do    11 centers at a time, making    1 passes.
 PxScal for G2LodP:  IOpCl= 0 ISclPx=1 IMOff=     1 NMtTot=     4 NTT=   17766 ScalPx= 5.74D+00
 Calling FoFCou, ICntrl=  3107 FMM=F I1Cent=   0 AccDes= 0.00D+00.
 FoFJK:  IHMeth= 1 ICntrl=    3107 DoSepK=F KAlg= 0 I1Cent=           0 FoldK=F
 IRaf=         0 NMat=       1 IRICut=       1 DoRegI=T DoRafI=F ISym2E= 0 IDoP0=0 IntGTp=1.
 FoFCou: FMM=F IPFlag=           0 FMFlag=      100000 FMFlg1=           0
         NFxFlg=           0 DoJE=F BraDBF=F KetDBF=F FulRan=T
         wScrn=  0.000000 ICntrl=      3107 IOpCl=  0 I1Cent=           0 NGrid=           0
         NMat0=    1 NMatS0=      1 NMatT0=    0 NMatD0=    4 NMtDS0=    3 NMtDT0=    0
 Symmetry not used in FoFCou.
 PxScal for G2LodP:  IOpCl= 0 ISclPx=0 IMOff=     1 NMtTot=     4 NTT=   17766 ScalPx= 1.00D+00
 NEqPCM:  Using equilibrium solvation (IEInf=0, Eps=  24.8520, EpsInf=   1.8526)
 G2PCM: DoFxE=T DoFxN=T DoGrad=T DoDP/DQ/DG/TGxP=TFFF NFrqRd=   0 IEInf=0 SqF1=F DoCFld=F IF1Alg=4.
 GePol: Maximum number of non-zero 1st derivatives   =     210
 End of G2Drv F.D. properties file   721 does not exist.
 End of G2Drv F.D. properties file   722 does not exist.
 End of G2Drv F.D. properties file   788 does not exist.
 Leave Link 1110 at Fri Jun  2 11:31:35 2023, MaxMem=  7381975040 cpu:             264.7 elap:             134.9
 (Enter /software/commercial/gaussian/g16/AVX/g16/l1002.exe)
 Minotr:  Closed shell wavefunction.
          IDoAtm=1111111111
 NEqPCM:  Using equilibrium solvation (IEInf=0, Eps=  24.8520, EpsInf=   1.8526)
          Direct CPHF calculation.
          Differentiating once with respect to electric field.
                with respect to dipole field.
          Differentiating once with respect to nuclear coordinates.
          Requested convergence is 1.0D-08 RMS, and 1.0D-07 maximum.
          Secondary convergence is 1.0D-12 RMS, and 1.0D-12 maximum.
          NewPWx=T KeepS1=F KeepF1=F KeepIn=T MapXYZ=F SortEE=F KeepMc=T.
         3072 words used for storage of precomputed grid.
 Keep R1 ints in memory in canonical form, NReq=162079834.
 FoFCou: FMM=F IPFlag=           0 FMFlag=           0 FMFlg1=           0
         NFxFlg=           0 DoJE=F BraDBF=F KetDBF=F FulRan=T
         wScrn=  0.000000 ICntrl=       600 IOpCl=  0 I1Cent=           0 NGrid=           0
         NMat0=    1 NMatS0=  17766 NMatT0=    0 NMatD0=    1 NMtDS0=    0 NMtDT0=    0
 Symmetry not used in FoFCou.
 Two-electron integral symmetry not used.
          MDV=    7381975040 using IRadAn=       1.
          Solving linear equations simultaneously, MaxMat=       0.
          There are    33 degrees of freedom in the 1st order CPHF.  IDoFFX=5 NUNeed=    33.
 Will reuse    3 saved solutions.
     27 vectors produced by pass  0 Test12= 1.40D-14 3.03D-09 XBig12= 2.51D-01 1.35D-01.
 AX will form    27 AO Fock derivatives at one time.
     27 vectors produced by pass  1 Test12= 1.40D-14 3.03D-09 XBig12= 4.56D-02 7.18D-02.
     27 vectors produced by pass  2 Test12= 1.40D-14 3.03D-09 XBig12= 7.20D-04 3.60D-03.
     27 vectors produced by pass  3 Test12= 1.40D-14 3.03D-09 XBig12= 6.61D-06 4.15D-04.
     27 vectors produced by pass  4 Test12= 1.40D-14 3.03D-09 XBig12= 2.82D-08 2.59D-05.
     27 vectors produced by pass  5 Test12= 1.40D-14 3.03D-09 XBig12= 7.50D-11 1.30D-06.
     16 vectors produced by pass  6 Test12= 1.40D-14 3.03D-09 XBig12= 1.67D-13 5.63D-08.
      1 vectors produced by pass  7 Test12= 1.40D-14 3.03D-09 XBig12= 2.87D-16 3.28D-09.
 InvSVY:  IOpt=1 It=  1 EMax= 2.00D-15
 Solved reduced A of dimension   179 with    27 vectors.
 FullF1:  Do perturbations      1 to       3.
 Isotropic polarizability for W=    0.000000       83.42 Bohr**3.
 FullF1:  Do perturbations      1 to       6.
 End of Minotr F.D. properties file   721 does not exist.
 End of Minotr F.D. properties file   722 does not exist.
 End of Minotr F.D. properties file   788 does not exist.
 Leave Link 1002 at Fri Jun  2 11:34:11 2023, MaxMem=  7381975040 cpu:             281.3 elap:             153.3
 (Enter /software/commercial/gaussian/g16/AVX/g16/l601.exe)
 Copying SCF densities to generalized density rwf, IOpCl= 0 IROHF=0.

 **********************************************************************

            Population analysis using the SCF Density.

 **********************************************************************

 Alpha  occ. eigenvalues --  -19.07781 -19.07709 -14.38707 -14.33804 -14.30986
 Alpha  occ. eigenvalues --  -10.29810 -10.23490 -10.21970  -1.08514  -1.04293
 Alpha  occ. eigenvalues --   -0.97040  -0.89116  -0.82533  -0.64256  -0.61944
 Alpha  occ. eigenvalues --   -0.56912  -0.49131  -0.47415  -0.45174  -0.42738
 Alpha  occ. eigenvalues --   -0.42229  -0.40748  -0.33775  -0.29798  -0.29552
 Alpha  occ. eigenvalues --   -0.27600  -0.27575  -0.26611  -0.25448
 Alpha virt. eigenvalues --   -0.01786   0.01376   0.03027   0.03413   0.03991
 Alpha virt. eigenvalues --    0.05501   0.05859   0.06064   0.07247   0.08347
 Alpha virt. eigenvalues --    0.08929   0.10038   0.10736   0.11925   0.12446
 Alpha virt. eigenvalues --    0.16655   0.17456   0.17584   0.18977   0.20008
 Alpha virt. eigenvalues --    0.20872   0.21127   0.21627   0.22264   0.22716
 Alpha virt. eigenvalues --    0.22959   0.23597   0.24755   0.25499   0.26584
 Alpha virt. eigenvalues --    0.27653   0.27850   0.28205   0.29422   0.29825
 Alpha virt. eigenvalues --    0.31495   0.32947   0.33876   0.38715   0.40291
 Alpha virt. eigenvalues --    0.42297   0.43798   0.46165   0.47340   0.55957
 Alpha virt. eigenvalues --    0.56068   0.57047   0.59411   0.60728   0.63125
 Alpha virt. eigenvalues --    0.68356   0.71688   0.72163   0.75798   0.77897
 Alpha virt. eigenvalues --    0.80317   0.82874   0.84472   0.85893   0.87280
 Alpha virt. eigenvalues --    0.87800   0.88512   0.91059   0.93078   0.96777
 Alpha virt. eigenvalues --    1.00273   1.05264   1.08357   1.10621   1.13237
 Alpha virt. eigenvalues --    1.14209   1.17087   1.18197   1.19083   1.21134
 Alpha virt. eigenvalues --    1.21746   1.22449   1.25817   1.31149   1.31926
 Alpha virt. eigenvalues --    1.34438   1.38181   1.41471   1.41858   1.56337
 Alpha virt. eigenvalues --    1.62777   1.67871   1.70489   1.73453   1.75123
 Alpha virt. eigenvalues --    1.76187   1.79435   1.83069   1.85201   1.88809
 Alpha virt. eigenvalues --    1.98091   1.99159   2.02653   2.19822   2.26547
 Alpha virt. eigenvalues --    2.26874   2.28753   2.34563   2.42915   2.45265
 Alpha virt. eigenvalues --    2.50495   2.57213   2.58158   2.65839   2.66229
 Alpha virt. eigenvalues --    2.68810   2.70822   2.78284   2.80306   2.84459
 Alpha virt. eigenvalues --    2.85100   2.86202   2.87903   2.93384   2.94811
 Alpha virt. eigenvalues --    2.94948   2.98724   3.08403   3.14244   3.29444
 Alpha virt. eigenvalues --    3.29564   3.39590   3.44804   3.44877   3.56125
 Alpha virt. eigenvalues --    3.58177   3.64096   3.68020   3.72690   3.76667
 Alpha virt. eigenvalues --    3.87824   3.90418   3.96126   4.05426   4.13250
 Alpha virt. eigenvalues --    4.44336   4.58907   4.76140   4.99284   5.03714
 Alpha virt. eigenvalues --    5.06250   5.14197   5.18773   5.43383   5.69776
 Alpha virt. eigenvalues --    5.88603  23.87011  23.91338  23.93751  35.44213
 Alpha virt. eigenvalues --   35.53551  35.66205  49.95190  50.05710
     Molecular Orbital Coefficients:
                           1         2         3         4         5
                           O         O         O         O         O
     Eigenvalues --   -19.07781 -19.07709 -14.38707 -14.33804 -14.30986
   1 1   C  1S         -0.00000   0.00000  -0.00000  -0.00000   0.00001
   2        2S          0.00001  -0.00000   0.00001   0.00009   0.00003
   3        2PX         0.00002  -0.00003  -0.00002   0.00049  -0.00008
   4        2PY        -0.00000  -0.00000   0.00008   0.00023  -0.00043
   5        2PZ         0.00000  -0.00000   0.00000  -0.00000   0.00000
   6        3S         -0.00005  -0.00002  -0.00023   0.00034   0.00027
   7        3PX        -0.00012   0.00010  -0.00025  -0.00161   0.00015
   8        3PY         0.00003   0.00003  -0.00026  -0.00074   0.00106
   9        3PZ        -0.00000   0.00000  -0.00000  -0.00000  -0.00000
  10        4S         -0.00074   0.00130   0.00222   0.00470   0.00422
  11        4PX        -0.00038  -0.00014  -0.00077   0.00426   0.00135
  12        4PY         0.00013  -0.00017  -0.00001  -0.00040  -0.00400
  13        4PZ        -0.00000   0.00000   0.00000   0.00000   0.00000
  14        5S          0.00124  -0.00430   0.00501  -0.01254  -0.00346
  15        5PX         0.00049  -0.00113  -0.00005  -0.00237  -0.00013
  16        5PY        -0.00007   0.00046  -0.00236   0.00301   0.00063
  17        5PZ        -0.00000  -0.00000   0.00000   0.00000  -0.00000
  18        6D 0       -0.00000  -0.00003  -0.00019   0.00026   0.00007
  19        6D+1        0.00000   0.00000   0.00000   0.00000   0.00000
  20        6D-1       -0.00000   0.00000  -0.00000   0.00000   0.00000
  21        6D+2       -0.00002   0.00000  -0.00004  -0.00112   0.00104
  22        6D-2       -0.00006  -0.00004  -0.00043  -0.00092  -0.00025
  23 2   N  1S         -0.00000  -0.00000  -0.00008  -0.00019   0.55736
  24        2S          0.00002   0.00001  -0.00000  -0.00011   0.46578
  25        2PX         0.00000   0.00001   0.00009   0.00003   0.00118
  26        2PY        -0.00001  -0.00000  -0.00005   0.00011   0.00077
  27        2PZ        -0.00000  -0.00000   0.00000   0.00000   0.00000
  28        3S         -0.00016  -0.00004  -0.00015  -0.00008   0.01606
  29        3PX        -0.00003  -0.00005  -0.00061  -0.00019   0.00114
  30        3PY         0.00003   0.00002   0.00022  -0.00056   0.00033
  31        3PZ         0.00000   0.00000  -0.00000  -0.00000  -0.00000
  32        4S          0.00113   0.00020  -0.00169  -0.00191  -0.01656
  33        4PX         0.00034   0.00010  -0.00066  -0.00105  -0.00341
  34        4PY         0.00003  -0.00036  -0.00101  -0.00046  -0.00171
  35        4PZ        -0.00000  -0.00000   0.00000   0.00000   0.00000
  36        5S         -0.00233  -0.00181  -0.00114   0.00048   0.00601
  37        5PX        -0.00074  -0.00076   0.00072  -0.00123   0.00107
  38        5PY        -0.00034  -0.00051  -0.00194   0.00208  -0.00002
  39        5PZ         0.00000   0.00000  -0.00000  -0.00000  -0.00000
  40        6D 0        0.00001   0.00000   0.00013   0.00014  -0.00040
  41        6D+1       -0.00000  -0.00000   0.00000   0.00000   0.00000
  42        6D-1       -0.00000  -0.00000  -0.00000   0.00000  -0.00000
  43        6D+2       -0.00002  -0.00001  -0.00023   0.00016   0.00003
  44        6D-2        0.00000  -0.00001   0.00008  -0.00017  -0.00030
  45 3   C  1S         -0.00000   0.00000   0.00000  -0.00000  -0.00000
  46        2S          0.00002   0.00000   0.00006   0.00001   0.00010
  47        2PX         0.00007   0.00001   0.00039   0.00005  -0.00054
  48        2PY         0.00003  -0.00003   0.00038  -0.00001   0.00008
  49        2PZ        -0.00000   0.00000  -0.00000   0.00000  -0.00000
  50        3S         -0.00016  -0.00001   0.00027  -0.00027   0.00005
  51        3PX        -0.00036   0.00006  -0.00127  -0.00026   0.00179
  52        3PY        -0.00023   0.00009  -0.00126  -0.00036  -0.00022
  53        3PZ         0.00000  -0.00000   0.00000  -0.00000   0.00000
  54        4S         -0.00280   0.00388   0.00433   0.00304   0.00942
  55        4PX         0.00020   0.00204   0.00226   0.00076  -0.00337
  56        4PY        -0.00108   0.00020   0.00305  -0.00126   0.00479
  57        4PZ         0.00000   0.00000  -0.00000   0.00000  -0.00000
  58        5S         -0.00353   0.01088  -0.00565   0.01178   0.00638
  59        5PX        -0.00096   0.00203   0.00189  -0.00172   0.00201
  60        5PY        -0.00066   0.00272  -0.00149   0.00270   0.00237
  61        5PZ        -0.00000  -0.00000   0.00000   0.00000   0.00000
  62        6D 0       -0.00000  -0.00006   0.00015  -0.00022   0.00014
  63        6D+1        0.00000   0.00000   0.00000   0.00000  -0.00000
  64        6D-1        0.00000  -0.00000  -0.00000  -0.00000   0.00000
  65        6D+2       -0.00008  -0.00008   0.00029  -0.00011  -0.00109
  66        6D-2       -0.00013  -0.00006  -0.00137  -0.00039   0.00086
  67 4   N  1S         -0.00000  -0.00000   0.55736  -0.00123   0.00007
  68        2S          0.00002   0.00002   0.46576  -0.00102   0.00012
  69        2PX         0.00011   0.00012  -0.00028  -0.00015  -0.00002
  70        2PY        -0.00002   0.00002   0.00035   0.00029  -0.00007
  71        2PZ        -0.00000  -0.00000  -0.00000  -0.00000   0.00000
  72        3S         -0.00007   0.00006   0.01598  -0.00008  -0.00020
  73        3PX        -0.00044  -0.00046  -0.00070   0.00029   0.00020
  74        3PY         0.00017  -0.00019  -0.00081  -0.00061   0.00041
  75        3PZ         0.00000  -0.00000  -0.00000   0.00000  -0.00000
  76        4S         -0.00021  -0.00137  -0.01566   0.00355  -0.00172
  77        4PX         0.00002   0.00025   0.00057  -0.00244   0.00280
  78        4PY        -0.00329   0.00324   0.00069   0.00289   0.00144
  79        4PZ        -0.00000   0.00000   0.00000  -0.00000   0.00000
  80        5S         -0.00139   0.01198   0.02664  -0.01142  -0.00953
  81        5PX        -0.00395  -0.00636  -0.00822   0.00263   0.01048
  82        5PY        -0.00379   0.01343   0.01202   0.00124   0.00032
  83        5PZ         0.00000  -0.00000  -0.00000  -0.00000  -0.00000
  84        6D 0        0.00003   0.00005  -0.00037   0.00011   0.00006
  85        6D+1       -0.00000   0.00000   0.00000  -0.00000   0.00000
  86        6D-1        0.00000   0.00000  -0.00000   0.00000   0.00000
  87        6D+2       -0.00019  -0.00017  -0.00007   0.00015   0.00011
  88        6D-2       -0.00000   0.00004   0.00033   0.00037  -0.00035
  89 5   N  1S         -0.00000  -0.00000   0.00122   0.55737   0.00019
  90        2S          0.00001   0.00001   0.00104   0.46584   0.00021
  91        2PX         0.00002   0.00005   0.00017  -0.00020  -0.00008
  92        2PY         0.00000  -0.00002  -0.00025  -0.00175  -0.00003
  93        2PZ        -0.00000  -0.00000   0.00000   0.00000  -0.00000
  94        3S         -0.00013   0.00003   0.00011   0.01579  -0.00018
  95        3PX        -0.00003  -0.00020  -0.00032  -0.00121   0.00051
  96        3PY        -0.00003   0.00008   0.00039  -0.00030   0.00018
  97        3PZ         0.00000   0.00000  -0.00000  -0.00000   0.00000
  98        4S          0.00229  -0.00172   0.00183  -0.01653  -0.00105
  99        4PX         0.00031  -0.00004   0.00041   0.00089  -0.00039
 100        4PY        -0.00093   0.00060  -0.00107   0.00341   0.00068
 101        4PZ         0.00000  -0.00000   0.00000  -0.00000  -0.00000
 102        5S          0.00313  -0.02110  -0.02725   0.01336   0.00727
 103        5PX         0.00108  -0.00377  -0.00336   0.00147  -0.00130
 104        5PY        -0.00055   0.00469   0.00728  -0.00354  -0.00134
 105        5PZ         0.00000  -0.00000  -0.00000  -0.00000   0.00000
 106        6D 0       -0.00001   0.00002   0.00022  -0.00027   0.00007
 107        6D+1        0.00000  -0.00000  -0.00000   0.00000   0.00000
 108        6D-1       -0.00000   0.00000   0.00000   0.00000   0.00000
 109        6D+2        0.00002  -0.00003   0.00031   0.00042  -0.00013
 110        6D-2       -0.00000   0.00004   0.00033   0.00021  -0.00015
 111 6   H  1S         -0.00000   0.00010  -0.00013   0.00001  -0.00022
 112        2S         -0.00019  -0.00094  -0.00084  -0.00123   0.00013
 113        3S         -0.00071   0.00095   0.00186   0.00012   0.00160
 114        4PX        -0.00000  -0.00010  -0.00021   0.00008   0.00048
 115        4PY        -0.00007  -0.00017  -0.00054  -0.00029  -0.00022
 116        4PZ        -0.00000   0.00000  -0.00000   0.00000   0.00000
 117 7   H  1S         -0.00000   0.00002  -0.00003  -0.00023  -0.00020
 118        2S         -0.00011  -0.00024  -0.00078  -0.00021   0.00006
 119        3S          0.00018   0.00004   0.00019   0.00103   0.00076
 120        4PX        -0.00001  -0.00004  -0.00016  -0.00052  -0.00004
 121        4PY         0.00002   0.00002   0.00017   0.00000   0.00046
 122        4PZ         0.00000  -0.00000  -0.00000  -0.00000  -0.00000
 123 8   C  1S         -0.00003  -0.00002   0.00001  -0.00000  -0.00000
 124        2S          0.00011   0.00010  -0.00004   0.00001   0.00002
 125        2PX         0.00017   0.00015  -0.00029  -0.00003  -0.00007
 126        2PY         0.00032  -0.00031   0.00003   0.00005  -0.00001
 127        2PZ        -0.00000   0.00000   0.00000   0.00000   0.00000
 128        3S          0.00020   0.00028   0.00011  -0.00006  -0.00006
 129        3PX        -0.00036  -0.00032   0.00044   0.00009   0.00033
 130        3PY        -0.00070   0.00058  -0.00013  -0.00018   0.00005
 131        3PZ        -0.00000  -0.00000  -0.00000  -0.00000  -0.00000
 132        4S          0.00269   0.00189   0.00237   0.00096  -0.00323
 133        4PX         0.00144  -0.00004  -0.00287  -0.00082   0.00028
 134        4PY         0.00891  -0.00842   0.00017  -0.00083  -0.00196
 135        4PZ         0.00000  -0.00000   0.00000   0.00000  -0.00000
 136        5S          0.00073  -0.00450  -0.00070  -0.00146  -0.00584
 137        5PX        -0.00094   0.00099   0.00014   0.00038   0.00153
 138        5PY        -0.00094   0.00084  -0.00072  -0.00057   0.00053
 139        5PZ        -0.00000   0.00000  -0.00000   0.00000  -0.00000
 140        6D 0        0.00023   0.00021  -0.00011  -0.00005   0.00005
 141        6D+1       -0.00000   0.00000   0.00000  -0.00000   0.00000
 142        6D-1       -0.00000  -0.00000   0.00000   0.00000  -0.00000
 143        6D+2        0.00059   0.00075  -0.00049  -0.00011  -0.00006
 144        6D-2       -0.00070   0.00046   0.00002   0.00014   0.00001
 145 9   O  1S         -0.00926   0.55123   0.00000   0.00000   0.00000
 146        2S         -0.00784   0.46964   0.00002   0.00001   0.00000
 147        2PX         0.00002  -0.00038  -0.00002  -0.00002  -0.00003
 148        2PY         0.00003   0.00105   0.00006   0.00002   0.00000
 149        2PZ         0.00000   0.00000   0.00000   0.00000   0.00000
 150        3S         -0.00066   0.01396  -0.00007  -0.00003  -0.00002
 151        3PX        -0.00001  -0.00027   0.00011   0.00008   0.00012
 152        3PY        -0.00022   0.00056  -0.00029  -0.00008  -0.00001
 153        3PZ        -0.00000   0.00000  -0.00000  -0.00000  -0.00000
 154        4S          0.00312  -0.01233  -0.00075  -0.00045  -0.00037
 155        4PX        -0.00108   0.00119   0.00039  -0.00003  -0.00022
 156        4PY         0.00053  -0.00195   0.00009   0.00007   0.00006
 157        4PZ         0.00000  -0.00000  -0.00000   0.00000   0.00000
 158        5S          0.00341   0.00590   0.00418   0.00085  -0.00131
 159        5PX        -0.00050  -0.00155  -0.00091  -0.00038   0.00051
 160        5PY         0.00114   0.00022   0.00116   0.00018  -0.00048
 161        5PZ         0.00000   0.00000   0.00000  -0.00000   0.00000
 162        6D 0        0.00003  -0.00013   0.00002  -0.00001  -0.00003
 163        6D+1       -0.00000  -0.00000   0.00000   0.00000  -0.00000
 164        6D-1       -0.00000   0.00000  -0.00000  -0.00000   0.00000
 165        6D+2        0.00017  -0.00017   0.00004   0.00001   0.00001
 166        6D-2       -0.00015  -0.00012   0.00011   0.00002  -0.00000
 167 10  O  1S          0.55123   0.00927   0.00000   0.00000   0.00000
 168        2S          0.46965   0.00794   0.00003   0.00001   0.00002
 169        2PX        -0.00050   0.00001  -0.00002  -0.00001   0.00000
 170        2PY        -0.00099  -0.00007  -0.00005  -0.00001  -0.00001
 171        2PZ        -0.00000  -0.00000   0.00000   0.00000  -0.00000
 172        3S          0.01393  -0.00021  -0.00016  -0.00010  -0.00017
 173        3PX        -0.00035  -0.00001   0.00013   0.00004  -0.00000
 174        3PY        -0.00061   0.00019   0.00024   0.00007   0.00007
 175        3PZ        -0.00000   0.00000  -0.00000  -0.00000   0.00000
 176        4S         -0.01219   0.00282  -0.00011   0.00046   0.00125
 177        4PX         0.00145  -0.00103   0.00040   0.00002  -0.00019
 178        4PY         0.00197  -0.00045  -0.00025  -0.00015  -0.00044
 179        4PZ         0.00000  -0.00000   0.00000   0.00000  -0.00000
 180        5S          0.00192   0.00318  -0.00053  -0.00073  -0.00024
 181        5PX        -0.00029  -0.00065   0.00068   0.00077   0.00018
 182        5PY         0.00060  -0.00076   0.00035   0.00007  -0.00005
 183        5PZ         0.00000  -0.00000   0.00000  -0.00000   0.00000
 184        6D 0       -0.00014   0.00001   0.00001   0.00002   0.00001
 185        6D+1        0.00000   0.00000  -0.00000  -0.00000   0.00000
 186        6D-1        0.00000  -0.00000   0.00000  -0.00000  -0.00000
 187        6D+2       -0.00015   0.00019  -0.00002  -0.00000  -0.00000
 188        6D-2        0.00017   0.00011  -0.00011  -0.00000   0.00000
                           6         7         8         9        10
                           O         O         O         O         O
     Eigenvalues --   -10.29810 -10.23490 -10.21970  -1.08514  -1.04293
   1 1   C  1S         -0.00001  -0.00004   0.56289  -0.03289   0.02782
   2        2S          0.00001  -0.00003   0.46325  -0.05024   0.04256
   3        2PX        -0.00001  -0.00007   0.00010   0.02955  -0.02215
   4        2PY        -0.00003   0.00006  -0.00021  -0.01338   0.01240
   5        2PZ         0.00000   0.00000   0.00000   0.00000  -0.00000
   6        3S         -0.00014  -0.00015   0.01934   0.12762  -0.10863
   7        3PX         0.00007   0.00036   0.00031   0.04286  -0.03167
   8        3PY         0.00017  -0.00045   0.00061  -0.02051   0.01950
   9        3PZ        -0.00000   0.00000  -0.00000   0.00000  -0.00000
  10        4S          0.00154   0.00233  -0.01061   0.03485  -0.03998
  11        4PX         0.00064   0.00222  -0.00249   0.00095  -0.00026
  12        4PY        -0.00006  -0.00206   0.00203  -0.00067   0.00093
  13        4PZ         0.00000   0.00000   0.00000  -0.00000   0.00000
  14        5S          0.00721   0.00921  -0.01651   0.02377  -0.01824
  15        5PX         0.00137   0.00088  -0.00199   0.00872  -0.00503
  16        5PY        -0.00224  -0.00308   0.00370   0.00040   0.00309
  17        5PZ         0.00000  -0.00000   0.00000   0.00000  -0.00000
  18        6D 0       -0.00001  -0.00011  -0.00176  -0.00996   0.00813
  19        6D+1       -0.00000   0.00000   0.00000   0.00000  -0.00000
  20        6D-1       -0.00000   0.00000  -0.00000  -0.00000   0.00000
  21        6D+2        0.00005  -0.00002   0.00044   0.00401  -0.00139
  22        6D-2       -0.00000  -0.00024  -0.00056  -0.00256   0.00223
  23 2   N  1S          0.00000  -0.00007  -0.00005  -0.03098   0.02800
  24        2S          0.00002  -0.00001  -0.00005  -0.04830   0.04371
  25        2PX         0.00001   0.00052   0.00009   0.02556  -0.02132
  26        2PY        -0.00000  -0.00011   0.00041   0.01411  -0.01266
  27        2PZ        -0.00000   0.00000  -0.00000  -0.00000   0.00000
  28        3S         -0.00019   0.00059   0.00077   0.12861  -0.11699
  29        3PX        -0.00008  -0.00155  -0.00026   0.03777  -0.03098
  30        3PY         0.00002   0.00029  -0.00092   0.02100  -0.01886
  31        3PZ         0.00000  -0.00000   0.00000  -0.00000   0.00000
  32        4S          0.00166  -0.00414  -0.00257   0.08450  -0.07860
  33        4PX         0.00077  -0.00176  -0.00033   0.01790  -0.01443
  34        4PY         0.00005  -0.00024  -0.00120   0.01046  -0.00658
  35        4PZ        -0.00000   0.00000   0.00000  -0.00000   0.00000
  36        5S          0.00230   0.00204   0.00476  -0.01300   0.02823
  37        5PX         0.00086   0.00229  -0.00041  -0.00342   0.00680
  38        5PY        -0.00084  -0.00161   0.00443  -0.00238   0.00705
  39        5PZ         0.00000  -0.00000  -0.00000   0.00000  -0.00000
  40        6D 0        0.00000   0.00080   0.00066  -0.00532   0.00428
  41        6D+1       -0.00000  -0.00000   0.00000   0.00000  -0.00000
  42        6D-1       -0.00000   0.00000   0.00000  -0.00000   0.00000
  43        6D+2       -0.00002  -0.00085   0.00069   0.00177  -0.00088
  44        6D-2        0.00001   0.00040  -0.00025   0.00195  -0.00129
  45 3   C  1S         -0.00002   0.56290   0.00004  -0.03783   0.02453
  46        2S         -0.00001   0.46321   0.00002  -0.05777   0.03750
  47        2PX         0.00003   0.00016   0.00001   0.00152   0.00925
  48        2PY         0.00001   0.00042  -0.00003   0.03604  -0.02359
  49        2PZ         0.00000   0.00000  -0.00000  -0.00000   0.00000
  50        3S         -0.00007   0.01961  -0.00004   0.14712  -0.09603
  51        3PX        -0.00016  -0.00012  -0.00015   0.00372   0.01364
  52        3PY        -0.00018  -0.00013   0.00024   0.05172  -0.03299
  53        3PZ        -0.00000  -0.00000   0.00000  -0.00000   0.00000
  54        4S         -0.00125  -0.00936  -0.00014   0.03076  -0.03008
  55        4PX         0.00184   0.00049  -0.00065  -0.00107  -0.00692
  56        4PY        -0.00238  -0.00211   0.00179  -0.00607   0.00416
  57        4PZ         0.00000   0.00000  -0.00000  -0.00000  -0.00000
  58        5S         -0.00186  -0.02185   0.00147   0.02422  -0.03667
  59        5PX         0.00381  -0.00061  -0.00538   0.00294  -0.00788
  60        5PY        -0.00180  -0.00436  -0.00007   0.00906  -0.01103
  61        5PZ        -0.00000   0.00000  -0.00000  -0.00000   0.00000
  62        6D 0       -0.00006  -0.00185  -0.00006  -0.01100   0.00716
  63        6D+1       -0.00000  -0.00000   0.00000  -0.00000  -0.00000
  64        6D-1        0.00000  -0.00000  -0.00000  -0.00000   0.00000
  65        6D+2       -0.00002  -0.00052  -0.00003  -0.00388   0.00369
  66        6D-2       -0.00010  -0.00079  -0.00014   0.00290   0.00240
  67 4   N  1S         -0.00002  -0.00006   0.00000  -0.07002   0.02429
  68        2S         -0.00007  -0.00005  -0.00000  -0.11000   0.03809
  69        2PX         0.00011  -0.00028   0.00004  -0.02621   0.04020
  70        2PY         0.00000  -0.00031   0.00002   0.00984  -0.00885
  71        2PZ        -0.00000   0.00000   0.00000  -0.00000   0.00000
  72        3S          0.00037   0.00071  -0.00003   0.30220  -0.10499
  73        3PX         0.00022   0.00059  -0.00013  -0.03691   0.06569
  74        3PY        -0.00005   0.00063  -0.00003   0.01891  -0.01497
  75        3PZ         0.00000  -0.00000  -0.00000  -0.00000   0.00000
  76        4S          0.00121  -0.00169   0.00008   0.19969  -0.06431
  77        4PX        -0.00140   0.00160  -0.00132  -0.02344   0.02645
  78        4PY         0.00025   0.00296   0.00058   0.00077  -0.00278
  79        4PZ        -0.00000   0.00000   0.00000  -0.00000   0.00000
  80        5S          0.02162   0.02217  -0.02070  -0.14916  -0.01586
  81        5PX        -0.00106  -0.01060  -0.00082   0.04342   0.01071
  82        5PY         0.00891  -0.00248  -0.00764  -0.05092  -0.02624
  83        5PZ        -0.00000  -0.00000   0.00000   0.00000  -0.00000
  84        6D 0        0.00012   0.00064  -0.00004  -0.01186   0.00400
  85        6D+1        0.00000   0.00000   0.00000   0.00000  -0.00000
  86        6D-1       -0.00000   0.00000   0.00000  -0.00000   0.00000
  87        6D+2       -0.00018   0.00009   0.00013   0.00335   0.00224
  88        6D-2        0.00006  -0.00086  -0.00005  -0.00387   0.00230
  89 5   N  1S          0.00000   0.00000  -0.00008  -0.05159   0.03430
  90        2S          0.00001  -0.00000  -0.00003  -0.08075   0.05371
  91        2PX         0.00002   0.00003  -0.00050  -0.00259   0.00964
  92        2PY         0.00000   0.00004  -0.00022  -0.04550   0.02900
  93        2PZ         0.00000  -0.00000  -0.00000   0.00000  -0.00000
  94        3S          0.00003   0.00007   0.00066   0.21999  -0.14698
  95        3PX        -0.00008  -0.00008   0.00152  -0.00120   0.01420
  96        3PY         0.00002  -0.00016   0.00068  -0.07278   0.04590
  97        3PZ        -0.00000   0.00000   0.00000   0.00000  -0.00000
  98        4S         -0.00127  -0.00194  -0.00383   0.12102  -0.08606
  99        4PX         0.00024  -0.00035   0.00115  -0.00630   0.00551
 100        4PY         0.00063   0.00099   0.00057  -0.01757   0.01409
 101        4PZ         0.00000  -0.00000  -0.00000   0.00000  -0.00000
 102        5S         -0.02196  -0.01475   0.02772   0.08690   0.06975
 103        5PX        -0.00346  -0.00008   0.00004   0.02128   0.00343
 104        5PY         0.00527   0.00500  -0.00696  -0.02364  -0.01524
 105        5PZ        -0.00000   0.00000  -0.00000   0.00000   0.00000
 106        6D 0        0.00001  -0.00003   0.00081  -0.00968   0.00589
 107        6D+1        0.00000  -0.00000   0.00000   0.00000  -0.00000
 108        6D-1       -0.00000   0.00000   0.00000  -0.00000   0.00000
 109        6D+2       -0.00001  -0.00010  -0.00072  -0.00504   0.00304
 110        6D-2       -0.00002   0.00010  -0.00067  -0.00308  -0.00064
 111 6   H  1S          0.00006   0.00005  -0.00011   0.00818  -0.00402
 112        2S         -0.00087  -0.00440   0.00076   0.00742   0.00123
 113        3S         -0.00154   0.00188   0.00092  -0.00827   0.00293
 114        4PX        -0.00008   0.00076  -0.00005   0.00054   0.00049
 115        4PY        -0.00021  -0.00239   0.00010   0.00139   0.00069
 116        4PZ        -0.00000   0.00000   0.00000   0.00000  -0.00000
 117 7   H  1S         -0.00000  -0.00014   0.00010   0.00595  -0.00595
 118        2S         -0.00006   0.00089  -0.00426   0.00507  -0.00365
 119        3S         -0.00007   0.00142   0.00090  -0.00199   0.00059
 120        4PX        -0.00006   0.00009  -0.00187   0.00076  -0.00045
 121        4PY        -0.00000  -0.00007   0.00157   0.00002   0.00019
 122        4PZ        -0.00000  -0.00000  -0.00000  -0.00000   0.00000
 123 8   C  1S          0.56308   0.00002   0.00001  -0.04644  -0.06638
 124        2S          0.46333   0.00002   0.00002  -0.07097  -0.10121
 125        2PX        -0.00077  -0.00003   0.00000   0.00400   0.04135
 126        2PY         0.00003   0.00002  -0.00001   0.00038  -0.00198
 127        2PZ         0.00000  -0.00000  -0.00000  -0.00000  -0.00000
 128        3S          0.01807  -0.00008  -0.00023   0.18984   0.27367
 129        3PX         0.00191   0.00017  -0.00003  -0.00339   0.05326
 130        3PY        -0.00008  -0.00011   0.00001   0.00091  -0.00286
 131        3PZ        -0.00000   0.00000   0.00000   0.00000  -0.00000
 132        4S         -0.01092  -0.00142   0.00240   0.05905   0.05993
 133        4PX         0.00086  -0.00022  -0.00113  -0.00277  -0.00180
 134        4PY         0.00037  -0.00436  -0.00089  -0.00352  -0.00038
 135        4PZ         0.00000  -0.00000  -0.00000  -0.00000   0.00000
 136        5S         -0.00909   0.00648   0.00855   0.01078   0.02817
 137        5PX         0.00269  -0.00199  -0.00287  -0.00151  -0.00112
 138        5PY         0.00078  -0.00079  -0.00007   0.00406  -0.00023
 139        5PZ         0.00000   0.00000  -0.00000  -0.00000   0.00000
 140        6D 0       -0.00162  -0.00001  -0.00006  -0.01296  -0.01684
 141        6D+1        0.00000   0.00000  -0.00000   0.00000   0.00000
 142        6D-1        0.00000  -0.00000   0.00000   0.00000   0.00000
 143        6D+2       -0.00198  -0.00006   0.00001  -0.00561  -0.02307
 144        6D-2        0.00031   0.00004  -0.00000   0.00108   0.00371
 145 9   O  1S         -0.00007   0.00000  -0.00000  -0.03320  -0.06118
 146        2S         -0.00004   0.00000  -0.00000  -0.05294  -0.09760
 147        2PX        -0.00021  -0.00003  -0.00001  -0.01026  -0.01316
 148        2PY         0.00048  -0.00000   0.00000   0.02427   0.04362
 149        2PZ         0.00000   0.00000   0.00000   0.00000   0.00000
 150        3S          0.00036   0.00006   0.00003   0.15100   0.27899
 151        3PX         0.00069   0.00010   0.00003  -0.01462  -0.01777
 152        3PY        -0.00151   0.00000  -0.00001   0.03644   0.06362
 153        3PZ        -0.00000  -0.00000  -0.00000   0.00000   0.00000
 154        4S         -0.00383  -0.00129  -0.00049   0.09961   0.18993
 155        4PX         0.00052   0.00030   0.00009  -0.00507  -0.00598
 156        4PY        -0.00147  -0.00041  -0.00012   0.01051   0.02289
 157        4PZ        -0.00000  -0.00000   0.00000   0.00000   0.00000
 158        5S          0.00780  -0.00340  -0.00115  -0.03559  -0.02214
 159        5PX        -0.00191   0.00051   0.00016   0.00951   0.00359
 160        5PY         0.00250  -0.00094  -0.00029  -0.00797  -0.00378
 161        5PZ         0.00000  -0.00000  -0.00000  -0.00000  -0.00000
 162        6D 0        0.00055  -0.00000  -0.00001  -0.00252  -0.00409
 163        6D+1        0.00000  -0.00000   0.00000  -0.00000  -0.00000
 164        6D-1       -0.00000  -0.00000   0.00000   0.00000   0.00000
 165        6D+2        0.00058  -0.00000   0.00001  -0.00390  -0.00756
 166        6D-2        0.00067   0.00002   0.00001  -0.00302  -0.00378
 167 10  O  1S         -0.00007   0.00000   0.00000  -0.03376  -0.06179
 168        2S         -0.00003   0.00002   0.00001  -0.05383  -0.09859
 169        2PX        -0.00026  -0.00001  -0.00000  -0.01346  -0.01860
 170        2PY        -0.00045  -0.00002  -0.00001  -0.02335  -0.04249
 171        2PZ        -0.00000  -0.00000  -0.00000  -0.00000  -0.00000
 172        3S          0.00025  -0.00021  -0.00006   0.15372   0.28206
 173        3PX         0.00085   0.00006   0.00002  -0.01935  -0.02566
 174        3PY         0.00143   0.00008   0.00003  -0.03493  -0.06180
 175        3PZ         0.00000   0.00000   0.00000  -0.00000  -0.00000
 176        4S         -0.00372   0.00169   0.00027   0.10032   0.19006
 177        4PX         0.00099  -0.00059  -0.00008  -0.00696  -0.00734
 178        4PY         0.00155  -0.00068  -0.00009  -0.01063  -0.02217
 179        4PZ         0.00000  -0.00000  -0.00000  -0.00000  -0.00000
 180        5S          0.00334   0.00564   0.00169  -0.00723  -0.01596
 181        5PX        -0.00152  -0.00140  -0.00055   0.00001   0.00208
 182        5PY        -0.00132  -0.00136  -0.00038  -0.00133   0.00208
 183        5PZ        -0.00000  -0.00000   0.00000   0.00000  -0.00000
 184        6D 0        0.00056   0.00001   0.00000  -0.00254  -0.00399
 185        6D+1       -0.00000   0.00000  -0.00000   0.00000   0.00000
 186        6D-1       -0.00000  -0.00000  -0.00000   0.00000   0.00000
 187        6D+2        0.00039   0.00001  -0.00000  -0.00303  -0.00657
 188        6D-2       -0.00080   0.00002  -0.00001   0.00407   0.00574
                          11        12        13        14        15
                           O         O         O         O         O
     Eigenvalues --    -0.97040  -0.89116  -0.82533  -0.64256  -0.61944
   1 1   C  1S         -0.00081  -0.03002  -0.05913   0.03496  -0.06156
   2        2S         -0.00126  -0.04641  -0.09116   0.05466  -0.09599
   3        2PX         0.00182  -0.02389   0.04899   0.07483  -0.01164
   4        2PY         0.00163  -0.05859   0.02548   0.04716   0.06575
   5        2PZ        -0.00000   0.00000  -0.00000  -0.00000  -0.00000
   6        3S          0.00335   0.12323   0.24409  -0.15199   0.26453
   7        3PX         0.00359  -0.03209   0.06793   0.10117  -0.01638
   8        3PY         0.00222  -0.08743   0.03242   0.06759   0.08973
   9        3PZ         0.00000   0.00000  -0.00000  -0.00000  -0.00000
  10        4S          0.01029   0.06655   0.12293  -0.10336   0.19750
  11        4PX         0.00237   0.00359   0.01430   0.02627  -0.00075
  12        4PY        -0.00166  -0.00699  -0.00115   0.02275   0.03168
  13        4PZ         0.00000   0.00000  -0.00000   0.00000  -0.00000
  14        5S         -0.01167   0.01230   0.10056  -0.01972   0.01673
  15        5PX        -0.00418  -0.00150   0.01783   0.01077  -0.00307
  16        5PY         0.00020  -0.00478  -0.02127   0.01187   0.00321
  17        5PZ         0.00000  -0.00000   0.00000   0.00000  -0.00000
  18        6D 0       -0.00023  -0.00659  -0.00963   0.00182  -0.00486
  19        6D+1        0.00000  -0.00000  -0.00000   0.00000  -0.00000
  20        6D-1        0.00000  -0.00000  -0.00000   0.00000  -0.00000
  21        6D+2        0.00106  -0.02247   0.01143   0.01418   0.00367
  22        6D-2        0.00050  -0.00410   0.00888  -0.00475   0.00408
  23 2   N  1S          0.00195  -0.08923   0.00603   0.02967   0.03382
  24        2S          0.00301  -0.14021   0.00951   0.04722   0.05389
  25        2PX        -0.00172   0.04829  -0.02199   0.05393  -0.03213
  26        2PY         0.00016   0.02398   0.02997  -0.07342   0.03484
  27        2PZ         0.00000  -0.00000  -0.00000   0.00000  -0.00000
  28        3S         -0.00768   0.38608  -0.02684  -0.13495  -0.15322
  29        3PX        -0.00261   0.07063  -0.03334   0.07702  -0.04658
  30        3PY         0.00027   0.03661   0.04529  -0.10995   0.04959
  31        3PZ        -0.00000  -0.00000  -0.00000   0.00000  -0.00000
  32        4S         -0.01114   0.25858  -0.01366  -0.12112  -0.14637
  33        4PX        -0.00316   0.02457  -0.00785   0.03778  -0.02694
  34        4PY        -0.00142   0.01361   0.01244  -0.05057   0.02734
  35        4PZ         0.00000   0.00000  -0.00000   0.00000  -0.00000
  36        5S          0.00263  -0.04940   0.00369   0.02224   0.00177
  37        5PX         0.00194  -0.01138   0.00939  -0.00404   0.00262
  38        5PY        -0.00040  -0.00419  -0.01579   0.01876  -0.00601
  39        5PZ        -0.00000  -0.00000   0.00000  -0.00000  -0.00000
  40        6D 0        0.00023  -0.00846   0.00033   0.00021   0.00156
  41        6D+1        0.00000   0.00000  -0.00000   0.00000  -0.00000
  42        6D-1       -0.00000  -0.00000  -0.00000   0.00000  -0.00000
  43        6D+2       -0.00039   0.00059  -0.00914   0.01563  -0.00611
  44        6D-2        0.00008  -0.00217   0.00458  -0.00289   0.00373
  45 3   C  1S          0.00498  -0.03454   0.05765  -0.05791  -0.02586
  46        2S          0.00761  -0.05324   0.08907  -0.09038  -0.04047
  47        2PX        -0.00317  -0.07323  -0.02951   0.00376   0.10717
  48        2PY        -0.00194   0.00528  -0.02500  -0.00171  -0.00453
  49        2PZ         0.00000  -0.00000  -0.00000   0.00000   0.00000
  50        3S         -0.01931   0.14222  -0.24073   0.25022   0.11127
  51        3PX        -0.00315  -0.10445  -0.04128   0.00474   0.14781
  52        3PY        -0.00214   0.00821  -0.03836  -0.00140  -0.00356
  53        3PZ         0.00000  -0.00000  -0.00000   0.00000   0.00000
  54        4S          0.01749   0.06210  -0.12059   0.16828   0.07560
  55        4PX         0.00369  -0.00985   0.00329   0.00083   0.02871
  56        4PY         0.00491   0.00123  -0.01450   0.00160  -0.00248
  57        4PZ        -0.00000  -0.00000   0.00000   0.00000   0.00000
  58        5S          0.04522   0.02486  -0.08900   0.06487   0.03633
  59        5PX         0.01016  -0.00243   0.01635   0.00253   0.02129
  60        5PY         0.00955   0.00124  -0.02117   0.00711   0.00661
  61        5PZ         0.00000   0.00000   0.00000   0.00000   0.00000
  62        6D 0        0.00108  -0.00701   0.00888  -0.00708  -0.00212
  63        6D+1       -0.00000   0.00000   0.00000  -0.00000  -0.00000
  64        6D-1       -0.00000  -0.00000   0.00000  -0.00000   0.00000
  65        6D+2       -0.00060   0.01069  -0.00374  -0.00921  -0.00469
  66        6D-2       -0.00054  -0.02181  -0.01183   0.00201   0.01261
  67 4   N  1S          0.00161   0.05345   0.05685   0.02638  -0.00013
  68        2S          0.00250   0.08455   0.08998   0.04220  -0.00011
  69        2PX        -0.00042  -0.00191  -0.01354  -0.12412   0.01115
  70        2PY         0.01449  -0.03332   0.07335  -0.03341  -0.14392
  71        2PZ         0.00000   0.00000  -0.00000   0.00000   0.00000
  72        3S         -0.00636  -0.23980  -0.25574  -0.12315  -0.00301
  73        3PX        -0.00076  -0.00228  -0.02262  -0.18585   0.01790
  74        3PY         0.02009  -0.05466   0.10879  -0.04803  -0.21293
  75        3PZ         0.00000   0.00000  -0.00000   0.00000   0.00000
  76        4S         -0.00631  -0.18003  -0.20647  -0.13715  -0.01056
  77        4PX        -0.00153  -0.00711  -0.01892  -0.11597   0.03003
  78        4PY         0.03345  -0.02185   0.04614  -0.03261  -0.14957
  79        4PZ         0.00000   0.00000  -0.00000   0.00000   0.00000
  80        5S          0.04819   0.08061   0.14680  -0.00470   0.08133
  81        5PX        -0.00506  -0.01197  -0.02822   0.04829  -0.00337
  82        5PY         0.05600   0.03537   0.02069   0.02324   0.05667
  83        5PZ        -0.00000   0.00000  -0.00000  -0.00000  -0.00000
  84        6D 0        0.00011   0.00511   0.00259  -0.00030   0.00147
  85        6D+1        0.00000  -0.00000   0.00000   0.00000  -0.00000
  86        6D-1       -0.00000   0.00000  -0.00000   0.00000   0.00000
  87        6D+2       -0.00002   0.00441  -0.00057  -0.00562   0.00248
  88        6D-2        0.00218   0.00864  -0.01500   0.00256   0.01185
  89 5   N  1S         -0.00480   0.04064  -0.06716  -0.02178   0.01557
  90        2S         -0.00756   0.06408  -0.10598  -0.03464   0.02498
  91        2PX         0.00182  -0.02398  -0.06124  -0.03331  -0.11315
  92        2PY        -0.00241   0.02916  -0.01299  -0.01226   0.04814
  93        2PZ         0.00000  -0.00000   0.00000   0.00000  -0.00000
  94        3S          0.02168  -0.18000   0.29903   0.09866  -0.07747
  95        3PX         0.00279  -0.04013  -0.08828  -0.04919  -0.16706
  96        3PY        -0.00378   0.04745  -0.02197  -0.01984   0.07425
  97        3PZ         0.00000  -0.00000  -0.00000   0.00000  -0.00000
  98        4S         -0.00500  -0.11948   0.21248   0.09325  -0.03635
  99        4PX        -0.00088  -0.00332  -0.03301  -0.02007  -0.06506
 100        4PY         0.00689   0.01244  -0.00936  -0.01272   0.01955
 101        4PZ        -0.00000  -0.00000   0.00000   0.00000  -0.00000
 102        5S         -0.08718  -0.06473  -0.15420  -0.01344  -0.11313
 103        5PX        -0.01441  -0.00211   0.00003   0.00087  -0.00184
 104        5PY         0.01867   0.01399   0.03923  -0.00144   0.02148
 105        5PZ         0.00000  -0.00000  -0.00000   0.00000   0.00000
 106        6D 0       -0.00059   0.00458  -0.00471  -0.00208   0.00163
 107        6D+1        0.00000  -0.00000  -0.00000  -0.00000  -0.00000
 108        6D-1        0.00000   0.00000   0.00000  -0.00000   0.00000
 109        6D+2        0.00023   0.00391   0.00963  -0.00419   0.01242
 110        6D-2       -0.00061   0.01086   0.00888   0.00607   0.01497
 111 6   H  1S         -0.00305   0.01099  -0.03374   0.05457   0.04630
 112        2S         -0.00576   0.00968  -0.04077   0.06511   0.06029
 113        3S          0.00448   0.00101  -0.00229   0.01051   0.00888
 114        4PX        -0.00057  -0.00421   0.00130  -0.00180   0.00164
 115        4PY        -0.00097  -0.00003  -0.00814   0.00738   0.00894
 116        4PZ         0.00000   0.00000   0.00000  -0.00000  -0.00000
 117 7   H  1S          0.00036   0.01141   0.03115  -0.04734   0.08710
 118        2S          0.00023   0.01210   0.03510  -0.06255   0.10738
 119        3S          0.00054   0.00022   0.00325  -0.00764   0.01508
 120        4PX         0.00018  -0.00048   0.00673  -0.00543   0.01174
 121        4PY         0.00003  -0.00461  -0.00229   0.00903  -0.00770
 122        4PZ        -0.00000   0.00000   0.00000  -0.00000   0.00000
 123 8   C  1S          0.00005   0.00032   0.00623   0.03438  -0.00352
 124        2S          0.00014   0.00075   0.00995   0.05450  -0.00555
 125        2PX         0.01076   0.03462   0.04518   0.09233  -0.01181
 126        2PY         0.13981   0.00197  -0.00935  -0.00532  -0.00374
 127        2PZ         0.00000  -0.00000  -0.00000  -0.00000   0.00000
 128        3S          0.00012  -0.00121  -0.02665  -0.15933   0.01580
 129        3PX         0.01338   0.05215   0.06748   0.13837  -0.01656
 130        3PY         0.17642   0.00176  -0.01194  -0.00800  -0.00588
 131        3PZ         0.00000   0.00000  -0.00000  -0.00000   0.00000
 132        4S         -0.00178  -0.00233  -0.01413  -0.09564  -0.01333
 133        4PX        -0.00226   0.00217   0.00283   0.02874   0.00318
 134        4PY        -0.02473   0.01483  -0.00355   0.00516   0.02725
 135        4PZ        -0.00000   0.00000   0.00000   0.00000   0.00000
 136        5S         -0.01852  -0.02135  -0.00990  -0.05430  -0.04270
 137        5PX         0.00801   0.01117   0.00588   0.02164   0.01464
 138        5PY         0.01417  -0.00267  -0.00238  -0.00029   0.00093
 139        5PZ        -0.00000  -0.00000   0.00000   0.00000   0.00000
 140        6D 0        0.00031   0.00053   0.00192   0.00565  -0.00060
 141        6D+1        0.00000   0.00000   0.00000   0.00000   0.00000
 142        6D-1       -0.00000   0.00000   0.00000   0.00000  -0.00000
 143        6D+2        0.00297  -0.01125  -0.01316  -0.01331   0.00243
 144        6D-2        0.02231   0.00360  -0.00542   0.00432   0.01302
 145 9   O  1S          0.08117  -0.01004  -0.02026  -0.01918   0.01078
 146        2S          0.12986  -0.01608  -0.03254  -0.03099   0.01744
 147        2PX         0.02288   0.00302   0.00732   0.02485  -0.01435
 148        2PY        -0.04465   0.00595   0.00956  -0.00712  -0.00001
 149        2PZ        -0.00000   0.00000   0.00000  -0.00000   0.00000
 150        3S         -0.37162   0.04638   0.09512   0.09146  -0.05307
 151        3PX         0.03472   0.00474   0.01038   0.03629  -0.01982
 152        3PY        -0.06611   0.00800   0.01320  -0.00930   0.00011
 153        3PZ        -0.00000   0.00000   0.00000  -0.00000   0.00000
 154        4S         -0.28778   0.03855   0.07389   0.09391  -0.03769
 155        4PX         0.02008   0.00310   0.00768   0.02080  -0.01700
 156        4PY        -0.02580   0.00517   0.00528  -0.00371   0.00473
 157        4PZ        -0.00000   0.00000   0.00000  -0.00000   0.00000
 158        5S          0.01490   0.02142   0.00368   0.02318   0.03223
 159        5PX        -0.00682  -0.00593  -0.00009  -0.00273  -0.01024
 160        5PY        -0.00150   0.00570   0.00196   0.00406   0.00857
 161        5PZ         0.00000   0.00000  -0.00000  -0.00000   0.00000
 162        6D 0        0.00545  -0.00027  -0.00032   0.00052  -0.00070
 163        6D+1        0.00000   0.00000   0.00000   0.00000  -0.00000
 164        6D-1       -0.00000   0.00000   0.00000   0.00000   0.00000
 165        6D+2        0.00609  -0.00169  -0.00254  -0.00238   0.00091
 166        6D-2        0.00918   0.00093   0.00070   0.00449  -0.00088
 167 10  O  1S         -0.08120  -0.01610  -0.00712  -0.02290  -0.00562
 168        2S         -0.12994  -0.02581  -0.01144  -0.03700  -0.00905
 169        2PX        -0.02796   0.00153   0.00500   0.02995   0.00501
 170        2PY        -0.04217  -0.00954  -0.00428   0.00123  -0.00010
 171        2PZ        -0.00000  -0.00000  -0.00000  -0.00000   0.00000
 172        3S          0.37240   0.07521   0.03334   0.10963   0.02732
 173        3PX        -0.04240   0.00280   0.00801   0.04343   0.00712
 174        3PY        -0.06221  -0.01331  -0.00649   0.00099   0.00093
 175        3PZ        -0.00000  -0.00000  -0.00000  -0.00000   0.00000
 176        4S          0.28468   0.04989   0.02713   0.10552   0.01642
 177        4PX        -0.02062   0.00457   0.00515   0.02716   0.00635
 178        4PY        -0.02342  -0.00408  -0.00363  -0.00015   0.00155
 179        4PZ        -0.00000  -0.00000   0.00000  -0.00000   0.00000
 180        5S         -0.00660  -0.01382   0.00702   0.00172  -0.02113
 181        5PX         0.00247   0.00435  -0.00231   0.00305   0.00713
 182        5PY        -0.00301   0.00417  -0.00110   0.00188   0.00618
 183        5PZ         0.00000   0.00000  -0.00000  -0.00000   0.00000
 184        6D 0       -0.00539  -0.00051  -0.00023   0.00068   0.00055
 185        6D+1        0.00000   0.00000  -0.00000  -0.00000  -0.00000
 186        6D-1        0.00000   0.00000   0.00000   0.00000  -0.00000
 187        6D+2       -0.00384  -0.00225  -0.00225  -0.00393   0.00024
 188        6D-2        0.01060   0.00018  -0.00124  -0.00356   0.00015
                          16        17        18        19        20
                           O         O         O         O         O
     Eigenvalues --    -0.56912  -0.49131  -0.47415  -0.45174  -0.42738
   1 1   C  1S          0.00696   0.00861   0.00000   0.00468   0.00145
   2        2S          0.01106   0.01363   0.00000   0.00751   0.00226
   3        2PX         0.02583   0.12124  -0.00000   0.08130  -0.08063
   4        2PY         0.07695  -0.00340   0.00000  -0.00950   0.14237
   5        2PZ        -0.00000   0.00000   0.07263   0.00000  -0.00000
   6        3S         -0.03060  -0.03371   0.00000  -0.01709  -0.01720
   7        3PX         0.03271   0.17073   0.00000   0.11340  -0.11054
   8        3PY         0.10872  -0.00525   0.00000  -0.01266   0.20220
   9        3PZ        -0.00000   0.00000   0.11372   0.00000  -0.00000
  10        4S         -0.04465  -0.04572  -0.00000  -0.03043   0.01513
  11        4PX        -0.00466   0.09321  -0.00000   0.06818  -0.06608
  12        4PY         0.04690  -0.00768   0.00000  -0.00404   0.12240
  13        4PZ        -0.00000   0.00000   0.07081   0.00000  -0.00000
  14        5S         -0.05037  -0.04934   0.00000  -0.01852  -0.02523
  15        5PX        -0.00117   0.01020   0.00000   0.00554   0.00150
  16        5PY         0.02313   0.02299  -0.00000   0.00849   0.03466
  17        5PZ        -0.00000  -0.00000   0.01091   0.00000   0.00000
  18        6D 0        0.00414  -0.00235   0.00000  -0.00064   0.00147
  19        6D+1       -0.00000  -0.00000   0.01633  -0.00000   0.00000
  20        6D-1        0.00000  -0.00000  -0.00918   0.00000  -0.00000
  21        6D+2        0.00491   0.00293   0.00000  -0.00182   0.00417
  22        6D-2        0.01069   0.00149  -0.00000   0.00773  -0.01945
  23 2   N  1S         -0.01132   0.00305  -0.00000  -0.00722   0.00171
  24        2S         -0.01804   0.00487  -0.00000  -0.01153   0.00268
  25        2PX         0.02597   0.06724  -0.00000   0.03098   0.07719
  26        2PY        -0.10031  -0.01344  -0.00000  -0.00533  -0.12369
  27        2PZ         0.00000   0.00000   0.07425   0.00000   0.00000
  28        3S          0.05253  -0.01336  -0.00000   0.03341  -0.00756
  29        3PX         0.03817   0.09895   0.00000   0.04627   0.11244
  30        3PY        -0.14487  -0.01903  -0.00000  -0.00597  -0.18089
  31        3PZ         0.00000   0.00000   0.11172   0.00000   0.00000
  32        4S          0.04065  -0.02348   0.00000   0.04378  -0.01693
  33        4PX         0.01300   0.05870   0.00000   0.03338   0.06168
  34        4PY        -0.07960  -0.00863   0.00000  -0.00488  -0.10775
  35        4PZ         0.00000  -0.00000   0.08240   0.00000   0.00000
  36        5S         -0.00829  -0.00535   0.00000   0.04155  -0.00547
  37        5PX        -0.01344  -0.01463  -0.00000   0.00136  -0.00623
  38        5PY         0.02785   0.01240  -0.00000   0.00626   0.01497
  39        5PZ         0.00000   0.00000  -0.01418  -0.00000  -0.00000
  40        6D 0        0.00207  -0.00225  -0.00000  -0.00062  -0.00030
  41        6D+1        0.00000  -0.00000   0.01243  -0.00000   0.00000
  42        6D-1        0.00000   0.00000   0.00632   0.00000   0.00000
  43        6D+2        0.00697   0.01155  -0.00000   0.00478   0.02353
  44        6D-2       -0.01381   0.01015   0.00000   0.00656  -0.01209
  45 3   C  1S         -0.03047   0.01000   0.00000   0.01351  -0.00348
  46        2S         -0.04777   0.01596   0.00000   0.02156  -0.00539
  47        2PX        -0.06840  -0.04317  -0.00000  -0.02786  -0.09929
  48        2PY        -0.12962   0.08453   0.00000   0.03752   0.11355
  49        2PZ         0.00000  -0.00000   0.09137  -0.00000   0.00000
  50        3S          0.13235  -0.04287   0.00000  -0.06215   0.02828
  51        3PX        -0.09368  -0.06163  -0.00000  -0.03924  -0.13756
  52        3PY        -0.17652   0.11531  -0.00000   0.05149   0.15924
  53        3PZ         0.00000  -0.00000   0.14155  -0.00000   0.00000
  54        4S          0.14411  -0.07425  -0.00000  -0.07085  -0.00076
  55        4PX        -0.03749  -0.03628   0.00000  -0.00562  -0.08229
  56        4PY        -0.04808   0.05864  -0.00000   0.03541   0.09828
  57        4PZ         0.00000  -0.00000   0.07965  -0.00000   0.00000
  58        5S         -0.00096   0.07354  -0.00000   0.00089   0.01236
  59        5PX        -0.04221  -0.01147  -0.00000   0.00414  -0.04066
  60        5PY        -0.01416   0.02986  -0.00000   0.00502   0.00816
  61        5PZ        -0.00000   0.00000   0.01525   0.00000   0.00000
  62        6D 0        0.00208  -0.00234   0.00000  -0.00086  -0.00015
  63        6D+1       -0.00000   0.00000   0.00033  -0.00000  -0.00000
  64        6D-1        0.00000  -0.00000   0.02127   0.00000   0.00000
  65        6D+2        0.01818   0.00698  -0.00000   0.01228   0.01669
  66        6D-2       -0.00960  -0.00178  -0.00000  -0.00161   0.01351
  67 4   N  1S          0.01900   0.00977  -0.00000  -0.00031  -0.01599
  68        2S          0.03040   0.01568  -0.00000  -0.00045  -0.02584
  69        2PX         0.11862   0.02749   0.00000   0.07338  -0.01828
  70        2PY         0.04262  -0.06803   0.00000  -0.04670  -0.00712
  71        2PZ        -0.00000  -0.00000   0.15681   0.00000   0.00000
  72        3S         -0.08918  -0.04961   0.00000  -0.00100   0.07940
  73        3PX         0.17414   0.04526   0.00000   0.11056  -0.02894
  74        3PY         0.06137  -0.10143   0.00000  -0.07011  -0.00952
  75        3PZ        -0.00000  -0.00000   0.23940   0.00000   0.00000
  76        4S         -0.09186  -0.05312   0.00000  -0.01195   0.10044
  77        4PX         0.15037  -0.00545  -0.00000   0.07620  -0.01673
  78        4PY         0.03443  -0.07484  -0.00000  -0.05863   0.02167
  79        4PZ        -0.00000   0.00000   0.19973   0.00000   0.00000
  80        5S          0.01556  -0.11847   0.00000  -0.10386   0.01144
  81        5PX        -0.02815   0.01988  -0.00000   0.01811  -0.00029
  82        5PY        -0.01105  -0.03260   0.00000  -0.02568  -0.02478
  83        5PZ        -0.00000  -0.00000  -0.01031   0.00000  -0.00000
  84        6D 0        0.00202  -0.00081  -0.00000   0.00042   0.00160
  85        6D+1       -0.00000   0.00000  -0.00903  -0.00000  -0.00000
  86        6D-1       -0.00000   0.00000   0.00230   0.00000   0.00000
  87        6D+2       -0.00104   0.01781  -0.00000   0.00894   0.00622
  88        6D-2       -0.00557   0.00316   0.00000   0.00147   0.00811
  89 5   N  1S         -0.03384   0.00139  -0.00000  -0.00358   0.01062
  90        2S         -0.05403   0.00221  -0.00000  -0.00568   0.01706
  91        2PX        -0.02067  -0.10754  -0.00000  -0.06944   0.01979
  92        2PY         0.05343   0.01053   0.00000   0.03176   0.03027
  93        2PZ        -0.00000  -0.00000   0.10369  -0.00000   0.00000
  94        3S          0.15582  -0.00840   0.00000   0.01330  -0.05122
  95        3PX        -0.02946  -0.15839  -0.00000  -0.10257   0.02808
[...]
     30  0.000000D+00  0.175547D-01  0.000000D+00  0.000000D+00  0.128513D-03
               16            17            18            19            20 
     16  0.827826D-01
     17 -0.951640D-01  0.346430D+00
     18  0.000000D+00  0.000000D+00  0.241585D-01
     19  0.596282D-03  0.368920D-04  0.000000D+00  0.244212D+00
     20  0.130162D-02  0.205446D-03  0.000000D+00 -0.152371D+00  0.181603D+00
     21  0.000000D+00  0.000000D+00  0.821106D-03  0.000000D+00  0.000000D+00
     22  0.104777D-02  0.156316D-02  0.000000D+00  0.261288D-02  0.427302D-03
     23 -0.132529D-02 -0.291646D-02  0.000000D+00  0.982821D-03  0.670397D-03
     24  0.000000D+00  0.000000D+00 -0.106594D-02  0.000000D+00  0.000000D+00
     25 -0.141956D-02  0.149099D-02  0.000000D+00 -0.131597D-02 -0.284004D-03
     26  0.107200D-02  0.219412D-02  0.000000D+00  0.798725D-03  0.406229D-03
     27  0.000000D+00  0.000000D+00 -0.527181D-03  0.000000D+00  0.000000D+00
     28 -0.441686D-04 -0.335315D-03  0.000000D+00 -0.550034D-03  0.107736D-03
     29  0.596244D-03  0.806337D-03  0.000000D+00 -0.407642D-03  0.272069D-04
     30  0.000000D+00  0.000000D+00 -0.656135D-04  0.000000D+00  0.000000D+00
               21            22            23            24            25 
     21  0.245659D-01
     22  0.000000D+00  0.361194D+00
     23  0.000000D+00  0.548030D-01  0.100908D+01
     24  0.186143D-02  0.000000D+00  0.000000D+00  0.225010D+00
     25  0.000000D+00 -0.135357D+00  0.135808D+00  0.000000D+00  0.171364D+00
     26  0.000000D+00  0.131794D+00 -0.469654D+00  0.000000D+00 -0.178427D+00
     27 -0.823264D-03  0.000000D+00  0.000000D+00 -0.822640D-01  0.000000D+00
     28  0.000000D+00 -0.178682D+00 -0.180746D+00  0.000000D+00  0.308801D-01
     29  0.000000D+00 -0.181642D+00 -0.451528D+00  0.000000D+00 -0.169022D-01
     30 -0.139419D-03  0.000000D+00  0.000000D+00 -0.822365D-01  0.000000D+00
               26            27            28            29            30 
     26  0.608281D+00
     27  0.000000D+00  0.323300D-01
     28 -0.476161D-02  0.000000D+00  0.223121D+00
     29 -0.118140D+00  0.000000D+00  0.236314D+00  0.578416D+00
     30  0.000000D+00  0.302259D-01  0.000000D+00  0.000000D+00  0.329933D-01
 Leave Link  716 at Fri Jun  2 11:37:11 2023, MaxMem=  7381975040 cpu:               0.2 elap:               2.1
 (Enter /software/commercial/gaussian/g16/AVX/g16/l103.exe)

 GradGradGradGradGradGradGradGradGradGradGradGradGradGradGradGradGradGrad
 Berny optimization.
 Search for a local minimum.
 Step number   1 out of a maximum of    2
 All quantities printed in internal units (Hartrees-Bohrs-Radians)
 Second derivative matrix not updated -- analytic derivatives used.
 ITU=  0
     Eigenvalues ---    0.00278   0.01076   0.01671   0.03506   0.05002
     Eigenvalues ---    0.07885   0.08832   0.10114   0.19162   0.21669
     Eigenvalues ---    0.24186   0.27392   0.29186   0.30502   0.34241
     Eigenvalues ---    0.57503   0.71252   0.76516   0.87145   0.92748
     Eigenvalues ---    1.01351   1.20745   1.25117   1.52190
 Angle between quadratic step and forces=  41.73 degrees.
 Linear search not attempted -- first point.
 B after Tr=     0.000012    0.000003    0.000000
         Rot=    1.000000    0.000000    0.000000    0.000002 Ang=   0.00 deg.
 Variable       Old X    -DE/DX   Delta X   Delta X   Delta X     New X
                                 (Linear)    (Quad)   (Total)
    X1       -3.01211  -0.00002   0.00000  -0.00005  -0.00003  -3.01214
    Y1        2.67495  -0.00001   0.00000  -0.00002  -0.00001   2.67495
    Z1       -0.00000  -0.00000   0.00000   0.00000   0.00000   0.00000
    X2       -3.28478  -0.00002   0.00000   0.00000   0.00001  -3.28476
    Y2        0.10702  -0.00001   0.00000  -0.00002  -0.00001   0.10701
    Z2        0.00000  -0.00000   0.00000  -0.00000  -0.00000  -0.00000
    X3       -0.91047  -0.00000   0.00000   0.00002   0.00003  -0.91045
    Y3       -0.69318   0.00001   0.00000   0.00004   0.00005  -0.69313
    Z3        0.00000   0.00000   0.00000  -0.00000  -0.00000  -0.00000
    X4        0.70119   0.00008   0.00000   0.00011   0.00012   0.70131
    Y4        1.28326  -0.00000   0.00000   0.00005   0.00005   1.28331
    Z4        0.00000  -0.00000   0.00000  -0.00000  -0.00000   0.00000
    X5       -0.64686  -0.00001   0.00000  -0.00005  -0.00003  -0.64689
    Y5        3.47187  -0.00001   0.00000   0.00003   0.00003   3.47190
    Z5       -0.00000   0.00000   0.00000   0.00000   0.00000   0.00000
    X6       -0.26965  -0.00000   0.00000  -0.00005  -0.00005  -0.26970
    Y6       -2.62429  -0.00000   0.00000   0.00002   0.00003  -2.62426
    Z6        0.00000   0.00000   0.00000  -0.00000  -0.00000  -0.00000
    X7       -4.58924  -0.00001   0.00000  -0.00014  -0.00011  -4.58936
    Y7        3.96999  -0.00000   0.00000  -0.00009  -0.00007   3.96992
    Z7       -0.00000   0.00000   0.00000   0.00000   0.00000   0.00000
    X8        3.56357  -0.00010   0.00000  -0.00022  -0.00020   3.56337
    Y8        1.16062   0.00003   0.00000   0.00004   0.00003   1.16065
    Z8       -0.00000   0.00000   0.00000   0.00000   0.00000   0.00000
    X9        4.34872   0.00005   0.00000   0.00005   0.00006   4.34878
    Y9       -1.04362  -0.00003   0.00000   0.00001   0.00000  -1.04362
    Z9       -0.00000   0.00000   0.00000   0.00000   0.00000   0.00000
   X10        4.62576   0.00004   0.00000   0.00018   0.00020   4.62597
   Y10        3.23118   0.00001   0.00000  -0.00009  -0.00010   3.23108
   Z10        0.00000  -0.00000   0.00000  -0.00000  -0.00000  -0.00000
         Item               Value     Threshold  Converged?
 Maximum Force            0.000103     0.000450     YES
 RMS     Force            0.000028     0.000300     YES
 Maximum Displacement     0.000203     0.001800     YES
 RMS     Displacement     0.000068     0.001200     YES
 Predicted change in Energy=-2.155221D-08
 Optimization completed.
    -- Stationary point found.
 GradGradGradGradGradGradGradGradGradGradGradGradGradGradGradGradGradGrad

 Leave Link  103 at Fri Jun  2 11:37:21 2023, MaxMem=  7381975040 cpu:               4.5 elap:               7.2
 (Enter /software/commercial/gaussian/g16/AVX/g16/l9999.exe)

 ----------------------------------------------------------------------

 Electric dipole moment (input orientation):
 (Debye = 10**-18 statcoulomb cm , SI units = C m)
                  (au)            (Debye)         (10**-30 SI)
   Tot        0.353858D+01      0.899418D+01      0.300014D+02
   x         -0.313097D+01     -0.795814D+01     -0.265455D+02
   y         -0.164881D+01     -0.419086D+01     -0.139792D+02
   z          0.000000D+00      0.000000D+00      0.000000D+00

 Dipole polarizability, Alpha (input orientation).
 (esu units = cm**3 , SI units = C**2 m**2 J**-1)
 Alpha(0;0):
               (au)            (10**-24 esu)      (10**-40 SI)
   iso        0.834229D+02      0.123620D+02      0.137546D+02
   aniso      0.511892D+02      0.758546D+01      0.843997D+01
   xx         0.103851D+03      0.153891D+02      0.171227D+02
   yx         0.295278D+00      0.437557D-01      0.486848D-01
   yy         0.968816D+02      0.143564D+02      0.159736D+02
   zx         0.000000D+00      0.000000D+00      0.000000D+00
   zy         0.000000D+00      0.000000D+00      0.000000D+00
   zz         0.495364D+02      0.734054D+01      0.816746D+01

 First dipole hyperpolarizability, Beta (input orientation).
 ||, _|_  parallel and perpendicular components, (z) with respect to z axis,
 vector components x,y,z.  Values do not include the 1/n! factor of 1/2.
 (esu units = statvolt**-1 cm**4 , SI units = C**3 m**3 J**-2)
 Beta(0;0,0):
               (au)            (10**-30 esu)      (10**-50 SI)
   || (z)     0.000000D+00      0.000000D+00      0.000000D+00
   _|_(z)     0.000000D+00      0.000000D+00      0.000000D+00
   x         -0.264754D+03     -0.228726D+01     -0.848896D+00
   y         -0.860479D+02     -0.743387D+00     -0.275901D+00
   z          0.000000D+00      0.000000D+00      0.000000D+00
   ||         0.556772D+02      0.481007D+00      0.178521D+00
   xxx        0.749173D+02      0.647227D+00      0.240212D+00
   xxy       -0.219742D+02     -0.189840D+00     -0.704571D-01
   yxy       -0.115212D+03     -0.995340D+00     -0.369410D+00
   yyy       -0.180980D+02     -0.156353D+00     -0.580287D-01
   xxz        0.000000D+00      0.000000D+00      0.000000D+00
   yxz        0.000000D+00      0.000000D+00      0.000000D+00
   yyz        0.000000D+00      0.000000D+00      0.000000D+00
   zxz       -0.479568D+02     -0.414309D+00     -0.153767D+00
   zyz        0.113895D+02      0.983965D-01      0.365189D-01
   zzz        0.000000D+00      0.000000D+00      0.000000D+00

 ----------------------------------------------------------------------

 Dipole orientation:
     6         -1.75679260          3.33601906          1.41874030
     7         -0.75728608          1.43803020          2.85653529
     6          0.08810995         -0.16731426          1.12858516
     7         -0.37682472          0.71556225         -1.21835675
     7         -1.57182269          2.98477491         -1.04538200
     1          1.02339674         -1.94335463          1.46138621
     1         -2.63312509          5.00010959          2.21077998
     6          0.29519328         -0.56055018         -3.69387591
     8          1.37442311         -2.60992773         -3.36150672
     8         -0.32784167          0.62254705         -5.59849866

 Electric dipole moment (dipole orientation):
 (Debye = 10**-18 statcoulomb cm , SI units = C m)
                  (au)            (Debye)         (10**-30 SI)
   Tot        0.353858D+01      0.899418D+01      0.300014D+02
   x          0.000000D+00      0.000000D+00      0.000000D+00
   y          0.000000D+00      0.000000D+00      0.000000D+00
   z          0.353858D+01      0.899418D+01      0.300014D+02

 Dipole polarizability, Alpha (dipole orientation).
 (esu units = cm**3 , SI units = C**2 m**2 J**-1)
 Alpha(0;0):
               (au)            (10**-24 esu)      (10**-40 SI)
   iso        0.834229D+02      0.123620D+02      0.137546D+02
   aniso      0.511892D+02      0.758546D+01      0.843997D+01
   xx         0.600913D+02      0.890461D+01      0.990771D+01
   yx        -0.200428D+02     -0.297004D+01     -0.330462D+01
   yy         0.875963D+02      0.129804D+02      0.144427D+02
   zx        -0.126093D+01     -0.186851D+00     -0.207900D+00
   zy         0.239442D+01      0.354816D+00      0.394786D+00
   zz         0.102581D+03      0.152009D+02      0.169133D+02

 First dipole hyperpolarizability, Beta (dipole orientation).
 ||, _|_  parallel and perpendicular components, (z) with respect to z axis,
 vector components x,y,z.  Values do not include the 1/n! factor of 1/2.
 (esu units = statvolt**-1 cm**4 , SI units = C**3 m**3 J**-2)
 Beta(0;0,0):
               (au)            (10**-30 esu)      (10**-50 SI)
   || (z)     0.548702D+02      0.474035D+00      0.175934D+00
   _|_(z)     0.182901D+02      0.158012D+00      0.586445D-01
   x         -0.220054D+02     -0.190109D+00     -0.705571D-01
   y          0.417866D+02      0.361003D+00      0.133983D+00
   z          0.274351D+03      0.237018D+01      0.879668D+00
   ||         0.556772D+02      0.481007D+00      0.178521D+00
   xxx       -0.449218D+02     -0.388090D+00     -0.144036D+00
   xxy        0.279266D+02      0.241264D+00      0.895428D-01
   yxy       -0.136613D+02     -0.118023D+00     -0.438030D-01
   yyy        0.833183D+02      0.719806D+00      0.267149D+00
   xxz        0.320927D+02      0.277256D+00      0.102901D+00
   yxz        0.955720D+01      0.825668D-01      0.306438D-01
   yyz        0.189772D+02      0.163948D+00      0.608478D-01
   zxz        0.512480D+02      0.442743D+00      0.164320D+00
   zyz       -0.973161D+02     -0.840735D+00     -0.312031D+00
   zzz        0.403804D+02      0.348855D+00      0.129474D+00

 ----------------------------------------------------------------------
 Unable to Open any file for archive entry.
 1\1\GINC-NODE1708\Freq\RB3LYP\6-311+G(d,p)\C3H2N3O2(1-)\SVICCHI\02-Jun
 -2023\0\\#p freq=raman scale=0.967 pop=(nbo,full,hirshfeld) guess=read
  geom=allcheck b3lyp/6-311+G(d,p) int=grid=ultrafine EmpiricalDispersi
 on=GD3BJ SCRF=(Solvent=ethanol) scf=(xqc,intrep,maxconventionalcycle=3
 50) nosymm\\124triz-CO2_binding-site_index-3.gjf\\-1,1\C,-1.5939387471
 ,1.4155242836,0.\N,-1.7382286286,0.0566325068,0.\C,-0.4818016069,-0.36
 68158753,0.0000000001\N,0.37105328,0.6790713357,0.\N,-0.3423028411,1.8
 372363098,0.\H,-0.1426936247,-1.3887152343,0.0000000001\H,-2.428523622
 ,2.1008286216,-0.0000000001\C,1.8857601868,0.6141742901,0.\O,2.3012417
 542,-0.5522623867,-0.0000000002\O,2.4478488493,1.7098681487,0.00000000
 01\\Version=ES64L-G16RevC.01\HF=-430.5326797\RMSD=6.720e-10\RMSF=2.846
 e-05\ZeroPoint=0.0589575\Thermal=0.0650426\ETot=-430.4676371\HTot=-430
 .4666929\GTot=-430.5045666\Dipole=-2.3911521,-0.3902933,0.\DipoleDeriv
 =0.2168589,0.0339577,0.,-0.0225961,0.700267,0.,0.,0.,-0.0216292,-0.986
 5269,0.006904,0.,0.1512523,-0.6675896,0.,0.,0.,-0.40059,0.974571,0.108
 3908,0.,0.2641889,0.1730491,0.,0.,0.,0.080234,-1.8460692,-0.1113882,0.
 ,0.0093725,-0.1088198,0.,0.,0.,-0.0192474,-0.1830694,-0.0822187,0.,-0.
 459279,-0.5760756,0.,0.,0.,-0.2586133,0.1283805,0.0125848,0.,0.0313156
 ,0.0695073,0.,0.,0.,0.1918118,0.0064655,0.0782042,0.,0.0705155,0.02926
 04,0.,0.,0.,0.1749666,3.3856208,0.090637,0.,0.027653,2.9994788,0.,0.,0
 .,0.4117138,-1.3030503,0.4314532,0.,0.5034998,-1.8694519,0.,0.,0.,-0.5
 849688,-1.3931808,-0.5685249,0.,-0.5759225,-1.7496256,0.,0.,0.,-0.5736
 776\Polar=103.8506057,0.2952783,96.8815515,0.,0.,49.5364434\PolarDeriv
 =-0.2790029,-2.6614559,-10.7699349,0.,0.,-4.9011268,10.9720905,-0.8039
 968,-8.9641752,0.,0.,2.1398154,0.,0.,0.,-6.3380966,3.0666266,0.,-6.593
 3535,-5.403758,-9.7175131,0.,0.,-2.784097,-12.8805794,-0.661027,6.3954
 556,0.,0.,-1.224945,0.,0.,0.,-4.1215205,-2.2385583,0.,-10.0027117,2.87
 73804,7.4394848,0.,0.,1.647674,-10.8419105,-1.1304284,-4.0648917,0.,0.
 ,-3.7000633,0.,0.,0.,0.3026775,-5.6374911,0.,15.1307917,-0.3797878,1.8
 894441,0.,0.,0.5522032,2.895084,-0.977502,2.4041647,0.,0.,2.1224924,0.
 ,0.,0.,2.8772745,0.7925285,0.,-0.9967216,2.6848985,9.9493487,0.,0.,4.3
 490512,7.2027782,1.8468951,10.4583767,0.,0.,1.0790857,0.,0.,0.,2.40771
 79,3.8590357,0.,1.5692561,-1.8680535,2.072388,0.,0.,0.225351,-1.735945
 ,2.0414646,-11.7241611,0.,0.,-1.0983744,0.,0.,0.,0.2999802,-0.1482983,
 0.,-10.0142394,4.9957995,-3.7776574,0.,0.,-0.6921658,4.8872191,-4.8215
 226,5.4886796,0.,0.,0.612757,0.,0.,0.,0.1033305,0.3831311,0.,-6.454775
 9,-1.1323081,-3.8536599,0.,0.,0.6463733,0.0083154,-7.5270973,0.4218171
 ,0.,0.,0.1579491,0.,0.,0.,-1.8989785,-0.0469181,0.,7.3309896,-4.708090
 2,3.2241836,0.,0.,0.3993245,-9.9719469,5.658901,-13.3669168,0.,0.,-2.6
 812502,0.,0.,0.,2.8357102,-4.5660867,0.,10.3097676,5.5953752,3.543916,
 0.,0.,0.5574124,9.4648945,6.3743133,12.9516509,0.,0.,2.5925333,0.,0.,0
 .,3.5319048,4.5360305,0.\HyperPolar=74.9173028,-21.974156,-115.2117249
 ,-18.0979931,0.,0.,0.,-47.956762,11.3895096,0.\Quadrupole=-12.2231627,
 1.1516931,11.0714696,-7.594017,0.,0.\PG=CS [SG(C3H2N3O2)]\NImag=0\\0.8
 2205643,-0.14853910,0.66701620,0.,0.,0.15517794,-0.10937994,-0.0148206
 3,0.,0.57334279,-0.02069876,-0.26360597,0.,-0.00774907,0.47124654,0.,0
 .,-0.07930613,0.,0.,0.10119143,-0.00495536,0.10338202,0.,-0.34369535,0
 .08232398,0.,0.64782769,0.03508560,-0.06997406,0.,0.07789789,-0.136447
 40,0.,-0.12567055,0.87733600,0.,0.,0.01224281,0.,0.,-0.07841669,0.,0.,
 0.14990686,-0.12735520,0.01006014,0.,-0.11666835,0.03039006,0.,-0.1665
 1535,-0.08573485,0.,0.68615807,0.05935131,-0.02216960,0.,-0.06172097,0
 .00163004,0.,-0.09548984,-0.24196444,0.,0.03976209,0.61252375,0.,0.,0.
 01298971,0.,0.,0.02351229,0.,0.,-0.06994079,0.,0.,0.11268790,-0.353324
 50,-0.09901807,0.,-0.02110107,-0.09850945,0.,-0.01943165,0.02426572,0.
 ,-0.12192613,0.07614974,0.,0.55753016,-0.07184439,-0.12909963,0.,-0.01
 008757,-0.05715300,0.,-0.02758142,-0.10400998,0.,0.00714743,-0.2057104
 7,0.,0.07637958,0.47684258,0.,0.,-0.07835091,0.,0.,0.03381868,0.,0.,0.
 01698652,0.,0.,-0.06939031,0.,0.,0.10337586,-0.00595841,0.00140973,0.,
 -0.00361736,0.02740012,0.,-0.08272843,0.08908828,0.,0.01154271,-0.0199
 3479,0.,-0.00220146,-0.00444389,0.,0.08278262,-0.00049144,0.00045509,0
 .,0.00123919,0.00134575,0.,0.08431745,-0.33217976,0.,0.00935046,-0.015
 68920,0.,-0.00200737,-0.00065150,0.,-0.09516402,0.34643017,0.,0.,0.006
 81889,0.,0.,-0.00294000,0.,0.,-0.03310249,0.,0.,0.00027552,0.,0.,0.005
 62723,0.,0.,0.02415848,-0.23119773,0.14195838,0.,0.00895930,-0.0053695
 6,0.,0.00027345,-0.00282261,0.,-0.00546858,-0.00216122,0.,-0.01812203,
 0.01935476,0.,0.00059628,0.00003689,0.,0.24421243,0.14426912,-0.173315
 05,0.,0.02284567,-0.01516963,0.,-0.00191858,-0.00630054,0.,-0.00449466
 ,0.00122934,0.,-0.00988367,0.01064328,0.,0.00130162,0.00020545,0.,-0.1
 5237054,0.18160331,0.,0.,-0.03263023,0.,0.,-0.00259871,0.,0.,0.0056532
 9,0.,0.,0.00816284,0.,0.,-0.00487298,0.,0.,0.00082111,0.,0.,0.02456594
 ,0.01863748,0.00717774,0.,0.02905277,-0.01170011,0.,-0.03790115,-0.029
 90529,0.,-0.04399400,0.00245916,0.,-0.01661001,0.02502276,0.,0.0010477
 7,0.00156316,0.,0.00261288,0.00042730,0.,0.36119393,0.00362735,-0.0092
 8183,0.,-0.00866644,-0.00455897,0.,-0.01430331,0.01512062,0.,-0.011858
 20,-0.09027227,0.,0.02167788,0.00333868,0.,-0.00132529,-0.00291646,0.,
 0.00098282,0.00067040,0.,0.05480303,1.00908156,0.,0.,0.00362993,0.,0.,
 0.00668117,0.,0.,-0.00762103,0.,0.,-0.05234774,0.,0.,-0.01164693,0.,0.
 ,-0.00106594,0.,0.,0.00186143,0.,0.,0.22500968,-0.00592426,0.00261246,
 0.,-0.00497435,0.00357633,0.,0.00460448,0.00384711,0.,-0.05085981,0.05
 643159,0.,-0.00699765,-0.00815269,0.,-0.00141956,0.00149099,0.,-0.0013
 1597,-0.00028400,0.,-0.13535718,0.13580778,0.,0.17136419,0.00385472,0.
 00089128,0.,0.00613097,-0.00086728,0.,-0.00832947,-0.00845818,0.,0.043
 51406,-0.02234339,0.,0.00435412,0.00769009,0.,0.00107200,0.00219412,0.
 ,0.00079873,0.00040623,0.,0.13179388,-0.46965418,0.,-0.17842739,0.6082
 8092,0.,0.,-0.00057853,0.,0.,-0.00006573,0.,0.,0.00088265,0.,0.,0.0164
 9585,0.,0.,0.00432432,0.,0.,-0.00052718,0.,0.,-0.00082326,0.,0.,-0.082
 26404,0.,0.,0.03233001,-0.00259852,-0.00422266,0.,-0.01191843,0.000336
 45,0.,0.00252166,0.01394869,0.,-0.06491336,-0.05484705,0.,0.00218434,-
 0.00579458,0.,-0.00004417,-0.00033532,0.,-0.00055003,0.00010774,0.,-0.
 17868248,-0.18074562,0.,0.03088011,-0.00476161,0.,0.22312088,-0.004614
 40,-0.00091645,0.,-0.00506904,0.00357992,0.,0.00326972,0.00687774,0.,-
 0.03813654,-0.01723377,0.,0.00659153,-0.00189004,0.,0.00059624,0.00080
 634,0.,-0.00040764,0.00002721,0.,-0.18164164,-0.45152755,0.,-0.0169021
 8,-0.11813962,0.,0.23631395,0.57841623,0.,0.,0.00000651,0.,0.,-0.00187
 630,0.,0.,0.00340887,0.,0.,0.01755474,0.,0.,0.00012851,0.,0.,-0.000065
 61,0.,0.,-0.00013942,0.,0.,-0.08223652,0.,0.,0.03022592,0.,0.,0.032993
 30\\0.00001898,0.00001073,0.,0.00001995,0.00000553,0.,0.00000406,-0.00
 001013,0.,-0.00007995,0.00000008,0.,0.00000826,0.00000881,0.,0.0000023
 5,0.00000065,0.,0.00001301,0.00000120,0.,0.00010342,-0.00002961,0.,-0.
 00004888,0.00002666,0.,-0.00004121,-0.00001392,0.\\\@
 The archive entry for this job was punched.


 IF YOU BELIEVE CERTAIN WORDS, YOU BELIEVE THEIR HIDDEN ARGUMENTS.
 WHEN YOU BELIEVE SOMETHING IS RIGHT OR WRONG, TRUE OR FALSE, 
 YOU BELIEVE THE ASSUMPTIONS IN THE WORDS WHICH EXPRESS THE ARGUMENTS.
 SUCH ASSUMPTIONS ARE OFTEN FULL OF HOLES, BUT REMAIN MOST PRECIOUS 
 TO THE CONVINCED.

                 -- THE OPEN-ENDED PROOF FROM THE PANOPLIA PROPHETICA
                    CHILDREN OF DUNE BY FRANK HERBERT
 Job cpu time:       0 days  0 hours 17 minutes  4.3 seconds.
 Elapsed time:       0 days  0 hours  9 minutes 43.8 seconds.
 File lengths (MBytes):  RWF=    102 Int=      0 D2E=      0 Chk=     13 Scr=      1
 Normal termination of Gaussian 16 at Fri Jun  2 11:37:28 2023.
