 Entering Gaussian System, Link 0=g16
 Input=EMIM-CO2_binding-site_index-2-freq.gjf
 Output=EMIM-CO2_binding-site_index-2-freq.log
 Initial command:
 /software/commercial/gaussian/g16/AVX/g16/l1.exe "/scratch1/svicchi/G09-659729.pbs02/Gau-1616615.inp" -scrdir="/scratch1/svicchi/G09-659729.pbs02/"
 Entering Link 1 = /software/commercial/gaussian/g16/AVX/g16/l1.exe PID=   1616616.
  
 Copyright (c) 1988-2019, Gaussian, Inc.  All Rights Reserved.
  
 This is part of the Gaussian(R) 16 program.  It is based on
 the Gaussian(R) 09 system (copyright 2009, Gaussian, Inc.),
 the Gaussian(R) 03 system (copyright 2003, Gaussian, Inc.),
 the Gaussian(R) 98 system (copyright 1998, Gaussian, Inc.),
 the Gaussian(R) 94 system (copyright 1995, Gaussian, Inc.),
 the Gaussian 92(TM) system (copyright 1992, Gaussian, Inc.),
 the Gaussian 90(TM) system (copyright 1990, Gaussian, Inc.),
 the Gaussian 88(TM) system (copyright 1988, Gaussian, Inc.),
 the Gaussian 86(TM) system (copyright 1986, Carnegie Mellon
 University), and the Gaussian 82(TM) system (copyright 1983,
 Carnegie Mellon University). Gaussian is a federally registered
 trademark of Gaussian, Inc.
  
 This software contains proprietary and confidential information,
 including trade secrets, belonging to Gaussian, Inc.
  
 This software is provided under written license and may be
 used, copied, transmitted, or stored only in accord with that
 written license.
  
 The following legend is applicable only to US Government
 contracts under FAR:
  
                    RESTRICTED RIGHTS LEGEND
  
 Use, reproduction and disclosure by the US Government is
 subject to restrictions as set forth in subparagraphs (a)
 and (c) of the Commercial Computer Software - Restricted
 Rights clause in FAR 52.227-19.
  
 Gaussian, Inc.
 340 Quinnipiac St., Bldg. 40, Wallingford CT 06492
  
  
 ---------------------------------------------------------------
 Warning -- This program may not be used in any manner that
 competes with the business of Gaussian, Inc. or will provide
 assistance to any competitor of Gaussian, Inc.  The licensee
 of this program is prohibited from giving any competitor of
 Gaussian, Inc. access to this program.  By using this program,
 the user acknowledges that Gaussian, Inc. is engaged in the
 business of creating and licensing software in the field of
 computational chemistry and represents and warrants to the
 licensee that it is not a competitor of Gaussian, Inc. and that
 it will not use this program in any manner prohibited above.
 ---------------------------------------------------------------
  

 Cite this work as:
 Gaussian 16, Revision C.01,
 M. J. Frisch, G. W. Trucks, H. B. Schlegel, G. E. Scuseria, 
 M. A. Robb, J. R. Cheeseman, G. Scalmani, V. Barone, 
 G. A. Petersson, H. Nakatsuji, X. Li, M. Caricato, A. V. Marenich, 
 J. Bloino, B. G. Janesko, R. Gomperts, B. Mennucci, H. P. Hratchian, 
 J. V. Ortiz, A. F. Izmaylov, J. L. Sonnenberg, D. Williams-Young, 
 F. Ding, F. Lipparini, F. Egidi, J. Goings, B. Peng, A. Petrone, 
 T. Henderson, D. Ranasinghe, V. G. Zakrzewski, J. Gao, N. Rega, 
 G. Zheng, W. Liang, M. Hada, M. Ehara, K. Toyota, R. Fukuda, 
 J. Hasegawa, M. Ishida, T. Nakajima, Y. Honda, O. Kitao, H. Nakai, 
 T. Vreven, K. Throssell, J. A. Montgomery, Jr., J. E. Peralta, 
 F. Ogliaro, M. J. Bearpark, J. J. Heyd, E. N. Brothers, K. N. Kudin, 
 V. N. Staroverov, T. A. Keith, R. Kobayashi, J. Normand, 
 K. Raghavachari, A. P. Rendell, J. C. Burant, S. S. Iyengar, 
 J. Tomasi, M. Cossi, J. M. Millam, M. Klene, C. Adamo, R. Cammi, 
 J. W. Ochterski, R. L. Martin, K. Morokuma, O. Farkas, 
 J. B. Foresman, and D. J. Fox, Gaussian, Inc., Wallingford CT, 2019.
 
 ******************************************
 Gaussian 16:  ES64L-G16RevC.01  3-Jul-2019
                 2-Jun-2023 
 ******************************************
 %NProcShared=2
 Will use up to    2 processors via shared memory.
 %mem=55gb
 %chk=/scratch1/svicchi/G09-659729.pbs02/02-freq/EMIM-CO2_binding-site_index-2-fr
 eq.chk
 ----------------------------------------------------------------------
 #p freq=raman scale=0.967 pop=(nbo,full,hirshfeld) guess=read geom=all
 check b3lyp/6-311+G(d,p) int=grid=ultrafine EmpiricalDispersion=GD3BJ 
 SCRF=(Solvent=ethanol) scf=(xqc,intrep,maxconventionalcycle=350) nosym
 m
 ----------------------------------------------------------------------
 1/10=4,29=7,30=1,38=1,114=967000/1,3;
 2/12=2,15=1,40=1/2;
 3/5=4,6=6,7=111,11=2,14=-4,25=1,30=1,70=2201,71=2,72=4,74=-5,75=-5,116=-2,124=41,140=1/1,2,3;
 4/5=1/1;
 5/5=2,8=3,13=1,17=20,38=6,53=4,85=350,98=1/2,8;
 8/6=4,10=90,11=11/1;
 10/13=10,15=4,31=1/2;
 11/6=3,8=1,9=11,15=111,16=1,31=1/1,2,10;
 10/6=1,31=1/2;
 6/7=3,28=1,40=1,79=1/1,7;
 7/8=1,10=1,25=1,30=1/1,2,3,16;
 1/10=4,30=1/3;
 99//99;
 Leave Link    1 at Fri Jun  2 13:40:21 2023, MaxMem=  7381975040 cpu:               1.9 elap:               1.8
 (Enter /software/commercial/gaussian/g16/AVX/g16/l101.exe)
 Structure from the checkpoint file:  "/scratch1/svicchi/G09-659729.pbs02/02-freq/EMIM-CO2_binding-site_index-2-freq.chk"
 ---------------------------------
 EMIM-CO2_binding-site_index-2.gjf
 ---------------------------------
 Charge =  0 Multiplicity = 1
 No Z-Matrix found in chk file; cartesian coordinates used.
  C                                                 1.190012353699     -0.258945705326      0.292705687747
  N                                                 0.719235853509     -1.580743997122     -0.166266111087
  C                                                 1.100291414625     -2.787409801257      0.298543112950
  N                                                 0.430708320939     -3.715286122598     -0.414811990871
  C                                                 0.566242849185     -5.172829174434     -0.305629916802
  C                                                -0.369323656596     -3.087328928346     -1.348758186147
  C                                                -0.195170706403     -1.749937563781     -1.186909080602
  C                                                 2.304916672994      0.275592643542     -0.596686548964
  H                                                 1.529786889337     -0.372820984489      1.317478960404
  H                                                 0.319477084108      0.397268999146      0.281693654906
  H                                                 0.927462708026     -5.408423587112      0.689768409427
  H                                                 1.267875101679     -5.529219072511     -1.059954561610
  H                                                -0.411855265027     -5.619760159571     -0.471777931810
  H                                                -0.985441977075     -3.642156875417     -2.034062219888
  H                                                -0.645289521963     -0.913506308434     -1.691815489149
  H                                                 3.164734573624     -0.393887470407     -0.561996641184
  H                                                 2.612852197893      1.259612100467     -0.236584351700
  H                                                 1.970484266637      0.379549583647     -1.631320195497
  C                                                 2.100537666406     -3.043011345838      1.436636966403
  O                                                 1.830132785442     -4.016323129322      2.168066963379
  O                                                 3.049914388961     -2.237929100837      1.482266470097
 Recover connectivity data from disk.
 ITRead=  0  0  0  0  0  0  0  0  0  0  0  0  0  0  0  0  0  0  0  0
 ITRead=  0
 MicOpt= -1 -1 -1 -1 -1 -1 -1 -1 -1 -1 -1 -1 -1 -1 -1 -1 -1 -1 -1 -1
 MicOpt= -1
 NAtoms=     21 NQM=       21 NQMF=       0 NMMI=      0 NMMIF=      0
                NMic=       0 NMicF=      0.
                    Isotopes and Nuclear Properties:
 (Nuclear quadrupole moments (NQMom) in fm**2, nuclear magnetic moments (NMagM)
  in nuclear magnetons)

  Atom         1           2           3           4           5           6           7           8           9          10
 IAtWgt=          12          14          12          14          12          12          12          12           1           1
 AtmWgt=  12.0000000  14.0030740  12.0000000  14.0030740  12.0000000  12.0000000  12.0000000  12.0000000   1.0078250   1.0078250
 NucSpn=           0           2           0           2           0           0           0           0           1           1
 AtZEff=   3.6000000   4.5500000   3.6000000   4.5500000   3.6000000   3.6000000   3.6000000   3.6000000   1.0000000   1.0000000
 NQMom=    0.0000000   2.0440000   0.0000000   2.0440000   0.0000000   0.0000000   0.0000000   0.0000000   0.0000000   0.0000000
 NMagM=    0.0000000   0.4037610   0.0000000   0.4037610   0.0000000   0.0000000   0.0000000   0.0000000   2.7928460   2.7928460
 AtZNuc=   6.0000000   7.0000000   6.0000000   7.0000000   6.0000000   6.0000000   6.0000000   6.0000000   1.0000000   1.0000000

  Atom        11          12          13          14          15          16          17          18          19          20
 IAtWgt=           1           1           1           1           1           1           1           1          12          16
 AtmWgt=   1.0078250   1.0078250   1.0078250   1.0078250   1.0078250   1.0078250   1.0078250   1.0078250  12.0000000  15.9949146
 NucSpn=           1           1           1           1           1           1           1           1           0           0
 AtZEff=   1.0000000   1.0000000   1.0000000   1.0000000   1.0000000   1.0000000   1.0000000   1.0000000   3.6000000   5.6000000
 NQMom=    0.0000000   0.0000000   0.0000000   0.0000000   0.0000000   0.0000000   0.0000000   0.0000000   0.0000000   0.0000000
 NMagM=    2.7928460   2.7928460   2.7928460   2.7928460   2.7928460   2.7928460   2.7928460   2.7928460   0.0000000   0.0000000
 AtZNuc=   1.0000000   1.0000000   1.0000000   1.0000000   1.0000000   1.0000000   1.0000000   1.0000000   6.0000000   8.0000000

  Atom        21
 IAtWgt=          16
 AtmWgt=  15.9949146
 NucSpn=           0
 AtZEff=   5.6000000
 NQMom=    0.0000000
 NMagM=    0.0000000
 AtZNuc=   8.0000000
 Leave Link  101 at Fri Jun  2 13:40:23 2023, MaxMem=  7381975040 cpu:               0.3 elap:               0.7
 (Enter /software/commercial/gaussian/g16/AVX/g16/l103.exe)

 GradGradGradGradGradGradGradGradGradGradGradGradGradGradGradGradGradGrad
 Berny optimization.
 Initialization pass.
 Trust Radius=3.00D-01 FncErr=1.00D-07 GrdErr=1.00D-07 EigMax=2.50D+02 EigMin=1.00D-04
 Number of steps in this run=      2 maximum allowed number of steps=      2.
 GradGradGradGradGradGradGradGradGradGradGradGradGradGradGradGradGradGrad

 Leave Link  103 at Fri Jun  2 13:40:25 2023, MaxMem=  7381975040 cpu:               0.1 elap:               0.9
 (Enter /software/commercial/gaussian/g16/AVX/g16/l202.exe)
                          Input orientation:                          
 ---------------------------------------------------------------------
 Center     Atomic      Atomic             Coordinates (Angstroms)
 Number     Number       Type             X           Y           Z
 ---------------------------------------------------------------------
      1          6           0        1.190012   -0.258946    0.292706
      2          7           0        0.719236   -1.580744   -0.166266
      3          6           0        1.100291   -2.787410    0.298543
      4          7           0        0.430708   -3.715286   -0.414812
      5          6           0        0.566243   -5.172829   -0.305630
      6          6           0       -0.369324   -3.087329   -1.348758
      7          6           0       -0.195171   -1.749938   -1.186909
      8          6           0        2.304917    0.275593   -0.596687
      9          1           0        1.529787   -0.372821    1.317479
     10          1           0        0.319477    0.397269    0.281694
     11          1           0        0.927463   -5.408424    0.689768
     12          1           0        1.267875   -5.529219   -1.059955
     13          1           0       -0.411855   -5.619760   -0.471778
     14          1           0       -0.985442   -3.642157   -2.034062
     15          1           0       -0.645290   -0.913506   -1.691815
     16          1           0        3.164735   -0.393887   -0.561997
     17          1           0        2.612852    1.259612   -0.236584
     18          1           0        1.970484    0.379550   -1.631320
     19          6           0        2.100538   -3.043011    1.436637
     20          8           0        1.830133   -4.016323    2.168067
     21          8           0        3.049914   -2.237929    1.482266
 ---------------------------------------------------------------------
                    Distance matrix (angstroms):
                    1          2          3          4          5
     1  C    0.000000
     2  N    1.476291   0.000000
     3  C    2.530062   1.348070   0.000000
     4  N    3.608797   2.168247   1.348396   0.000000
     5  C    4.989323   3.598042   2.518027   1.467897   0.000000
     6  C    3.622939   2.202963   2.227851   1.380810   2.512511
     7  C    2.516158   1.380753   2.227361   2.202374   3.615604
     8  C    1.523076   2.479038   3.410944   4.412805   5.726517
     9  H    1.085622   2.077876   2.655736   3.921846   5.157807
    10  H    1.090216   2.067126   3.279045   4.172601   5.606410
    11  H    5.171432   3.927758   2.655681   2.081725   1.084805
    12  H    5.441648   4.085357   3.064493   2.099383   1.090095
    13  H    5.647012   4.205515   3.301847   2.083310   1.088131
    14  H    4.646780   3.262516   3.243752   2.152394   2.781755
    15  H    2.781206   2.152774   3.243470   3.261668   4.640167
    16  H    2.155981   2.746943   3.275882   4.304446   5.445748
    17  H    2.147240   3.414433   4.353457   5.435359   6.750532
    18  H    2.172254   2.748592   3.809362   4.540758   5.878627
    19  C    3.144623   2.572065   1.536581   2.582275   3.150504
    20  O    4.247896   3.551795   2.353299   2.953011   3.009003
    21  O    2.964906   2.929439   2.346095   3.555521   4.240146
                    6          7          8          9         10
     6  C    0.000000
     7  C    1.358359   0.000000
     8  C    4.361928   3.271326   0.000000
     9  H    4.252528   3.338246   2.164554   0.000000
    10  H    3.908355   2.651821   2.174472   1.769390   0.000000
    11  H    3.350332   4.262246   5.988354   5.110197   5.851687
    12  H    2.954091   4.054576   5.914889   5.684121   6.150019
    13  H    2.680319   3.941306   6.492429   5.873822   6.107963
    14  H    1.075675   2.218714   5.314252   5.314862   4.835546
    15  H    2.217961   1.075711   3.364072   3.752219   2.558055
    16  H    4.512559   3.676731   1.090272   2.491170   3.071357
    17  H    5.387597   4.224393   1.092150   2.500596   2.504360
    18  H    4.192110   3.069573   1.092300   3.075011   2.527006
    19  C    3.722983   3.718240   3.897346   2.733107   4.042474
    20  O    4.250729   4.527054   5.127360   3.753507   5.031926
    21  O    4.519665   4.230037   3.345872   2.411757   3.980067
                   11         12         13         14         15
    11  H    0.000000
    12  H    1.786618   0.000000
    13  H    1.785392   1.782034   0.000000
    14  H    3.768044   3.096341   2.584695   0.000000
    15  H    5.324450   5.036293   4.867423   2.770987   0.000000
    16  H    5.631862   5.497060   6.333236   5.471946   4.007840
    17  H    6.939839   6.969586   7.518639   6.340819   4.177993
    18  H    6.322656   5.977764   6.558338   5.007377   2.918549
    19  C    2.743919   3.620432   4.073549   4.682734   4.675636
    20  O    2.222189   3.609032   3.816582   5.072016   5.536595
    21  O    3.896779   4.524505   5.219092   5.533581   5.048111
                   16         17         18         19         20
    16  H    0.000000
    17  H    1.773282   0.000000
    18  H    1.779857   1.769869   0.000000
    19  C    3.484955   4.644858   4.598173   0.000000
    20  O    4.728261   5.850683   5.811948   1.247175   0.000000
    21  O    2.755483   3.921513   4.208418   1.245615   2.262935
                   21
    21  O    0.000000
 Symmetry turned off by external request.
 Stoichiometry    C7H10N2O2
 Framework group  C1[X(C7H10N2O2)]
 Deg. of freedom    57
 Full point group                 C1      NOp   1
 Rotational constants (GHZ):           1.4607818           1.1314595           0.6913884
 Leave Link  202 at Fri Jun  2 13:40:27 2023, MaxMem=  7381975040 cpu:               0.0 elap:               0.6
 (Enter /software/commercial/gaussian/g16/AVX/g16/l301.exe)
 Standard basis: 6-311+G(d,p) (5D, 7F)
 Ernie: Thresh=  0.10000D-02 Tol=  0.10000D-05 Strict=F.
   302 basis functions,   476 primitive gaussians,   313 cartesian basis functions
    41 alpha electrons       41 beta electrons
       nuclear repulsion energy       633.0299883999 Hartrees.
 IExCor=  402 DFT=T Ex+Corr=B3LYP ExCW=0 ScaHFX=  0.200000
 ScaDFX=  0.800000  0.720000  1.000000  0.810000 ScalE2=  1.000000  1.000000
 IRadAn=      5 IRanWt=     -1 IRanGd=            0 ICorTp=0 IEmpDi=141
 NAtoms=   21 NActive=   21 NUniq=   21 SFac= 1.00D+00 NAtFMM=   60 NAOKFM=F Big=F
 Integral buffers will be    131072 words long.
 Raffenetti 2 integral format.
 Two-electron integral symmetry is turned off.
 R6Disp:  Grimme-D3(BJ) Dispersion energy=       -0.0361592139 Hartrees.
 Nuclear repulsion after empirical dispersion term =      632.9938291860 Hartrees.
 Force inversion solution in PCM.
 ------------------------------------------------------------------------------
 Polarizable Continuum Model (PCM)
 =================================
 Model                : PCM.
 Atomic radii         : UFF (Universal Force Field).
 Polarization charges : Total charges.
 Charge compensation  : None.
 Solution method      : Matrix inversion.
 Cavity type          : Scaled VdW (van der Waals Surface) (Alpha=1.100).
 Cavity algorithm     : GePol (No added spheres)
                        Default sphere list used, NSphG=   21.
                        Lebedev-Laikov grids with approx.  5.0 points / Ang**2.
                        Smoothing algorithm: York/Karplus (Gamma=1.0000).
                        Polarization charges: spherical gaussians, with
                                              point-specific exponents (IZeta= 3).
                        Self-potential: point-specific (ISelfS= 7).
                        Self-field    : sphere-specific E.n sum rule (ISelfD= 2).
 1st derivatives      : Analytical E(r).r(x)/FMM algorithm (CHGder, D1EAlg=3).
                        Cavity 1st derivative terms included.
 2nd derivatives      : Analytical E(r).r(xy)/FMM algorithm (CHGder, D2EAlg=3).
                        Cavity 2nd derivative terms included.
 Solvent              : Ethanol, Eps=  24.852000 Eps(inf)=   1.852593
 ------------------------------------------------------------------------------
 GePol: Number of generator spheres                  =      21
 GePol: Total number of spheres                      =      21
 GePol: Number of exposed spheres                    =      21 (100.00%)
 GePol: Number of points                             =    1651
 GePol: Average weight of points                     =       0.13
 GePol: Minimum weight of points                     =   0.20D-08
 GePol: Maximum weight of points                     =    0.20577
 GePol: Number of points with low weight             =     105
 GePol: Fraction of low-weight points (<1% of avg)   =       6.36%
 GePol: Cavity surface area                          =    218.063 Ang**2
 GePol: Cavity volume                                =    221.826 Ang**3
 Leave Link  301 at Fri Jun  2 13:40:29 2023, MaxMem=  7381975040 cpu:               0.2 elap:               0.8
 (Enter /software/commercial/gaussian/g16/AVX/g16/l302.exe)
 NPDir=0 NMtPBC=     1 NCelOv=     1 NCel=       1 NClECP=     1 NCelD=      1
         NCelK=      1 NCelE2=     1 NClLst=     1 CellRange=     0.0.
 One-electron integrals computed using PRISM.
 NBasis=   302 RedAO= T EigKep=  1.58D-05  NBF=   302
 NBsUse=   302 1.00D-06 EigRej= -1.00D+00 NBFU=   302
 Precomputing XC quadrature grid using
 IXCGrd= 4 IRadAn=           5 IRanWt=          -1 IRanGd=           0 AccXCQ= 0.00D+00.
 Generated NRdTot=       0 NPtTot=           0 NUsed=           0 NTot=          32
 NSgBfM=   313   313   313   313   313 MxSgAt=    21 MxSgA2=    21.
 Leave Link  302 at Fri Jun  2 13:40:31 2023, MaxMem=  7381975040 cpu:               1.1 elap:               1.3
 (Enter /software/commercial/gaussian/g16/AVX/g16/l303.exe)
 DipDrv:  MaxL=1.
 Leave Link  303 at Fri Jun  2 13:40:32 2023, MaxMem=  7381975040 cpu:               0.2 elap:               0.7
 (Enter /software/commercial/gaussian/g16/AVX/g16/l401.exe)
 Initial guess from the checkpoint file:  "/scratch1/svicchi/G09-659729.pbs02/02-freq/EMIM-CO2_binding-site_index-2-freq.chk"
 B after Tr=     0.000000    0.000000    0.000000
         Rot=    1.000000    0.000000    0.000000    0.000000 Ang=   0.00 deg.
 Guess basis will be translated and rotated to current coordinates.
 JPrj=2 DoOrth=T DoCkMO=T.
 Leave Link  401 at Fri Jun  2 13:40:34 2023, MaxMem=  7381975040 cpu:               0.8 elap:               0.8
 (Enter /software/commercial/gaussian/g16/AVX/g16/l502.exe)
 Keep R1 ints in memory in canonical form, NReq=1062172303.
 FoFCou: FMM=F IPFlag=           0 FMFlag=           0 FMFlg1=           0
         NFxFlg=           0 DoJE=F BraDBF=F KetDBF=F FulRan=T
         wScrn=  0.000000 ICntrl=       600 IOpCl=  0 I1Cent=           0 NGrid=           0
         NMat0=    1 NMatS0=  45753 NMatT0=    0 NMatD0=    1 NMtDS0=    0 NMtDT0=    0
 Symmetry not used in FoFCou.
 Two-electron integral symmetry not used.
 Closed shell SCF:
 Using DIIS extrapolation, IDIIS=  1040.
 NGot=  7381975040 LenX=  6335082978 LenY=  6334984568
 Requested convergence on RMS density matrix=1.00D-08 within 350 cycles.
 Requested convergence on MAX density matrix=1.00D-06.
 Requested convergence on             energy=1.00D-06.
 No special actions if energy rises.

 Cycle   1  Pass 1  IDiag  1:
 Inv3:  Mode=1 IEnd=     8177403.
 Iteration    1 A*A^-1 deviation from unit magnitude is 4.66D-15 for   1637.
 Iteration    1 A*A^-1 deviation from orthogonality  is 3.56D-15 for   1613   1541.
 Iteration    1 A^-1*A deviation from unit magnitude is 4.88D-15 for   1637.
 Iteration    1 A^-1*A deviation from orthogonality  is 2.90D-15 for   1614    420.
 E= -532.931868200092    
 DIIS: error= 1.05D-08 at cycle   1 NSaved=   1.
 NSaved= 1 IEnMin= 1 EnMin= -532.931868200092     IErMin= 1 ErrMin= 1.05D-08
 ErrMax= 1.05D-08  0.00D+00 EMaxC= 1.00D-01 BMatC= 2.91D-14 BMatP= 2.91D-14
 IDIUse=1 WtCom= 1.00D+00 WtEn= 0.00D+00
 Coeff-Com:  0.100D+01
 Coeff:      0.100D+01
 Gap=     0.209 Goal=   None    Shift=    0.000
 RMSDP=1.61D-09 MaxDP=5.11D-08              OVMax= 1.44D-07

 Error on total polarization charges =  0.01469
 SCF Done:  E(RB3LYP) =  -532.931868200     A.U. after    1 cycles
            NFock=  1  Conv=0.16D-08     -V/T= 2.0041
 KE= 5.307399551939D+02 PE=-2.509727630304D+03 EE= 8.130619777241D+02
 Leave Link  502 at Fri Jun  2 13:41:19 2023, MaxMem=  7381975040 cpu:              80.1 elap:              43.8
 (Enter /software/commercial/gaussian/g16/AVX/g16/l508.exe)
 QCSCF skips out because SCF is already converged.
 Leave Link  508 at Fri Jun  2 13:41:20 2023, MaxMem=  7381975040 cpu:               0.1 elap:               0.7
 (Enter /software/commercial/gaussian/g16/AVX/g16/l801.exe)
 DoSCS=F DFT=T ScalE2(SS,OS)=  1.000000  1.000000
 Range of M.O.s used for correlation:     1   302
 NBasis=   302 NAE=    41 NBE=    41 NFC=     0 NFV=     0
 NROrb=    302 NOA=    41 NOB=    41 NVA=   261 NVB=   261

 **** Warning!!: The largest alpha MO coefficient is  0.66647420D+02

 Leave Link  801 at Fri Jun  2 13:41:26 2023, MaxMem=  7381975040 cpu:               0.5 elap:               4.2
 (Enter /software/commercial/gaussian/g16/AVX/g16/l1002.exe)
 Minotr:  Closed shell wavefunction.
 NEqPCM:  Using equilibrium solvation (IEInf=0, Eps=  24.8520, EpsInf=   1.8526)
          Direct CPHF calculation.
          Differentiating once with respect to electric field.
                with respect to dipole field.
          Electric field/nuclear overlap derivatives assumed to be zero.
          Requested convergence is 1.0D-08 RMS, and 1.0D-07 maximum.
          Secondary convergence is 1.0D-12 RMS, and 1.0D-12 maximum.
          NewPWx=F KeepS1=T KeepF1=T KeepIn=T MapXYZ=F SortEE=F KeepMc=T.
         6490 words used for storage of precomputed grid.
 Keep R1 ints in memory in canonical form, NReq=1062181184.
 FoFCou: FMM=F IPFlag=           0 FMFlag=           0 FMFlg1=           0
         NFxFlg=           0 DoJE=F BraDBF=F KetDBF=F FulRan=T
         wScrn=  0.000000 ICntrl=       600 IOpCl=  0 I1Cent=           0 NGrid=           0
         NMat0=    1 NMatS0=  45753 NMatT0=    0 NMatD0=    1 NMtDS0=    0 NMtDT0=    0
 Symmetry not used in FoFCou.
 Two-electron integral symmetry not used.
          MDV=    7381975040 using IRadAn=       1.
          Solving linear equations simultaneously, MaxMat=       0.
          There are     3 degrees of freedom in the 1st order CPHF.  IDoFFX=0 NUNeed=     3.
      3 vectors produced by pass  0 Test12= 3.57D-13 3.33D-08 XBig12= 1.02D+02 4.29D+00.
 AX will form     3 AO Fock derivatives at one time.
      3 vectors produced by pass  1 Test12= 3.57D-13 3.33D-08 XBig12= 4.08D+01 1.45D+00.
      3 vectors produced by pass  2 Test12= 3.57D-13 3.33D-08 XBig12= 8.38D+00 6.41D-01.
      3 vectors produced by pass  3 Test12= 3.57D-13 3.33D-08 XBig12= 1.49D+00 3.67D-01.
      3 vectors produced by pass  4 Test12= 3.57D-13 3.33D-08 XBig12= 2.34D-01 9.56D-02.
      3 vectors produced by pass  5 Test12= 3.57D-13 3.33D-08 XBig12= 4.82D-02 6.32D-02.
      3 vectors produced by pass  6 Test12= 3.57D-13 3.33D-08 XBig12= 1.80D-02 2.08D-02.
      3 vectors produced by pass  7 Test12= 3.57D-13 3.33D-08 XBig12= 1.43D-03 8.48D-03.
      3 vectors produced by pass  8 Test12= 3.57D-13 3.33D-08 XBig12= 2.11D-04 2.88D-03.
      3 vectors produced by pass  9 Test12= 3.57D-13 3.33D-08 XBig12= 1.96D-05 8.76D-04.
      3 vectors produced by pass 10 Test12= 3.57D-13 3.33D-08 XBig12= 9.26D-07 1.84D-04.
      3 vectors produced by pass 11 Test12= 3.57D-13 3.33D-08 XBig12= 4.77D-08 6.53D-05.
      3 vectors produced by pass 12 Test12= 3.57D-13 3.33D-08 XBig12= 1.67D-09 1.06D-05.
      3 vectors produced by pass 13 Test12= 3.57D-13 3.33D-08 XBig12= 6.95D-11 1.97D-06.
      2 vectors produced by pass 14 Test12= 3.57D-13 3.33D-08 XBig12= 1.78D-12 2.46D-07.
 InvSVY:  IOpt=1 It=  1 EMax= 3.55D-15
 Solved reduced A of dimension    44 with     3 vectors.
 End of Minotr F.D. properties file   721 does not exist.
 End of Minotr F.D. properties file   722 does not exist.
 End of Minotr F.D. properties file   788 does not exist.
 Leave Link 1002 at Fri Jun  2 13:45:26 2023, MaxMem=  7381975040 cpu:             453.1 elap:             239.3
 (Enter /software/commercial/gaussian/g16/AVX/g16/l1101.exe)
 Using compressed storage, NAtomX=    21.
 Will process     22 centers per pass.
 R6Disp: Adding Grimme-D3(BJ) dispersion energy 1st derivatives to the gradient.
 Leave Link 1101 at Fri Jun  2 13:45:31 2023, MaxMem=  7381975040 cpu:               2.3 elap:               3.2
 (Enter /software/commercial/gaussian/g16/AVX/g16/l1102.exe)
 Symmetrizing basis deriv contribution to polar:
 IMax=3 JMax=2 DiffMx= 0.00D+00
 Leave Link 1102 at Fri Jun  2 13:45:33 2023, MaxMem=  7381975040 cpu:               0.6 elap:               1.7
 (Enter /software/commercial/gaussian/g16/AVX/g16/l1110.exe)
 Forming Gx(P) for the SCF density, NAtomX=    21.
 Integral derivatives from FoFJK, PRISM(SPDF).
 Do as many integral derivatives as possible in FoFJK.
 G2DrvN: MDV=    7381972741.
 G2DrvN: will do    22 centers at a time, making    1 passes.
 PxScal for G2LodP:  IOpCl= 0 ISclPx=1 IMOff=     1 NMtTot=     4 NTT=   45753 ScalPx= 2.94D+01
 Calling FoFCou, ICntrl=  3107 FMM=F I1Cent=   0 AccDes= 0.00D+00.
 FoFJK:  IHMeth= 1 ICntrl=    3107 DoSepK=F KAlg= 0 I1Cent=           0 FoldK=F
 IRaf=         0 NMat=       1 IRICut=       1 DoRegI=T DoRafI=F ISym2E= 0 IDoP0=0 IntGTp=1.
 FoFCou: FMM=F IPFlag=           0 FMFlag=      100000 FMFlg1=           0
         NFxFlg=           0 DoJE=F BraDBF=F KetDBF=F FulRan=T
         wScrn=  0.000000 ICntrl=      3107 IOpCl=  0 I1Cent=           0 NGrid=           0
         NMat0=    1 NMatS0=      1 NMatT0=    0 NMatD0=    4 NMtDS0=    3 NMtDT0=    0
 Symmetry not used in FoFCou.
 PxScal for G2LodP:  IOpCl= 0 ISclPx=0 IMOff=     1 NMtTot=     4 NTT=   45753 ScalPx= 1.00D+00
 NEqPCM:  Using equilibrium solvation (IEInf=0, Eps=  24.8520, EpsInf=   1.8526)
 G2PCM: DoFxE=T DoFxN=T DoGrad=T DoDP/DQ/DG/TGxP=TFFF NFrqRd=   0 IEInf=0 SqF1=F DoCFld=F IF1Alg=4.
 GePol: Maximum number of non-zero 1st derivatives   =     214
 End of G2Drv F.D. properties file   721 does not exist.
 End of G2Drv F.D. properties file   722 does not exist.
 End of G2Drv F.D. properties file   788 does not exist.
 Leave Link 1110 at Fri Jun  2 13:55:44 2023, MaxMem=  7381975040 cpu:            1209.2 elap:             609.9
 (Enter /software/commercial/gaussian/g16/AVX/g16/l1002.exe)
 Minotr:  Closed shell wavefunction.
          IDoAtm=111111111111111111111
 NEqPCM:  Using equilibrium solvation (IEInf=0, Eps=  24.8520, EpsInf=   1.8526)
          Direct CPHF calculation.
          Differentiating once with respect to electric field.
                with respect to dipole field.
          Differentiating once with respect to nuclear coordinates.
          Requested convergence is 1.0D-08 RMS, and 1.0D-07 maximum.
          Secondary convergence is 1.0D-12 RMS, and 1.0D-12 maximum.
          NewPWx=T KeepS1=F KeepF1=F KeepIn=T MapXYZ=F SortEE=F KeepMc=T.
         6490 words used for storage of precomputed grid.
 Keep R1 ints in memory in canonical form, NReq=1062181667.
 FoFCou: FMM=F IPFlag=           0 FMFlag=           0 FMFlg1=           0
         NFxFlg=           0 DoJE=F BraDBF=F KetDBF=F FulRan=T
         wScrn=  0.000000 ICntrl=       600 IOpCl=  0 I1Cent=           0 NGrid=           0
         NMat0=    1 NMatS0=  45753 NMatT0=    0 NMatD0=    1 NMtDS0=    0 NMtDT0=    0
 Symmetry not used in FoFCou.
 Two-electron integral symmetry not used.
          MDV=    7381975040 using IRadAn=       1.
          Solving linear equations simultaneously, MaxMat=       0.
          There are    66 degrees of freedom in the 1st order CPHF.  IDoFFX=5 NUNeed=    66.
 Will reuse    3 saved solutions.
     60 vectors produced by pass  0 Test12= 1.62D-14 1.52D-09 XBig12= 1.91D-01 8.04D-02.
 AX will form    60 AO Fock derivatives at one time.
     60 vectors produced by pass  1 Test12= 1.62D-14 1.52D-09 XBig12= 2.44D-02 4.40D-02.
     60 vectors produced by pass  2 Test12= 1.62D-14 1.52D-09 XBig12= 3.75D-04 2.47D-03.
     60 vectors produced by pass  3 Test12= 1.62D-14 1.52D-09 XBig12= 1.94D-06 1.41D-04.
     60 vectors produced by pass  4 Test12= 1.62D-14 1.52D-09 XBig12= 4.56D-09 5.66D-06.
     53 vectors produced by pass  5 Test12= 1.62D-14 1.52D-09 XBig12= 6.65D-12 2.17D-07.
     14 vectors produced by pass  6 Test12= 1.62D-14 1.52D-09 XBig12= 9.86D-15 1.25D-08.
 InvSVY:  IOpt=1 It=  1 EMax= 3.89D-16
 Solved reduced A of dimension   367 with    66 vectors.
 FullF1:  Do perturbations      1 to       3.
 Isotropic polarizability for W=    0.000000      131.99 Bohr**3.
 FullF1:  Do perturbations      1 to       6.
 End of Minotr F.D. properties file   721 does not exist.
 End of Minotr F.D. properties file   722 does not exist.
 End of Minotr F.D. properties file   788 does not exist.
 Leave Link 1002 at Fri Jun  2 14:06:10 2023, MaxMem=  7381975040 cpu:            1224.3 elap:             624.0
 (Enter /software/commercial/gaussian/g16/AVX/g16/l601.exe)
 Copying SCF densities to generalized density rwf, IOpCl= 0 IROHF=0.

 **********************************************************************

            Population analysis using the SCF Density.

 **********************************************************************

 Alpha  occ. eigenvalues --  -19.08436 -19.08422 -14.41530 -14.41271 -10.28872
 Alpha  occ. eigenvalues --  -10.28000 -10.23585 -10.23514 -10.22793 -10.21937
 Alpha  occ. eigenvalues --  -10.17099  -1.08617  -1.04946  -0.97408  -0.96027
 Alpha  occ. eigenvalues --   -0.81685  -0.79161  -0.74157  -0.67239  -0.64872
 Alpha  occ. eigenvalues --   -0.63690  -0.57413  -0.52711  -0.51414  -0.49619
 Alpha  occ. eigenvalues --   -0.48101  -0.47397  -0.46088  -0.45153  -0.44847
 Alpha  occ. eigenvalues --   -0.43046  -0.41852  -0.41328  -0.39849  -0.38885
 Alpha  occ. eigenvalues --   -0.36835  -0.31800  -0.28414  -0.27462  -0.27195
 Alpha  occ. eigenvalues --   -0.25622
 Alpha virt. eigenvalues --   -0.04756  -0.00734   0.00277   0.01623   0.02294
 Alpha virt. eigenvalues --    0.02554   0.03894   0.04212   0.04398   0.04845
 Alpha virt. eigenvalues --    0.05992   0.06227   0.06821   0.07129   0.07810
 Alpha virt. eigenvalues --    0.08201   0.09149   0.09794   0.10340   0.10835
 Alpha virt. eigenvalues --    0.11266   0.11587   0.12523   0.13650   0.14058
 Alpha virt. eigenvalues --    0.14876   0.15113   0.15542   0.16220   0.16713
 Alpha virt. eigenvalues --    0.17550   0.17916   0.19082   0.19361   0.19738
 Alpha virt. eigenvalues --    0.20430   0.20902   0.21572   0.22102   0.22647
 Alpha virt. eigenvalues --    0.22977   0.23419   0.23597   0.24443   0.24689
 Alpha virt. eigenvalues --    0.25424   0.25973   0.26712   0.27144   0.27494
 Alpha virt. eigenvalues --    0.28753   0.29095   0.30335   0.30691   0.31052
 Alpha virt. eigenvalues --    0.31943   0.32183   0.32701   0.34295   0.35652
 Alpha virt. eigenvalues --    0.36462   0.37321   0.39249   0.39688   0.41282
 Alpha virt. eigenvalues --    0.42750   0.43783   0.44256   0.45012   0.49127
 Alpha virt. eigenvalues --    0.49613   0.50755   0.52949   0.53519   0.54909
 Alpha virt. eigenvalues --    0.56371   0.56943   0.58173   0.59787   0.60744
 Alpha virt. eigenvalues --    0.63238   0.63953   0.65430   0.65502   0.66323
 Alpha virt. eigenvalues --    0.66687   0.67081   0.67690   0.69513   0.70326
 Alpha virt. eigenvalues --    0.71905   0.72973   0.73564   0.73680   0.74807
 Alpha virt. eigenvalues --    0.75892   0.76713   0.78482   0.80517   0.84034
 Alpha virt. eigenvalues --    0.85075   0.85937   0.87624   0.89670   0.96403
 Alpha virt. eigenvalues --    0.98113   0.98614   0.99862   1.01904   1.02676
 Alpha virt. eigenvalues --    1.04767   1.05612   1.06186   1.08745   1.11457
 Alpha virt. eigenvalues --    1.13662   1.17122   1.18254   1.19390   1.20085
 Alpha virt. eigenvalues --    1.21595   1.24068   1.28530   1.30080   1.30790
 Alpha virt. eigenvalues --    1.33239   1.34589   1.39001   1.41624   1.43275
 Alpha virt. eigenvalues --    1.44768   1.46781   1.47498   1.49150   1.51322
 Alpha virt. eigenvalues --    1.53441   1.54055   1.55333   1.56046   1.57246
 Alpha virt. eigenvalues --    1.59095   1.59587   1.60438   1.62548   1.64188
 Alpha virt. eigenvalues --    1.64814   1.67681   1.68167   1.68400   1.70452
 Alpha virt. eigenvalues --    1.72155   1.74800   1.75298   1.77751   1.78873
 Alpha virt. eigenvalues --    1.80054   1.81789   1.83791   1.84984   1.87760
 Alpha virt. eigenvalues --    1.91134   1.93799   1.97550   2.00999   2.03197
 Alpha virt. eigenvalues --    2.05003   2.07605   2.08009   2.10826   2.11565
 Alpha virt. eigenvalues --    2.13842   2.16276   2.18437   2.20643   2.22019
 Alpha virt. eigenvalues --    2.29590   2.30425   2.39365   2.42259   2.43617
 Alpha virt. eigenvalues --    2.45162   2.47275   2.48154   2.48335   2.49520
 Alpha virt. eigenvalues --    2.52834   2.54280   2.57126   2.57457   2.58314
 Alpha virt. eigenvalues --    2.59827   2.60831   2.63185   2.64743   2.66710
 Alpha virt. eigenvalues --    2.67124   2.67994   2.73396   2.75198   2.77737
 Alpha virt. eigenvalues --    2.78188   2.80955   2.82952   2.85462   2.86334
 Alpha virt. eigenvalues --    2.88508   2.89602   2.91351   2.92984   2.95245
 Alpha virt. eigenvalues --    2.97086   2.97595   2.99882   3.01115   3.14767
 Alpha virt. eigenvalues --    3.21011   3.27611   3.28514   3.31973   3.37982
 Alpha virt. eigenvalues --    3.42760   3.43402   3.55713   3.58944   3.62268
 Alpha virt. eigenvalues --    3.66346   3.70950   3.72022   3.73680   3.79678
 Alpha virt. eigenvalues --    3.80835   3.82538   3.84401   3.85447   3.90037
 Alpha virt. eigenvalues --    3.93272   4.07299   4.10726   4.13770   4.23092
 Alpha virt. eigenvalues --    4.71201   4.91625   4.94053   5.08094   5.09611
 Alpha virt. eigenvalues --    5.16708   5.22494   5.26995   5.60910   5.89378
 Alpha virt. eigenvalues --   23.74940  23.79767  23.86391  23.88669  23.92678
 Alpha virt. eigenvalues --   23.97739  24.17639  35.44921  35.60514  49.94112
 Alpha virt. eigenvalues --   50.04175
     Molecular Orbital Coefficients:
                           1         2         3         4         5
                           O         O         O         O         O
     Eigenvalues --   -19.08436 -19.08422 -14.41530 -14.41271 -10.28872
   1 1   C  1S         -0.00000   0.00000  -0.00000   0.00001  -0.00001
   2        2S          0.00001  -0.00000   0.00002  -0.00002  -0.00000
   3        2PX        -0.00000   0.00003  -0.00001  -0.00008   0.00002
   4        2PY        -0.00001  -0.00001  -0.00007  -0.00027  -0.00003
   5        2PZ         0.00001   0.00000  -0.00001  -0.00013   0.00002
   6        3S         -0.00008  -0.00004  -0.00013   0.00005  -0.00004
   7        3PX        -0.00002  -0.00007   0.00006   0.00004  -0.00009
   8        3PY         0.00007  -0.00001   0.00038   0.00046   0.00010
   9        3PZ        -0.00008   0.00002   0.00010   0.00043  -0.00012
  10        4S          0.00012   0.00133  -0.00146   0.00350   0.00099
  11        4PX         0.00005   0.00058   0.00133  -0.00034   0.00016
  12        4PY         0.00005  -0.00014  -0.00029  -0.00143   0.00020
  13        4PZ        -0.00026   0.00014   0.00075  -0.00027  -0.00042
  14        5S         -0.00672  -0.00579  -0.00553  -0.00489  -0.01541
  15        5PX        -0.00102  -0.00065   0.00123  -0.00194  -0.00309
  16        5PY         0.00091   0.00025   0.00197  -0.00060  -0.00028
  17        5PZ         0.00080   0.00177   0.00050   0.00117   0.00256
  18        6D 0       -0.00003   0.00003   0.00011   0.00021   0.00000
  19        6D+1       -0.00001  -0.00002   0.00003  -0.00011  -0.00002
  20        6D-1        0.00004  -0.00004  -0.00009  -0.00025   0.00002
  21        6D+2       -0.00000   0.00001   0.00004   0.00028   0.00003
  22        6D-2       -0.00001   0.00005  -0.00002  -0.00026   0.00003
  23 2   N  1S         -0.00000  -0.00000  -0.00249   0.55736   0.00000
  24        2S          0.00001   0.00001  -0.00200   0.46565   0.00002
  25        2PX         0.00001   0.00002   0.00003  -0.00004   0.00004
  26        2PY        -0.00001  -0.00003  -0.00006  -0.00002  -0.00004
  27        2PZ         0.00003  -0.00001   0.00004   0.00001   0.00005
  28        3S          0.00001  -0.00009  -0.00054   0.01669  -0.00012
  29        3PX        -0.00003  -0.00007  -0.00014  -0.00008  -0.00015
  30        3PY         0.00002   0.00016   0.00041  -0.00091   0.00022
  31        3PZ        -0.00014   0.00006  -0.00018  -0.00018  -0.00019
  32        4S         -0.00094   0.00154   0.00045  -0.01995   0.00105
  33        4PX        -0.00029  -0.00035   0.00065  -0.00024   0.00001
  34        4PY         0.00024  -0.00094   0.00120   0.00276  -0.00131
  35        4PZ         0.00037  -0.00079   0.00078  -0.00001   0.00008
  36        5S         -0.00482   0.00459  -0.00963   0.00926   0.00567
  37        5PX        -0.00116   0.00022   0.00584  -0.00042   0.00062
  38        5PY         0.00262   0.00166   0.01156  -0.00348  -0.00115
  39        5PZ        -0.00117  -0.00075   0.00537  -0.00054   0.00146
  40        6D 0        0.00000   0.00004   0.00002  -0.00008  -0.00001
  41        6D+1       -0.00003  -0.00001   0.00001   0.00037  -0.00003
  42        6D-1        0.00001   0.00004   0.00017  -0.00011   0.00011
  43        6D+2       -0.00002   0.00004   0.00003  -0.00022   0.00000
  44        6D-2        0.00005   0.00004   0.00014  -0.00006   0.00008
  45 3   C  1S         -0.00001  -0.00001  -0.00000  -0.00000   0.00669
  46        2S          0.00005   0.00005   0.00008   0.00009   0.00547
  47        2PX         0.00006   0.00008  -0.00026  -0.00014   0.00027
  48        2PY        -0.00004  -0.00000  -0.00038   0.00046  -0.00008
  49        2PZ         0.00008   0.00009  -0.00026  -0.00017   0.00031
  50        3S         -0.00025  -0.00022   0.00014   0.00008   0.00080
  51        3PX        -0.00033  -0.00043   0.00077   0.00042  -0.00060
  52        3PY         0.00016   0.00007   0.00111  -0.00131   0.00019
  53        3PZ        -0.00042  -0.00051   0.00074   0.00051  -0.00068
  54        4S          0.00029   0.00107   0.00598   0.00513  -0.00162
  55        4PX         0.00306   0.00001  -0.00642  -0.00348   0.00381
  56        4PY         0.00284  -0.00307  -0.00474   0.00652  -0.00140
  57        4PZ         0.00127   0.00205  -0.00641  -0.00455   0.00430
  58        5S          0.01233   0.01461  -0.01160  -0.01061   0.00304
  59        5PX         0.00212   0.00177  -0.00426  -0.00489   0.00568
  60        5PY         0.00373  -0.00170   0.00274  -0.00322  -0.00221
  61        5PZ         0.00310   0.00233  -0.00442  -0.00428   0.00742
  62        6D 0       -0.00022  -0.00004   0.00002   0.00028  -0.00023
  63        6D+1       -0.00009  -0.00021  -0.00025   0.00012  -0.00051
  64        6D-1        0.00011  -0.00008  -0.00076   0.00065   0.00020
  65        6D+2        0.00000  -0.00026  -0.00005   0.00052  -0.00029
  66        6D-2        0.00016   0.00008  -0.00068   0.00056   0.00006
  67 4   N  1S         -0.00000   0.00000   0.55737   0.00248   0.00000
  68        2S          0.00002   0.00000   0.46564   0.00215   0.00002
  69        2PX        -0.00001   0.00002   0.00006   0.00004   0.00004
  70        2PY         0.00003   0.00000  -0.00004   0.00004   0.00002
  71        2PZ         0.00003   0.00001  -0.00006   0.00006   0.00004
  72        3S         -0.00022   0.00007   0.01674  -0.00039  -0.00014
  73        3PX         0.00003  -0.00009   0.00010  -0.00025  -0.00016
  74        3PY        -0.00015  -0.00003   0.00099  -0.00030  -0.00013
  75        3PZ        -0.00012  -0.00004   0.00012  -0.00031  -0.00018
  76        4S          0.00257  -0.00125  -0.02092   0.00029   0.00119
  77        4PX        -0.00021  -0.00013  -0.00084   0.00055   0.00001
  78        4PY         0.00124   0.00017  -0.00321  -0.00130   0.00145
  79        4PZ         0.00035  -0.00065  -0.00097   0.00089   0.00006
  80        5S          0.00512  -0.00210   0.00975  -0.00676   0.00192
  81        5PX         0.00046  -0.00120  -0.00005   0.00212   0.00118
  82        5PY         0.00317   0.00103   0.00867  -0.00703   0.00294
  83        5PZ         0.00041  -0.00180  -0.00018   0.00227  -0.00018
  84        6D 0       -0.00000  -0.00004  -0.00006  -0.00005  -0.00003
  85        6D+1       -0.00001  -0.00004   0.00040  -0.00007  -0.00006
  86        6D-1       -0.00005  -0.00004   0.00006  -0.00013  -0.00006
  87        6D+2        0.00002   0.00000  -0.00018  -0.00009  -0.00007
  88        6D-2       -0.00005   0.00000   0.00006  -0.00012  -0.00007
  89 5   C  1S         -0.00000  -0.00000   0.00001  -0.00000  -0.00001
  90        2S          0.00000   0.00001  -0.00003   0.00002   0.00000
  91        2PX         0.00001   0.00003  -0.00005  -0.00001   0.00003
  92        2PY         0.00000   0.00001   0.00033   0.00007   0.00001
  93        2PZ         0.00003   0.00001  -0.00003   0.00000   0.00004
  94        3S          0.00004  -0.00017   0.00008  -0.00013  -0.00009
  95        3PX        -0.00008  -0.00011   0.00013   0.00001  -0.00010
  96        3PY         0.00006  -0.00004  -0.00071  -0.00040  -0.00000
  97        3PZ        -0.00012  -0.00007   0.00007  -0.00003  -0.00020
  98        4S          0.00036   0.00142   0.00429  -0.00100   0.00151
  99        4PX        -0.00007   0.00049  -0.00020   0.00031  -0.00006
 100        4PY         0.00002   0.00044   0.00161   0.00006   0.00028
 101        4PZ        -0.00024   0.00056   0.00012   0.00005   0.00007
 102        5S          0.00453   0.00064   0.00507  -0.00697   0.00305
 103        5PX         0.00063   0.00035  -0.00023   0.00012   0.00056
 104        5PY         0.00122   0.00019   0.00138  -0.00219   0.00082
 105        5PZ         0.00038  -0.00012  -0.00014  -0.00009   0.00064
 106        6D 0       -0.00006   0.00001   0.00028   0.00006  -0.00003
 107        6D+1       -0.00005  -0.00000  -0.00008   0.00002  -0.00005
 108        6D-1       -0.00002   0.00002   0.00011   0.00002   0.00000
 109        6D+2        0.00000  -0.00001   0.00048   0.00009   0.00001
 110        6D-2        0.00003  -0.00001   0.00012   0.00003  -0.00001
 111 6   C  1S         -0.00000  -0.00000   0.00001  -0.00001  -0.00001
 112        2S          0.00000   0.00001   0.00002   0.00004   0.00001
 113        2PX         0.00001   0.00001   0.00024  -0.00003   0.00000
 114        2PY        -0.00000  -0.00000  -0.00023   0.00011  -0.00001
 115        2PZ         0.00003  -0.00000   0.00028  -0.00003   0.00002
 116        3S          0.00002  -0.00005   0.00034  -0.00024  -0.00019
 117        3PX        -0.00009  -0.00002  -0.00057  -0.00010  -0.00006
 118        3PY         0.00001   0.00003   0.00070  -0.00106   0.00004
 119        3PZ        -0.00014   0.00001  -0.00066  -0.00010  -0.00015
 120        4S         -0.00230  -0.00013   0.00523  -0.00039  -0.00022
 121        4PX        -0.00045   0.00031   0.00305  -0.00159  -0.00002
 122        4PY        -0.00052   0.00032   0.00086  -0.00171  -0.00011
 123        4PZ        -0.00056   0.00040   0.00339  -0.00171   0.00030
 124        5S         -0.00419   0.00354  -0.01461   0.00893   0.00497
 125        5PX        -0.00046  -0.00034  -0.00145   0.00186   0.00073
 126        5PY        -0.00097   0.00155  -0.00054  -0.00002  -0.00012
 127        5PZ        -0.00027  -0.00012  -0.00185   0.00177   0.00099
 128        6D 0       -0.00001  -0.00000  -0.00034   0.00022  -0.00001
 129        6D+1       -0.00003  -0.00001  -0.00042   0.00030   0.00002
 130        6D-1        0.00005  -0.00002   0.00055   0.00009   0.00002
 131        6D+2       -0.00000  -0.00001  -0.00045   0.00033  -0.00003
 132        6D-2        0.00000   0.00001   0.00051   0.00006   0.00002
 133 7   C  1S         -0.00000  -0.00000  -0.00001   0.00001  -0.00001
 134        2S          0.00001   0.00001   0.00004   0.00002   0.00001
 135        2PX        -0.00002   0.00002  -0.00006   0.00029   0.00002
 136        2PY         0.00000  -0.00001  -0.00008   0.00009   0.00000
 137        2PZ        -0.00000   0.00002  -0.00006   0.00032   0.00000
 138        3S         -0.00008   0.00001  -0.00030   0.00028  -0.00018
 139        3PX         0.00007  -0.00010   0.00017  -0.00075  -0.00011
 140        3PY        -0.00001   0.00007   0.00101  -0.00035   0.00003
 141        3PZ         0.00002  -0.00009   0.00013  -0.00085  -0.00005
 142        4S          0.00147  -0.00178  -0.00023   0.00556   0.00051
 143        4PX         0.00041  -0.00055  -0.00145   0.00250   0.00049
 144        4PY        -0.00111  -0.00022   0.00245  -0.00209  -0.00004
 145        4PZ         0.00039  -0.00045  -0.00148   0.00276   0.00025
 146        5S          0.00172  -0.00629   0.01454  -0.00905   0.00151
 147        5PX        -0.00031  -0.00007   0.00106  -0.00189   0.00034
 148        5PY        -0.00086   0.00180  -0.00235  -0.00002   0.00021
 149        5PZ        -0.00067  -0.00016   0.00165  -0.00169   0.00043
 150        6D 0       -0.00002  -0.00001   0.00013  -0.00051  -0.00002
 151        6D+1        0.00002  -0.00004   0.00021  -0.00057   0.00003
 152        6D-1       -0.00000   0.00001  -0.00031  -0.00011  -0.00002
 153        6D+2        0.00000  -0.00002   0.00017  -0.00073  -0.00004
 154        6D-2        0.00003  -0.00002  -0.00030  -0.00009  -0.00002
 155 8   C  1S         -0.00000   0.00000   0.00000  -0.00000   0.00000
 156        2S          0.00000  -0.00001  -0.00001   0.00001  -0.00000
 157        2PX        -0.00000  -0.00001   0.00001  -0.00006  -0.00000
 158        2PY        -0.00001   0.00001  -0.00001  -0.00003   0.00002
 159        2PZ        -0.00000   0.00000   0.00001   0.00005  -0.00001
 160        3S         -0.00005   0.00015   0.00017  -0.00008   0.00005
 161        3PX        -0.00000   0.00002  -0.00003   0.00038  -0.00000
 162        3PY         0.00003  -0.00006  -0.00000   0.00018  -0.00010
 163        3PZ        -0.00000   0.00002  -0.00001  -0.00028   0.00005
 164        4S          0.00025  -0.00093  -0.00144   0.00012  -0.00015
 165        4PX         0.00011   0.00034   0.00009  -0.00015   0.00047
 166        4PY        -0.00023   0.00058   0.00068  -0.00026   0.00029
 167        4PZ        -0.00022  -0.00051  -0.00073  -0.00018  -0.00059
 168        5S          0.00319   0.00448  -0.00048   0.00786   0.01622
 169        5PX        -0.00052  -0.00084   0.00001  -0.00150  -0.00246
 170        5PY        -0.00049  -0.00062  -0.00007  -0.00137  -0.00267
 171        5PZ         0.00034   0.00022  -0.00027   0.00090   0.00245
 172        6D 0        0.00002  -0.00002  -0.00001  -0.00001   0.00002
 173        6D+1        0.00002   0.00004   0.00003   0.00010   0.00005
 174        6D-1       -0.00000   0.00003   0.00004   0.00011   0.00002
 175        6D+2       -0.00001  -0.00002   0.00003  -0.00008  -0.00002
 176        6D-2       -0.00001  -0.00002  -0.00002  -0.00008  -0.00001
 177 9   H  1S         -0.00005   0.00008   0.00003   0.00002   0.00002
 178        2S          0.00026  -0.00066  -0.00057  -0.00123  -0.00023
 179        3S          0.00060  -0.00026  -0.00197   0.00072   0.00014
 180        4PX        -0.00002  -0.00004  -0.00002   0.00012  -0.00004
 181        4PY        -0.00008   0.00009   0.00001   0.00002   0.00005
 182        4PZ        -0.00005   0.00005   0.00012   0.00030  -0.00006
 183 10  H  1S          0.00000   0.00001  -0.00004  -0.00000   0.00001
 184        2S         -0.00006  -0.00010   0.00041  -0.00091  -0.00022
 185        3S         -0.00002  -0.00014  -0.00105   0.00080   0.00051
 186        4PX        -0.00002  -0.00000   0.00002  -0.00019  -0.00004
 187        4PY         0.00002   0.00001   0.00001   0.00018  -0.00001
 188        4PZ         0.00002  -0.00002  -0.00002  -0.00003   0.00001
 189 11  H  1S         -0.00006   0.00002   0.00001  -0.00001  -0.00003
 190        2S          0.00029  -0.00027  -0.00108  -0.00014   0.00005
 191        3S         -0.00036  -0.00054   0.00059  -0.00031  -0.00120
 192        4PX        -0.00005   0.00002   0.00012  -0.00001  -0.00002
 193        4PY         0.00002  -0.00000  -0.00011   0.00002  -0.00003
 194        4PZ        -0.00009   0.00002   0.00026   0.00005  -0.00008
 195 12  H  1S         -0.00005   0.00002  -0.00004   0.00002   0.00000
 196        2S          0.00015  -0.00016  -0.00092  -0.00021  -0.00012
 197        3S         -0.00031  -0.00006   0.00102  -0.00044  -0.00016
 198        4PX         0.00002  -0.00000   0.00019  -0.00000   0.00004
 199        4PY         0.00003  -0.00003  -0.00013  -0.00005  -0.00003
 200        4PZ         0.00004  -0.00005  -0.00022  -0.00006  -0.00004
 201 13  H  1S          0.00000   0.00001   0.00001   0.00000   0.00000
 202        2S         -0.00010  -0.00010  -0.00103  -0.00003  -0.00020
 203        3S          0.00021   0.00071   0.00099  -0.00013   0.00056
 204        4PX        -0.00003  -0.00001  -0.00025  -0.00004  -0.00004
 205        4PY        -0.00001  -0.00000  -0.00015  -0.00004   0.00001
 206        4PZ         0.00001  -0.00002  -0.00007  -0.00001   0.00001
 207 14  H  1S         -0.00000  -0.00002  -0.00014   0.00002  -0.00002
 208        2S         -0.00006   0.00022   0.00011  -0.00136   0.00002
 209        3S         -0.00003  -0.00002   0.00190  -0.00048  -0.00002
 210        4PX        -0.00001   0.00002  -0.00023  -0.00019  -0.00001
 211        4PY        -0.00001   0.00002   0.00012  -0.00020   0.00000
 212        4PZ        -0.00000   0.00000  -0.00028  -0.00021  -0.00003
 213 15  H  1S         -0.00002  -0.00001   0.00003  -0.00013  -0.00000
 214        2S          0.00023   0.00007  -0.00147  -0.00014  -0.00013
 215        3S          0.00023  -0.00010  -0.00084   0.00197   0.00063
 216        4PX         0.00001   0.00001  -0.00014  -0.00028  -0.00004
 217        4PY        -0.00002   0.00001   0.00031   0.00004   0.00002
 218        4PZ         0.00002   0.00000  -0.00016  -0.00031  -0.00002
 219 16  H  1S         -0.00001   0.00002   0.00001   0.00007  -0.00002
 220        2S          0.00005   0.00008   0.00006  -0.00041   0.00030
 221        3S         -0.00060  -0.00038  -0.00003  -0.00016  -0.00212
 222        4PX         0.00002   0.00003   0.00000   0.00018   0.00007
 223        4PY         0.00001   0.00005   0.00003   0.00000   0.00005
 224        4PZ         0.00000  -0.00006   0.00001   0.00001  -0.00004
 225 17  H  1S         -0.00001  -0.00001  -0.00001  -0.00004  -0.00004
 226        2S          0.00005   0.00004   0.00009   0.00002   0.00022
 227        3S          0.00027  -0.00009  -0.00029   0.00015  -0.00080
 228        4PX        -0.00001  -0.00000   0.00001  -0.00000  -0.00001
 229        4PY        -0.00002  -0.00003  -0.00004   0.00004  -0.00004
 230        4PZ         0.00002   0.00004   0.00003   0.00004   0.00003
 231 18  H  1S          0.00002  -0.00001   0.00001   0.00005  -0.00002
 232        2S         -0.00016   0.00012  -0.00007  -0.00036   0.00006
 233        3S          0.00000  -0.00071  -0.00089  -0.00019  -0.00068
 234        4PX        -0.00001   0.00000   0.00000  -0.00000  -0.00003
 235        4PY         0.00000  -0.00001  -0.00002   0.00010  -0.00003
 236        4PZ        -0.00003   0.00001  -0.00001  -0.00012   0.00000
 237 19  C  1S         -0.00001  -0.00002  -0.00000  -0.00000   0.56302
 238        2S          0.00006   0.00007   0.00003   0.00003   0.46329
 239        2PX        -0.00008   0.00029  -0.00005  -0.00006  -0.00025
 240        2PY        -0.00033   0.00022  -0.00005   0.00005   0.00004
 241        2PZ         0.00023   0.00007  -0.00006  -0.00003  -0.00026
 242        3S          0.00042   0.00051  -0.00020  -0.00017   0.01831
 243        3PX         0.00013  -0.00067   0.00019   0.00028   0.00094
 244        3PY         0.00074  -0.00046   0.00016  -0.00011  -0.00011
 245        3PZ        -0.00052  -0.00020   0.00022   0.00013   0.00097
 246        4S         -0.00019   0.00008   0.00407   0.00303  -0.01606
 247        4PX        -0.00276   0.00504  -0.00007  -0.00217   0.00167
 248        4PY        -0.00696   0.00512   0.00331  -0.00217  -0.00099
 249        4PZ         0.00399  -0.00026  -0.00209  -0.00083   0.00250
 250        5S         -0.01386  -0.01526   0.01277   0.01140  -0.02032
 251        5PX         0.00327   0.00191  -0.00177  -0.00141   0.00339
 252        5PY         0.00091  -0.00139   0.00072   0.00117  -0.00027
 253        5PZ         0.00196   0.00306  -0.00245  -0.00199   0.00403
 254        6D 0        0.00000   0.00047  -0.00018  -0.00003  -0.00062
 255        6D+1        0.00038   0.00020  -0.00014  -0.00008  -0.00012
 256        6D-1        0.00058  -0.00014  -0.00021   0.00018  -0.00110
 257        6D+2        0.00048  -0.00002  -0.00015  -0.00007  -0.00043
 258        6D-2       -0.00011  -0.00070  -0.00006   0.00030   0.00159
 259 20  O  1S          0.54926   0.04744   0.00000   0.00000  -0.00007
 260        2S          0.46798   0.04047   0.00002   0.00001  -0.00006
 261        2PX         0.00023   0.00005   0.00002  -0.00002   0.00008
 262        2PY         0.00082   0.00011   0.00001   0.00000   0.00037
 263        2PZ        -0.00063  -0.00008  -0.00002  -0.00002  -0.00029
 264        3S          0.01385   0.00083  -0.00017  -0.00004   0.00052
 265        3PX         0.00011  -0.00009  -0.00009   0.00008  -0.00022
 266        3PY         0.00049  -0.00014  -0.00008  -0.00003  -0.00106
 267        3PZ        -0.00040   0.00009   0.00008   0.00009   0.00085
 268        4S         -0.01185   0.00119   0.00101  -0.00065  -0.00365
 269        4PX        -0.00018  -0.00050   0.00026  -0.00017  -0.00034
 270        4PY        -0.00156   0.00027   0.00024  -0.00003  -0.00127
 271        4PZ         0.00146  -0.00082  -0.00023   0.00005   0.00100
 272        5S          0.00291   0.00411   0.00170  -0.00171   0.00572
 273        5PX        -0.00058  -0.00017   0.00011   0.00003  -0.00041
 274        5PY        -0.00055   0.00074   0.00028  -0.00039   0.00165
 275        5PZ         0.00001  -0.00104  -0.00029   0.00077  -0.00233
 276        6D 0       -0.00001   0.00011  -0.00000  -0.00003  -0.00007
 277        6D+1       -0.00007   0.00008   0.00000   0.00003   0.00011
 278        6D-1       -0.00019  -0.00004   0.00002   0.00000   0.00082
 279        6D+2       -0.00013   0.00001   0.00001   0.00001   0.00044
 280        6D-2        0.00010  -0.00015  -0.00002   0.00003  -0.00023
 281 21  O  1S         -0.04744   0.54926   0.00000   0.00000  -0.00007
 282        2S         -0.04037   0.46798   0.00000   0.00001  -0.00006
 283        2PX         0.00004  -0.00081  -0.00001  -0.00002  -0.00037
 284        2PY         0.00002  -0.00071  -0.00001  -0.00003  -0.00030
 285        2PZ         0.00002  -0.00001  -0.00002   0.00002  -0.00004
 286        3S         -0.00156   0.01382   0.00003  -0.00009   0.00054
 287        3PX         0.00021  -0.00050   0.00005   0.00009   0.00110
 288        3PY         0.00020  -0.00032   0.00004   0.00014   0.00089
 289        3PZ        -0.00005  -0.00010   0.00007  -0.00009   0.00011
 290        4S          0.00323  -0.01151  -0.00108   0.00058  -0.00361
 291        4PX        -0.00106   0.00169   0.00036  -0.00008   0.00125
 292        4PY        -0.00015   0.00098   0.00005  -0.00028   0.00092
 293        4PZ        -0.00066   0.00038  -0.00006   0.00024   0.00013
 294        5S          0.00316   0.00328  -0.00229   0.00183   0.00740
 295        5PX        -0.00106  -0.00013   0.00068  -0.00065  -0.00318
 296        5PY        -0.00041   0.00076  -0.00013  -0.00031  -0.00153
 297        5PZ        -0.00062  -0.00069   0.00034  -0.00010  -0.00138
 298        6D 0        0.00005  -0.00012   0.00003   0.00003   0.00046
 299        6D+1        0.00013   0.00001   0.00001  -0.00001  -0.00016
 300        6D-1        0.00010   0.00002  -0.00003   0.00002  -0.00004
 301        6D+2        0.00011   0.00004  -0.00003  -0.00001  -0.00020
 302        6D-2       -0.00009   0.00021   0.00000  -0.00003  -0.00082
                           6         7         8         9        10
                           O         O         O         O         O
     Eigenvalues --   -10.28000 -10.23585 -10.23514 -10.22793 -10.21937
   1 1   C  1S         -0.00005  -0.00029   0.00011   0.56302   0.00005
   2        2S         -0.00001  -0.00021   0.00010   0.46319   0.00005
   3        2PX        -0.00002   0.00002  -0.00002  -0.00024   0.00001
   4        2PY        -0.00005  -0.00003  -0.00001  -0.00088  -0.00001
   5        2PZ        -0.00005   0.00001  -0.00001  -0.00055   0.00001
   6        3S         -0.00021  -0.00040  -0.00004   0.01990  -0.00010
   7        3PX         0.00012  -0.00007   0.00009  -0.00047  -0.00005
   8        3PY         0.00040   0.00022   0.00001   0.00103   0.00005
   9        3PZ         0.00024   0.00007   0.00004   0.00174  -0.00002
  10        4S         -0.00239   0.00184  -0.00007  -0.01972   0.00094
  11        4PX         0.00201  -0.00013  -0.00024  -0.00019  -0.00007
  12        4PY         0.00088  -0.00057   0.00007   0.00284   0.00010
  13        4PZ        -0.00005  -0.00005  -0.00015   0.00218  -0.00085
  14        5S         -0.01350  -0.01450  -0.00651  -0.05152  -0.00194
  15        5PX        -0.00164  -0.00520   0.00217  -0.00487  -0.00032
  16        5PY        -0.00010  -0.00238   0.00320   0.00544  -0.00008
  17        5PZ         0.00282   0.00378   0.00003   0.00769   0.00061
  18        6D 0        0.00012   0.00003  -0.00000   0.00050   0.00000
  19        6D+1        0.00001   0.00011  -0.00002   0.00034   0.00001
  20        6D-1       -0.00015   0.00002  -0.00001  -0.00037   0.00003
  21        6D+2       -0.00000   0.00009  -0.00002   0.00053   0.00004
  22        6D-2       -0.00007  -0.00005   0.00000  -0.00089  -0.00000
  23 2   N  1S         -0.00006  -0.00004   0.00003  -0.00003   0.00000
  24        2S         -0.00003  -0.00003   0.00006  -0.00006   0.00002
  25        2PX         0.00013  -0.00020   0.00009   0.00004   0.00001
  26        2PY        -0.00043  -0.00005   0.00011   0.00019  -0.00002
  27        2PZ         0.00017  -0.00022   0.00012   0.00007   0.00002
  28        3S          0.00082   0.00059  -0.00048   0.00030  -0.00015
  29        3PX        -0.00038   0.00039   0.00012   0.00008  -0.00007
  30        3PY         0.00105   0.00015  -0.00031  -0.00010   0.00012
  31        3PZ        -0.00051   0.00043   0.00008  -0.00002  -0.00008
  32        4S         -0.00622  -0.00346  -0.00167   0.00293   0.00132
  33        4PX         0.00072   0.00105  -0.00069  -0.00028   0.00045
  34        4PY         0.00471   0.00055   0.00093   0.00024  -0.00147
  35        4PZ         0.00104   0.00113  -0.00055  -0.00060   0.00065
  36        5S          0.01325   0.01256  -0.03044   0.01025   0.01061
  37        5PX         0.00743  -0.00698   0.00546   0.00935   0.00016
  38        5PY         0.00075  -0.00227   0.01725   0.02217  -0.00485
  39        5PZ         0.00642  -0.00835   0.00560   0.00712  -0.00052
  40        6D 0        0.00039  -0.00021  -0.00002   0.00010  -0.00000
  41        6D+1       -0.00030  -0.00064   0.00028   0.00001  -0.00001
  42        6D-1        0.00057  -0.00013   0.00018  -0.00022   0.00001
  43        6D+2        0.00076  -0.00021  -0.00009   0.00022  -0.00000
  44        6D-2        0.00044  -0.00011   0.00017  -0.00015   0.00000
  45 3   C  1S          0.56288   0.00004   0.00000   0.00004   0.00003
  46        2S          0.46329   0.00002  -0.00000   0.00006   0.00005
  47        2PX        -0.00051   0.00005   0.00001   0.00002  -0.00003
  48        2PY         0.00009  -0.00001   0.00001   0.00007  -0.00006
  49        2PZ        -0.00054   0.00005  -0.00000   0.00001  -0.00001
  50        3S          0.01883  -0.00003   0.00001  -0.00018  -0.00010
  51        3PX        -0.00068  -0.00006  -0.00003  -0.00006   0.00015
  52        3PY         0.00039  -0.00000  -0.00010  -0.00039   0.00035
  53        3PZ        -0.00088  -0.00004   0.00002  -0.00006   0.00006
  54        4S         -0.01060  -0.00176  -0.00044  -0.00191  -0.00307
  55        4PX        -0.00603  -0.00425   0.00016   0.00245   0.00233
  56        4PY         0.00014   0.00122   0.00353   0.00180  -0.00211
  57        4PZ        -0.00635  -0.00493  -0.00029   0.00301   0.00267
  58        5S         -0.02473   0.02924  -0.00114  -0.01049  -0.01951
  59        5PX         0.00713   0.02086   0.00255  -0.00674  -0.00951
  60        5PY        -0.00387  -0.01022   0.00742  -0.00702   0.00077
  61        5PZ         0.01006   0.02464   0.00267  -0.00467  -0.00964
  62        6D 0       -0.00013   0.00011   0.00001   0.00004  -0.00003
  63        6D+1        0.00137   0.00031   0.00002   0.00006  -0.00002
  64        6D-1       -0.00005  -0.00009   0.00004   0.00001  -0.00005
  65        6D+2       -0.00056   0.00012   0.00002   0.00005   0.00003
  66        6D-2       -0.00001  -0.00009   0.00003  -0.00000  -0.00005
  67 4   N  1S         -0.00006  -0.00003  -0.00004   0.00000  -0.00003
  68        2S         -0.00004  -0.00002  -0.00007   0.00002  -0.00007
  69        2PX         0.00024  -0.00016  -0.00009   0.00002   0.00001
  70        2PY         0.00034   0.00013   0.00018   0.00003  -0.00019
  71        2PZ         0.00025  -0.00019  -0.00010   0.00003   0.00000
  72        3S          0.00088   0.00050   0.00059  -0.00014   0.00033
  73        3PX        -0.00067   0.00034  -0.00012  -0.00009   0.00005
  74        3PY        -0.00078  -0.00036  -0.00032  -0.00019  -0.00009
  75        3PZ        -0.00068   0.00039  -0.00012  -0.00013   0.00007
  76        4S         -0.00711  -0.00358   0.00096   0.00103   0.00257
  77        4PX        -0.00028   0.00070   0.00091   0.00086  -0.00031
  78        4PY        -0.00506  -0.00041   0.00059   0.00194   0.00228
  79        4PZ        -0.00024   0.00084   0.00104   0.00103  -0.00052
  80        5S          0.00914   0.00294   0.02991   0.01344   0.00310
  81        5PX         0.00478  -0.00502  -0.00125   0.00078   0.00274
  82        5PY         0.00366   0.01010   0.02008   0.01515  -0.01281
  83        5PZ         0.00521  -0.00617  -0.00163  -0.00007   0.00314
  84        6D 0        0.00013  -0.00012   0.00008  -0.00000   0.00018
  85        6D+1       -0.00060  -0.00048  -0.00026  -0.00001   0.00008
  86        6D-1       -0.00065   0.00035   0.00023  -0.00001   0.00005
  87        6D+2        0.00030  -0.00005   0.00022   0.00000   0.00029
  88        6D-2       -0.00063   0.00029   0.00018   0.00001   0.00005
  89 5   C  1S         -0.00004  -0.00015  -0.00008  -0.00005   0.56299
  90        2S         -0.00001  -0.00009  -0.00007  -0.00003   0.46314
  91        2PX        -0.00004   0.00002   0.00002   0.00001  -0.00015
  92        2PY         0.00006   0.00004  -0.00001   0.00001   0.00110
  93        2PZ        -0.00005   0.00003   0.00001   0.00001  -0.00022
  94        3S         -0.00016  -0.00050  -0.00006  -0.00018   0.01993
  95        3PX         0.00012  -0.00007  -0.00009  -0.00005   0.00024
  96        3PY        -0.00042  -0.00027   0.00002  -0.00006  -0.00191
  97        3PZ         0.00015  -0.00008  -0.00007  -0.00004   0.00042
  98        4S         -0.00242   0.00363   0.00092   0.00264  -0.01218
  99        4PX         0.00001  -0.00004   0.00013  -0.00039  -0.00028
 100        4PY        -0.00083   0.00141  -0.00001   0.00116  -0.00139
 101        4PZ        -0.00051   0.00037   0.00014  -0.00064  -0.00025
 102        5S          0.00167   0.00569   0.01499  -0.00304  -0.01798
 103        5PX         0.00022  -0.00049  -0.00052   0.00027  -0.00022
 104        5PY         0.00064   0.00192   0.00447  -0.00079  -0.00477
 105        5PZ        -0.00008  -0.00027  -0.00035  -0.00003  -0.00029
 106        6D 0        0.00004   0.00004  -0.00000  -0.00002   0.00061
 107        6D+1        0.00004   0.00009   0.00004   0.00001   0.00003
 108        6D-1        0.00009  -0.00007  -0.00002  -0.00003   0.00015
 109        6D+2        0.00008   0.00005   0.00001   0.00002   0.00096
 110        6D-2        0.00009  -0.00003  -0.00002  -0.00003   0.00015
 111 6   C  1S         -0.00003   0.37067   0.42363   0.00010   0.00016
 112        2S         -0.00003   0.30516   0.34833   0.00011   0.00016
 113        2PX        -0.00009   0.00032   0.00025   0.00001   0.00004
 114        2PY        -0.00004   0.00024  -0.00096   0.00004  -0.00003
 115        2PZ        -0.00009   0.00035   0.00029   0.00002   0.00005
 116        3S         -0.00006   0.01320   0.01589  -0.00019  -0.00029
 117        3PX         0.00040  -0.00050   0.00009  -0.00006  -0.00031
 118        3PY        -0.00000  -0.00174   0.00400  -0.00025   0.00018
 119        3PZ         0.00045  -0.00053   0.00005  -0.00010  -0.00039
 120        4S          0.00209  -0.00892  -0.01668   0.00123  -0.00099
 121        4PX         0.00111  -0.00146  -0.00326   0.00076  -0.00112
 122        4PY         0.00036  -0.00132  -0.00654   0.00070  -0.00184
 123        4PZ         0.00129  -0.00156  -0.00371   0.00087  -0.00111
 124        5S          0.01272   0.00329  -0.03415  -0.02189   0.01655
 125        5PX         0.00283   0.00116  -0.00422  -0.00001   0.00084
 126        5PY        -0.00024   0.00261  -0.00214  -0.00660   0.00241
 127        5PZ         0.00247   0.00085  -0.00483  -0.00066   0.00049
 128        6D 0        0.00011   0.00045  -0.00115   0.00001  -0.00005
 129        6D+1        0.00027   0.00100   0.00094  -0.00000   0.00005
 130        6D-1        0.00006   0.00023   0.00129  -0.00005   0.00016
 131        6D+2        0.00012   0.00051  -0.00217   0.00000  -0.00010
 132        6D-2        0.00006   0.00020   0.00125  -0.00003   0.00014
 133 7   C  1S         -0.00003   0.42351  -0.37080   0.00029   0.00005
 134        2S         -0.00003   0.34860  -0.30484   0.00026   0.00007
 135        2PX        -0.00007   0.00029  -0.00043   0.00004  -0.00000
 136        2PY         0.00008  -0.00029  -0.00083   0.00003  -0.00003
 137        2PZ        -0.00007   0.00032  -0.00046   0.00004   0.00001
 138        3S         -0.00006   0.01523  -0.01403  -0.00027  -0.00019
 139        3PX         0.00036  -0.00014   0.00092  -0.00030   0.00002
 140        3PY        -0.00021   0.00142   0.00405  -0.00012   0.00021
 141        3PZ         0.00036  -0.00011   0.00088  -0.00034  -0.00002
 142        4S          0.00189  -0.00988   0.01576   0.00032   0.00265
 143        4PX         0.00044  -0.00139   0.00138  -0.00067   0.00034
 144        4PY        -0.00066   0.00154  -0.00757   0.00155  -0.00172
 145        4PZ         0.00071  -0.00168   0.00174  -0.00055   0.00057
 146        5S          0.00925  -0.00507   0.03447   0.02531  -0.01624
 147        5PX         0.00124  -0.00114   0.00346  -0.00132  -0.00009
 148        5PY         0.00005  -0.00184  -0.00510  -0.00465   0.00358
 149        5PZ         0.00250  -0.00072   0.00410  -0.00023   0.00014
 150        6D 0        0.00003   0.00002   0.00151  -0.00010   0.00001
 151        6D+1        0.00020   0.00085  -0.00045   0.00003  -0.00001
 152        6D-1       -0.00021  -0.00072   0.00020  -0.00014   0.00002
 153        6D+2       -0.00001  -0.00016   0.00273  -0.00022   0.00002
 154        6D-2       -0.00019  -0.00065   0.00007  -0.00010   0.00002
 155 8   C  1S          0.00001  -0.00001   0.00000   0.00116   0.00000
 156        2S         -0.00001   0.00000   0.00000   0.00091   0.00000
 157        2PX        -0.00001  -0.00001  -0.00001  -0.00033  -0.00001
 158        2PY         0.00001  -0.00003   0.00000  -0.00010   0.00001
 159        2PZ        -0.00001   0.00001  -0.00001   0.00031  -0.00000
 160        3S          0.00038  -0.00005   0.00004   0.00038   0.00008
 161        3PX        -0.00001   0.00001   0.00004   0.00080   0.00003
 162        3PY        -0.00010   0.00013  -0.00002   0.00023  -0.00003
 163        3PZ         0.00011  -0.00004   0.00008  -0.00075   0.00003
 164        4S         -0.00265   0.00025  -0.00092   0.00435  -0.00083
 165        4PX         0.00061  -0.00007   0.00038  -0.00086   0.00036
 166        4PY         0.00145  -0.00004  -0.00027  -0.00011   0.00044
 167        4PZ        -0.00067   0.00013  -0.00040   0.00077   0.00005
 168        5S          0.01274   0.01995  -0.00431   0.02876   0.00248
 169        5PX        -0.00220  -0.00389   0.00076  -0.00487  -0.00047
 170        5PY        -0.00207  -0.00258   0.00042  -0.00394  -0.00042
 171        5PZ         0.00151   0.00211  -0.00070   0.00296   0.00021
 172        6D 0       -0.00003   0.00002  -0.00002  -0.00012   0.00000
 173        6D+1       -0.00000  -0.00001   0.00000   0.00073  -0.00000
 174        6D-1        0.00004   0.00001  -0.00000   0.00032   0.00001
 175        6D+2        0.00002  -0.00001  -0.00001  -0.00040  -0.00002
 176        6D-2       -0.00002   0.00002  -0.00003  -0.00027   0.00001
 177 9   H  1S         -0.00003   0.00004  -0.00000   0.00008  -0.00001
 178        2S         -0.00035  -0.00046  -0.00001  -0.00310   0.00006
 179        3S         -0.00200   0.00246  -0.00174   0.00365   0.00075
 180        4PX        -0.00006   0.00001   0.00002   0.00079  -0.00001
 181        4PY         0.00009  -0.00004   0.00000  -0.00036  -0.00000
 182        4PZ         0.00012   0.00008   0.00001   0.00204  -0.00002
 183 10  H  1S         -0.00001   0.00001   0.00001   0.00005   0.00001
 184        2S          0.00029  -0.00046  -0.00015  -0.00249  -0.00024
 185        3S          0.00081   0.00033  -0.00158   0.00183   0.00052
 186        4PX        -0.00001  -0.00003  -0.00003  -0.00169  -0.00004
 187        4PY        -0.00002   0.00012  -0.00002   0.00120   0.00000
 188        4PZ         0.00002   0.00006  -0.00003  -0.00020   0.00004
 189 11  H  1S         -0.00009   0.00004   0.00000   0.00002   0.00016
 190        2S          0.00029  -0.00059  -0.00004  -0.00019  -0.00335
 191        3S         -0.00047   0.00144   0.00126   0.00216   0.00386
 192        4PX        -0.00003   0.00003  -0.00001   0.00001   0.00075
 193        4PY        -0.00003  -0.00002   0.00002  -0.00000  -0.00033
 194        4PZ         0.00001   0.00012   0.00001   0.00001   0.00203
 195 12  H  1S          0.00004   0.00004   0.00000   0.00005   0.00014
 196        2S         -0.00009  -0.00032   0.00004  -0.00043  -0.00294
 197        3S         -0.00028   0.00117   0.00097   0.00162   0.00283
 198        4PX        -0.00000   0.00006  -0.00002   0.00005   0.00134
 199        4PY        -0.00007  -0.00005  -0.00002  -0.00005  -0.00051
 200        4PZ        -0.00004  -0.00002  -0.00000  -0.00001  -0.00146
 201 13  H  1S          0.00000   0.00001  -0.00002   0.00005   0.00015
 202        2S         -0.00000  -0.00045   0.00006  -0.00057  -0.00305
 203        3S          0.00076   0.00073   0.00099   0.00264   0.00228
 204        4PX        -0.00005  -0.00007  -0.00000  -0.00006  -0.00193
 205        4PY        -0.00001  -0.00010  -0.00004  -0.00000  -0.00072
 206        4PZ         0.00001   0.00001   0.00002   0.00002  -0.00034
 207 14  H  1S         -0.00007  -0.00002   0.00018  -0.00001   0.00005
 208        2S          0.00039  -0.00331  -0.00370   0.00007  -0.00098
 209        3S          0.00117   0.00061   0.00028   0.00092  -0.00087
 210        4PX         0.00004  -0.00107  -0.00109   0.00001  -0.00018
 211        4PY         0.00000  -0.00104  -0.00052  -0.00002  -0.00001
 212        4PZ         0.00004  -0.00119  -0.00122   0.00001  -0.00021
 213 15  H  1S         -0.00005  -0.00000  -0.00018   0.00008  -0.00001
 214        2S          0.00011  -0.00368   0.00323  -0.00119   0.00006
 215        3S          0.00131   0.00091  -0.00030  -0.00045   0.00098
 216        4PX         0.00002  -0.00086   0.00080  -0.00018   0.00001
 217        4PY         0.00001   0.00166  -0.00084   0.00010   0.00002
 218        4PZ         0.00001  -0.00096   0.00088  -0.00021   0.00000
 219 16  H  1S         -0.00001  -0.00005   0.00003  -0.00007  -0.00002
 220        2S          0.00043   0.00037  -0.00026  -0.00077   0.00018
 221        3S         -0.00115  -0.00021  -0.00016  -0.00077  -0.00014
 222        4PX         0.00002  -0.00007   0.00002   0.00020  -0.00002
 223        4PY         0.00008  -0.00003  -0.00001  -0.00021   0.00001
 224        4PZ        -0.00005   0.00001  -0.00000   0.00005  -0.00002
 225 17  H  1S         -0.00000  -0.00001  -0.00003  -0.00002  -0.00000
 226        2S          0.00006   0.00002   0.00022  -0.00115  -0.00001
 227        3S         -0.00094  -0.00017   0.00018  -0.00053  -0.00015
 228        4PX         0.00003  -0.00001  -0.00003   0.00009  -0.00001
 229        4PY        -0.00004   0.00002  -0.00002   0.00035   0.00000
 230        4PZ         0.00002   0.00000  -0.00001   0.00017   0.00000
 231 18  H  1S         -0.00006  -0.00001  -0.00001  -0.00007  -0.00003
 232        2S          0.00055   0.00017   0.00006  -0.00075   0.00030
 233        3S         -0.00099  -0.00118  -0.00041  -0.00145  -0.00017
 234        4PX        -0.00001   0.00007  -0.00001  -0.00013   0.00001
 235        4PY        -0.00009   0.00004  -0.00000   0.00003  -0.00001
 236        4PZ         0.00009  -0.00004   0.00004  -0.00027   0.00003
 237 19  C  1S         -0.00671   0.00001   0.00000   0.00001   0.00001
 238        2S         -0.00552   0.00004   0.00000   0.00002   0.00002
 239        2PX        -0.00032  -0.00001   0.00001  -0.00001  -0.00003
 240        2PY         0.00005   0.00001   0.00001   0.00005  -0.00005
 241        2PZ        -0.00034  -0.00001  -0.00001  -0.00003  -0.00002
 242        3S         -0.00000  -0.00037  -0.00005   0.00010   0.00001
 243        3PX         0.00080   0.00004  -0.00002   0.00006   0.00007
 244        3PY        -0.00003  -0.00004  -0.00001  -0.00017   0.00013
 245        3PZ         0.00080   0.00004   0.00003   0.00009   0.00007
 246        4S          0.00402   0.00479   0.00055  -0.00296  -0.00175
 247        4PX        -0.00267  -0.00260  -0.00066   0.00089  -0.00004
 248        4PY         0.00067   0.00052  -0.00103  -0.00082  -0.00118
 249        4PZ        -0.00308  -0.00266  -0.00041   0.00065   0.00159
 250        5S         -0.00925  -0.05138  -0.00211   0.01546   0.02804
 251        5PX         0.00119   0.00694   0.00026  -0.00148  -0.00417
 252        5PY         0.00041  -0.00110  -0.00062   0.00312  -0.00048
 253        5PZ         0.00071   0.00775   0.00004  -0.00227  -0.00498
 254        6D 0       -0.00037  -0.00000   0.00003   0.00003   0.00001
 255        6D+1       -0.00082   0.00007   0.00002  -0.00004  -0.00006
 256        6D-1        0.00001  -0.00007   0.00004   0.00010  -0.00006
 257        6D+2       -0.00032  -0.00000   0.00000   0.00003  -0.00003
 258        6D-2        0.00042   0.00006   0.00006   0.00004  -0.00010
 259 20  O  1S          0.00001   0.00000  -0.00000   0.00000   0.00000
 260        2S          0.00005   0.00000  -0.00000   0.00001   0.00000
 261        2PX         0.00000  -0.00000  -0.00000  -0.00002   0.00000
 262        2PY         0.00005   0.00000   0.00000   0.00001  -0.00002
 263        2PZ        -0.00004  -0.00001  -0.00000   0.00000  -0.00001
 264        3S         -0.00035  -0.00002   0.00001  -0.00009  -0.00000
 265        3PX        -0.00002   0.00001   0.00002   0.00006  -0.00002
 266        3PY        -0.00029  -0.00003  -0.00000  -0.00004   0.00008
 267        3PZ         0.00025   0.00006   0.00000   0.00000   0.00003
 268        4S          0.00036  -0.00032  -0.00033   0.00038  -0.00016
 269        4PX         0.00028   0.00006  -0.00005  -0.00024   0.00011
 270        4PY         0.00041  -0.00006  -0.00004   0.00025  -0.00031
 271        4PZ        -0.00020  -0.00000   0.00007  -0.00009   0.00017
 272        5S          0.00025   0.00163   0.00002  -0.00085  -0.00414
 273        5PX         0.00033   0.00052  -0.00004   0.00037   0.00010
 274        5PY         0.00003   0.00057   0.00000  -0.00004  -0.00017
 275        5PZ         0.00075  -0.00016   0.00002   0.00024   0.00113
 276        6D 0       -0.00002  -0.00001  -0.00000  -0.00000   0.00001
 277        6D+1        0.00005   0.00002   0.00001   0.00000  -0.00002
 278        6D-1        0.00006   0.00001   0.00000  -0.00001  -0.00000
 279        6D+2        0.00008   0.00002   0.00000  -0.00001  -0.00000
 280        6D-2        0.00004   0.00002   0.00001  -0.00000  -0.00001
 281 21  O  1S          0.00001   0.00000   0.00000   0.00000   0.00000
 282        2S          0.00004   0.00000   0.00000   0.00000   0.00001
 283        2PX        -0.00005  -0.00001  -0.00000  -0.00002  -0.00000
 284        2PY        -0.00005  -0.00000  -0.00001   0.00002  -0.00001
 285        2PZ        -0.00001  -0.00001   0.00001   0.00001  -0.00001
 286        3S         -0.00026  -0.00003  -0.00002   0.00003  -0.00014
[...]
 357,-0.00041372,0.00160362,-0.00046325,0.00095577,-0.13355200,0.164147
 57,-0.00833648,0.00597271,-0.05227410,0.00774829,-0.01212796,-0.000277
 15,-0.00026512,0.00054771,-0.00135404,-0.00076812,-0.00097448,-0.00048
 288,-0.00022849,0.00005787,0.00007527,0.00055015,-0.00050668,0.0002472
 9,0.00068446,-0.00040185,0.00103325,0.01815398,-0.01150773,0.00007172,
 -0.02242769,0.01826899,0.00303248,0.00530897,-0.00142957,0.05049958,-0
 .00002195,-0.00000804,0.00006412,-0.00000551,-0.00050784,0.00025020,0.
 00055076,0.00007066,0.00024590,-0.00267621,0.00173169,-0.00245326,-0.0
 8044486,0.02171057,-0.08489115,0.00048894,0.00064304,-0.00019043,-0.00
 010844,0.00003111,-0.00049922,-0.00000445,-0.00000508,-0.00001052,0.00
 002638,-0.00003065,-0.00001271,-0.00001574,0.00000797,-0.00002638,0.08
 154190,0.00013257,0.00015526,-0.00004512,0.00035666,-0.00056133,0.0004
 2508,0.00014059,0.00231188,0.00065661,0.01707160,-0.01626206,0.0374760
 4,0.01519916,-0.05971339,0.04504989,-0.00291654,-0.00440663,-0.0016653
 8,0.00112644,-0.00127051,0.00074104,0.00000579,0.00000464,-0.00002855,
 0.00000565,-0.00008927,-0.00003469,-0.00004101,-0.00002434,-0.00003654
 ,-0.02377004,0.07374153,0.00004583,0.00000980,0.00002474,-0.00000872,-
 0.00012758,-0.00017211,-0.00062363,0.00022550,0.00033311,0.00029663,0.
 00171203,0.00115074,-0.08578468,0.06076964,-0.28905328,0.00058729,-0.0
 0098046,0.00047377,0.00001211,-0.00021964,0.00002488,-0.00000585,0.000
 00658,0.00000177,0.00001881,-0.00003379,-0.00001023,-0.00001205,-0.000
 00488,-0.00001034,0.09312027,-0.06199731,0.30557755,-0.00006018,-0.000
 03807,0.00000558,-0.00035279,0.00034126,0.00004465,-0.00026718,-0.0013
 0402,-0.00080765,0.00159789,0.00324119,-0.00168959,-0.16220777,0.05257
 012,0.12203262,0.00031114,0.00034112,0.00037957,0.00032496,0.00006090,
 -0.00010810,-0.00002316,-0.00000096,0.00003973,-0.00000345,0.00002070,
 0.00000505,0.00000858,0.00003017,0.00001733,0.00904654,-0.00468708,-0.
 00727017,0.16861231,-0.00025430,0.00049685,0.00076078,0.00043425,-0.00
 283778,0.00174381,0.00407176,0.00269802,0.00095376,0.02187927,-0.02791
 448,-0.02413351,0.04805853,-0.06802571,-0.05191565,-0.00099854,0.00181
 466,-0.00260152,-0.00125730,-0.00176544,-0.00063704,0.00000630,-0.0003
 0068,-0.00022546,-0.00000562,-0.00002541,-0.00002681,0.00001996,-0.000
 04791,0.00001449,-0.00608092,0.00321406,0.00359549,-0.05919453,0.08688
 706,0.00006884,-0.00005199,-0.00007689,0.00016412,0.00054485,0.0000156
 6,-0.00009274,-0.00023830,0.00046250,-0.00518090,0.00115621,0.00561096
 ,0.12319496,-0.05779868,-0.18270192,-0.00063671,0.00084681,0.00017629,
 0.00029433,-0.00056836,-0.00017527,0.00001066,0.00004532,0.00002715,-0
 .00000025,-0.00000353,0.00000609,-0.00001202,-0.00000090,-0.00000612,0
 .02051002,-0.00839330,-0.01595735,-0.13329193,0.06230760,0.18883499,-0
 .00013936,0.00004792,0.00011451,0.00028034,0.00062697,0.00033945,0.000
 29106,0.00148994,0.00006826,0.00722130,0.00352396,0.00083507,-0.277152
 15,-0.10151282,-0.03925332,0.00078775,0.00092341,-0.00051895,0.0003296
 3,-0.00049355,0.00003610,-0.00000618,-0.00002826,-0.00001044,-0.000008
 72,0.00002440,0.00000847,0.00000737,0.00003579,0.00002117,-0.00687024,
 -0.00252198,0.00047459,-0.01652172,-0.00719286,-0.00433268,0.29199011,
 0.00074354,0.00015287,0.00010590,0.00006227,-0.00261561,-0.00054221,0.
 00116121,-0.00119206,0.00448976,-0.03305092,-0.02741049,-0.00915007,-0
 .08903707,-0.08696004,-0.01353426,-0.00114889,0.00215444,-0.00141613,-
 0.00056705,-0.00049491,-0.00071716,0.00002610,-0.00001111,-0.00006918,
 -0.00001437,-0.00003132,-0.00001413,-0.00009867,-0.00023827,-0.0000781
 3,0.00743406,0.00411265,-0.00109883,0.00867104,0.00555873,0.00280500,0
 .10531588,0.10694205,-0.00010216,-0.00001562,0.00007173,-0.00052483,0.
 00073816,-0.00045519,0.00000007,-0.00051256,-0.00021236,0.00218273,0.0
 0194293,-0.00032012,-0.03966133,-0.01708264,-0.05536074,0.00037408,0.0
 0047292,0.00060070,0.00053728,0.00017819,0.00017281,0.00001036,-0.0000
 3231,-0.00000856,-0.00001772,0.00002455,0.00001231,0.00001742,0.000013
 08,0.00002988,-0.02523426,-0.01268915,0.00054515,0.02060677,0.00976175
 ,0.00467463,0.04238642,0.01781377,0.05178853,0.00084315,-0.00023108,-0
 .00064329,0.00406703,0.00063427,-0.00154986,0.00042339,0.00265016,-0.0
 0324861,-0.00920302,-0.00965396,-0.00747709,-0.00027193,-0.00067921,0.
 00140125,-0.13911541,-0.08997679,-0.12574809,0.00257669,0.00089556,0.0
 0155606,0.00003285,0.00016806,0.00017268,-0.00004047,-0.00010219,0.000
 02263,-0.00008250,-0.00005658,-0.00004439,0.00006605,-0.00003588,0.000
 01430,-0.00022099,0.00026418,0.00000152,-0.00004122,0.00025086,-0.0002
 4836,0.14162897,-0.00050143,0.00103592,-0.00082105,-0.00099688,-0.0054
 5632,-0.00076977,0.00196158,-0.00340488,0.00286450,0.01272719,0.012278
 77,0.01418873,0.00021447,0.00124050,-0.00004702,-0.09612812,-0.1454159
 8,-0.10646131,-0.01415511,0.00020351,-0.01610324,0.00001689,-0.0000848
 3,-0.00009486,-0.00015935,-0.00042137,-0.00009274,0.00003539,0.0000407
 1,0.00005451,-0.00008334,0.00006314,0.00000307,0.00006531,0.00000762,-
 0.00001201,0.00001675,-0.00026808,0.00024562,0.09648619,0.13909805,-0.
 00035440,0.00003485,0.00101751,-0.00177836,0.00108357,0.00319634,-0.00
 210329,0.00361274,0.00012494,-0.00888219,-0.01136559,-0.01188554,0.000
 73750,-0.00116207,0.00005552,-0.12545332,-0.10015447,-0.16571738,0.002
 32174,0.00150610,0.00368334,-0.00005540,-0.00013832,-0.00014798,0.0000
 8643,0.00025852,0.00006048,0.00003601,0.00000569,0.00001912,0.00019537
 ,0.00006205,-0.00002478,0.00007815,0.00000237,-0.00006283,0.00025961,0
 .00063819,-0.00015684,0.13463574,0.10660825,0.17074680,-0.00030609,0.0
 0075111,0.00122382,-0.00847015,0.01742933,-0.00685738,-0.00046888,-0.0
 0284983,-0.00343615,0.00315960,-0.00267317,-0.00240524,0.00106662,0.00
 010556,-0.00016818,0.00569803,-0.00439312,0.00515534,-0.09163706,0.096
 59089,-0.07373395,-0.00015762,-0.00005158,-0.00012413,0.00016576,-0.00
 000772,0.00004537,-0.00004704,0.00004248,-0.00039169,0.00000961,-0.000
 08774,-0.00001599,0.00002410,-0.00019867,0.00003987,-0.00008310,0.0001
 3173,-0.00004399,-0.00180189,0.00036182,0.00133295,0.09216021,-0.00015
 367,0.00064132,0.00021256,-0.00536509,0.01016682,-0.00612919,-0.001954
 80,-0.00072819,-0.00207014,-0.00078276,-0.00451004,-0.00090736,0.00053
 197,0.00047515,0.00092481,0.01177641,-0.00563430,0.01312169,0.10180451
 ,-0.25022204,0.11468374,-0.00006865,0.00003598,-0.00001225,0.00005581,
 0.00002189,0.00003263,0.00023186,-0.00003725,-0.00016879,0.00003781,-0
 .00039412,-0.00006042,0.00002862,-0.00005002,0.00000351,-0.00001328,0.
 00004418,-0.00003345,-0.00022817,0.00018870,-0.00028077,-0.10585861,0.
 24949605,0.00089912,0.00163968,-0.00011812,-0.00710312,0.01839314,-0.0
 1029536,-0.00454611,-0.00265024,-0.00160018,-0.00201325,-0.00241166,0.
 00331324,-0.00028661,0.00006199,0.00115208,0.00468754,-0.00360810,0.00
 629839,-0.07327701,0.10804000,-0.10851405,-0.00002959,-0.00012407,0.00
 011017,0.00018893,-0.00011441,0.00001195,0.00015431,-0.00067571,-0.000
 28940,0.00002067,-0.00034977,-0.00004483,-0.00000899,0.00014587,-0.000
 06632,0.00003688,-0.00004059,0.00001560,0.00138822,0.00037818,-0.00148
 771,0.07998148,-0.11916526,0.11059234,-0.02225944,0.01495788,0.0009695
 0,0.00148766,0.00112431,-0.00058234,-0.00011355,-0.00033045,-0.0001710
 1,-0.00009430,-0.00023556,0.00008097,-0.00001089,0.00000133,0.00001300
 ,0.00001652,0.00009388,0.00011480,-0.00002457,-0.00015594,-0.00022745,
 -0.21135342,0.12923876,-0.00847500,0.00095170,-0.00002384,-0.00043706,
 -0.00225233,-0.00236072,0.00302165,-0.00001426,-0.00002064,-0.00001765
 ,0.00000228,-0.00000423,-0.00000349,0.00000573,-0.00000709,0.00000693,
 -0.00000860,-0.00001499,0.00001134,0.00009444,0.00003395,0.00005152,0.
 23118079,-0.01190677,0.00670962,-0.00012412,0.00028743,0.00209029,-0.0
 0036631,0.00011258,-0.00032326,0.00004176,0.00004929,0.00014355,0.0001
 3295,0.00001711,-0.00004226,0.00002650,0.00001760,0.00015162,0.0000203
 6,-0.00005975,-0.00008994,-0.00029531,0.13269084,-0.15072254,0.0045069
 0,0.00059903,0.00027211,-0.00047322,-0.00231586,-0.00012060,0.00174134
 ,-0.00000668,-0.00000866,-0.00000805,-0.00000130,0.00001846,-0.0000058
 4,0.00000392,0.00001405,0.00000695,-0.00000914,0.00000536,0.00001035,0
 .00002664,0.00000897,0.00002059,-0.14168974,0.15946858,0.01739483,-0.0
 1384532,-0.00054235,-0.00109340,-0.00027255,0.00040341,-0.00003491,-0.
 00008025,0.00032240,0.00013977,0.00022093,-0.00002941,0.00001564,0.000
 00094,-0.00000622,-0.00005041,0.00002563,-0.00008453,-0.00018271,0.000
 07831,-0.00005640,-0.01071190,0.00757062,-0.04799845,-0.00044474,-0.00
 071419,0.00070684,0.00310712,0.00211948,-0.00161904,0.00001427,0.00002
 413,0.00001863,-0.00000202,-0.00000387,0.00000061,-0.00000722,0.000012
 05,-0.00001056,0.00000253,0.00001669,-0.00000876,0.00004035,0.00001331
 ,-0.00002013,0.00613253,-0.00732229,0.04807946,-0.00605965,-0.02023794
 ,-0.00996363,-0.00354433,-0.00400628,0.00340951,-0.00082345,0.00108525
 ,-0.00017512,-0.00041621,-0.00101514,-0.00051545,0.00010432,0.00020082
 ,-0.00019685,0.00010831,-0.00042951,0.00006844,0.00051955,0.00007164,0
 .00076388,-0.06691201,-0.06480727,-0.02318941,0.00094314,0.00020900,-0
 .00011202,0.00052861,0.00063021,-0.00081831,-0.00000628,-0.00001613,-0
 .00000450,0.00001010,-0.00012058,0.00000756,-0.00000641,-0.00003612,-0
 .00000450,0.00002421,-0.00004580,-0.00001596,0.00005022,0.00002288,-0.
 00001194,0.00917666,0.02238581,0.00927270,0.07009860,-0.00118901,-0.00
 989933,-0.00437090,-0.00201209,-0.00052344,0.00153797,-0.00024741,0.00
 126732,-0.00002188,-0.00038269,-0.00049951,-0.00048201,0.00002412,0.00
 015986,-0.00009050,0.00007195,-0.00051461,-0.00000849,0.00051070,0.000
 22715,0.00077935,-0.06692398,-0.26134445,-0.07943084,0.00031527,0.0002
 0162,0.00018035,-0.00027011,0.00041555,0.00002717,0.00000327,-0.000010
 70,0.00000806,0.00000919,-0.00006402,0.00000970,-0.00000496,-0.0000318
 6,-0.00000458,0.00003787,-0.00002444,-0.00001763,-0.00002032,0.0000045
 0,0.00001109,-0.00614881,-0.01596982,-0.00623253,0.07474655,0.28256817
 ,0.00401307,0.01734602,0.00644150,0.00379430,0.00297800,-0.00174868,0.
 00032480,-0.00049026,0.00000829,0.00032649,0.00048680,0.00049887,-0.00
 002812,-0.00009100,0.00010973,-0.00007967,0.00054233,0.00009848,-0.000
 07563,0.00017344,-0.00047047,-0.02472063,-0.08146730,-0.07658311,-0.00
 093534,-0.00016140,0.00065826,-0.00038366,-0.00042114,0.00072185,0.000
 00009,0.00000073,-0.00000396,-0.00000679,0.00005765,-0.00000581,0.0000
 0141,0.00002016,0.00000501,-0.00005761,0.00004158,0.00003962,0.0001507
 7,-0.00003657,-0.00003796,0.00082254,0.00180931,-0.00041648,0.02460408
 ,0.08694052,0.07945587,0.00715871,-0.00298910,0.02727885,0.00140906,0.
 00166440,-0.00014350,0.00028003,-0.00037725,-0.00010052,0.00000444,0.0
 0022619,-0.00001726,-0.00003422,-0.00003928,0.00002733,-0.00007764,-0.
 00016013,-0.00007080,0.00018044,0.00008056,-0.00005854,-0.07530087,0.0
 0831761,-0.08122435,-0.00362571,-0.00224900,0.00270284,0.00135201,0.00
 051991,-0.00075979,-0.00000281,0.00000271,0.00000033,-0.00000204,0.000
 03001,0.00000122,0.00000409,0.00000194,0.00000219,-0.00002518,0.000007
 15,0.00002939,-0.00039363,-0.00015438,0.00001466,-0.00689513,-0.000086
 10,-0.02342085,-0.00365731,0.00150772,-0.00781591,0.07949058,0.0027729
 2,-0.00323840,0.01177777,0.00137881,0.00129789,0.00068680,0.00017735,-
 0.00034034,-0.00001249,-0.00000949,0.00023211,-0.00002723,-0.00002215,
 -0.00004435,0.00001684,0.00000820,-0.00012801,-0.00005939,-0.00023282,
 -0.00005570,-0.00017108,0.00859582,-0.04930771,0.02181943,-0.00180790,
 0.00004249,0.00137879,-0.00003203,0.00022344,-0.00078636,0.00000184,0.
 00001596,0.00000721,-0.00000207,0.00002155,-0.00000243,0.00000093,0.00
 000581,0.00000026,-0.00001100,0.00001987,0.00000526,-0.00020486,-0.000
 09606,-0.00008001,0.00483530,-0.00122079,0.01912224,-0.00873694,0.0042
 2252,-0.02769949,-0.00666701,0.04872169,-0.00593809,0.00129383,-0.0194
 6372,-0.00049059,-0.00070253,0.00101207,-0.00011556,-0.00024999,0.0000
 1324,0.00030219,0.00003715,0.00028949,0.00005417,-0.00001314,0.0000026
 1,0.00001297,0.00044747,0.00010237,-0.00018317,0.00024671,-0.00002338,
 -0.07829068,0.02326871,-0.28055648,0.00341845,0.00118674,-0.00043746,0
 .00010092,-0.00025833,0.00078538,-0.00000435,-0.00001037,-0.00000886,-
 0.00000506,-0.00000150,-0.00000167,-0.00000538,0.00001483,0.00000362,-
 0.00001344,0.00002467,0.00000657,0.00008649,-0.00011449,-0.00000365,-0
 .00009636,0.00012909,0.00054329,-0.00280294,0.00089037,-0.00876775,0.0
 8406038,-0.02634470,0.30651131,-0.00126924,0.00472558,0.00292913,-0.00
 191300,0.00832525,-0.00476151,-0.08161299,0.01899618,-0.02601770,-0.00
 814725,-0.00590276,-0.00686379,-0.00050133,-0.00230236,0.00089029,0.00
 630376,-0.00518664,0.00320623,0.00840878,0.00127636,0.00703461,0.00060
 482,-0.00149545,-0.00128807,0.00195666,-0.00189626,-0.00112994,-0.0008
 9465,-0.00058381,-0.00160069,-0.00091946,-0.00194671,-0.00051164,-0.00
 004122,0.00102751,0.00020482,0.00040420,0.00047600,0.00064978,0.001647
 99,-0.00049604,-0.00056512,0.00157671,0.00006547,-0.00020061,-0.000999
 58,-0.00035702,0.00113771,-0.00064513,-0.00009677,0.00038020,-0.000327
 47,0.00048502,-0.00020027,0.51508740,0.00088121,0.00053912,0.00148749,
 0.01817803,-0.00130217,0.02180222,0.01435967,-0.07760740,-0.00242566,-
 0.01524834,0.01200881,-0.01677582,0.00109355,0.00358093,0.00006145,-0.
 00418019,-0.00348119,-0.00425688,-0.00027391,-0.00604597,-0.00017057,-
 0.00007343,-0.00037907,-0.00007289,0.00193461,-0.00381992,-0.00070611,
 -0.00082451,0.00036422,-0.00132570,-0.00256901,-0.00524419,-0.00288039
 ,0.00010973,-0.00055841,0.00059959,0.00063424,-0.00063811,0.00125154,-
 0.00085162,0.00086825,-0.00062337,0.00045405,0.00038390,0.00070437,-0.
 00091054,-0.00055482,0.00093727,-0.00003787,0.00036122,-0.00007642,-0.
 00017064,0.00039677,-0.00046100,0.26019665,0.66495793,0.00165770,0.004
 23472,0.00023581,-0.00026831,0.00962136,-0.00331505,-0.02813704,-0.005
 90589,-0.09480758,-0.00928199,-0.00521797,-0.00930180,-0.00041279,-0.0
 0517491,-0.00182694,0.00548573,-0.00654665,0.00904040,0.00444967,0.001
 79324,0.00929263,0.00059819,-0.00051921,-0.00112685,-0.00011069,-0.000
 41851,0.00044387,-0.00003925,-0.00105358,-0.00001161,0.00077991,0.0027
 4105,0.00183917,-0.00007943,0.00092805,-0.00065637,-0.00019146,0.00126
 270,-0.00070572,-0.00028959,-0.00030494,0.00126873,-0.00029548,0.00037
 278,0.00177381,0.00004997,0.00029026,0.00007999,-0.00042887,-0.0004278
 5,0.00030430,-0.00011192,0.00009096,0.00018039,0.01768215,-0.18519869,
 0.41127513,0.00004771,-0.00152872,-0.00114513,0.00044545,-0.00037155,-
 0.00129550,0.00959506,0.00865160,-0.01787879,0.00091382,-0.00040921,0.
 00078416,0.00025538,-0.00125521,-0.00184976,-0.00054216,0.00144329,-0.
 00009466,-0.00245737,0.00016375,-0.00184746,-0.00008015,0.00041275,0.0
 0042126,-0.00045582,0.00059113,0.00053047,0.00026637,0.00014839,0.0004
 8088,-0.00163795,0.00065065,-0.00128983,-0.00027388,-0.00004990,-0.000
 78996,-0.00019035,-0.00004580,-0.00033565,-0.00020732,0.00007927,0.000
 15508,-0.00054971,-0.00003617,0.00021647,0.00032453,0.00010326,-0.0003
 6642,0.00016501,0.00001186,-0.00009906,0.00009499,-0.00015879,0.000083
 95,-0.09758507,-0.06054799,0.03694439,0.10275823,-0.00016647,0.0010572
 5,0.00027296,0.00089975,0.00322634,0.00023230,0.00156248,-0.01578585,0
 .03546791,-0.00029002,-0.00232165,-0.00048627,-0.00266203,-0.00579968,
 -0.00157108,0.00339575,-0.00235416,0.00328619,0.00265997,0.00124278,0.
 00214954,0.00003269,-0.00013756,-0.00003781,-0.00072332,0.00078642,0.0
 0038206,0.00031640,-0.00031072,0.00039493,0.00055704,0.00278956,-0.000
 21326,-0.00023557,0.00085767,-0.00105186,-0.00062778,0.00086846,-0.001
 59983,0.00039624,-0.00014835,0.00007003,0.00053541,0.00022339,0.000089
 87,0.00057361,0.00029370,-0.00054087,-0.00007526,-0.00029236,0.0001208
 6,0.00017225,-0.00020032,0.00021349,-0.06681517,-0.33345542,0.19970905
 ,0.11893801,0.41104630,-0.00045496,-0.00207247,-0.00033422,-0.00574029
 ,-0.00301957,-0.00545385,-0.00907052,0.04531215,-0.02909336,0.00241062
 ,-0.00009345,0.00302132,-0.00153034,-0.00153512,-0.00102054,-0.0018650
 3,0.00232617,-0.00235788,-0.00248842,0.00166927,-0.00265085,-0.0002383
 0,0.00028999,0.00035671,0.00045157,-0.00032464,-0.00041269,-0.00015588
 ,0.00052208,-0.00026087,-0.00162923,-0.00105173,-0.00425900,0.00004140
 ,-0.00036476,-0.00019125,-0.00032415,-0.00013257,-0.00091251,-0.000138
 93,0.00002858,-0.00005771,-0.00070044,-0.00030213,-0.00048214,-0.00022
 197,-0.00018118,0.00020849,0.00023024,0.00027303,-0.00014953,-0.000045
 43,0.00004684,-0.00015769,0.04143732,0.20380914,-0.23945165,-0.0464849
 9,-0.27395641,0.26409249,-0.00196860,-0.00035014,-0.00002154,0.0019142
 7,-0.00110807,0.00251877,-0.04015129,-0.03405677,-0.02539829,-0.003702
 04,0.00586279,-0.00514959,-0.00077259,0.00163766,-0.00020117,-0.002566
 83,-0.00005326,-0.00312223,-0.00282789,-0.00111029,-0.00301065,-0.0006
 3391,0.00048408,0.00111812,-0.00167389,0.00170493,-0.00098672,0.000101
 38,0.00044901,-0.00031969,0.00099797,0.00135192,0.00097454,0.00003649,
 -0.00043432,-0.00015724,-0.00030212,-0.00026865,-0.00060123,-0.0002918
 1,0.00060905,-0.00067127,-0.00009012,0.00002629,-0.00016258,0.00078575
 ,0.00013885,-0.00094289,0.00034205,0.00005767,-0.00021533,0.00036764,-
 0.00037113,0.00002635,-0.34113392,-0.21215370,-0.02800089,-0.01088679,
 -0.05844399,0.02651774,0.40245624,0.00190225,-0.00456973,-0.00161029,-
 0.00108717,-0.00176188,-0.00064424,-0.02302652,0.00375350,-0.00448898,
 0.00208146,0.00124975,0.00097097,-0.00074094,-0.00010614,-0.00044345,-
 0.00045654,0.00215502,-0.00122170,-0.00207976,-0.00038022,-0.00314291,
 -0.00008597,0.00066243,0.00074618,-0.00055234,0.00034584,0.00280060,0.
 00115740,0.00002917,0.00226406,0.00083254,0.00157653,0.00128723,-0.000
 02575,0.00001518,-0.00019139,-0.00024862,0.00003863,-0.00047957,0.0000
 5224,0.00017383,-0.00015573,-0.00008340,-0.00001883,-0.00026496,0.0010
 4352,-0.00012363,-0.00112973,0.00021272,-0.00025337,-0.00007379,0.0003
 6243,-0.00056845,0.00040299,-0.20849504,-0.25037447,-0.01027599,-0.066
 79060,-0.06158581,0.02875678,0.29602807,0.30974265,-0.00031881,-0.0016
 7342,-0.00081636,0.00035471,-0.00062391,0.00103910,-0.03272731,-0.0111
 1275,0.00094092,-0.00200516,0.00209457,-0.00015857,0.00009084,0.002008
 94,0.00047638,-0.00187378,0.00133002,-0.00357402,-0.00135330,-0.001343
 97,-0.00214903,0.00067238,0.00029989,-0.00022393,-0.00067902,0.0011762
 5,-0.00011564,-0.00011808,0.00029839,0.00006973,-0.00024931,-0.0008747
 0,-0.00044476,0.00001887,-0.00036150,0.00009291,0.00006165,-0.00036910
 ,0.00022264,0.00026435,0.00025257,-0.00066946,0.00011617,-0.00008421,-
 0.00030770,-0.00104243,0.00003997,0.00042921,-0.00011691,0.00042962,-0
 .00015801,-0.00034833,0.00023077,-0.00002967,-0.03241290,-0.01567957,-
 0.08453065,0.03386055,0.03706821,0.01956673,0.03780579,-0.01310608,0.0
 7034019\\-0.00000193,-0.00000044,0.00000416,-0.00000109,-0.00000008,0.
 00000213,0.00000073,-0.00000072,-0.00000082,0.00000107,0.00000013,-0.0
 0000213,0.00000269,0.00000033,-0.00000500,-0.00000055,0.00000106,0.000
 00014,-0.00000189,0.00000090,0.00000253,-0.00000343,0.00000238,0.00000
 408,-0.00000035,-0.00000089,0.00000138,-0.00000102,-0.00000060,0.00000
 258,0.00000175,-0.00000068,-0.00000207,0.00000121,0.00000078,-0.000002
 96,0.00000081,-0.00000042,-0.00000206,-0.00000026,0.00000073,-0.000000
 15,-0.00000132,0.00000058,0.00000191,-0.00000118,0.00000141,0.00000076
 ,-0.00000167,0.00000084,0.00000234,-0.00000184,0.00000167,0.00000197,0
 .00000212,-0.00000183,-0.00000230,0.00000452,-0.00000416,-0.00000456,0
 .00000162,-0.00000099,-0.00000192\\\@
 The archive entry for this job was punched.


 THE NUMBERS ARE MEANINGLESS, BUT THE TRENDS ARE IMPORTANT.
     -- LARRY BURGGRAF
 Job cpu time:       0 days  1 hours 11 minutes 36.6 seconds.
 Elapsed time:       0 days  0 hours 36 minutes 55.0 seconds.
 File lengths (MBytes):  RWF=    258 Int=      0 D2E=      0 Chk=     26 Scr=      1
 Normal termination of Gaussian 16 at Fri Jun  2 14:17:43 2023.
