 Entering Gaussian System, Link 0=g16
 Input=PyrMe-isolated-freq.gjf
 Output=PyrMe-isolated-freq.log
 Initial command:
 /software/commercial/gaussian/g16/AVX2/g16/l1.exe "/scratch1/svicchi/G09-1734041.pbs02/Gau-2184849.inp" -scrdir="/scratch1/svicchi/G09-1734041.pbs02/"
 Entering Link 1 = /software/commercial/gaussian/g16/AVX2/g16/l1.exe PID=   2184850.
  
 Copyright (c) 1988-2021, Gaussian, Inc.  All Rights Reserved.
  
 This is part of the Gaussian(R) 16 program.  It is based on
 the Gaussian(R) 09 system (copyright 2009, Gaussian, Inc.),
 the Gaussian(R) 03 system (copyright 2003, Gaussian, Inc.),
 the Gaussian(R) 98 system (copyright 1998, Gaussian, Inc.),
 the Gaussian(R) 94 system (copyright 1995, Gaussian, Inc.),
 the Gaussian 92(TM) system (copyright 1992, Gaussian, Inc.),
 the Gaussian 90(TM) system (copyright 1990, Gaussian, Inc.),
 the Gaussian 88(TM) system (copyright 1988, Gaussian, Inc.),
 the Gaussian 86(TM) system (copyright 1986, Carnegie Mellon
 University), and the Gaussian 82(TM) system (copyright 1983,
 Carnegie Mellon University). Gaussian is a federally registered
 trademark of Gaussian, Inc.
  
 This software contains proprietary and confidential information,
 including trade secrets, belonging to Gaussian, Inc.
  
 This software is provided under written license and may be
 used, copied, transmitted, or stored only in accord with that
 written license.
  
 The following legend is applicable only to US Government
 contracts under FAR:
  
                    RESTRICTED RIGHTS LEGEND
  
 Use, reproduction and disclosure by the US Government is
 subject to restrictions as set forth in subparagraphs (a)
 and (c) of the Commercial Computer Software - Restricted
 Rights clause in FAR 52.227-19.
  
 Gaussian, Inc.
 340 Quinnipiac St., Bldg. 40, Wallingford CT 06492
  
  
 ---------------------------------------------------------------
 Warning -- This program may not be used in any manner that
 competes with the business of Gaussian, Inc. or will provide
 assistance to any competitor of Gaussian, Inc.  The licensee
 of this program is prohibited from giving any competitor of
 Gaussian, Inc. access to this program.  By using this program,
 the user acknowledges that Gaussian, Inc. is engaged in the
 business of creating and licensing software in the field of
 computational chemistry and represents and warrants to the
 licensee that it is not a competitor of Gaussian, Inc. and that
 it will not use this program in any manner prohibited above.
 ---------------------------------------------------------------
  

 Cite this work as:
 Gaussian 16, Revision C.02,
 M. J. Frisch, G. W. Trucks, H. B. Schlegel, G. E. Scuseria, 
 M. A. Robb, J. R. Cheeseman, G. Scalmani, V. Barone, 
 G. A. Petersson, H. Nakatsuji, X. Li, M. Caricato, A. V. Marenich, 
 J. Bloino, B. G. Janesko, R. Gomperts, B. Mennucci, H. P. Hratchian, 
 J. V. Ortiz, A. F. Izmaylov, J. L. Sonnenberg, D. Williams-Young, 
 F. Ding, F. Lipparini, F. Egidi, J. Goings, B. Peng, A. Petrone, 
 T. Henderson, D. Ranasinghe, V. G. Zakrzewski, J. Gao, N. Rega, 
 G. Zheng, W. Liang, M. Hada, M. Ehara, K. Toyota, R. Fukuda, 
 J. Hasegawa, M. Ishida, T. Nakajima, Y. Honda, O. Kitao, H. Nakai, 
 T. Vreven, K. Throssell, J. A. Montgomery, Jr., J. E. Peralta, 
 F. Ogliaro, M. J. Bearpark, J. J. Heyd, E. N. Brothers, K. N. Kudin, 
 V. N. Staroverov, T. A. Keith, R. Kobayashi, J. Normand, 
 K. Raghavachari, A. P. Rendell, J. C. Burant, S. S. Iyengar, 
 J. Tomasi, M. Cossi, J. M. Millam, M. Klene, C. Adamo, R. Cammi, 
 J. W. Ochterski, R. L. Martin, K. Morokuma, O. Farkas, 
 J. B. Foresman, and D. J. Fox, Gaussian, Inc., Wallingford CT, 2019.
 
 ******************************************
 Gaussian 16:  ES64L-G16RevC.02  7-Dec-2021
                14-Dec-2023 
 ******************************************
 %NProcShared=12
 Will use up to   12 processors via shared memory.
 %mem=110gb
 %chk=/scratch1/svicchi/G09-1734041.pbs02/02-freq/PyrMe-isolated-freq.chk
 ----------------------------------------------------------------------
 #p freq=raman scale=0.967 guess=read geom=allcheck b3lyp/6-311+G(d,p) 
 int=grid=ultrafine EmpiricalDispersion=GD3BJ SCRF=(Solvent=ethanol) sc
 f=(xqc,intrep,maxconventionalcycle=350) nosymm
 ----------------------------------------------------------------------
 1/10=4,29=7,30=1,38=1,114=967000/1,3;
 2/12=2,15=1,40=1/2;
 3/5=4,6=6,7=111,11=2,14=-4,25=1,30=1,70=2201,71=2,72=4,74=-5,75=-5,116=-2,124=41,140=1/1,2,3;
 4/5=1/1;
 5/5=2,8=3,13=1,17=20,38=6,53=4,85=350,98=1/2,8;
 8/6=4,10=90,11=11/1;
 10/13=10,15=4,31=1/2;
 11/6=3,8=1,9=11,15=111,16=1,31=1/1,2,10;
 10/6=1,31=1/2;
 6/7=2,8=2,9=2,10=2,28=1/1;
 7/8=1,10=1,25=1,30=1/1,2,3,16;
 1/10=4,30=1/3;
 99//99;
 Leave Link    1 at Thu Dec 14 12:46:48 2023, MaxMem= 14763950080 cpu:               0.1 elap:               0.1
 (Enter /software/commercial/gaussian/g16/AVX2/g16/l101.exe)
 Structure from the checkpoint file:  "/scratch1/svicchi/G09-1734041.pbs02/02-freq/PyrMe-isolated-freq.chk"
 --------------
 PyrMe-isolated
 --------------
 Charge = -1 Multiplicity = 1
 No Z-Matrix found in chk file; cartesian coordinates used.
  C                                                -0.353254808484      0.511067610148     -0.215336693434
  C                                                -1.036942381484     -0.686028331788     -0.454350882977
  C                                                -0.035443297559     -1.698098225766     -0.463854953016
  H                                                -2.102822784502     -0.812700286706     -0.599687542674
  C                                                 1.182496137861     -1.043843613593     -0.229954928190
  H                                                -0.177110496743     -2.761302078617     -0.617735699468
  N                                                 0.994438583980      0.301343565586     -0.078718035002
  H                                                -0.769665911672      1.509745869769     -0.136832220445
  C                                                 2.551631026781     -1.658012578021     -0.143922894585
  H                                                 2.498774580311     -2.743239033050     -0.270406342519
  H                                                 3.031055077037     -1.461864300091      0.823195235420
  H                                                 3.228283274475     -1.269657597871     -0.915686043108
 Recover connectivity data from disk.
 ITRead=  0  0  0  0  0  0  0  0  0  0  0  0
 MicOpt= -1 -1 -1 -1 -1 -1 -1 -1 -1 -1 -1 -1
 NAtoms=     12 NQM=       12 NQMF=       0 NMMI=      0 NMMIF=      0
                NMic=       0 NMicF=      0.
                    Isotopes and Nuclear Properties:
 (Nuclear quadrupole moments (NQMom) in fm**2, nuclear magnetic moments (NMagM)
  in nuclear magnetons)

  Atom         1           2           3           4           5           6           7           8           9          10
 IAtWgt=          12          12          12           1          12           1          14           1          12           1
 AtmWgt=  12.0000000  12.0000000  12.0000000   1.0078250  12.0000000   1.0078250  14.0030740   1.0078250  12.0000000   1.0078250
 NucSpn=           0           0           0           1           0           1           2           1           0           1
 AtZEff=   3.6000000   3.6000000   3.6000000   1.0000000   3.6000000   1.0000000   4.5500000   1.0000000   3.6000000   1.0000000
 NQMom=    0.0000000   0.0000000   0.0000000   0.0000000   0.0000000   0.0000000   2.0440000   0.0000000   0.0000000   0.0000000
 NMagM=    0.0000000   0.0000000   0.0000000   2.7928460   0.0000000   2.7928460   0.4037610   2.7928460   0.0000000   2.7928460
 AtZNuc=   6.0000000   6.0000000   6.0000000   1.0000000   6.0000000   1.0000000   7.0000000   1.0000000   6.0000000   1.0000000

  Atom        11          12
 IAtWgt=           1           1
 AtmWgt=   1.0078250   1.0078250
 NucSpn=           1           1
 AtZEff=   1.0000000   1.0000000
 NQMom=    0.0000000   0.0000000
 NMagM=    2.7928460   2.7928460
 AtZNuc=   1.0000000   1.0000000
 Leave Link  101 at Thu Dec 14 12:46:48 2023, MaxMem= 14763950080 cpu:               0.1 elap:               0.1
 (Enter /software/commercial/gaussian/g16/AVX2/g16/l103.exe)

 GradGradGradGradGradGradGradGradGradGradGradGradGradGradGradGradGradGrad
 Berny optimization.
 Initialization pass.
 Trust Radius=3.00D-01 FncErr=1.00D-07 GrdErr=1.00D-07 EigMax=2.50D+02 EigMin=1.00D-04
 Number of steps in this run=      2 maximum allowed number of steps=      2.
 GradGradGradGradGradGradGradGradGradGradGradGradGradGradGradGradGradGrad

 Leave Link  103 at Thu Dec 14 12:46:49 2023, MaxMem= 14763950080 cpu:               0.1 elap:               0.0
 (Enter /software/commercial/gaussian/g16/AVX2/g16/l202.exe)
                          Input orientation:                          
 ---------------------------------------------------------------------
 Center     Atomic      Atomic             Coordinates (Angstroms)
 Number     Number       Type             X           Y           Z
 ---------------------------------------------------------------------
      1          6           0       -0.353255    0.511068   -0.215337
      2          6           0       -1.036942   -0.686028   -0.454351
      3          6           0       -0.035443   -1.698098   -0.463855
      4          1           0       -2.102823   -0.812700   -0.599688
      5          6           0        1.182496   -1.043844   -0.229955
      6          1           0       -0.177110   -2.761302   -0.617736
      7          7           0        0.994439    0.301344   -0.078718
      8          1           0       -0.769666    1.509746   -0.136832
      9          6           0        2.551631   -1.658013   -0.143923
     10          1           0        2.498775   -2.743239   -0.270406
     11          1           0        3.031055   -1.461864    0.823195
     12          1           0        3.228283   -1.269658   -0.915686
 ---------------------------------------------------------------------
                    Distance matrix (angstroms):
                    1          2          3          4          5
     1  C    0.000000
     2  C    1.399141   0.000000
     3  C    2.245702   1.423860   0.000000
     4  H    2.227347   1.083176   2.253095   0.000000
     5  C    2.185519   2.259268   1.402189   3.314129   0.000000
     6  H    3.301720   2.252280   1.083583   2.739661   2.224538
     7  N    1.370739   2.289653   2.281831   3.332496   1.366663
     8  H    1.084859   2.234654   3.307006   2.717591   3.215654
     9  C    3.626068   3.730815   2.607090   4.752496   1.503042
    10  H    4.327542   4.094783   2.748091   5.001010   2.149923
    11  H    4.052723   4.333895   3.334024   5.366816   2.168187
    12  H    4.060651   4.329619   3.322593   5.359977   2.169439
                    6          7          8          9         10
     6  H    0.000000
     7  N    3.323081   0.000000
     8  H    4.338691   2.139083   0.000000
     9  C    2.981237   2.503633   4.589745   0.000000
    10  H    2.698393   3.401361   5.365485   1.093850   0.000000
    11  H    3.749286   2.840802   4.919106   1.097105   1.766694
    12  H    3.729676   2.856330   4.931054   1.097404   1.766355
                   11         12
    11  H    0.000000
    12  H    1.760554   0.000000
 Symmetry turned off by external request.
 Stoichiometry    C5H6N(1-)
 Framework group  C1[X(C5H6N)]
 Deg. of freedom    30
 Full point group                 C1      NOp   1
 Rotational constants (GHZ):           8.8485889           3.4973098           2.5460496
 Leave Link  202 at Thu Dec 14 12:46:49 2023, MaxMem= 14763950080 cpu:               0.1 elap:               0.0
 (Enter /software/commercial/gaussian/g16/AVX2/g16/l301.exe)
 Standard basis: 6-311+G(d,p) (5D, 7F)
 Ernie: Thresh=  0.10000D-02 Tol=  0.10000D-05 Strict=F.
   168 basis functions,   264 primitive gaussians,   174 cartesian basis functions
    22 alpha electrons       22 beta electrons
       nuclear repulsion energy       210.3800224141 Hartrees.
 IExCor=  402 DFT=T Ex+Corr=B3LYP ExCW=0 ScaHFX=  0.200000
 ScaDFX=  0.800000  0.720000  1.000000  0.810000 ScalE2=  1.000000  1.000000
 IRadAn=      5 IRanWt=     -1 IRanGd=            0 ICorTp=0 IEmpDi=141
 NAtoms=   12 NActive=   12 NUniq=   12 SFac= 1.00D+00 NAtFMM=   60 NAOKFM=F Big=F
 Integral buffers will be    131072 words long.
 Raffenetti 2 integral format.
 Two-electron integral symmetry is turned off.
 R6Disp:  Grimme-D3(BJ) Dispersion energy=       -0.0166713073 Hartrees.
 Nuclear repulsion after empirical dispersion term =      210.3633511068 Hartrees.
 Force inversion solution in PCM.
 ------------------------------------------------------------------------------
 Polarizable Continuum Model (PCM)
 =================================
 Model                : PCM.
 Atomic radii         : UFF (Universal Force Field).
 Polarization charges : Total charges.
 Charge compensation  : None.
 Solution method      : Matrix inversion.
 Cavity type          : Scaled VdW (van der Waals Surface) (Alpha=1.100).
 Cavity algorithm     : GePol (No added spheres)
                        Default sphere list used, NSphG=   12.
                        Lebedev-Laikov grids with approx.  5.0 points / Ang**2.
                        Smoothing algorithm: York/Karplus (Gamma=1.0000).
                        Polarization charges: spherical gaussians, with
                                              point-specific exponents (IZeta= 3).
                        Self-potential: point-specific (ISelfS= 7).
                        Self-field    : sphere-specific E.n sum rule (ISelfD= 2).
 1st derivatives      : Analytical E(r).r(x)/FMM algorithm (CHGder, D1EAlg=3).
                        Cavity 1st derivative terms included.
 2nd derivatives      : Analytical E(r).r(xy)/FMM algorithm (CHGder, D2EAlg=3).
                        Cavity 2nd derivative terms included.
 Solvent              : Ethanol, Eps=  24.852000 Eps(inf)=   1.852593
 ------------------------------------------------------------------------------
 Spheres list:
 ISph  on   Nord     Re0    Alpha      Xe            Ye            Ze
    1   C      1    1.9255  1.100     -0.353255      0.511068     -0.215337
    2   C      2    1.9255  1.100     -1.036942     -0.686028     -0.454351
    3   C      3    1.9255  1.100     -0.035443     -1.698098     -0.463855
    4   H      4    1.4430  1.100     -2.102823     -0.812700     -0.599688
    5   C      5    1.9255  1.100      1.182496     -1.043844     -0.229955
    6   H      6    1.4430  1.100     -0.177110     -2.761302     -0.617736
    7   N      7    1.8300  1.100      0.994439      0.301344     -0.078718
    8   H      8    1.4430  1.100     -0.769666      1.509746     -0.136832
    9   C      9    1.9255  1.100      2.551631     -1.658013     -0.143923
   10   H     10    1.4430  1.100      2.498775     -2.743239     -0.270406
   11   H     11    1.4430  1.100      3.031055     -1.461864      0.823195
   12   H     12    1.4430  1.100      3.228283     -1.269658     -0.915686
 ------------------------------------------------------------------------------
 GePol: Number of generator spheres                  =      12
 GePol: Total number of spheres                      =      12
 GePol: Number of exposed spheres                    =      12 (100.00%)
 GePol: Number of points                             =    1093
 GePol: Average weight of points                     =       0.13
 GePol: Minimum weight of points                     =   0.17D-08
 GePol: Maximum weight of points                     =    0.20577
 GePol: Number of points with low weight             =      57
 GePol: Fraction of low-weight points (<1% of avg)   =       5.22%
 GePol: Cavity surface area                          =    146.582 Ang**2
 GePol: Cavity volume                                =    135.502 Ang**3
 Leave Link  301 at Thu Dec 14 12:46:49 2023, MaxMem= 14763950080 cpu:               0.1 elap:               0.1
 (Enter /software/commercial/gaussian/g16/AVX2/g16/l302.exe)
 NPDir=0 NMtPBC=     1 NCelOv=     1 NCel=       1 NClECP=     1 NCelD=      1
         NCelK=      1 NCelE2=     1 NClLst=     1 CellRange=     0.0.
 One-electron integrals computed using PRISM.
 NBasis=   168 RedAO= T EigKep=  1.23D-05  NBF=   168
 NBsUse=   168 1.00D-06 EigRej= -1.00D+00 NBFU=   168
 Precomputing XC quadrature grid using
 IXCGrd= 4 IRadAn=           5 IRanWt=          -1 IRanGd=           0 AccXCQ= 0.00D+00.
 Generated NRdTot=       0 NPtTot=           0 NUsed=           0 NTot=          32
 NSgBfM=   174   174   174   174   174 MxSgAt=    12 MxSgA2=    12.
 Leave Link  302 at Thu Dec 14 12:46:50 2023, MaxMem= 14763950080 cpu:               1.0 elap:               0.2
 (Enter /software/commercial/gaussian/g16/AVX2/g16/l303.exe)
 DipDrv:  MaxL=1.
 Leave Link  303 at Thu Dec 14 12:46:50 2023, MaxMem= 14763950080 cpu:               0.1 elap:               0.1
 (Enter /software/commercial/gaussian/g16/AVX2/g16/l401.exe)
 Initial guess from the checkpoint file:  "/scratch1/svicchi/G09-1734041.pbs02/02-freq/PyrMe-isolated-freq.chk"
 B after Tr=     0.000000    0.000000    0.000000
         Rot=    1.000000    0.000000    0.000000    0.000000 Ang=   0.00 deg.
 Guess basis will be translated and rotated to current coordinates.
 JPrj=2 DoOrth=T DoCkMO=T.
 Leave Link  401 at Thu Dec 14 12:46:50 2023, MaxMem= 14763950080 cpu:               0.4 elap:               0.1
 (Enter /software/commercial/gaussian/g16/AVX2/g16/l502.exe)
 Keep R1 ints in memory in canonical form, NReq=112787440.
 FoFCou: FMM=F IPFlag=           0 FMFlag=           0 FMFlg1=           0
         NFxFlg=           0 DoJE=F BraDBF=F KetDBF=F FulRan=T
         wScrn=  0.000000 ICntrl=       600 IOpCl=  0 I1Cent=           0 NGrid=           0
         NMat0=    1 NMatS0=  14196 NMatT0=    0 NMatD0=    1 NMtDS0=    0 NMtDT0=    0
 Symmetry not used in FoFCou.
 Two-electron integral symmetry not used.
 Closed shell SCF:
 Using DIIS extrapolation, IDIIS=  1040.
 NGot= 14763950080 LenX= 14663115450 LenY= 14663084733
 Requested convergence on RMS density matrix=1.00D-08 within 350 cycles.
 Requested convergence on MAX density matrix=1.00D-06.
 Requested convergence on             energy=1.00D-06.
 No special actions if energy rises.

 Cycle   1  Pass 1  IDiag  1:
 Inv3:  Mode=1 IEnd=     3583947.
 Iteration    1 A*A^-1 deviation from unit magnitude is 2.89D-15 for    217.
 Iteration    1 A*A^-1 deviation from orthogonality  is 3.34D-15 for    829    235.
 Iteration    1 A^-1*A deviation from unit magnitude is 3.11D-15 for     78.
 Iteration    1 A^-1*A deviation from orthogonality  is 2.26D-15 for    762    549.
 E= -249.080139566979    
 DIIS: error= 1.43D-08 at cycle   1 NSaved=   1.
 NSaved= 1 IEnMin= 1 EnMin= -249.080139566979     IErMin= 1 ErrMin= 1.43D-08
 ErrMax= 1.43D-08  0.00D+00 EMaxC= 1.00D-01 BMatC= 2.12D-14 BMatP= 2.12D-14
 IDIUse=1 WtCom= 1.00D+00 WtEn= 0.00D+00
 Coeff-Com:  0.100D+01
 Coeff:      0.100D+01
 Gap=     0.178 Goal=   None    Shift=    0.000
 RMSDP=2.88D-09 MaxDP=8.00D-08              OVMax= 1.43D-07

 Error on total polarization charges =  0.02605
 SCF Done:  E(RB3LYP) =  -249.080139567     A.U. after    1 cycles
            NFock=  1  Conv=0.29D-08     -V/T= 2.0048
 KE= 2.478807976267D+02 PE=-1.008769139552D+03 EE= 3.014448512513D+02
 Leave Link  502 at Thu Dec 14 12:46:53 2023, MaxMem= 14763950080 cpu:              17.8 elap:               1.9
 (Enter /software/commercial/gaussian/g16/AVX2/g16/l508.exe)
 QCSCF skips out because SCF is already converged.
 Leave Link  508 at Thu Dec 14 12:46:53 2023, MaxMem= 14763950080 cpu:               0.0 elap:               0.0
 (Enter /software/commercial/gaussian/g16/AVX2/g16/l801.exe)
 DoSCS=F DFT=T ScalE2(SS,OS)=  1.000000  1.000000
 Range of M.O.s used for correlation:     1   168
 NBasis=   168 NAE=    22 NBE=    22 NFC=     0 NFV=     0
 NROrb=    168 NOA=    22 NOB=    22 NVA=   146 NVB=   146

 **** Warning!!: The largest alpha MO coefficient is  0.90702879D+02

 Leave Link  801 at Thu Dec 14 12:46:53 2023, MaxMem= 14763950080 cpu:               0.1 elap:               0.1
 (Enter /software/commercial/gaussian/g16/AVX2/g16/l1002.exe)
 Minotr:  Closed shell wavefunction.
 NEqPCM:  Using equilibrium solvation (IEInf=0, Eps=  24.8520, EpsInf=   1.8526)
          Direct CPHF calculation.
          Differentiating once with respect to electric field.
                with respect to dipole field.
          Electric field/nuclear overlap derivatives assumed to be zero.
          Requested convergence is 1.0D-08 RMS, and 1.0D-07 maximum.
          Secondary convergence is 1.0D-12 RMS, and 1.0D-12 maximum.
          NewPWx=F KeepS1=T KeepF1=T KeepIn=T MapXYZ=F SortEE=F KeepMc=T.
         3675 words used for storage of precomputed grid.
 Keep R1 ints in memory in canonical form, NReq=112754917.
 FoFCou: FMM=F IPFlag=           0 FMFlag=           0 FMFlg1=           0
         NFxFlg=           0 DoJE=F BraDBF=F KetDBF=F FulRan=T
         wScrn=  0.000000 ICntrl=       600 IOpCl=  0 I1Cent=           0 NGrid=           0
         NMat0=    1 NMatS0=  14196 NMatT0=    0 NMatD0=    1 NMtDS0=    0 NMtDT0=    0
 Symmetry not used in FoFCou.
 Two-electron integral symmetry not used.
          MDV=   14763950080 using IRadAn=       1.
          Solving linear equations simultaneously, MaxMat=       0.
          There are     3 degrees of freedom in the 1st order CPHF.  IDoFFX=0 NUNeed=     3.
      3 vectors produced by pass  0 Test12= 1.07D-13 3.33D-08 XBig12= 8.80D+01 3.86D+00.
 AX will form     3 AO Fock derivatives at one time.
      3 vectors produced by pass  1 Test12= 1.07D-13 3.33D-08 XBig12= 3.35D+01 1.68D+00.
      3 vectors produced by pass  2 Test12= 1.07D-13 3.33D-08 XBig12= 4.14D+00 5.37D-01.
      3 vectors produced by pass  3 Test12= 1.07D-13 3.33D-08 XBig12= 8.74D-01 2.75D-01.
      3 vectors produced by pass  4 Test12= 1.07D-13 3.33D-08 XBig12= 1.56D-01 1.24D-01.
      3 vectors produced by pass  5 Test12= 1.07D-13 3.33D-08 XBig12= 7.96D-03 2.02D-02.
      3 vectors produced by pass  6 Test12= 1.07D-13 3.33D-08 XBig12= 4.87D-04 3.59D-03.
      3 vectors produced by pass  7 Test12= 1.07D-13 3.33D-08 XBig12= 2.95D-05 8.93D-04.
      3 vectors produced by pass  8 Test12= 1.07D-13 3.33D-08 XBig12= 1.60D-06 2.44D-04.
      3 vectors produced by pass  9 Test12= 1.07D-13 3.33D-08 XBig12= 5.25D-08 5.48D-05.
      3 vectors produced by pass 10 Test12= 1.07D-13 3.33D-08 XBig12= 1.37D-09 7.94D-06.
      2 vectors produced by pass 11 Test12= 1.07D-13 3.33D-08 XBig12= 4.32D-11 1.45D-06.
      2 vectors produced by pass 12 Test12= 1.07D-13 3.33D-08 XBig12= 1.19D-12 1.66D-07.
 InvSVY:  IOpt=1 It=  1 EMax= 2.41D-15
 Solved reduced A of dimension    37 with     3 vectors.
 End of Minotr F.D. properties file   721 does not exist.
 End of Minotr F.D. properties file   722 does not exist.
 End of Minotr F.D. properties file   788 does not exist.
 Leave Link 1002 at Thu Dec 14 12:47:06 2023, MaxMem= 14763950080 cpu:             108.5 elap:              12.2
 (Enter /software/commercial/gaussian/g16/AVX2/g16/l1101.exe)
 Using compressed storage, NAtomX=    12.
 Will process     13 centers per pass.
 R6Disp: Adding Grimme-D3(BJ) dispersion energy 1st derivatives to the gradient.
 Leave Link 1101 at Thu Dec 14 12:47:06 2023, MaxMem= 14763950080 cpu:               1.1 elap:               0.2
 (Enter /software/commercial/gaussian/g16/AVX2/g16/l1102.exe)
 Symmetrizing basis deriv contribution to polar:
 IMax=3 JMax=2 DiffMx= 0.00D+00
 Leave Link 1102 at Thu Dec 14 12:47:06 2023, MaxMem= 14763950080 cpu:               0.1 elap:               0.1
 (Enter /software/commercial/gaussian/g16/AVX2/g16/l1110.exe)
 Forming Gx(P) for the SCF density, NAtomX=    12.
 Integral derivatives from FoFJK, PRISM(SPDF).
 Do as many integral derivatives as possible in FoFJK.
 G2DrvN: MDV=   14763948708.
 G2DrvN: will do    13 centers at a time, making    1 passes.
 PxScal for G2LodP:  IOpCl= 0 ISclPx=1 IMOff=     1 NMtTot=     4 NTT=   14196 ScalPx= 2.27D+01
 Calling FoFCou, ICntrl=  3107 FMM=F I1Cent=   0 AccDes= 0.00D+00.
 FoFJK:  IHMeth= 1 ICntrl=    3107 DoSepK=F KAlg= 0 I1Cent=           0 FoldK=F
 IRaf=         0 NMat=       1 IRICut=       1 DoRegI=T DoRafI=F ISym2E= 0 IDoP0=0 IntGTp=1.
 FoFCou: FMM=F IPFlag=           0 FMFlag=      100000 FMFlg1=           0
         NFxFlg=           0 DoJE=F BraDBF=F KetDBF=F FulRan=T
         wScrn=  0.000000 ICntrl=      3107 IOpCl=  0 I1Cent=           0 NGrid=           0
         NMat0=    1 NMatS0=      1 NMatT0=    0 NMatD0=    4 NMtDS0=    3 NMtDT0=    0
 Symmetry not used in FoFCou.
 PxScal for G2LodP:  IOpCl= 0 ISclPx=0 IMOff=     1 NMtTot=     4 NTT=   14196 ScalPx= 1.00D+00
 NEqPCM:  Using equilibrium solvation (IEInf=0, Eps=  24.8520, EpsInf=   1.8526)
 G2PCM: DoFxE=T DoFxN=T DoGrad=T DoDP/DQ/DG/TGxP=TFFF NFrqRd=   0 IEInf=0 SqF1=F DoCFld=F IF1Alg=4.
 GePol: Maximum number of non-zero 1st derivatives   =     223
 End of G2Drv F.D. properties file   721 does not exist.
 End of G2Drv F.D. properties file   722 does not exist.
 End of G2Drv F.D. properties file   788 does not exist.
 Leave Link 1110 at Thu Dec 14 12:47:21 2023, MaxMem= 14763950080 cpu:             170.9 elap:              14.6
 (Enter /software/commercial/gaussian/g16/AVX2/g16/l1002.exe)
 Minotr:  Closed shell wavefunction.
          IDoAtm=111111111111
 NEqPCM:  Using equilibrium solvation (IEInf=0, Eps=  24.8520, EpsInf=   1.8526)
          Direct CPHF calculation.
          Differentiating once with respect to electric field.
                with respect to dipole field.
          Differentiating once with respect to nuclear coordinates.
          Requested convergence is 1.0D-08 RMS, and 1.0D-07 maximum.
          Secondary convergence is 1.0D-12 RMS, and 1.0D-12 maximum.
          NewPWx=T KeepS1=F KeepF1=F KeepIn=T MapXYZ=F SortEE=F KeepMc=T.
         3675 words used for storage of precomputed grid.
 Keep R1 ints in memory in canonical form, NReq=112757629.
 FoFCou: FMM=F IPFlag=           0 FMFlag=           0 FMFlg1=           0
         NFxFlg=           0 DoJE=F BraDBF=F KetDBF=F FulRan=T
         wScrn=  0.000000 ICntrl=       600 IOpCl=  0 I1Cent=           0 NGrid=           0
         NMat0=    1 NMatS0=  14196 NMatT0=    0 NMatD0=    1 NMtDS0=    0 NMtDT0=    0
 Symmetry not used in FoFCou.
 Two-electron integral symmetry not used.
          MDV=   14763950080 using IRadAn=       1.
          Solving linear equations simultaneously, MaxMat=       0.
          There are    39 degrees of freedom in the 1st order CPHF.  IDoFFX=5 NUNeed=    39.
 Will reuse    3 saved solutions.
     33 vectors produced by pass  0 Test12= 8.24D-15 2.56D-09 XBig12= 1.38D-01 8.25D-02.
 AX will form    33 AO Fock derivatives at one time.
     33 vectors produced by pass  1 Test12= 8.24D-15 2.56D-09 XBig12= 3.26D-02 6.40D-02.
     33 vectors produced by pass  2 Test12= 8.24D-15 2.56D-09 XBig12= 3.92D-04 5.09D-03.
     33 vectors produced by pass  3 Test12= 8.24D-15 2.56D-09 XBig12= 2.83D-06 3.74D-04.
     33 vectors produced by pass  4 Test12= 8.24D-15 2.56D-09 XBig12= 9.42D-09 1.89D-05.
     31 vectors produced by pass  5 Test12= 8.24D-15 2.56D-09 XBig12= 1.88D-11 9.67D-07.
     13 vectors produced by pass  6 Test12= 8.24D-15 2.56D-09 XBig12= 2.75D-14 2.77D-08.
 InvSVY:  IOpt=1 It=  1 EMax= 8.88D-16
 Solved reduced A of dimension   209 with    33 vectors.
 FullF1:  Do perturbations      1 to       3.
 Isotropic polarizability for W=    0.000000      103.73 Bohr**3.
 FullF1:  Do perturbations      1 to       6.
 End of Minotr F.D. properties file   721 does not exist.
 End of Minotr F.D. properties file   722 does not exist.
 End of Minotr F.D. properties file   788 does not exist.
 Leave Link 1002 at Thu Dec 14 12:47:34 2023, MaxMem= 14763950080 cpu:             141.9 elap:              12.6
 (Enter /software/commercial/gaussian/g16/AVX2/g16/l601.exe)
 Copying SCF densities to generalized density rwf, IOpCl= 0 IROHF=0.

 **********************************************************************

            Population analysis using the SCF Density.

 **********************************************************************

 Alpha  occ. eigenvalues --  -14.24200 -10.14291 -10.13937 -10.13322 -10.11449
 Alpha  occ. eigenvalues --  -10.11232  -0.88706  -0.71685  -0.69751  -0.62322
 Alpha  occ. eigenvalues --   -0.51396  -0.47705  -0.45696  -0.39645  -0.39158
 Alpha  occ. eigenvalues --   -0.34417  -0.33818  -0.32922  -0.32668  -0.22812
 Alpha  occ. eigenvalues --   -0.19097  -0.16392
 Alpha virt. eigenvalues --    0.01398   0.02847   0.04079   0.05010   0.05595
 Alpha virt. eigenvalues --    0.06127   0.06825   0.07580   0.07765   0.09024
 Alpha virt. eigenvalues --    0.09540   0.09684   0.10666   0.12398   0.13652
 Alpha virt. eigenvalues --    0.14735   0.15250   0.16308   0.16327   0.18616
 Alpha virt. eigenvalues --    0.20181   0.20992   0.21424   0.21946   0.23186
 Alpha virt. eigenvalues --    0.23294   0.23987   0.24220   0.25408   0.26415
 Alpha virt. eigenvalues --    0.29079   0.30711   0.31125   0.32132   0.34173
 Alpha virt. eigenvalues --    0.41690   0.44726   0.46342   0.46699   0.49660
 Alpha virt. eigenvalues --    0.51745   0.55347   0.57543   0.58102   0.61073
 Alpha virt. eigenvalues --    0.61745   0.62647   0.63765   0.66788   0.67042
 Alpha virt. eigenvalues --    0.68764   0.71292   0.74210   0.76644   0.78249
 Alpha virt. eigenvalues --    0.80572   0.82552   0.85320   0.87213   0.87842
 Alpha virt. eigenvalues --    0.89479   0.92048   0.92889   0.98303   0.98808
 Alpha virt. eigenvalues --    1.03811   1.07921   1.10531   1.11646   1.15147
 Alpha virt. eigenvalues --    1.21364   1.25957   1.32251   1.33081   1.41515
 Alpha virt. eigenvalues --    1.47989   1.49415   1.55820   1.56013   1.59008
 Alpha virt. eigenvalues --    1.60574   1.60957   1.66337   1.67704   1.71530
 Alpha virt. eigenvalues --    1.73585   1.77230   1.77910   1.79918   1.85612
 Alpha virt. eigenvalues --    1.87667   1.91868   1.97355   1.97684   2.01817
 Alpha virt. eigenvalues --    2.02478   2.07094   2.11689   2.16067   2.20660
 Alpha virt. eigenvalues --    2.28492   2.36875   2.37506   2.44312   2.44581
 Alpha virt. eigenvalues --    2.48676   2.49970   2.50956   2.53906   2.55161
 Alpha virt. eigenvalues --    2.58088   2.66705   2.67120   2.68809   2.71910
 Alpha virt. eigenvalues --    2.76837   2.78123   2.81270   2.82358   2.89101
 Alpha virt. eigenvalues --    2.93782   2.95793   2.98817   3.07118   3.08467
 Alpha virt. eigenvalues --    3.26034   3.28401   3.34114   3.44643   3.47906
 Alpha virt. eigenvalues --    3.70768   3.80445   3.82866   3.91423   3.98040
 Alpha virt. eigenvalues --    4.11719   4.21573   4.39678   4.55581   5.18236
 Alpha virt. eigenvalues --   23.77316  23.92259  23.98706  24.09791  24.18701
 Alpha virt. eigenvalues --   35.65045
          Condensed to atoms (all electrons):
               1          2          3          4          5          6
     1  C    5.403175   0.495036  -0.421600  -0.032856   0.033796  -0.000582
     2  C    0.495036   5.246830   0.588881   0.381096  -0.237632  -0.010095
     3  C   -0.421600   0.588881   5.752432  -0.033390  -0.009174   0.360204
     4  H   -0.032856   0.381096  -0.033390   0.570984   0.014223  -0.002821
     5  C    0.033796  -0.237632  -0.009174   0.014223   5.930731  -0.018742
     6  H   -0.000582  -0.010095   0.360204  -0.002821  -0.018742   0.573498
     7  N    0.219627  -0.058009   0.125122   0.010178   0.137090   0.010822
     8  H    0.442246  -0.064614  -0.006561  -0.001260   0.033327  -0.000178
     9  C    0.045621  -0.040365  -0.103019   0.002649   0.168453   0.001863
    10  H   -0.003323   0.003109   0.005015  -0.000054  -0.107720   0.000609
    11  H    0.004981  -0.000540  -0.012614   0.000021  -0.022556   0.000038
    12  H    0.004958  -0.000445  -0.013760   0.000020  -0.019099   0.000044
               7          8          9         10         11         12
     1  C    0.219627   0.442246   0.045621  -0.003323   0.004981   0.004958
     2  C   -0.058009  -0.064614  -0.040365   0.003109  -0.000540  -0.000445
     3  C    0.125122  -0.006561  -0.103019   0.005015  -0.012614  -0.013760
     4  H    0.010178  -0.001260   0.002649  -0.000054   0.000021   0.000020
     5  C    0.137090   0.033327   0.168453  -0.107720  -0.022556  -0.019099
     6  H    0.010822  -0.000178   0.001863   0.000609   0.000038   0.000044
     7  N    7.218827  -0.079568  -0.182349   0.013868  -0.006007  -0.005889
     8  H   -0.079568   0.590878   0.001432   0.000026  -0.000016  -0.000013
     9  C   -0.182349   0.001432   5.471474   0.459747   0.394184   0.390586
    10  H    0.013868   0.000026   0.459747   0.558628  -0.028612  -0.028958
    11  H   -0.006007  -0.000016   0.394184  -0.028612   0.589537  -0.045328
    12  H   -0.005889  -0.000013   0.390586  -0.028958  -0.045328   0.590754
 Mulliken charges:
               1
     1  C   -0.191080
     2  C   -0.303252
     3  C   -0.231537
     4  H    0.091209
     5  C    0.097303
     6  H    0.085339
     7  N   -0.403712
     8  H    0.084301
     9  C   -0.610277
    10  H    0.127664
    11  H    0.126912
    12  H    0.127129
 Sum of Mulliken charges =  -1.00000
 Mulliken charges with hydrogens summed into heavy atoms:
               1
     1  C   -0.106779
     2  C   -0.212043
     3  C   -0.146198
     5  C    0.097303
     7  N   -0.403712
     9  C   -0.228572
 APT charges:
               1
     1  C    0.003730
     2  C   -0.217354
     3  C   -0.274487
     4  H    0.035188
     5  C    0.123223
     6  H    0.034576
     7  N   -0.720052
     8  H    0.009774
     9  C    0.217906
    10  H   -0.038744
    11  H   -0.084943
    12  H   -0.088818
 Sum of APT charges =  -1.00000
 APT charges with hydrogens summed into heavy atoms:
               1
     1  C    0.013504
     2  C   -0.182165
     3  C   -0.239911
     5  C    0.123223
     7  N   -0.720052
     9  C    0.005402
 Electronic spatial extent (au):  <R**2>=            690.2255
 Charge=             -1.0000 electrons
 Dipole moment (field-independent basis, Debye):
    X=             -2.4213    Y=              0.5016    Z=              0.9208  Tot=              2.6386
 Quadrupole moment (field-independent basis, Debye-Ang):
   XX=            -45.9052   YY=            -43.6216   ZZ=            -44.7654
   XY=             -2.6848   XZ=              0.0612   YZ=             -0.3389
 Traceless Quadrupole moment (field-independent basis, Debye-Ang):
   XX=             -1.1412   YY=              1.1424   ZZ=             -0.0013
   XY=             -2.6848   XZ=              0.0612   YZ=             -0.3389
 Octapole moment (field-independent basis, Debye-Ang**2):
  XXX=            -79.8504  YYY=             90.8159  ZZZ=             36.8946  XYY=            -26.2355
  XXY=             27.9969  XXZ=             10.0485  XZZ=            -21.4647  YZZ=             32.4954
  YYZ=             10.5719  XYZ=             -0.5920
 Hexadecapole moment (field-independent basis, Debye-Ang**3):
 XXXX=           -565.4753 YYYY=           -406.4842 ZZZZ=            -98.6722 XXXY=            109.5144
 XXXZ=              2.9471 YYYX=            103.3601 YYYZ=            -26.9046 ZZZX=             -0.8284
 ZZZY=            -36.3610 XXYY=           -168.8036 XXZZ=           -108.2762 YYZZ=            -93.1100
 XXYZ=            -10.0329 YYXZ=              1.2303 ZZXY=             35.1898
 N-N= 2.103633511068D+02 E-N=-1.008769140803D+03  KE= 2.478807976267D+02
  Exact polarizability:     118.394      -0.212     111.855       4.615       4.167      80.951
 Approx polarizability:     125.574       2.220     122.703       5.440       5.478      84.288
 No NMR shielding tensors so no spin-rotation constants.
 Leave Link  601 at Thu Dec 14 12:47:34 2023, MaxMem= 14763950080 cpu:               1.0 elap:               0.1
 (Enter /software/commercial/gaussian/g16/AVX2/g16/l701.exe)
 ... and contract with generalized density number  0.
 Compute integral second derivatives.
 R6Disp: Adding Grimme-D3(BJ) dispersion energy 2nd derivatives to the Hessian.
 D2PCM: PCM CHGder 2nd derivatives, FixD1E=F FixD2E=F DoIter=F DoCFld=F I1PDM=0
 GePol: Maximum number of non-zero 2nd derivatives   =     223
 Leave Link  701 at Thu Dec 14 12:47:37 2023, MaxMem= 14763950080 cpu:              23.6 elap:               2.2
 (Enter /software/commercial/gaussian/g16/AVX2/g16/l702.exe)
 L702 exits ... SP integral derivatives will be done elsewhere.
 Leave Link  702 at Thu Dec 14 12:47:37 2023, MaxMem= 14763950080 cpu:               0.1 elap:               0.0
 (Enter /software/commercial/gaussian/g16/AVX2/g16/l703.exe)
 Integral derivatives from FoFJK, PRISM(SPDF).
 Compute integral second derivatives, UseDBF=F ICtDFT=           0.
 Calling FoFJK, ICntrl=    100127 FMM=F ISym2X=0 I1Cent= 0 IOpClX= 0 NMat=1 NMatS=1 NMatT=0.
 FoFJK:  IHMeth= 1 ICntrl=  100127 DoSepK=F KAlg= 0 I1Cent=           0 FoldK=F
 IRaf=         0 NMat=       1 IRICut=       1 DoRegI=T DoRafI=F ISym2E= 0 IDoP0=0 IntGTp=1.
 FoFCou: FMM=F IPFlag=           0 FMFlag=      100000 FMFlg1=         800
         NFxFlg=           0 DoJE=F BraDBF=F KetDBF=F FulRan=T
         wScrn=  0.000000 ICntrl=    100127 IOpCl=  0 I1Cent=           0 NGrid=           0
         NMat0=    1 NMatS0=      1 NMatT0=    0 NMatD0=    1 NMtDS0=    0 NMtDT0=    0
 Symmetry not used in FoFCou.
 Leave Link  703 at Thu Dec 14 12:47:52 2023, MaxMem= 14763950080 cpu:             178.6 elap:              15.0
 (Enter /software/commercial/gaussian/g16/AVX2/g16/l716.exe)
 Dipole        =-9.52599291D-01 1.97324997D-01 3.62274480D-01
 Polarizability= 1.18394357D+02-2.11947420D-01 1.11855343D+02
                 4.61482395D+00 4.16747842D+00 8.09513055D+01
 HyperPolar    = 4.68532003D+01-1.67244437D+01-1.33743562D+02
                 8.40504712D+01 9.97416425D+01 2.93099568D+01
                -1.42669732D+01-3.80395363D+02 4.30923984D+01
                -1.30321904D+02
 Full mass-weighted force constant matrix:
 Low frequencies ---  -45.7392   -0.0006   -0.0005   -0.0004   11.5321   46.0090
 Low frequencies ---  101.9077  243.2459  346.8975
 Diagonal vibrational polarizability:
        3.4325508       5.0830369      23.8315111
 Diagonal vibrational hyperpolarizability:
       15.5062100       5.8381512      24.3233691
 Harmonic frequencies (cm**-1), IR intensities (KM/Mole), Raman scattering
 activities (A**4/AMU), depolarization ratios for plane and unpolarized
 incident light, reduced masses (AMU), force constants (mDyne/A),
 and normal coordinates:
                      1                      2                      3
                      A                      A                      A
 Frequencies --    101.2746               242.5793               346.8706
 Red. masses --      1.0921                 2.8995                 2.5629
 Frc consts  --      0.0066                 0.1005                 0.1817
 IR Inten    --      0.9477                16.9666                10.1416
 Raman Activ --      0.4968                 6.7541                 2.6257
 Depolar (P) --      0.7484                 0.7499                 0.6916
 Depolar (U) --      0.8561                 0.8571                 0.8177
  Atom  AN      X      Y      Z        X      Y      Z        X      Y      Z
     1   6    -0.00  -0.00   0.01     0.02   0.02  -0.12     0.09   0.00   0.01
     2   6     0.01   0.01  -0.04     0.02   0.02  -0.14    -0.04   0.08   0.01
     3   6     0.00   0.00  -0.02    -0.02  -0.02   0.16    -0.15  -0.05  -0.02
     4   1     0.01   0.01  -0.07     0.04   0.04  -0.31    -0.06   0.20   0.02
     5   6    -0.00  -0.00   0.03    -0.03  -0.03   0.24    -0.07  -0.15  -0.03
     6   1     0.01   0.01  -0.04    -0.02  -0.02   0.14    -0.30  -0.02  -0.04
     7   7    -0.01  -0.01   0.05    -0.02  -0.02   0.13     0.05  -0.15  -0.01
     8   1    -0.00  -0.00   0.03     0.03   0.03  -0.27     0.21   0.05   0.03
     9   6     0.00   0.00  -0.03     0.02   0.02  -0.17     0.09   0.19   0.03
    10   1    -0.06  -0.06   0.52     0.06   0.06  -0.51     0.52   0.16   0.08
    11   1     0.25   0.48  -0.25     0.25  -0.25  -0.23    -0.04   0.43   0.04
    12   1    -0.18  -0.41  -0.39    -0.21   0.32  -0.22    -0.03   0.43   0.06
                      4                      5                      6
                      A                      A                      A
 Frequencies --    633.5067               657.3370               676.8572
 Red. masses --      3.4054                 4.2022                 3.2428
 Frc consts  --      0.8052                 1.0698                 0.8753
 IR Inten    --     17.3927                 1.3327                27.2007
 Raman Activ --      0.2401                14.0162                20.9568
 Depolar (P) --      0.7444                 0.1917                 0.7500
 Depolar (U) --      0.8535                 0.3217                 0.8571
  Atom  AN      X      Y      Z        X      Y      Z        X      Y      Z
     1   6     0.02   0.03  -0.21    -0.15   0.05  -0.01    -0.01  -0.02   0.12
     2   6    -0.04  -0.04   0.29    -0.16   0.08  -0.01     0.01   0.01  -0.08
     3   6     0.03   0.03  -0.23    -0.07   0.12   0.00     0.02   0.01  -0.12
     4   1    -0.03  -0.03   0.27    -0.15  -0.02  -0.02    -0.05  -0.05   0.41
     5   6    -0.02  -0.02   0.15     0.11  -0.04   0.01    -0.04  -0.04   0.29
     6   1     0.07   0.07  -0.56    -0.26   0.14  -0.02     0.03   0.02  -0.19
     7   7    -0.01  -0.01   0.06    -0.14  -0.00  -0.02     0.03   0.03  -0.26
     8   1     0.07   0.07  -0.58    -0.08   0.08   0.01    -0.07  -0.08   0.61
     9   6    -0.00  -0.00   0.01     0.38  -0.17   0.02    -0.01  -0.00   0.05
    10   1     0.01   0.00  -0.04     0.36  -0.17   0.02     0.01   0.01  -0.10
    11   1     0.13  -0.04  -0.04     0.42  -0.22   0.02     0.28  -0.11  -0.07
    12   1    -0.12   0.06  -0.06     0.40  -0.22   0.02    -0.27   0.14  -0.11
                      7                      8                      9
                      A                      A                      A
 Frequencies --    690.0787               725.5943               802.2732
 Red. masses --      1.2866                 1.3522                 1.2558
 Frc consts  --      0.3610                 0.4194                 0.4762
 IR Inten    --    185.0759                 1.5762                11.2637
 Raman Activ --     40.5775                60.6018                 9.2308
 Depolar (P) --      0.7496                 0.7496                 0.7493
 Depolar (U) --      0.8569                 0.8569                 0.8567
  Atom  AN      X      Y      Z        X      Y      Z        X      Y      Z
     1   6     0.01   0.01  -0.10    -0.01  -0.02   0.11     0.01   0.01  -0.10
     2   6     0.01   0.01  -0.06    -0.00  -0.00   0.01    -0.01  -0.01   0.10
     3   6     0.01   0.01  -0.05     0.02   0.02  -0.13     0.01   0.01  -0.06
     4   1    -0.10  -0.10   0.79     0.02   0.02  -0.16     0.07   0.08  -0.58
     5   6     0.00   0.00  -0.02    -0.00  -0.00   0.03    -0.00  -0.00   0.01
     6   1    -0.06  -0.06   0.50    -0.10  -0.10   0.77    -0.05  -0.05   0.40
     7   7    -0.01  -0.01   0.09     0.00   0.00  -0.02    -0.00  -0.00   0.00
     8   1    -0.03  -0.03   0.27     0.07   0.07  -0.56    -0.08  -0.09   0.67
     9   6     0.00   0.00  -0.01    -0.00  -0.00   0.01    -0.00  -0.00   0.00
    10   1     0.00   0.00  -0.01     0.00   0.00  -0.03     0.00   0.00  -0.02
    11   1    -0.03  -0.00   0.01     0.07  -0.02  -0.03     0.04  -0.01  -0.01
    12   1     0.03  -0.00   0.02    -0.06   0.03  -0.04    -0.03   0.02  -0.02
                     10                     11                     12
                      A                      A                      A
 Frequencies --    905.8049               958.7430               978.3985
 Red. masses --      5.4927                 2.6901                 1.4563
 Frc consts  --      2.6553                 1.4569                 0.8214
 IR Inten    --      0.3117                10.5063                19.8383
 Raman Activ --      5.5114                 4.5807                 4.2751
 Depolar (P) --      0.7121                 0.1945                 0.3670
 Depolar (U) --      0.8318                 0.3257                 0.5369
  Atom  AN      X      Y      Z        X      Y      Z        X      Y      Z
     1   6    -0.12   0.33   0.03     0.02  -0.03  -0.00    -0.04   0.02  -0.00
     2   6     0.38   0.08   0.06     0.07  -0.00   0.01     0.00  -0.01  -0.00
     3   6     0.08  -0.18  -0.01    -0.13  -0.23  -0.05     0.04   0.04   0.01
     4   1     0.43  -0.32   0.01    -0.02   0.65   0.08     0.02  -0.12  -0.02
     5   6    -0.05  -0.11  -0.02    -0.08   0.03  -0.00    -0.03  -0.04  -0.01
     6   1    -0.41  -0.10  -0.06    -0.22  -0.22  -0.06     0.18   0.02   0.03
     7   7    -0.23  -0.08  -0.04     0.06   0.22   0.03     0.04   0.08   0.01
     8   1    -0.12   0.33   0.03    -0.46  -0.22  -0.08    -0.17  -0.03  -0.02
     9   6    -0.01  -0.02  -0.00     0.09  -0.02   0.01    -0.04  -0.14  -0.02
    10   1     0.04  -0.03   0.00     0.05  -0.03   0.00     0.70  -0.18   0.06
    11   1    -0.02  -0.00  -0.00     0.13  -0.09   0.00    -0.22   0.37  -0.04
    12   1    -0.02  -0.00  -0.00     0.13  -0.09   0.01    -0.20   0.35   0.08
                     13                     14                     15
                      A                      A                      A
 Frequencies --   1022.2744              1049.2449              1090.7066
 Red. masses --      1.3729                 1.4497                 1.9329
 Frc consts  --      0.8453                 0.9404                 1.3548
 IR Inten    --     49.0274                 0.5390                13.0590
 Raman Activ --      0.9791                 0.9164                52.1861
 Depolar (P) --      0.6207                 0.7234                 0.0258
 Depolar (U) --      0.7660                 0.8395                 0.0502
  Atom  AN      X      Y      Z        X      Y      Z        X      Y      Z
     1   6    -0.00   0.02   0.00    -0.00   0.00  -0.00    -0.03  -0.16  -0.02
     2   6    -0.05   0.08   0.00     0.00  -0.00  -0.00     0.12   0.07   0.02
     3   6     0.09  -0.06   0.00    -0.00  -0.00   0.02     0.05   0.13   0.02
     4   1    -0.12   0.63   0.07    -0.00  -0.01   0.03     0.07   0.54   0.08
     5   6    -0.01  -0.01  -0.00     0.01   0.02  -0.13     0.07  -0.02   0.01
     6   1     0.71  -0.16   0.07     0.00   0.01  -0.04    -0.40   0.21  -0.02
     7   7    -0.08  -0.05  -0.02    -0.00  -0.00   0.02    -0.06  -0.06  -0.02
     8   1     0.09   0.06   0.02    -0.00   0.00  -0.01    -0.50  -0.35  -0.10
     9   6     0.00  -0.02  -0.00    -0.02  -0.02   0.15    -0.05   0.00  -0.00
    10   1     0.04  -0.02   0.00     0.05   0.03  -0.29    -0.00   0.00  -0.00
    11   1    -0.01   0.01  -0.00     0.62  -0.14  -0.15    -0.08   0.08  -0.00
    12   1    -0.02   0.02  -0.00    -0.59   0.20  -0.25    -0.08   0.08   0.00
                     16                     17                     18
                      A                      A                      A
 Frequencies --   1190.3321              1251.2280              1303.4505
 Red. masses --      2.1242                 2.4386                 5.4957
 Frc consts  --      1.7733                 2.2494                 5.5012
 IR Inten    --     28.7816                 0.5661                15.1767
 Raman Activ --     19.9271                81.8651                68.9879
 Depolar (P) --      0.2898                 0.1611                 0.7485
 Depolar (U) --      0.4493                 0.2775                 0.8561
  Atom  AN      X      Y      Z        X      Y      Z        X      Y      Z
     1   6     0.16  -0.09   0.01     0.16  -0.05   0.01    -0.15   0.03  -0.02
     2   6     0.02  -0.06  -0.01     0.13  -0.02   0.01     0.15  -0.16  -0.00
     3   6     0.01  -0.00   0.00    -0.15   0.14  -0.00    -0.17   0.02  -0.02
     4   1    -0.00   0.17   0.02     0.19  -0.30  -0.02     0.08   0.46   0.07
     5   6     0.01   0.05   0.01    -0.17  -0.01  -0.02    -0.05   0.44   0.05
     6   1    -0.38   0.06  -0.04     0.69   0.03   0.09     0.03  -0.00   0.00
     7   7    -0.20   0.10  -0.01    -0.10  -0.01  -0.01     0.10  -0.26  -0.02
     8   1     0.79   0.15   0.11    -0.29  -0.23  -0.06     0.30   0.19   0.06
     9   6    -0.02  -0.05  -0.01     0.05   0.01   0.01     0.02  -0.11  -0.01
    10   1     0.23  -0.06   0.02     0.11  -0.01   0.01     0.35  -0.12   0.03
    11   1    -0.01   0.09  -0.04     0.16  -0.16  -0.00     0.09   0.19  -0.09
    12   1    -0.02   0.08   0.05     0.15  -0.16   0.00     0.07   0.17   0.15
                     19                     20                     21
                      A                      A                      A
 Frequencies --   1397.0828              1413.2167              1434.1561
 Red. masses --      1.2761                 3.5665                 2.6160
 Frc consts  --      1.4675                 4.1967                 3.1701
 IR Inten    --      8.0118                23.6357                65.3374
 Raman Activ --     14.6187                71.9181               133.9234
 Depolar (P) --      0.7464                 0.4508                 0.1692
 Depolar (U) --      0.8548                 0.6214                 0.2895
  Atom  AN      X      Y      Z        X      Y      Z        X      Y      Z
     1   6    -0.03  -0.01  -0.01     0.02  -0.18  -0.02     0.21   0.15   0.04
     2   6    -0.01   0.02   0.00    -0.03   0.34   0.04    -0.12  -0.06  -0.02
     3   6     0.05  -0.00   0.01     0.06  -0.16  -0.01    -0.02  -0.06  -0.01
     4   1    -0.01   0.02   0.00     0.12  -0.76  -0.09    -0.14  -0.07  -0.03
     5   6    -0.02  -0.01  -0.00    -0.06   0.19   0.02     0.16   0.08   0.03
     6   1    -0.08   0.02  -0.01    -0.08  -0.16  -0.03    -0.12  -0.06  -0.02
     7   7     0.02  -0.00   0.00    -0.02  -0.04  -0.01    -0.08  -0.07  -0.02
     8   1     0.04   0.02   0.01    -0.02  -0.24  -0.03    -0.69  -0.19  -0.11
     9   6    -0.12   0.06  -0.01     0.02  -0.06  -0.01    -0.08  -0.04  -0.01
    10   1     0.58   0.00   0.07    -0.02  -0.05   0.00     0.03  -0.03   0.01
    11   1     0.43  -0.32  -0.18     0.06   0.16  -0.07     0.22   0.22  -0.20
    12   1     0.38  -0.36   0.19     0.04   0.15   0.12     0.16   0.18   0.29
                     22                     23                     24
                      A                      A                      A
 Frequencies --   1467.4656              1485.6895              1510.9674
 Red. masses --      1.0453                 1.5082                 2.3988
 Frc consts  --      1.3263                 1.9615                 3.2267
 IR Inten    --      7.4286                 2.6142                 5.3068
 Raman Activ --     19.7929                32.4572                38.1076
 Depolar (P) --      0.7479                 0.5236                 0.3058
 Depolar (U) --      0.8558                 0.6874                 0.4684
  Atom  AN      X      Y      Z        X      Y      Z        X      Y      Z
     1   6    -0.00   0.00  -0.00    -0.08  -0.04  -0.01    -0.03  -0.03  -0.01
     2   6     0.00  -0.00  -0.00     0.06   0.03   0.01     0.04   0.06   0.01
     3   6     0.00   0.00   0.00    -0.11   0.01  -0.01    -0.19  -0.05  -0.03
     4   1    -0.00   0.00   0.00     0.08  -0.02   0.01     0.07  -0.15  -0.01
     5   6     0.00   0.00  -0.02     0.10  -0.08   0.00     0.27   0.01   0.03
     6   1    -0.00   0.00   0.01     0.25  -0.05   0.02     0.30  -0.15   0.02
     7   7     0.00   0.00   0.00     0.01   0.05   0.01    -0.04   0.02  -0.00
     8   1     0.00   0.00   0.00     0.21   0.07   0.03     0.07   0.00   0.01
     9   6     0.01   0.01  -0.06    -0.05  -0.02  -0.01    -0.06   0.05  -0.00
    10   1    -0.08  -0.08   0.71    -0.35   0.01  -0.03     0.42   0.01   0.05
    11   1     0.11  -0.48   0.02     0.38   0.36  -0.28    -0.37  -0.30   0.21
    12   1    -0.14   0.46   0.08     0.29   0.29   0.43    -0.30  -0.24  -0.35
                     25                     26                     27
                      A                      A                      A
 Frequencies --   2985.4055              3016.7832              3070.0968
 Red. masses --      1.0392                 1.1003                 1.0960
 Frc consts  --      5.4568                 5.8998                 6.0862
 IR Inten    --    152.9058                70.9866                57.8230
 Raman Activ --    585.5268               264.0441               164.8270
 Depolar (P) --      0.0810                 0.7487                 0.7019
 Depolar (U) --      0.1498                 0.8563                 0.8249
  Atom  AN      X      Y      Z        X      Y      Z        X      Y      Z
     1   6    -0.00   0.00  -0.00    -0.00  -0.00   0.00    -0.00  -0.00  -0.00
     2   6    -0.00   0.00   0.00    -0.00  -0.00   0.00     0.00  -0.00   0.00
     3   6     0.00  -0.00   0.00     0.00   0.00  -0.00     0.00   0.00   0.00
     4   1     0.00   0.00   0.00    -0.00  -0.00   0.00     0.00   0.00   0.00
     5   6     0.00  -0.00  -0.00     0.00  -0.00  -0.00    -0.00  -0.00  -0.00
     6   1     0.00   0.01   0.00     0.00   0.00  -0.00     0.00  -0.01  -0.00
     7   7     0.00  -0.00   0.00     0.00  -0.00   0.00     0.00   0.00   0.00
     8   1    -0.00  -0.00  -0.00    -0.00   0.00  -0.00    -0.00   0.00   0.00
     9   6    -0.05  -0.00  -0.00     0.01   0.01  -0.09    -0.02  -0.09  -0.01
    10   1    -0.03  -0.34  -0.04     0.00  -0.02  -0.02     0.05   0.93   0.11
    11   1     0.26   0.12   0.58     0.32   0.14   0.63     0.10   0.03   0.22
    12   1     0.40   0.25  -0.49    -0.42  -0.26   0.48     0.13   0.06  -0.17
                     28                     29                     30
                      A                      A                      A
 Frequencies --   3150.6815              3168.2977              3189.6175
 Red. masses --      1.0876                 1.0910                 1.1024
 Frc consts  --      6.3609                 6.4524                 6.6076
 IR Inten    --     32.4584                73.7863                52.3095
 Raman Activ --    233.5867               150.2426               400.7030
 Depolar (P) --      0.6353                 0.7243                 0.2243
 Depolar (U) --      0.7770                 0.8401                 0.3664
  Atom  AN      X      Y      Z        X      Y      Z        X      Y      Z
     1   6     0.03  -0.07  -0.01     0.01  -0.02  -0.00    -0.01   0.03   0.00
     2   6    -0.03  -0.00  -0.00     0.04   0.01   0.01    -0.07  -0.01  -0.01
     3   6     0.00   0.01   0.00    -0.01  -0.07  -0.01    -0.00  -0.05  -0.01
     4   1     0.38   0.04   0.05    -0.44  -0.06  -0.06     0.79   0.09   0.11
     5   6    -0.00   0.00   0.00     0.00   0.00   0.00     0.00   0.00   0.00
     6   1    -0.01  -0.10  -0.01     0.11   0.83   0.12     0.06   0.51   0.07
     7   7    -0.00  -0.00  -0.00    -0.00   0.00  -0.00     0.00   0.00   0.00
     8   1    -0.35   0.84   0.07    -0.10   0.26   0.02     0.10  -0.26  -0.02
     9   6     0.00   0.00   0.00    -0.00  -0.00  -0.00    -0.00  -0.00  -0.00
    10   1     0.00  -0.00  -0.00     0.00   0.01   0.00    -0.00   0.01   0.00
    11   1    -0.00  -0.00  -0.00    -0.00   0.00  -0.00    -0.00  -0.00  -0.00
    12   1    -0.00  -0.00   0.00    -0.00  -0.00   0.00    -0.00  -0.00   0.00

 -------------------
 - Thermochemistry -
 -------------------
 Temperature   298.150 Kelvin.  Pressure   1.00000 Atm.
 Thermochemistry will use frequencies scaled by 0.9670.
 Atom     1 has atomic number  6 and mass  12.00000
 Atom     2 has atomic number  6 and mass  12.00000
 Atom     3 has atomic number  6 and mass  12.00000
 Atom     4 has atomic number  1 and mass   1.00783
 Atom     5 has atomic number  6 and mass  12.00000
 Atom     6 has atomic number  1 and mass   1.00783
 Atom     7 has atomic number  7 and mass  14.00307
 Atom     8 has atomic number  1 and mass   1.00783
 Atom     9 has atomic number  6 and mass  12.00000
 Atom    10 has atomic number  1 and mass   1.00783
 Atom    11 has atomic number  1 and mass   1.00783
 Atom    12 has atomic number  1 and mass   1.00783
 Molecular mass:    80.05002 amu.
 Principal axes and moments of inertia in atomic units:
                           1         2         3
     Eigenvalues --   203.95808 516.03698 708.83976
           X            0.90447   0.40937  -0.11978
           Y           -0.42296   0.89708  -0.12788
           Z            0.05511   0.16633   0.98453
 This molecule is an asymmetric top.
 Rotational symmetry number  1.
 Rotational temperatures (Kelvin)      0.42467     0.16784     0.12219
 Rotational constants (GHZ):           8.84859     3.49731     2.54605
 Zero-point vibrational energy     242439.9 (Joules/Mol)
                                   57.94453 (Kcal/Mol)
 Warning -- explicit consideration of   4 degrees of freedom as
           vibrations may cause significant error
 Vibrational temperatures:    140.90   337.50   482.60   881.40   914.55
          (Kelvin)            941.71   960.10  1009.52  1116.20  1260.24
                             1333.90  1361.24  1422.29  1459.81  1517.50
                             1656.11  1740.83  1813.49  1943.76  1966.20
                             1995.34  2041.68  2067.04  2102.20  4153.59
                             4197.24  4271.42  4383.53  4408.04  4437.71
 
 Zero-point correction=                           0.092340 (Hartree/Particle)
 Thermal correction to Energy=                    0.097899
 Thermal correction to Enthalpy=                  0.098844
 Thermal correction to Gibbs Free Energy=         0.063497
 Sum of electronic and zero-point Energies=           -248.987799
 Sum of electronic and thermal Energies=              -248.982240
 Sum of electronic and thermal Enthalpies=            -248.981296
 Sum of electronic and thermal Free Energies=         -249.016643
 
                     E (Thermal)             CV                S
                      KCal/Mol        Cal/Mol-Kelvin    Cal/Mol-Kelvin
 Total                   61.433             20.347             74.393
 Electronic               0.000              0.000              0.000
 Translational            0.889              2.981             39.055
 Rotational               0.889              2.981             25.815
 Vibrational             59.655             14.385              9.524
 Vibration     1          0.603              1.951              3.495
 Vibration     2          0.654              1.788              1.844
 Vibration     3          0.717              1.605              1.234
 Vibration     4          0.972              1.005              0.428
                       Q            Log10(Q)             Ln(Q)
 Total Bot       0.621545D-29        -29.206527        -67.250515
 Total V=0       0.184973D+14         13.267108         30.548645
 Vib (Bot)       0.225811D-41        -41.646254        -95.894044
 Vib (Bot)    1  0.209643D+01          0.321480          0.740236
 Vib (Bot)    2  0.837947D+00         -0.076784         -0.176801
 Vib (Bot)    3  0.555176D+00         -0.255569         -0.588470
 Vib (Bot)    4  0.240583D+00         -0.618736         -1.424692
 Vib (V=0)       0.672019D+01          0.827381          1.905116
 Vib (V=0)    1  0.265523D+01          0.424102          0.976531
 Vib (V=0)    2  0.147578D+01          0.169023          0.389190
 Vib (V=0)    3  0.124714D+01          0.095916          0.220854
 Vib (V=0)    4  0.105487D+01          0.023199          0.053417
 Electronic      0.100000D+01          0.000000          0.000000
 Translational   0.281511D+08          7.449496         17.153099
 Rotational      0.977756D+05          4.990231         11.490430
 
                                                            PyrMe-isolated
                                                             IR Spectrum
 
     333  3 3 2                                                         111111   1 1 1   1 11                                        
     111  0 0 9                                                         544443   3 2 1   0 0099 9    8 76666           3   2    1    
     965  7 1 8                                                         186319   0 5 9   9 4275 0    0 29753           4   4    0    
     081  0 7 5                                                         167437   3 1 0   1 9289 6    2 60774           7   3    1    
 
     XXX  X X X                                                         XXXXXX   X X X   X XXXX X    X XXXXX           X   X    X    
     XXX  X X X                                                            XX    X   X      XX          XX X               X         
     XXX  X X X                                                            XX        X      X           XX                           
     XXX  X X X                                                            X                X           X                            
     XX   X X X                                                            X                X           X                            
     XX   X X X                                                            X                            X                            
      X     X X                                                            X                            X                            
      X     X X                                                                                         X                            
              X                                                                                         X                            
              X                                                                                         X                            
              X                                                                                         X                            
              X                                                                                         X                            
              X                                                                                         X                            
              X                                                                                         X                            
              X                                                                                         X                            
              X                                                                                         X                            
              X                                                                                         X                            
                                                                                                        X                            
                                                                                                        X                            
                                                                                                        X                            
 
 
                                                            PyrMe-isolated
                                                            Raman Spectrum
 
     333  3 3 2                                                         111111   1 1 1   1 11                                        
     111  0 0 9                                                         544443   3 2 1   0 0099 9    8 76666           3   2    1    
     965  7 1 8                                                         186319   0 5 9   9 4275 0    0 29753           4   4    0    
     081  0 7 5                                                         167437   3 1 0   1 9289 6    2 60774           7   3    1    
 
     XXX  X X X                                                         XXXXXX   X X X   X XXXX X    X XXXXX           X   X    X    
     XXX  X X X                                                            XX    X X     X             X                             
     XXX  X X X                                                            X       X                                                 
     XXX  X X X                                                            X                                                         
     XXX  X X X                                                            X                                                         
     X X  X X X                                                                                                                      
     X X    X X                                                                                                                      
     X X    X X                                                                                                                      
     X      X X                                                                                                                      
     X        X                                                                                                                      
     X        X                                                                                                                      
     X        X                                                                                                                      
     X        X                                                                                                                      
     X        X                                                                                                                      
              X                                                                                                                      
              X                                                                                                                      
              X                                                                                                                      
              X                                                                                                                      
              X                                                                                                                      
              X                                                                                                                      
 
 -------------------------------------------------------------------
 Center     Atomic                   Forces (Hartrees/Bohr)
 Number     Number              X              Y              Z
 -------------------------------------------------------------------
      1        6          -0.000004899   -0.000004134    0.000006053
      2        6          -0.000001269   -0.000006138    0.000007612
      3        6           0.000002438   -0.000002333    0.000002042
      4        1          -0.000000570   -0.000004119    0.000004910
      5        6           0.000000764    0.000002108   -0.000002450
      6        1           0.000002416   -0.000000939    0.000000578
      7        7          -0.000004250    0.000000779   -0.000000117
      8        1          -0.000003449   -0.000002437    0.000003683
      9        6           0.000005179    0.000006399   -0.000009041
     10        1           0.000003294    0.000004957   -0.000003726
     11        1           0.000002164    0.000002641   -0.000006506
     12        1          -0.000001819    0.000003217   -0.000003039
 -------------------------------------------------------------------
 Cartesian Forces:  Max     0.000009041 RMS     0.000003999
 Force constants in Cartesian coordinates: 
                1             2             3             4             5 
      1  0.552735D+00
      2 -0.792401D-01  0.773787D+00
      3  0.425799D-01  0.750445D-01  0.131745D+00
      4 -0.137081D+00 -0.103965D+00 -0.223244D-01  0.774833D+00
      5 -0.858489D-01 -0.262208D+00 -0.361172D-01  0.413154D-01  0.526825D+00
      6 -0.199355D-01 -0.382614D-01 -0.684249D-01  0.871742D-01  0.601079D-01
      7  0.811928D-02  0.378065D-01  0.432520D-02 -0.185011D+00  0.839450D-01
      8 -0.101977D-01 -0.739545D-01 -0.125665D-01  0.105190D+00 -0.187108D+00
      9 -0.205482D-02 -0.680285D-02  0.127525D-01 -0.292371D-02 -0.745183D-02
     10 -0.553712D-02  0.609604D-02  0.495206D-03 -0.326210D+00 -0.319582D-01
     11 -0.225591D-01  0.831406D-02 -0.122975D-02 -0.313703D-01 -0.603818D-01
     12 -0.325811D-02  0.221537D-02 -0.330675D-02 -0.412427D-01 -0.927030D-02
     13 -0.454355D-01  0.415809D-01 -0.189815D-02 -0.696669D-01  0.344262D-01
     14  0.742313D-01 -0.562465D-01 -0.226112D-03 -0.136401D-01  0.146007D-01
     15  0.219223D-02 -0.411137D-02  0.132754D-01 -0.117335D-01  0.471101D-02
     16 -0.472645D-02  0.368754D-02 -0.452582D-03  0.100221D-01  0.190105D-01
     17  0.146078D-02 -0.272150D-02 -0.568154D-03 -0.890088D-02 -0.855015D-02
     18 -0.721702D-03 -0.254553D-03  0.283775D-02  0.410355D-03  0.149336D-02
     19 -0.275851D+00  0.641236D-02 -0.249191D-01 -0.724408D-01 -0.484132D-01
     20  0.340099D-01 -0.902850D-01  0.123799D-02 -0.175199D-02 -0.109973D-01
     21 -0.212777D-01 -0.221548D-02 -0.695756D-01 -0.113302D-01 -0.971885D-02
     22 -0.892206D-01  0.868739D-01  0.301026D-02  0.108936D-01 -0.125888D-01
     23  0.900191D-01 -0.291131D+00 -0.241353D-01  0.140602D-01 -0.109559D-01
     24  0.340805D-02 -0.244909D-01 -0.229716D-01  0.320391D-02 -0.295083D-02
     25  0.284056D-02 -0.803992D-03 -0.266155D-03 -0.259603D-02 -0.326110D-02
     26 -0.319182D-02 -0.596607D-02 -0.160733D-02 -0.341207D-02  0.911996D-03
     27 -0.358650D-03 -0.131815D-02  0.310407D-02 -0.129405D-02 -0.922498D-03
     28  0.948393D-04  0.158900D-02  0.173504D-03  0.631937D-04  0.485636D-04
     29 -0.758209D-04 -0.550604D-03 -0.179509D-03  0.733422D-03 -0.412980D-03
     30 -0.651769D-04  0.347397D-04  0.569600D-03  0.961590D-04 -0.137140D-04
     31 -0.282829D-02 -0.112950D-03  0.205295D-03 -0.151692D-02  0.137162D-02
     32  0.806786D-03  0.422013D-03  0.371312D-03  0.832184D-03 -0.968657D-03
     33 -0.150234D-02  0.299060D-03 -0.239817D-04 -0.164395D-03  0.793474D-03
     34 -0.310951D-02  0.761533D-04 -0.929007D-03 -0.128881D-02  0.195300D-02
     35  0.585423D-03  0.540814D-03 -0.240007D-04  0.909797D-03 -0.754322D-03
     36  0.993764D-03 -0.138981D-03  0.186877D-04  0.128214D-03 -0.660568D-03
                6             7             8             9            10 
      6  0.117369D+00
      7 -0.551338D-02  0.530579D+00
      8 -0.504911D-02  0.365577D-01  0.770682D+00
      9 -0.521484D-01  0.569379D-01  0.910799D-01  0.118670D+00
     10 -0.413232D-01 -0.837456D-02 -0.900889D-02 -0.188420D-02  0.345446D+00
     11 -0.920482D-02  0.190753D-01  0.101032D-01  0.392685D-02  0.354430D-01
     12 -0.253451D-01  0.173095D-02  0.545249D-03 -0.211009D-02  0.442697D-01
     13 -0.553599D-02 -0.260474D+00 -0.988895D-01 -0.361809D-01 -0.235801D-02
     14 -0.136333D-02 -0.701367D-01 -0.133358D+00 -0.172744D-01  0.154144D-02
     15  0.116576D-01 -0.325805D-01 -0.210049D-01 -0.707417D-01 -0.446016D-03
     16  0.398201D-02 -0.610096D-01 -0.347192D-01 -0.967494D-02  0.205874D-03
     17 -0.184114D-02 -0.359743D-01 -0.322792D+00 -0.434808D-01  0.547219D-03
     18 -0.236602D-02 -0.982905D-02 -0.432670D-01 -0.256063D-01  0.351459D-03
     19 -0.174071D-01 -0.530867D-02 -0.480897D-02 -0.341924D-02 -0.223820D-02
     20 -0.400500D-02 -0.572861D-01 -0.700686D-01 -0.184372D-01 -0.150456D-02
     21  0.159787D-01 -0.102038D-01 -0.119512D-01  0.149249D-01 -0.130774D-02
     22 -0.251982D-03 -0.176922D-02 -0.280544D-02 -0.106795D-02 -0.718547D-04
     23  0.363804D-03 -0.284540D-02 -0.365790D-02 -0.135597D-02 -0.770478D-03
     24 -0.476487D-03 -0.110941D-02 -0.132349D-02  0.373527D-02  0.205559D-03
     25 -0.128188D-02 -0.185357D-01  0.145957D-01 -0.521622D-03 -0.276666D-03
     26 -0.777765D-03 -0.824138D-02  0.884003D-02 -0.170365D-04 -0.549565D-03
     27  0.392552D-02 -0.367208D-02  0.283112D-02  0.111391D-02 -0.340862D-03
     28  0.116056D-04  0.123764D-02 -0.643613D-03  0.108496D-03  0.371467D-04
     29  0.351703D-04 -0.139692D-02  0.134920D-02 -0.533184D-04  0.549443D-04
     30 -0.138170D-03 -0.228042D-04  0.629218D-04  0.901555D-04  0.266094D-04
     31  0.110473D-02  0.240884D-03  0.260831D-02 -0.108492D-02 -0.361114D-03
     32  0.312298D-03 -0.836349D-03 -0.862558D-04  0.783303D-04  0.915150D-04
     33  0.235000D-03  0.999847D-03  0.546200D-03 -0.338845D-03 -0.428865D-04
     34 -0.102358D-02  0.305816D-03  0.212179D-02  0.176588D-02 -0.261761D-03
     35 -0.316675D-03 -0.667323D-03  0.506429D-04 -0.211609D-03  0.175096D-04
     36 -0.266798D-03 -0.106286D-02  0.966886D-04 -0.340981D-03 -0.365592D-05
               11            12            13            14            15 
     11  0.496506D-01
     12  0.847298D-02  0.243105D-01
     13  0.329096D-02 -0.214405D-03  0.716049D+00
     14 -0.493587D-02 -0.811924D-03 -0.492809D-01  0.564748D+00
     15 -0.620575D-03  0.280681D-02  0.599869D-01  0.464487D-01  0.173991D+00
     16 -0.138497D-02  0.105633D-03  0.628354D-02 -0.219032D-01 -0.169975D-02
     17  0.208301D-03  0.366200D-03  0.638210D-02 -0.641158D-02  0.300349D-03
     18  0.136336D-03 -0.208274D-02  0.186251D-02 -0.321431D-02 -0.290429D-02
     19 -0.481959D-02 -0.170799D-02 -0.100506D+00  0.211640D-01  0.121886D-03
     20 -0.406355D-02 -0.164047D-02  0.737978D-02 -0.272218D+00 -0.248255D-01
     21 -0.202877D-02  0.657831D-02 -0.189780D-02 -0.230275D-01 -0.781103D-01
     22  0.104542D-02  0.438309D-03 -0.634904D-02 -0.184977D-03 -0.138295D-02
     23  0.107404D-03  0.256748D-03  0.106754D-02  0.130638D-02 -0.324634D-03
     24  0.476937D-03 -0.249852D-02 -0.122933D-02 -0.425840D-03  0.463856D-02
     25  0.788699D-03 -0.135155D-03 -0.201069D+00  0.428752D-01 -0.112412D-01
     26  0.104015D-02 -0.160707D-03  0.435136D-01 -0.101817D+00 -0.136408D-03
     27 -0.260336D-05  0.177835D-02 -0.112276D-01 -0.137011D-03 -0.616367D-01
     28 -0.110832D-03  0.707125D-05  0.490274D-02  0.307838D-01  0.429818D-02
     29  0.864526D-04  0.349276D-04 -0.453616D-02 -0.128481D-01 -0.182847D-02
     30  0.133399D-04 -0.110195D-03  0.301468D-03  0.224165D-02 -0.164658D-02
     31  0.249892D-03  0.419368D-03 -0.181792D-01 -0.557929D-02 -0.253280D-01
     32 -0.360355D-04 -0.281152D-03  0.638964D-02  0.225464D-02  0.117236D-01
     33  0.765972D-04  0.830770D-05 -0.250873D-02  0.309989D-03  0.310228D-02
     34  0.351520D-03 -0.412700D-03 -0.231972D-01 -0.987055D-02  0.178128D-01
     35 -0.929926D-04  0.273083D-03  0.867590D-02  0.492588D-02 -0.103319D-01
     36 -0.165233D-04 -0.288883D-04 -0.145791D-02 -0.251983D-02  0.556817D-02
               16            17            18            19            20 
     16  0.510204D-01
     17  0.393037D-01  0.342531D+00
     18  0.917949D-02  0.465853D-01  0.248207D-01
     19 -0.398958D-02 -0.172270D-02 -0.153807D-02  0.472963D+00
     20 -0.553466D-02 -0.211183D-02 -0.176992D-02 -0.102458D-01  0.466108D+00
     21 -0.202044D-02 -0.133446D-02  0.621864D-02  0.435018D-01  0.456746D-01
     22  0.993464D-03 -0.472353D-03 -0.138940D-03 -0.102690D-01  0.311445D-01
     23  0.106767D-02 -0.668815D-03 -0.165784D-03  0.220832D-02 -0.470663D-03
     24  0.617659D-04 -0.351457D-03  0.159155D-02 -0.522035D-04  0.464534D-02
     25  0.104075D-02  0.535381D-04  0.488398D-03 -0.379541D-02  0.712981D-02
     26 -0.179273D-03 -0.146275D-03  0.293989D-03  0.381387D-01 -0.178115D-01
     27  0.465867D-03  0.361089D-03 -0.275492D-02  0.474510D-02 -0.558567D-03
     28 -0.128286D-03 -0.333027D-03 -0.617597D-04 -0.595246D-02  0.175932D-02
     29  0.467614D-03  0.411231D-03  0.113787D-03  0.396087D-02 -0.361069D-03
     30  0.151130D-04 -0.137595D-04  0.129537D-03 -0.299597D-03  0.134744D-04
     31  0.194767D-03 -0.107621D-03 -0.423797D-03  0.370136D-02 -0.255942D-02
     32  0.110802D-03  0.155200D-03 -0.137641D-03 -0.109139D-02  0.112951D-02
     33  0.698070D-04 -0.811317D-04 -0.990239D-05  0.120073D-02 -0.285762D-03
     34  0.929697D-04 -0.236422D-03  0.421102D-03  0.368624D-02 -0.254085D-02
     35  0.734758D-04  0.962716D-04  0.186414D-03 -0.782602D-03  0.114985D-02
     36 -0.319657D-04  0.580090D-04  0.126019D-03 -0.226177D-03 -0.489860D-04
               21            22            23            24            25 
     21  0.112491D+00
     22  0.366448D-02  0.960015D-01
     23  0.114232D-02 -0.105003D+00  0.305676D+00
     24 -0.663540D-02 -0.433204D-02  0.244009D-01  0.212545D-01
     25  0.926053D-03  0.428116D-03 -0.175961D-03 -0.145476D-03  0.486759D+00
     26  0.332158D-02  0.167576D-02 -0.166094D-03 -0.343389D-04  0.247668D-01
     27 -0.409742D-02  0.713279D-04 -0.234242D-03  0.152415D-02  0.268375D-03
     28 -0.679897D-03 -0.580047D-03  0.141373D-03 -0.313516D-04 -0.476601D-01
     29  0.397279D-03  0.353121D-03 -0.389195D-04  0.374909D-04 -0.130891D-01
     30  0.949581D-03 -0.239208D-04  0.124547D-04 -0.131366D-04 -0.178093D-02
     31  0.548652D-03 -0.315482D-04  0.922132D-04  0.130252D-03 -0.858468D-01
     32 -0.638670D-03  0.200899D-04  0.368215D-04 -0.296250D-03 -0.192486D-01
     33  0.747174D-03 -0.469268D-04  0.684705D-04 -0.998178D-04 -0.913268D-01
     34  0.765058D-04 -0.252763D-04  0.138313D-03 -0.109717D-03 -0.131289D+00
     35  0.379126D-03 -0.582843D-04 -0.371783D-04  0.312456D-03 -0.536310D-01
     36  0.530475D-03  0.603281D-04 -0.287973D-04 -0.491177D-04  0.105016D+00
               26            27            28            29            30 
     26  0.548295D+00
     27  0.687300D-02  0.516676D+00
     28 -0.168700D-01 -0.223224D-02  0.512074D-01
     29 -0.299473D+00 -0.297280D-01  0.150720D-01  0.327672D+00
     30 -0.301147D-01 -0.489947D-01  0.235359D-02  0.331855D-01  0.484994D-01
     31 -0.202836D-01 -0.932094D-01 -0.164599D-02 -0.607974D-03 -0.119773D-02
     32 -0.547477D-01 -0.405862D-01 -0.129300D-01 -0.495087D-02 -0.287448D-01
     33 -0.424783D-01 -0.240621D+00 -0.387865D-03 -0.102496D-02 -0.251065D-02
     34 -0.553672D-01  0.106784D+00 -0.157612D-02 -0.936045D-03  0.597218D-03
     35 -0.789584D-01  0.634220D-01 -0.185065D-01 -0.108826D-01  0.233229D-01
     36  0.648380D-01 -0.170017D+00 -0.355934D-02 -0.989971D-03  0.317519D-02
               31            32            33            34            35 
     31  0.984813D-01
     32  0.205392D-01  0.543351D-01
     33  0.102200D+00  0.465540D-01  0.262113D+00
     34  0.779151D-02  0.531613D-02 -0.849084D-02  0.148871D+00
     35  0.438953D-02  0.245630D-02 -0.477766D-02  0.589941D-01  0.815057D-01
     36  0.166351D-01  0.116451D-01 -0.226008D-01 -0.116492D+00 -0.722342D-01
               36 
     36  0.183885D+00
 Leave Link  716 at Thu Dec 14 12:47:52 2023, MaxMem= 14763950080 cpu:               0.1 elap:               0.1
 (Enter /software/commercial/gaussian/g16/AVX2/g16/l103.exe)

 GradGradGradGradGradGradGradGradGradGradGradGradGradGradGradGradGradGrad
 Berny optimization.
 Search for a local minimum.
 Step number   1 out of a maximum of    2
 All quantities printed in internal units (Hartrees-Bohrs-Radians)
 Second derivative matrix not updated -- analytic derivatives used.
 ITU=  0
     Eigenvalues ---    0.00050   0.00736   0.01193   0.02282   0.03979
     Eigenvalues ---    0.04140   0.04411   0.04671   0.06407   0.06856
     Eigenvalues ---    0.08326   0.10679   0.11367   0.16929   0.18843
     Eigenvalues ---    0.19982   0.21120   0.25728   0.27569   0.32497
     Eigenvalues ---    0.52123   0.61883   0.70005   0.73315   0.74353
[...]
 Optimization completed.
    -- Stationary point found.
 GradGradGradGradGradGradGradGradGradGradGradGradGradGradGradGradGradGrad

 Leave Link  103 at Thu Dec 14 12:47:53 2023, MaxMem= 14763950080 cpu:               0.1 elap:               0.1
 (Enter /software/commercial/gaussian/g16/AVX2/g16/l9999.exe)

 ----------------------------------------------------------------------

 Electric dipole moment (input orientation):
 (Debye = 10**-18 statcoulomb cm , SI units = C m)
                  (au)            (Debye)         (10**-30 SI)
   Tot        0.103809D+01      0.263855D+01      0.880127D+01
   x         -0.952599D+00     -0.242127D+01     -0.807647D+01
   y          0.197325D+00      0.501550D+00      0.167299D+01
   z          0.362274D+00      0.920810D+00      0.307149D+01

 Dipole polarizability, Alpha (input orientation).
 (esu units = cm**3 , SI units = C**2 m**2 J**-1)
 Alpha(0;0):
               (au)            (10**-24 esu)      (10**-40 SI)
   iso        0.103734D+03      0.153717D+02      0.171034D+02
   aniso      0.362771D+02      0.537571D+01      0.598129D+01
   xx         0.118394D+03      0.175442D+02      0.195206D+02
   yx        -0.211947D+00     -0.314074D-01     -0.349454D-01
   yy         0.111855D+03      0.165753D+02      0.184425D+02
   zx         0.461482D+01      0.683846D+00      0.760882D+00
   zy         0.416748D+01      0.617557D+00      0.687124D+00
   zz         0.809513D+02      0.119957D+02      0.133471D+02

 First dipole hyperpolarizability, Beta (input orientation).
 ||, _|_  parallel and perpendicular components, (z) with respect to z axis,
 vector components x,y,z.  Values do not include the 1/n! factor of 1/2.
 (esu units = statvolt**-1 cm**4 , SI units = C**3 m**3 J**-2)
 Beta(0;0,0):
               (au)            (10**-30 esu)      (10**-50 SI)
   || (z)    -0.269083D+02     -0.232467D+00     -0.862779D-01
   _|_(z)    -0.896945D+01     -0.774890D-01     -0.287593D-01
   x         -0.140186D+04     -0.121110D+02     -0.449486D+01
   y          0.331255D+03      0.286179D+01      0.106212D+01
   z         -0.134542D+03     -0.116234D+01     -0.431389D+00
   ||         0.289347D+03      0.249973D+01      0.927749D+00
   xxx        0.468532D+02      0.404775D+00      0.150228D+00
   xxy       -0.167244D+02     -0.144486D+00     -0.536246D-01
   yxy       -0.133744D+03     -0.115544D+01     -0.428830D+00
   yyy        0.840505D+02      0.726131D+00      0.269496D+00
   xxz        0.997416D+02      0.861690D+00      0.319808D+00
   yxz        0.293100D+02      0.253215D+00      0.939783D-01
   yyz       -0.142670D+02     -0.123256D+00     -0.457451D-01
   zxz       -0.380395D+03     -0.328632D+01     -0.121969D+01
   zyz        0.430924D+02      0.372285D+00      0.138170D+00
   zzz       -0.130322D+03     -0.112588D+01     -0.417859D+00

 ----------------------------------------------------------------------

 Dipole orientation:
     6         -0.49938101          0.93094166          0.65415012
     6         -1.69185513         -1.35185431          1.25210272
     6         -1.24447589         -2.96502927         -0.85441342
     1         -2.73171598         -1.79306245          2.95910198
     6          0.18585607         -1.54819531         -2.57718061
     1         -1.87171539         -4.89971953         -1.09214151
     7          0.64327743          0.82547389         -1.66812805
     1         -0.41490898          2.63767017          1.78675677
     6          1.15719040         -2.37407132         -5.11528173
     1          0.63514370         -4.33740378         -5.49685963
     1          3.22264142         -2.24358195         -5.23839819
     1          0.39425741         -1.21727784         -6.65813037

 Electric dipole moment (dipole orientation):
 (Debye = 10**-18 statcoulomb cm , SI units = C m)
                  (au)            (Debye)         (10**-30 SI)
   Tot        0.103809D+01      0.263855D+01      0.880127D+01
   x          0.000000D+00      0.000000D+00      0.000000D+00
   y          0.000000D+00      0.000000D+00      0.000000D+00
   z          0.103809D+01      0.263855D+01      0.880127D+01

 Dipole polarizability, Alpha (dipole orientation).
 (esu units = cm**3 , SI units = C**2 m**2 J**-1)
 Alpha(0;0):
               (au)            (10**-24 esu)      (10**-40 SI)
   iso        0.103734D+03      0.153717D+02      0.171034D+02
   aniso      0.362771D+02      0.537571D+01      0.598129D+01
   xx         0.909060D+02      0.134709D+02      0.149884D+02
   yx         0.946467D+01      0.140252D+01      0.156051D+01
   yy         0.109026D+03      0.161560D+02      0.179759D+02
   zx        -0.145075D+02     -0.214979D+01     -0.239196D+01
   zy         0.373629D+01      0.553662D+00      0.616032D+00
   zz         0.111269D+03      0.164884D+02      0.183458D+02

 First dipole hyperpolarizability, Beta (dipole orientation).
 ||, _|_  parallel and perpendicular components, (z) with respect to z axis,
 vector components x,y,z.  Values do not include the 1/n! factor of 1/2.
 (esu units = statvolt**-1 cm**4 , SI units = C**3 m**3 J**-2)
 Beta(0;0,0):
               (au)            (10**-30 esu)      (10**-50 SI)
   || (z)     0.260485D+03      0.225039D+01      0.835210D+00
   _|_(z)     0.868284D+02      0.750130D+00      0.278403D+00
   x         -0.607401D+03     -0.524747D+01     -0.194755D+01
   y          0.166689D+03      0.144006D+01      0.534464D+00
   z          0.130243D+04      0.112519D+02      0.417605D+01
   ||         0.289347D+03      0.249973D+01      0.927749D+00
   xxx       -0.402542D+03     -0.347765D+01     -0.129069D+01
   xxy        0.724529D+02      0.625937D+00      0.232310D+00
   yxy       -0.592597D+02     -0.511957D+00     -0.190008D+00
   yyy        0.302788D+02      0.261585D+00      0.970847D-01
   xxz        0.108901D+03      0.940822D+00      0.349177D+00
   yxz       -0.610324D+02     -0.527273D+00     -0.195692D+00
   yyz        0.153915D+03      0.132971D+01      0.493508D+00
   zxz        0.259334D+03      0.224045D+01      0.831519D+00
   zyz       -0.471688D+02     -0.407502D+00     -0.151240D+00
   zzz        0.171325D+03      0.148012D+01      0.549331D+00

 ----------------------------------------------------------------------
 Unable to Open any file for archive entry.
 1\1\GINC-NODE0710\Freq\RB3LYP\6-311+G(d,p)\C5H6N1(1-)\SVICCHI\14-Dec-2
 023\0\\#p freq=raman scale=0.967 guess=read geom=allcheck b3lyp/6-311+
 G(d,p) int=grid=ultrafine EmpiricalDispersion=GD3BJ SCRF=(Solvent=etha
 nol) scf=(xqc,intrep,maxconventionalcycle=350) nosymm\\PyrMe-isolated\
 \-1,1\C,-0.3532548085,0.5110676101,-0.2153366934\C,-1.0369423815,-0.68
 60283318,-0.454350883\C,-0.0354432976,-1.6980982258,-0.463854953\H,-2.
 1028227845,-0.8127002867,-0.5996875427\C,1.1824961379,-1.0438436136,-0
 .2299549282\H,-0.1771104967,-2.7613020786,-0.6177356995\N,0.994438584,
 0.3013435656,-0.078718035\H,-0.7696659117,1.5097458698,-0.1368322204\C
 ,2.5516310268,-1.658012578,-0.1439228946\H,2.4987745803,-2.743239033,-
 0.2704063425\H,3.031055077,-1.4618643001,0.8231952354\H,3.2282832745,-
 1.2696575979,-0.9156860431\\Version=ES64L-G16RevC.02\HF=-249.0801396\R
 MSD=2.880e-09\RMSF=3.999e-06\ZeroPoint=0.0923405\Thermal=0.0978993\ETo
 t=-248.9822402\HTot=-248.9812961\GTot=-249.0166427\Dipole=0.2129005,-1
 .2476169,-0.1348861\DipoleDeriv=0.3987893,0.2708038,0.1272364,0.214984
 8,-0.0451952,0.067641,0.1239296,0.0692709,-0.3424052,-0.3306782,-0.152
 033,-0.0008963,-0.1136814,0.147024,0.0680673,0.0014849,0.0640614,-0.46
 84064,-0.0504698,0.023866,0.0530483,-0.1788379,-0.3274865,-0.0055614,0
 .024057,0.0125599,-0.445506,-0.2568054,-0.0339437,-0.0701076,-0.030051
 7,0.0892626,-0.0290737,-0.0674603,-0.0288921,0.2731078,0.1976961,0.050
 541,0.0578156,0.2083137,0.3727231,0.1006872,0.0678478,0.0873391,-0.200
 7506,0.0831214,-0.0278943,-0.0282518,-0.0411024,-0.2517913,-0.074288,-
 0.0292942,-0.0695086,0.2723981,-0.8976411,-0.3684433,-0.1048829,-0.208
 4486,-0.8091348,-0.0735831,-0.0819225,-0.0914056,-0.4533791,0.0024699,
 0.1129184,-0.0148587,0.1501007,-0.209135,-0.0406272,-0.0113078,-0.0423
 371,0.2359869,0.1791843,0.091367,-0.0053924,-0.0126566,0.1845138,-0.01
 42084,-0.014658,-0.0066415,0.2900213,0.0344214,-0.0481194,-0.0111588,0
 .0626278,-0.2318098,-0.0285238,0.0010195,-0.0409339,0.0811562,-0.13963
 83,0.0565258,-0.1054256,0.0055099,0.0540888,-0.0630456,-0.2163893,-0.0
 152538,-0.1692787,-0.2204497,0.0244119,0.1028739,-0.0567583,0.0269403,
 0.0925157,0.2026932,0.0617412,-0.0729444\Polar=118.3943573,-0.2119474,
 111.8553426,4.614824,4.1674784,80.9513055\PolarDeriv=10.1198538,-6.745
 7106,-11.6346592,0.6122007,-4.1510287,1.8823702,12.7877232,-3.4211084,
 7.4919361,-0.0525042,-2.840454,13.6104503,3.9620476,-2.1819951,-3.5557
 654,-4.8927529,11.2922915,4.0969205,-2.7293834,-3.5556153,-1.9583487,2
 .171353,1.2190533,-11.931039,-8.0787173,14.2774873,-5.2132155,3.011660
 3,1.921999,-3.7726881,1.3056978,3.2084369,-0.3053672,-10.6390031,-1.61
 75345,-5.2938349,-5.3793845,12.5712102,-9.0237451,1.5359679,1.8759574,
 -0.7131076,-3.0097266,-3.8648244,0.3725417,0.9541678,2.4514185,-10.775
 5071,-0.2207715,2.8328253,1.5472592,-2.8655147,-10.0872145,-5.2089617,
 -17.7592408,-1.7707255,-0.7902559,-3.0253183,-0.5197521,0.6793055,-1.0
 662076,-1.8016269,-0.74281,-0.9277395,-0.3903049,-0.0275258,-3.1774315
 ,-1.0246024,-0.2954344,3.5495757,0.2413701,1.2133605,22.4888303,-5.154
 0393,14.7662676,-0.0240082,0.5271396,8.5920513,-16.4835475,-5.7373115,
 9.9688667,-4.5155101,0.1522645,5.7037688,-0.9580056,-2.278341,3.926943
 7,7.3973537,-2.7126414,3.1288943,-1.0208216,-1.6982605,-1.797331,-0.38
 8242,-0.785719,-0.3570019,-1.1441,-2.4399053,-16.7445033,-0.6577992,-2
 .9892688,0.5302378,-0.4083322,-0.950305,-3.0063241,0.3914742,2.5210871
 ,0.9834301,-4.9389508,5.1461461,14.2154263,-0.5122645,1.6383331,2.0268
 374,10.9980109,3.9965795,-6.0009972,1.9955738,-0.437794,-3.9127982,0.1
 107999,0.1828044,-0.2882482,2.7700645,4.8091613,1.5667496,-2.8391494,4
 .1793102,-4.3871279,-0.0768946,0.3914588,0.1863458,2.6093636,-5.737118
 9,13.3383464,-0.5571032,1.6667203,-1.0114229,-0.5223703,-0.0113017,2.0
 397637,2.0525323,-3.3718446,-0.5862843,-20.2900005,-0.1119876,2.034216
 6,-0.2035748,0.901803,-4.8309549,-3.1156125,-1.3062068,10.3722063,1.44
 51628,1.7750315,-4.2937378,0.3000744,1.4914245,1.6435745,-12.1766829,-
 1.0288067,-4.2924598,-1.1557989,-1.2277182,-0.2705764,-0.3490175,0.007
 7874,-0.159331,-1.8163282,2.5151146,-13.0962111,0.0183337,-0.9642277,-
 0.4688093,-0.5643578,0.2355566,-1.1586409,0.7775624,-1.6563389,-0.2238
 342,9.454195,-1.2480955,-0.6924357,4.9278481,-0.6564919,2.7041255,3.05
 38939,1.4712376,-0.4055116,0.4442563,1.7637396,2.1394186,8.6259019,-1.
 395124,0.9875527,7.5939944,0.3686448,8.779958,14.049851,-0.3845142,-0.
 4614306,-4.6680496,-0.448541,1.9203988,5.265248,2.0476831,0.6593516,-1
 .1584985,-2.1091242,2.2786136,-8.4532529,-0.1093784,-1.5353135,6.04139
 64,1.2418257,-4.1639381\HyperPolar=46.8532003,-16.7244437,-133.7435619
 ,84.0504712,99.7416425,29.3099568,-14.2669732,-380.3953633,43.0923984,
 -130.321904\Quadrupole=-0.8484192,0.849382,-0.0009627,-1.996072,0.0455
 048,-0.2519602\PG=C01 [X(C5H6N1)]\NImag=0\\0.55273493,-0.07924007,0.77
 378654,0.04257993,0.07504453,0.13174493,-0.13708141,-0.10396537,-0.022
 32435,0.77483273,-0.08584892,-0.26220848,-0.03611719,0.04131540,0.5268
 2460,-0.01993550,-0.03826137,-0.06842494,0.08717423,0.06010794,0.11736
 909,0.00811928,0.03780647,0.00432520,-0.18501109,0.08394498,-0.0055133
 8,0.53057914,-0.01019771,-0.07395452,-0.01256649,0.10518977,-0.1871077
 2,-0.00504911,0.03655771,0.77068176,-0.00205482,-0.00680285,0.01275252
 ,-0.00292371,-0.00745183,-0.05214840,0.05693792,0.09107994,0.11866959,
 -0.00553712,0.00609604,0.00049521,-0.32620960,-0.03195819,-0.04132317,
 -0.00837456,-0.00900889,-0.00188420,0.34544586,-0.02255907,0.00831406,
 -0.00122975,-0.03137034,-0.06038177,-0.00920482,0.01907530,0.01010321,
 0.00392685,0.03544302,0.04965065,-0.00325811,0.00221537,-0.00330675,-0
 .04124266,-0.00927030,-0.02534512,0.00173095,0.00054525,-0.00211009,0.
 04426970,0.00847298,0.02431053,-0.04543552,0.04158089,-0.00189815,-0.0
 6966691,0.03442618,-0.00553599,-0.26047386,-0.09888949,-0.03618088,-0.
 00235801,0.00329096,-0.00021441,0.71604882,0.07423134,-0.05624653,-0.0
 0022611,-0.01364015,0.01460065,-0.00136333,-0.07013668,-0.13335754,-0.
 01727445,0.00154144,-0.00493587,-0.00081192,-0.04928089,0.56474767,0.0
 0219223,-0.00411137,0.01327535,-0.01173353,0.00471101,0.01165760,-0.03
 258054,-0.02100490,-0.07074168,-0.00044602,-0.00062058,0.00280681,0.05
 998685,0.04644869,0.17399081,-0.00472645,0.00368754,-0.00045258,0.0100
 2213,0.01901053,0.00398201,-0.06100962,-0.03471918,-0.00967494,0.00020
 587,-0.00138497,0.00010563,0.00628354,-0.02190321,-0.00169975,0.051020
 44,0.00146078,-0.00272150,-0.00056815,-0.00890088,-0.00855015,-0.00184
 114,-0.03597429,-0.32279234,-0.04348083,0.00054722,0.00020830,0.000366
 20,0.00638210,-0.00641158,0.00030035,0.03930366,0.34253150,-0.00072170
 ,-0.00025455,0.00283775,0.00041036,0.00149336,-0.00236602,-0.00982905,
 -0.04326696,-0.02560632,0.00035146,0.00013634,-0.00208274,0.00186251,-
 0.00321431,-0.00290429,0.00917949,0.04658529,0.02482071,-0.27585073,0.
 00641236,-0.02491915,-0.07244085,-0.04841323,-0.01740710,-0.00530867,-
 0.00480897,-0.00341924,-0.00223820,-0.00481959,-0.00170799,-0.10050614
 ,0.02116398,0.00012189,-0.00398958,-0.00172270,-0.00153807,0.47296348,
 0.03400992,-0.09028501,0.00123799,-0.00175199,-0.01099728,-0.00400500,
 -0.05728612,-0.07006856,-0.01843723,-0.00150456,-0.00406355,-0.0016404
 7,0.00737978,-0.27221832,-0.02482548,-0.00553466,-0.00211183,-0.001769
 92,-0.01024578,0.46610844,-0.02127767,-0.00221548,-0.06957563,-0.01133
 017,-0.00971885,0.01597874,-0.01020379,-0.01195117,0.01492487,-0.00130
 774,-0.00202877,0.00657831,-0.00189780,-0.02302753,-0.07811031,-0.0020
 2044,-0.00133446,0.00621864,0.04350181,0.04567462,0.11249098,-0.089220
 58,0.08687392,0.00301026,0.01089357,-0.01258883,-0.00025198,-0.0017692
 2,-0.00280544,-0.00106795,-0.00007185,0.00104542,0.00043831,-0.0063490
 4,-0.00018498,-0.00138295,0.00099346,-0.00047235,-0.00013894,-0.010269
 04,0.03114454,0.00366448,0.09600146,0.09001915,-0.29113071,-0.02413529
 ,0.01406024,-0.01095590,0.00036380,-0.00284540,-0.00365790,-0.00135597
 ,-0.00077048,0.00010740,0.00025675,0.00106754,0.00130638,-0.00032463,0
 .00106767,-0.00066881,-0.00016578,0.00220832,-0.00047066,0.00114232,-0
 .10500297,0.30567558,0.00340805,-0.02449094,-0.02297160,0.00320391,-0.
 00295083,-0.00047649,-0.00110941,-0.00132349,0.00373527,0.00020556,0.0
 0047694,-0.00249852,-0.00122933,-0.00042584,0.00463856,0.00006177,-0.0
 0035146,0.00159155,-0.00005220,0.00464534,-0.00663540,-0.00433204,0.02
 440092,0.02125455,0.00284056,-0.00080399,-0.00026616,-0.00259603,-0.00
 326110,-0.00128188,-0.01853574,0.01459573,-0.00052162,-0.00027667,0.00
 078870,-0.00013516,-0.20106928,0.04287520,-0.01124124,0.00104075,0.000
 05354,0.00048840,-0.00379541,0.00712981,0.00092605,0.00042812,-0.00017
 596,-0.00014548,0.48675913,-0.00319182,-0.00596607,-0.00160733,-0.0034
 1207,0.00091200,-0.00077776,-0.00824138,0.00884003,-0.00001704,-0.0005
 4956,0.00104015,-0.00016071,0.04351355,-0.10181727,-0.00013641,-0.0001
 7927,-0.00014628,0.00029399,0.03813874,-0.01781152,0.00332158,0.001675
 76,-0.00016609,-0.00003434,0.02476682,0.54829457,-0.00035865,-0.001318
 15,0.00310407,-0.00129405,-0.00092250,0.00392552,-0.00367208,0.0028311
 2,0.00111391,-0.00034086,-0.00000260,0.00177835,-0.01122763,-0.0001370
 1,-0.06163671,0.00046587,0.00036109,-0.00275492,0.00474510,-0.00055857
 ,-0.00409742,0.00007133,-0.00023424,0.00152415,0.00026837,0.00687300,0
 .51667627,0.00009484,0.00158900,0.00017350,0.00006319,0.00004856,0.000
 01161,0.00123764,-0.00064361,0.00010850,0.00003715,-0.00011083,0.00000
 707,0.00490274,0.03078377,0.00429818,-0.00012829,-0.00033303,-0.000061
 76,-0.00595246,0.00175932,-0.00067990,-0.00058005,0.00014137,-0.000031
 35,-0.04766005,-0.01687005,-0.00223224,0.05120740,-0.00007582,-0.00055
 060,-0.00017951,0.00073342,-0.00041298,0.00003517,-0.00139692,0.001349
 20,-0.00005332,0.00005494,0.00008645,0.00003493,-0.00453616,-0.0128481
 0,-0.00182847,0.00046761,0.00041123,0.00011379,0.00396087,-0.00036107,
 0.00039728,0.00035312,-0.00003892,0.00003749,-0.01308909,-0.29947339,-
 0.02972796,0.01507204,0.32767164,-0.00006518,0.00003474,0.00056960,0.0
 0009616,-0.00001371,-0.00013817,-0.00002280,0.00006292,0.00009016,0.00
 002661,0.00001334,-0.00011019,0.00030147,0.00224165,-0.00164658,0.0000
 1511,-0.00001376,0.00012954,-0.00029960,0.00001347,0.00094958,-0.00002
 392,0.00001245,-0.00001314,-0.00178093,-0.03011470,-0.04899473,0.00235
 359,0.03318553,0.04849940,-0.00282829,-0.00011295,0.00020530,-0.001516
 92,0.00137162,0.00110473,0.00024088,0.00260831,-0.00108492,-0.00036111
 ,0.00024989,0.00041937,-0.01817918,-0.00557929,-0.02532795,0.00019477,
 -0.00010762,-0.00042380,0.00370136,-0.00255942,0.00054865,-0.00003155,
 0.00009221,0.00013025,-0.08584684,-0.02028356,-0.09320942,-0.00164599,
 -0.00060797,-0.00119773,0.09848134,0.00080679,0.00042201,0.00037131,0.
 00083218,-0.00096866,0.00031230,-0.00083635,-0.00008626,0.00007833,0.0
 0009152,-0.00003604,-0.00028115,0.00638964,0.00225464,0.01172365,0.000
 11080,0.00015520,-0.00013764,-0.00109139,0.00112951,-0.00063867,0.0000
 2009,0.00003682,-0.00029625,-0.01924862,-0.05474773,-0.04058622,-0.012
 93003,-0.00495087,-0.02874483,0.02053924,0.05433507,-0.00150234,0.0002
 9906,-0.00002398,-0.00016439,0.00079347,0.00023500,0.00099985,0.000546
 20,-0.00033884,-0.00004289,0.00007660,0.00000831,-0.00250873,0.0003099
 9,0.00310228,0.00006981,-0.00008113,-0.00000990,0.00120073,-0.00028576
 ,0.00074717,-0.00004693,0.00006847,-0.00009982,-0.09132682,-0.04247830
 ,-0.24062128,-0.00038786,-0.00102496,-0.00251065,0.10220042,0.04655402
 ,0.26211254,-0.00310951,0.00007615,-0.00092901,-0.00128881,0.00195300,
 -0.00102358,0.00030582,0.00212179,0.00176588,-0.00026176,0.00035152,-0
 .00041270,-0.02319717,-0.00987055,0.01781283,0.00009297,-0.00023642,0.
 00042110,0.00368624,-0.00254085,0.00007651,-0.00002528,0.00013831,-0.0
 0010972,-0.13128852,-0.05536716,0.10678427,-0.00157612,-0.00093605,0.0
 0059722,0.00779151,0.00531613,-0.00849084,0.14887063,0.00058542,0.0005
 4081,-0.00002400,0.00090980,-0.00075432,-0.00031668,-0.00066732,0.0000
 5064,-0.00021161,0.00001751,-0.00009299,0.00027308,0.00867590,0.004925
 88,-0.01033186,0.00007348,0.00009627,0.00018641,-0.00078260,0.00114985
 ,0.00037913,-0.00005828,-0.00003718,0.00031246,-0.05363103,-0.07895839
 ,0.06342204,-0.01850651,-0.01088259,0.02332290,0.00438953,0.00245630,-
 0.00477766,0.05899412,0.08150572,0.00099376,-0.00013898,0.00001869,0.0
 0012821,-0.00066057,-0.00026680,-0.00106286,0.00009669,-0.00034098,-0.
 00000366,-0.00001652,-0.00002889,-0.00145791,-0.00251983,0.00556817,-0
 .00003197,0.00005801,0.00012602,-0.00022618,-0.00004899,0.00053047,0.0
 0006033,-0.00002880,-0.00004912,0.10501645,0.06483802,-0.17001720,-0.0
 0355934,-0.00098997,0.00317519,0.01663511,0.01164515,-0.02260082,-0.11
 649196,-0.07223421,0.18388527\\0.00000490,0.00000413,-0.00000605,0.000
 00127,0.00000614,-0.00000761,-0.00000244,0.00000233,-0.00000204,0.0000
 0057,0.00000412,-0.00000491,-0.00000076,-0.00000211,0.00000245,-0.0000
 0242,0.00000094,-0.00000058,0.00000425,-0.00000078,0.00000012,0.000003
 45,0.00000244,-0.00000368,-0.00000518,-0.00000640,0.00000904,-0.000003
 29,-0.00000496,0.00000373,-0.00000216,-0.00000264,0.00000651,0.0000018
 2,-0.00000322,0.00000304\\\@
 The archive entry for this job was punched.


 FOR THE NATURE OF THE CHEMICAL BOND
 IS THE PROBLEM AT THE HEART OF ALL CHEMISTRY.

                     -- BRYCE CRAWFORD, JR., 1953
 Job cpu time:       0 days  0 hours 10 minutes 46.3 seconds.
 Elapsed time:       0 days  0 hours  0 minutes 60.0 seconds.
 File lengths (MBytes):  RWF=     72 Int=      0 D2E=      0 Chk=     12 Scr=      1
 Normal termination of Gaussian 16 at Thu Dec 14 12:47:53 2023.
