 Entering Gaussian System, Link 0=g16
 Input=pyrazolide-CO2_binding-site_index-1-freq.gjf
 Output=pyrazolide-CO2_binding-site_index-1-freq.log
 Initial command:
 /software/commercial/gaussian/g16/AVX/g16/l1.exe "/scratch1/svicchi/G09-659859.pbs02/Gau-1764958.inp" -scrdir="/scratch1/svicchi/G09-659859.pbs02/"
 Entering Link 1 = /software/commercial/gaussian/g16/AVX/g16/l1.exe PID=   1764959.
  
 Copyright (c) 1988-2019, Gaussian, Inc.  All Rights Reserved.
  
 This is part of the Gaussian(R) 16 program.  It is based on
 the Gaussian(R) 09 system (copyright 2009, Gaussian, Inc.),
 the Gaussian(R) 03 system (copyright 2003, Gaussian, Inc.),
 the Gaussian(R) 98 system (copyright 1998, Gaussian, Inc.),
 the Gaussian(R) 94 system (copyright 1995, Gaussian, Inc.),
 the Gaussian 92(TM) system (copyright 1992, Gaussian, Inc.),
 the Gaussian 90(TM) system (copyright 1990, Gaussian, Inc.),
 the Gaussian 88(TM) system (copyright 1988, Gaussian, Inc.),
 the Gaussian 86(TM) system (copyright 1986, Carnegie Mellon
 University), and the Gaussian 82(TM) system (copyright 1983,
 Carnegie Mellon University). Gaussian is a federally registered
 trademark of Gaussian, Inc.
  
 This software contains proprietary and confidential information,
 including trade secrets, belonging to Gaussian, Inc.
  
 This software is provided under written license and may be
 used, copied, transmitted, or stored only in accord with that
 written license.
  
 The following legend is applicable only to US Government
 contracts under FAR:
  
                    RESTRICTED RIGHTS LEGEND
  
 Use, reproduction and disclosure by the US Government is
 subject to restrictions as set forth in subparagraphs (a)
 and (c) of the Commercial Computer Software - Restricted
 Rights clause in FAR 52.227-19.
  
 Gaussian, Inc.
 340 Quinnipiac St., Bldg. 40, Wallingford CT 06492
  
  
 ---------------------------------------------------------------
 Warning -- This program may not be used in any manner that
 competes with the business of Gaussian, Inc. or will provide
 assistance to any competitor of Gaussian, Inc.  The licensee
 of this program is prohibited from giving any competitor of
 Gaussian, Inc. access to this program.  By using this program,
 the user acknowledges that Gaussian, Inc. is engaged in the
 business of creating and licensing software in the field of
 computational chemistry and represents and warrants to the
 licensee that it is not a competitor of Gaussian, Inc. and that
 it will not use this program in any manner prohibited above.
 ---------------------------------------------------------------
  

 Cite this work as:
 Gaussian 16, Revision C.01,
 M. J. Frisch, G. W. Trucks, H. B. Schlegel, G. E. Scuseria, 
 M. A. Robb, J. R. Cheeseman, G. Scalmani, V. Barone, 
 G. A. Petersson, H. Nakatsuji, X. Li, M. Caricato, A. V. Marenich, 
 J. Bloino, B. G. Janesko, R. Gomperts, B. Mennucci, H. P. Hratchian, 
 J. V. Ortiz, A. F. Izmaylov, J. L. Sonnenberg, D. Williams-Young, 
 F. Ding, F. Lipparini, F. Egidi, J. Goings, B. Peng, A. Petrone, 
 T. Henderson, D. Ranasinghe, V. G. Zakrzewski, J. Gao, N. Rega, 
 G. Zheng, W. Liang, M. Hada, M. Ehara, K. Toyota, R. Fukuda, 
 J. Hasegawa, M. Ishida, T. Nakajima, Y. Honda, O. Kitao, H. Nakai, 
 T. Vreven, K. Throssell, J. A. Montgomery, Jr., J. E. Peralta, 
 F. Ogliaro, M. J. Bearpark, J. J. Heyd, E. N. Brothers, K. N. Kudin, 
 V. N. Staroverov, T. A. Keith, R. Kobayashi, J. Normand, 
 K. Raghavachari, A. P. Rendell, J. C. Burant, S. S. Iyengar, 
 J. Tomasi, M. Cossi, J. M. Millam, M. Klene, C. Adamo, R. Cammi, 
 J. W. Ochterski, R. L. Martin, K. Morokuma, O. Farkas, 
 J. B. Foresman, and D. J. Fox, Gaussian, Inc., Wallingford CT, 2019.
 
 ******************************************
 Gaussian 16:  ES64L-G16RevC.01  3-Jul-2019
                 2-Jun-2023 
 ******************************************
 %NProcShared=2
 Will use up to    2 processors via shared memory.
 %mem=55gb
 %chk=/scratch1/svicchi/G09-659859.pbs02/02-freq/pyrazolide-CO2_binding-site_inde
 x-1-freq.chk
 ----------------------------------------------------------------------
 #p freq=raman scale=0.967 pop=(nbo,full,hirshfeld) guess=read geom=all
 check b3lyp/6-311+G(d,p) int=grid=ultrafine EmpiricalDispersion=GD3BJ 
 SCRF=(Solvent=ethanol) scf=(xqc,intrep,maxconventionalcycle=350) nosym
 m
 ----------------------------------------------------------------------
 1/10=4,29=7,30=1,38=1,114=967000/1,3;
 2/12=2,15=1,40=1/2;
 3/5=4,6=6,7=111,11=2,14=-4,25=1,30=1,70=2201,71=2,72=4,74=-5,75=-5,116=-2,124=41,140=1/1,2,3;
 4/5=1/1;
 5/5=2,8=3,13=1,17=20,38=6,53=4,85=350,98=1/2,8;
 8/6=4,10=90,11=11/1;
 10/13=10,15=4,31=1/2;
 11/6=3,8=1,9=11,15=111,16=1,31=1/1,2,10;
 10/6=1,31=1/2;
 6/7=3,28=1,40=1,79=1/1,7;
 7/8=1,10=1,25=1,30=1/1,2,3,16;
 1/10=4,30=1/3;
 99//99;
 Leave Link    1 at Fri Jun  2 11:25:17 2023, MaxMem=  7381975040 cpu:               2.3 elap:               2.4
 (Enter /software/commercial/gaussian/g16/AVX/g16/l101.exe)
 Structure from the checkpoint file:  "/scratch1/svicchi/G09-659859.pbs02/02-freq/pyrazolide-CO2_binding-site_index-1-freq.chk"
 ---------------------------------------
 pyrazolide-CO2_binding-site_index-1.gjf
 ---------------------------------------
 Charge = -1 Multiplicity = 1
 No Z-Matrix found in chk file; cartesian coordinates used.
  N                                                 0.697578255025     -0.016733594305      1.035806992382
  N                                                -0.655435949588     -0.026068474692      0.945901938559
  C                                                 1.117732965437      0.559573089944     -0.087151301887
  C                                                 0.035350663098      0.930632128982     -0.919112095173
  C                                                -1.085084912718      0.536664064216     -0.218165280806
  H                                                 2.176409043910      0.688998443403     -0.262056082780
  H                                                 0.070512056706      1.412219612872     -1.883090690268
  H                                                -2.135641945686      0.604952377690     -0.439345349091
  C                                                -1.536316630132     -0.593448341583      2.017308076253
  O                                                -0.945135427950     -1.059147679276      2.998201680423
  O                                                -2.746000118103     -0.504628627250      1.746112112387
 Recover connectivity data from disk.
 ITRead=  0  0  0  0  0  0  0  0  0  0  0
 MicOpt= -1 -1 -1 -1 -1 -1 -1 -1 -1 -1 -1
 NAtoms=     11 NQM=       11 NQMF=       0 NMMI=      0 NMMIF=      0
                NMic=       0 NMicF=      0.
                    Isotopes and Nuclear Properties:
 (Nuclear quadrupole moments (NQMom) in fm**2, nuclear magnetic moments (NMagM)
  in nuclear magnetons)

  Atom         1           2           3           4           5           6           7           8           9          10
 IAtWgt=          14          14          12          12          12           1           1           1          12          16
 AtmWgt=  14.0030740  14.0030740  12.0000000  12.0000000  12.0000000   1.0078250   1.0078250   1.0078250  12.0000000  15.9949146
 NucSpn=           2           2           0           0           0           1           1           1           0           0
 AtZEff=   4.5500000   4.5500000   3.6000000   3.6000000   3.6000000   1.0000000   1.0000000   1.0000000   3.6000000   5.6000000
 NQMom=    2.0440000   2.0440000   0.0000000   0.0000000   0.0000000   0.0000000   0.0000000   0.0000000   0.0000000   0.0000000
 NMagM=    0.4037610   0.4037610   0.0000000   0.0000000   0.0000000   2.7928460   2.7928460   2.7928460   0.0000000   0.0000000
 AtZNuc=   7.0000000   7.0000000   6.0000000   6.0000000   6.0000000   1.0000000   1.0000000   1.0000000   6.0000000   8.0000000

  Atom        11
 IAtWgt=          16
 AtmWgt=  15.9949146
 NucSpn=           0
 AtZEff=   5.6000000
 NQMom=    0.0000000
 NMagM=    0.0000000
 AtZNuc=   8.0000000
 Leave Link  101 at Fri Jun  2 11:25:21 2023, MaxMem=  7381975040 cpu:               0.5 elap:               2.6
 (Enter /software/commercial/gaussian/g16/AVX/g16/l103.exe)

 GradGradGradGradGradGradGradGradGradGradGradGradGradGradGradGradGradGrad
 Berny optimization.
 Initialization pass.
 Trust Radius=3.00D-01 FncErr=1.00D-07 GrdErr=1.00D-07 EigMax=2.50D+02 EigMin=1.00D-04
 Number of steps in this run=      2 maximum allowed number of steps=      2.
 GradGradGradGradGradGradGradGradGradGradGradGradGradGradGradGradGradGrad

 Leave Link  103 at Fri Jun  2 11:25:23 2023, MaxMem=  7381975040 cpu:               0.1 elap:               0.7
 (Enter /software/commercial/gaussian/g16/AVX/g16/l202.exe)
                          Input orientation:                          
 ---------------------------------------------------------------------
 Center     Atomic      Atomic             Coordinates (Angstroms)
 Number     Number       Type             X           Y           Z
 ---------------------------------------------------------------------
      1          7           0        0.697578   -0.016734    1.035807
      2          7           0       -0.655436   -0.026068    0.945902
      3          6           0        1.117733    0.559573   -0.087151
      4          6           0        0.035351    0.930632   -0.919112
      5          6           0       -1.085085    0.536664   -0.218165
      6          1           0        2.176409    0.688998   -0.262056
      7          1           0        0.070512    1.412220   -1.883091
      8          1           0       -2.135642    0.604952   -0.439345
      9          6           0       -1.536317   -0.593448    2.017308
     10          8           0       -0.945135   -1.059148    2.998202
     11          8           0       -2.746000   -0.504629    1.746112
 ---------------------------------------------------------------------
                    Distance matrix (angstroms):
                    1          2          3          4          5
     1  N    0.000000
     2  N    1.356030   0.000000
     3  C    1.330299   2.134081   0.000000
     4  C    2.271069   2.206975   1.414707   0.000000
     5  C    2.248685   1.362468   2.206829   1.379099   0.000000
     6  H    2.090322   3.160669   1.080804   2.252607   3.265345
     7  H    3.309846   3.255591   2.247015   1.078155   2.207709
     8  H    3.254183   2.123230   3.272697   2.247099   1.075757
     9  C    2.507236   1.498593   3.578014   3.662721   2.545212
    10  O    2.763355   2.315840   4.049085   4.501769   3.593218
    11  O    3.549762   2.289064   4.407019   4.110877   2.775124
                    6          7          8          9         10
     6  H    0.000000
     7  H    2.754198   0.000000
     8  H    4.316512   2.757389   0.000000
     9  C    4.541421   4.670943   2.798303   0.000000
    10  O    4.840386   5.564729   4.000408   1.236335   0.000000
    11  O    5.448633   4.977767   2.525853   1.242888   2.262373
                   11
    11  O    0.000000
 Symmetry turned off by external request.
 Stoichiometry    C4H3N2O2(1-)
 Framework group  C1[X(C4H3N2O2)]
 Deg. of freedom    27
 Full point group                 C1      NOp   1
 Rotational constants (GHZ):           5.3743019           1.7518236           1.3211711
 Leave Link  202 at Fri Jun  2 11:25:25 2023, MaxMem=  7381975040 cpu:               0.0 elap:               1.4
 (Enter /software/commercial/gaussian/g16/AVX/g16/l301.exe)
 Standard basis: 6-311+G(d,p) (5D, 7F)
 Ernie: Thresh=  0.10000D-02 Tol=  0.10000D-05 Strict=F.
   194 basis functions,   312 primitive gaussians,   202 cartesian basis functions
    29 alpha electrons       29 beta electrons
       nuclear repulsion energy       344.3113336801 Hartrees.
 IExCor=  402 DFT=T Ex+Corr=B3LYP ExCW=0 ScaHFX=  0.200000
 ScaDFX=  0.800000  0.720000  1.000000  0.810000 ScalE2=  1.000000  1.000000
 IRadAn=      5 IRanWt=     -1 IRanGd=            0 ICorTp=0 IEmpDi=141
 NAtoms=   11 NActive=   11 NUniq=   11 SFac= 1.00D+00 NAtFMM=   60 NAOKFM=F Big=F
 Integral buffers will be    131072 words long.
 Raffenetti 2 integral format.
 Two-electron integral symmetry is turned off.
 R6Disp:  Grimme-D3(BJ) Dispersion energy=       -0.0173625848 Hartrees.
 Nuclear repulsion after empirical dispersion term =      344.2939710953 Hartrees.
 Force inversion solution in PCM.
 ------------------------------------------------------------------------------
 Polarizable Continuum Model (PCM)
 =================================
 Model                : PCM.
 Atomic radii         : UFF (Universal Force Field).
 Polarization charges : Total charges.
 Charge compensation  : None.
 Solution method      : Matrix inversion.
 Cavity type          : Scaled VdW (van der Waals Surface) (Alpha=1.100).
 Cavity algorithm     : GePol (No added spheres)
                        Default sphere list used, NSphG=   11.
                        Lebedev-Laikov grids with approx.  5.0 points / Ang**2.
                        Smoothing algorithm: York/Karplus (Gamma=1.0000).
                        Polarization charges: spherical gaussians, with
                                              point-specific exponents (IZeta= 3).
                        Self-potential: point-specific (ISelfS= 7).
                        Self-field    : sphere-specific E.n sum rule (ISelfD= 2).
 1st derivatives      : Analytical E(r).r(x)/FMM algorithm (CHGder, D1EAlg=3).
                        Cavity 1st derivative terms included.
 2nd derivatives      : Analytical E(r).r(xy)/FMM algorithm (CHGder, D2EAlg=3).
                        Cavity 2nd derivative terms included.
 Solvent              : Ethanol, Eps=  24.852000 Eps(inf)=   1.852593
 ------------------------------------------------------------------------------
 Spheres list:
 ISph  on   Nord     Re0    Alpha      Xe            Ye            Ze
    1   N      1    1.8300  1.100      0.697578     -0.016734      1.035807
    2   N      2    1.8300  1.100     -0.655436     -0.026068      0.945902
    3   C      3    1.9255  1.100      1.117733      0.559573     -0.087151
    4   C      4    1.9255  1.100      0.035351      0.930632     -0.919112
    5   C      5    1.9255  1.100     -1.085085      0.536664     -0.218165
    6   H      6    1.4430  1.100      2.176409      0.688998     -0.262056
    7   H      7    1.4430  1.100      0.070512      1.412220     -1.883091
    8   H      8    1.4430  1.100     -2.135642      0.604952     -0.439345
    9   C      9    1.9255  1.100     -1.536317     -0.593448      2.017308
   10   O     10    1.7500  1.100     -0.945135     -1.059148      2.998202
   11   O     11    1.7500  1.100     -2.746000     -0.504629      1.746112
 ------------------------------------------------------------------------------
 GePol: Number of generator spheres                  =      11
 GePol: Total number of spheres                      =      11
 GePol: Number of exposed spheres                    =      11 (100.00%)
 GePol: Number of points                             =    1144
 GePol: Average weight of points                     =       0.13
 GePol: Minimum weight of points                     =   0.46D-08
 GePol: Maximum weight of points                     =    0.20577
 GePol: Number of points with low weight             =      60
 GePol: Fraction of low-weight points (<1% of avg)   =       5.24%
 GePol: Cavity surface area                          =    154.169 Ang**2
 GePol: Cavity volume                                =    145.698 Ang**3
 Leave Link  301 at Fri Jun  2 11:25:29 2023, MaxMem=  7381975040 cpu:               0.4 elap:               1.4
 (Enter /software/commercial/gaussian/g16/AVX/g16/l302.exe)
 NPDir=0 NMtPBC=     1 NCelOv=     1 NCel=       1 NClECP=     1 NCelD=      1
         NCelK=      1 NCelE2=     1 NClLst=     1 CellRange=     0.0.
 One-electron integrals computed using PRISM.
 NBasis=   194 RedAO= T EigKep=  3.18D-05  NBF=   194
 NBsUse=   194 1.00D-06 EigRej= -1.00D+00 NBFU=   194
 Precomputing XC quadrature grid using
 IXCGrd= 4 IRadAn=           5 IRanWt=          -1 IRanGd=           0 AccXCQ= 0.00D+00.
 Generated NRdTot=       0 NPtTot=           0 NUsed=           0 NTot=          32
 NSgBfM=   202   202   202   202   202 MxSgAt=    11 MxSgA2=    11.
 Leave Link  302 at Fri Jun  2 11:25:33 2023, MaxMem=  7381975040 cpu:               0.7 elap:               2.1
 (Enter /software/commercial/gaussian/g16/AVX/g16/l303.exe)
 DipDrv:  MaxL=1.
 Leave Link  303 at Fri Jun  2 11:25:36 2023, MaxMem=  7381975040 cpu:               0.2 elap:               1.9
 (Enter /software/commercial/gaussian/g16/AVX/g16/l401.exe)
 Initial guess from the checkpoint file:  "/scratch1/svicchi/G09-659859.pbs02/02-freq/pyrazolide-CO2_binding-site_index-1-freq.chk"
 B after Tr=     0.000000    0.000000    0.000000
         Rot=    1.000000    0.000000    0.000000    0.000000 Ang=   0.00 deg.
 Guess basis will be translated and rotated to current coordinates.
 JPrj=2 DoOrth=T DoCkMO=T.
 Leave Link  401 at Fri Jun  2 11:25:39 2023, MaxMem=  7381975040 cpu:               0.6 elap:               1.4
 (Enter /software/commercial/gaussian/g16/AVX/g16/l502.exe)
 Keep R1 ints in memory in canonical form, NReq=183081536.
 FoFCou: FMM=F IPFlag=           0 FMFlag=           0 FMFlg1=           0
         NFxFlg=           0 DoJE=F BraDBF=F KetDBF=F FulRan=T
         wScrn=  0.000000 ICntrl=       600 IOpCl=  0 I1Cent=           0 NGrid=           0
         NMat0=    1 NMatS0=  18915 NMatT0=    0 NMatD0=    1 NMtDS0=    0 NMtDT0=    0
 Symmetry not used in FoFCou.
 Two-electron integral symmetry not used.
 Closed shell SCF:
 Using DIIS extrapolation, IDIIS=  1040.
 NGot=  7381975040 LenX=  7202992402 LenY=  7202951157
 Requested convergence on RMS density matrix=1.00D-08 within 350 cycles.
 Requested convergence on MAX density matrix=1.00D-06.
 Requested convergence on             energy=1.00D-06.
 No special actions if energy rises.

 Cycle   1  Pass 1  IDiag  1:
 Inv3:  Mode=1 IEnd=     3926208.
 Iteration    1 A*A^-1 deviation from unit magnitude is 3.44D-15 for   1127.
 Iteration    1 A*A^-1 deviation from orthogonality  is 2.33D-15 for   1117    935.
 Iteration    1 A^-1*A deviation from unit magnitude is 3.33D-15 for   1127.
 Iteration    1 A^-1*A deviation from orthogonality  is 1.39D-15 for   1130    909.
 E= -414.474859526952    
 DIIS: error= 1.00D-07 at cycle   1 NSaved=   1.
 NSaved= 1 IEnMin= 1 EnMin= -414.474859526952     IErMin= 1 ErrMin= 1.00D-07
 ErrMax= 1.00D-07  0.00D+00 EMaxC= 1.00D-01 BMatC= 4.50D-13 BMatP= 4.50D-13
 IDIUse=1 WtCom= 1.00D+00 WtEn= 0.00D+00
 Coeff-Com:  0.100D+01
 Coeff:      0.100D+01
 Gap=     0.236 Goal=   None    Shift=    0.000
 RMSDP=8.51D-09 MaxDP=2.27D-07              OVMax= 5.98D-07

 Error on total polarization charges =  0.01793
 SCF Done:  E(RB3LYP) =  -414.474859527     A.U. after    1 cycles
            NFock=  1  Conv=0.85D-08     -V/T= 2.0038
 KE= 4.129052697100D+02 PE=-1.670589400804D+03 EE= 4.989153004719D+02
 Leave Link  502 at Fri Jun  2 11:25:55 2023, MaxMem=  7381975040 cpu:              22.2 elap:              13.5
 (Enter /software/commercial/gaussian/g16/AVX/g16/l508.exe)
 QCSCF skips out because SCF is already converged.
 Leave Link  508 at Fri Jun  2 11:25:59 2023, MaxMem=  7381975040 cpu:               0.0 elap:               0.8
 (Enter /software/commercial/gaussian/g16/AVX/g16/l801.exe)
 DoSCS=F DFT=T ScalE2(SS,OS)=  1.000000  1.000000
 Range of M.O.s used for correlation:     1   194
 NBasis=   194 NAE=    29 NBE=    29 NFC=     0 NFV=     0
 NROrb=    194 NOA=    29 NOB=    29 NVA=   165 NVB=   165

 **** Warning!!: The largest alpha MO coefficient is  0.54846983D+02

 Leave Link  801 at Fri Jun  2 11:26:02 2023, MaxMem=  7381975040 cpu:               1.0 elap:               1.7
 (Enter /software/commercial/gaussian/g16/AVX/g16/l1002.exe)
 Minotr:  Closed shell wavefunction.
 NEqPCM:  Using equilibrium solvation (IEInf=0, Eps=  24.8520, EpsInf=   1.8526)
          Direct CPHF calculation.
          Differentiating once with respect to electric field.
                with respect to dipole field.
          Electric field/nuclear overlap derivatives assumed to be zero.
          Requested convergence is 1.0D-08 RMS, and 1.0D-07 maximum.
          Secondary convergence is 1.0D-12 RMS, and 1.0D-12 maximum.
          NewPWx=F KeepS1=T KeepF1=T KeepIn=T MapXYZ=F SortEE=F KeepMc=T.
         3384 words used for storage of precomputed grid.
 Keep R1 ints in memory in canonical form, NReq=183339139.
 FoFCou: FMM=F IPFlag=           0 FMFlag=           0 FMFlg1=           0
         NFxFlg=           0 DoJE=F BraDBF=F KetDBF=F FulRan=T
         wScrn=  0.000000 ICntrl=       600 IOpCl=  0 I1Cent=           0 NGrid=           0
         NMat0=    1 NMatS0=  18915 NMatT0=    0 NMatD0=    1 NMtDS0=    0 NMtDT0=    0
 Symmetry not used in FoFCou.
 Two-electron integral symmetry not used.
          MDV=    7381975040 using IRadAn=       1.
          Solving linear equations simultaneously, MaxMat=       0.
          There are     3 degrees of freedom in the 1st order CPHF.  IDoFFX=0 NUNeed=     3.
      3 vectors produced by pass  0 Test12= 1.60D-13 3.33D-08 XBig12= 8.36D+01 3.73D+00.
 AX will form     3 AO Fock derivatives at one time.
      3 vectors produced by pass  1 Test12= 1.60D-13 3.33D-08 XBig12= 3.96D+01 1.16D+00.
      3 vectors produced by pass  2 Test12= 1.60D-13 3.33D-08 XBig12= 7.09D+00 7.33D-01.
      3 vectors produced by pass  3 Test12= 1.60D-13 3.33D-08 XBig12= 4.48D+00 8.02D-01.
      3 vectors produced by pass  4 Test12= 1.60D-13 3.33D-08 XBig12= 6.31D-01 1.97D-01.
      3 vectors produced by pass  5 Test12= 1.60D-13 3.33D-08 XBig12= 1.71D-01 7.63D-02.
      3 vectors produced by pass  6 Test12= 1.60D-13 3.33D-08 XBig12= 9.63D-03 1.99D-02.
      3 vectors produced by pass  7 Test12= 1.60D-13 3.33D-08 XBig12= 2.80D-03 1.54D-02.
      3 vectors produced by pass  8 Test12= 1.60D-13 3.33D-08 XBig12= 1.18D-04 1.89D-03.
      3 vectors produced by pass  9 Test12= 1.60D-13 3.33D-08 XBig12= 5.03D-06 4.63D-04.
      3 vectors produced by pass 10 Test12= 1.60D-13 3.33D-08 XBig12= 1.09D-07 5.94D-05.
      3 vectors produced by pass 11 Test12= 1.60D-13 3.33D-08 XBig12= 1.81D-09 6.70D-06.
      2 vectors produced by pass 12 Test12= 1.60D-13 3.33D-08 XBig12= 5.69D-11 1.23D-06.
      1 vectors produced by pass 13 Test12= 1.60D-13 3.33D-08 XBig12= 1.83D-12 2.01D-07.
      1 vectors produced by pass 14 Test12= 1.60D-13 3.33D-08 XBig12= 3.71D-14 3.37D-08.
 InvSVY:  IOpt=1 It=  1 EMax= 2.66D-15
 Solved reduced A of dimension    40 with     3 vectors.
 End of Minotr F.D. properties file   721 does not exist.
 End of Minotr F.D. properties file   722 does not exist.
 End of Minotr F.D. properties file   788 does not exist.
 Leave Link 1002 at Fri Jun  2 11:27:15 2023, MaxMem=  7381975040 cpu:             126.2 elap:              72.4
 (Enter /software/commercial/gaussian/g16/AVX/g16/l1101.exe)
 Using compressed storage, NAtomX=    11.
 Will process     12 centers per pass.
 R6Disp: Adding Grimme-D3(BJ) dispersion energy 1st derivatives to the gradient.
 Leave Link 1101 at Fri Jun  2 11:27:18 2023, MaxMem=  7381975040 cpu:               1.3 elap:               1.8
 (Enter /software/commercial/gaussian/g16/AVX/g16/l1102.exe)
 Symmetrizing basis deriv contribution to polar:
 IMax=3 JMax=2 DiffMx= 0.00D+00
 Leave Link 1102 at Fri Jun  2 11:27:21 2023, MaxMem=  7381975040 cpu:               0.1 elap:               1.4
 (Enter /software/commercial/gaussian/g16/AVX/g16/l1110.exe)
 Forming Gx(P) for the SCF density, NAtomX=    11.
 Integral derivatives from FoFJK, PRISM(SPDF).
 Do as many integral derivatives as possible in FoFJK.
 G2DrvN: MDV=    7381973793.
 G2DrvN: will do    12 centers at a time, making    1 passes.
 PxScal for G2LodP:  IOpCl= 0 ISclPx=1 IMOff=     1 NMtTot=     4 NTT=   18915 ScalPx= 1.03D+01
 Calling FoFCou, ICntrl=  3107 FMM=F I1Cent=   0 AccDes= 0.00D+00.
 FoFJK:  IHMeth= 1 ICntrl=    3107 DoSepK=F KAlg= 0 I1Cent=           0 FoldK=F
 IRaf=         0 NMat=       1 IRICut=       1 DoRegI=T DoRafI=F ISym2E= 0 IDoP0=0 IntGTp=1.
 FoFCou: FMM=F IPFlag=           0 FMFlag=      100000 FMFlg1=           0
         NFxFlg=           0 DoJE=F BraDBF=F KetDBF=F FulRan=T
         wScrn=  0.000000 ICntrl=      3107 IOpCl=  0 I1Cent=           0 NGrid=           0
         NMat0=    1 NMatS0=      1 NMatT0=    0 NMatD0=    4 NMtDS0=    3 NMtDT0=    0
 Symmetry not used in FoFCou.
 PxScal for G2LodP:  IOpCl= 0 ISclPx=0 IMOff=     1 NMtTot=     4 NTT=   18915 ScalPx= 1.00D+00
 NEqPCM:  Using equilibrium solvation (IEInf=0, Eps=  24.8520, EpsInf=   1.8526)
 G2PCM: DoFxE=T DoFxN=T DoGrad=T DoDP/DQ/DG/TGxP=TFFF NFrqRd=   0 IEInf=0 SqF1=F DoCFld=F IF1Alg=4.
 GePol: Maximum number of non-zero 1st derivatives   =     217
 End of G2Drv F.D. properties file   721 does not exist.
 End of G2Drv F.D. properties file   722 does not exist.
 End of G2Drv F.D. properties file   788 does not exist.
 Leave Link 1110 at Fri Jun  2 11:29:53 2023, MaxMem=  7381975040 cpu:             292.4 elap:             150.6
 (Enter /software/commercial/gaussian/g16/AVX/g16/l1002.exe)
 Minotr:  Closed shell wavefunction.
          IDoAtm=11111111111
 NEqPCM:  Using equilibrium solvation (IEInf=0, Eps=  24.8520, EpsInf=   1.8526)
          Direct CPHF calculation.
          Differentiating once with respect to electric field.
                with respect to dipole field.
          Differentiating once with respect to nuclear coordinates.
          Requested convergence is 1.0D-08 RMS, and 1.0D-07 maximum.
          Secondary convergence is 1.0D-12 RMS, and 1.0D-12 maximum.
          NewPWx=T KeepS1=F KeepF1=F KeepIn=T MapXYZ=F SortEE=F KeepMc=T.
         3384 words used for storage of precomputed grid.
 Keep R1 ints in memory in canonical form, NReq=183339392.
 FoFCou: FMM=F IPFlag=           0 FMFlag=           0 FMFlg1=           0
         NFxFlg=           0 DoJE=F BraDBF=F KetDBF=F FulRan=T
         wScrn=  0.000000 ICntrl=       600 IOpCl=  0 I1Cent=           0 NGrid=           0
         NMat0=    1 NMatS0=  18915 NMatT0=    0 NMatD0=    1 NMtDS0=    0 NMtDT0=    0
 Symmetry not used in FoFCou.
 Two-electron integral symmetry not used.
          MDV=    7381975040 using IRadAn=       1.
          Solving linear equations simultaneously, MaxMat=       0.
          There are    36 degrees of freedom in the 1st order CPHF.  IDoFFX=5 NUNeed=    36.
 Will reuse    3 saved solutions.
     30 vectors produced by pass  0 Test12= 1.33D-14 2.78D-09 XBig12= 1.95D-01 1.14D-01.
 AX will form    30 AO Fock derivatives at one time.
     30 vectors produced by pass  1 Test12= 1.33D-14 2.78D-09 XBig12= 3.16D-02 5.56D-02.
     30 vectors produced by pass  2 Test12= 1.33D-14 2.78D-09 XBig12= 4.81D-04 4.60D-03.
     30 vectors produced by pass  3 Test12= 1.33D-14 2.78D-09 XBig12= 6.96D-06 4.78D-04.
     30 vectors produced by pass  4 Test12= 1.33D-14 2.78D-09 XBig12= 3.63D-08 2.90D-05.
     30 vectors produced by pass  5 Test12= 1.33D-14 2.78D-09 XBig12= 9.51D-11 1.60D-06.
     15 vectors produced by pass  6 Test12= 1.33D-14 2.78D-09 XBig12= 1.58D-13 5.97D-08.
 InvSVY:  IOpt=1 It=  1 EMax= 2.11D-15
 Solved reduced A of dimension   195 with    30 vectors.
 FullF1:  Do perturbations      1 to       3.
 Isotropic polarizability for W=    0.000000       92.40 Bohr**3.
 FullF1:  Do perturbations      1 to       6.
 End of Minotr F.D. properties file   721 does not exist.
 End of Minotr F.D. properties file   722 does not exist.
 End of Minotr F.D. properties file   788 does not exist.
 Leave Link 1002 at Fri Jun  2 11:32:36 2023, MaxMem=  7381975040 cpu:             284.1 elap:             161.0
 (Enter /software/commercial/gaussian/g16/AVX/g16/l601.exe)
 Copying SCF densities to generalized density rwf, IOpCl= 0 IROHF=0.

 **********************************************************************

            Population analysis using the SCF Density.

 **********************************************************************

 Alpha  occ. eigenvalues --  -19.06927 -19.06889 -14.37511 -14.32536 -10.28909
 Alpha  occ. eigenvalues --  -10.19823 -10.18807 -10.16295  -1.06335  -1.01755
 Alpha  occ. eigenvalues --   -0.95913  -0.81011  -0.77246  -0.61688  -0.59299
 Alpha  occ. eigenvalues --   -0.53998  -0.47922  -0.45545  -0.43879  -0.43278
 Alpha  occ. eigenvalues --   -0.40765  -0.39742  -0.38941  -0.29372  -0.27430
 Alpha  occ. eigenvalues --   -0.26571  -0.25652  -0.24870  -0.24571
 Alpha virt. eigenvalues --   -0.00942   0.01333   0.03262   0.03728   0.04648
 Alpha virt. eigenvalues --    0.05416   0.05494   0.06118   0.06875   0.08776
 Alpha virt. eigenvalues --    0.08939   0.10051   0.10476   0.10479   0.12385
 Alpha virt. eigenvalues --    0.14598   0.14828   0.16611   0.16808   0.18836
 Alpha virt. eigenvalues --    0.19015   0.20161   0.20824   0.21684   0.22675
 Alpha virt. eigenvalues --    0.22842   0.23514   0.24353   0.24743   0.24911
 Alpha virt. eigenvalues --    0.26439   0.27012   0.28158   0.28290   0.29314
 Alpha virt. eigenvalues --    0.30172   0.32103   0.33150   0.36036   0.37134
 Alpha virt. eigenvalues --    0.39016   0.41660   0.43347   0.45291   0.48478
 Alpha virt. eigenvalues --    0.49234   0.52741   0.55383   0.57907   0.57963
 Alpha virt. eigenvalues --    0.61727   0.63682   0.65712   0.67546   0.72228
 Alpha virt. eigenvalues --    0.74978   0.75370   0.77240   0.78581   0.80580
 Alpha virt. eigenvalues --    0.82070   0.84685   0.86457   0.87542   0.87997
 Alpha virt. eigenvalues --    0.91351   0.93829   0.95412   0.97624   1.00529
 Alpha virt. eigenvalues --    1.08718   1.10115   1.13554   1.16103   1.16448
 Alpha virt. eigenvalues --    1.17094   1.19576   1.19784   1.24012   1.24288
 Alpha virt. eigenvalues --    1.24604   1.31112   1.34987   1.36091   1.41690
 Alpha virt. eigenvalues --    1.43859   1.50844   1.56183   1.58543   1.59925
 Alpha virt. eigenvalues --    1.67340   1.72117   1.72169   1.75082   1.76194
 Alpha virt. eigenvalues --    1.79541   1.82548   1.88827   1.89192   1.91962
 Alpha virt. eigenvalues --    1.94421   1.99385   2.01080   2.04643   2.09354
 Alpha virt. eigenvalues --    2.15230   2.24410   2.28135   2.35807   2.46547
 Alpha virt. eigenvalues --    2.46873   2.52499   2.54689   2.62112   2.65229
 Alpha virt. eigenvalues --    2.67202   2.69027   2.70237   2.73936   2.74649
 Alpha virt. eigenvalues --    2.78127   2.80321   2.85221   2.86451   2.91573
 Alpha virt. eigenvalues --    2.93804   2.94281   2.99570   3.00242   3.10416
 Alpha virt. eigenvalues --    3.24217   3.28025   3.30495   3.31280   3.44085
 Alpha virt. eigenvalues --    3.44136   3.45337   3.51455   3.64646   3.66937
 Alpha virt. eigenvalues --    3.71879   3.79377   3.86494   3.97078   4.07108
 Alpha virt. eigenvalues --    4.08306   4.15914   4.22336   4.58167   4.91157
 Alpha virt. eigenvalues --    5.04413   5.06972   5.15862   5.20670   5.42048
 Alpha virt. eigenvalues --    5.70183   5.89593  23.78772  23.86731  23.99918
 Alpha virt. eigenvalues --   24.18394  35.50300  35.56220  49.95854  50.06624
     Molecular Orbital Coefficients:
                           1         2         3         4         5
                           O         O         O         O         O
     Eigenvalues --   -19.06927 -19.06889 -14.37511 -14.32536 -10.28909
   1 1   N  1S         -0.00000  -0.00000   0.00124   0.55738   0.00000
   2        2S          0.00002   0.00001   0.00105   0.46583   0.00001
   3        2PX        -0.00001  -0.00005  -0.00030  -0.00129  -0.00001
   4        2PY        -0.00001  -0.00002  -0.00001   0.00049  -0.00001
   5        2PZ         0.00002   0.00003  -0.00001  -0.00108   0.00001
   6        3S         -0.00016  -0.00001   0.00026   0.01587  -0.00003
   7        3PX         0.00001   0.00020   0.00050   0.00042   0.00010
   8        3PY         0.00002   0.00007   0.00002   0.00048   0.00004
   9        3PZ        -0.00004  -0.00012   0.00000  -0.00092  -0.00007
  10        4S          0.00242  -0.00167   0.00012  -0.01791  -0.00085
  11        4PX        -0.00101   0.00041  -0.00100   0.00246   0.00016
  12        4PY         0.00010  -0.00017  -0.00016  -0.00128  -0.00023
  13        4PZ        -0.00029   0.00037   0.00024   0.00277   0.00047
  14        5S          0.00319  -0.02798  -0.02861   0.01943  -0.02539
  15        5PX        -0.00128   0.00789   0.00850  -0.00552   0.00725
  16        5PY        -0.00036   0.00020  -0.00042   0.00042   0.00003
  17        5PZ         0.00061   0.00025   0.00153  -0.00129   0.00053
  18        6D 0        0.00000   0.00001   0.00023   0.00023  -0.00001
  19        6D+1       -0.00002   0.00004  -0.00013  -0.00029  -0.00001
  20        6D-1       -0.00001   0.00000   0.00000  -0.00028   0.00001
  21        6D+2        0.00000  -0.00003  -0.00042   0.00001   0.00001
  22        6D-2        0.00001  -0.00002   0.00003   0.00015   0.00001
  23 2   N  1S         -0.00000  -0.00000   0.55737  -0.00126  -0.00002
  24        2S          0.00003   0.00002   0.46575  -0.00105  -0.00007
  25        2PX        -0.00008  -0.00004   0.00039   0.00033  -0.00008
  26        2PY        -0.00004  -0.00005   0.00001  -0.00001  -0.00005
  27        2PZ         0.00007   0.00010   0.00000   0.00004   0.00010
  28        3S         -0.00010   0.00006   0.01602   0.00008   0.00039
  29        3PX         0.00037   0.00009  -0.00027  -0.00066  -0.00012
  30        3PY         0.00013   0.00023   0.00038   0.00002  -0.00005
  31        3PZ        -0.00024  -0.00045  -0.00078  -0.00010   0.00010
  32        4S         -0.00021  -0.00154  -0.01669   0.00192   0.00107
  33        4PX        -0.00285   0.00267   0.00075   0.00419   0.00097
  34        4PY         0.00068  -0.00084  -0.00059  -0.00019   0.00065
  35        4PZ        -0.00159   0.00190   0.00124   0.00071  -0.00123
  36        5S         -0.00310   0.01527   0.02623  -0.01670   0.02507
  37        5PX        -0.00208   0.01715   0.01482  -0.00337   0.00959
  38        5PY         0.00150  -0.00110   0.00017  -0.00149  -0.00147
  39        5PZ        -0.00318   0.00357   0.00084   0.00272   0.00372
  40        6D 0       -0.00005  -0.00002   0.00021   0.00022  -0.00005
  41        6D+1        0.00016   0.00016   0.00015  -0.00007   0.00022
  42        6D-1        0.00005   0.00005  -0.00032  -0.00005   0.00012
  43        6D+2        0.00003  -0.00002   0.00013  -0.00031  -0.00009
  44        6D-2       -0.00008  -0.00008  -0.00006   0.00001  -0.00012
  45 3   C  1S         -0.00000  -0.00000  -0.00001   0.00000  -0.00000
  46        2S          0.00001   0.00000   0.00004   0.00007   0.00000
  47        2PX        -0.00001   0.00001   0.00006  -0.00007  -0.00001
  48        2PY        -0.00001   0.00001  -0.00001  -0.00024   0.00001
  49        2PZ         0.00003  -0.00002   0.00003   0.00047  -0.00002
  50        3S         -0.00004  -0.00006  -0.00048   0.00022  -0.00008
  51        3PX         0.00007  -0.00002   0.00003   0.00008   0.00006
  52        3PY         0.00007  -0.00004   0.00011   0.00077  -0.00005
  53        3PZ        -0.00014   0.00008  -0.00022  -0.00154   0.00010
  54        4S         -0.00089   0.00160   0.00554   0.00832   0.00087
  55        4PX         0.00038  -0.00010  -0.00195  -0.00523   0.00046
  56        4PY        -0.00001  -0.00002  -0.00012  -0.00159  -0.00020
  57        4PZ         0.00006   0.00003   0.00009   0.00276   0.00043
  58        5S          0.00505   0.00644   0.00659  -0.01825   0.00853
  59        5PX        -0.00146  -0.00140  -0.00168   0.00428  -0.00260
  60        5PY        -0.00025   0.00087   0.00091  -0.00047   0.00026
  61        5PZ         0.00038  -0.00186  -0.00196   0.00129  -0.00073
  62        6D 0       -0.00004  -0.00003  -0.00016  -0.00079  -0.00001
  63        6D+1        0.00002  -0.00001  -0.00008   0.00082  -0.00002
  64        6D-1        0.00002  -0.00000  -0.00002   0.00057  -0.00000
  65        6D+2        0.00004   0.00004   0.00030   0.00059   0.00002
  66        6D-2       -0.00001   0.00001   0.00006  -0.00037   0.00001
  67 4   C  1S         -0.00000  -0.00000  -0.00001  -0.00001  -0.00001
  68        2S          0.00001   0.00001   0.00004   0.00005   0.00001
  69        2PX         0.00000  -0.00000  -0.00012   0.00012   0.00000
  70        2PY         0.00000  -0.00001  -0.00003  -0.00004   0.00000
  71        2PZ        -0.00000   0.00001   0.00004   0.00009  -0.00001
  72        3S         -0.00005  -0.00004  -0.00000   0.00005  -0.00018
  73        3PX         0.00003   0.00004   0.00086  -0.00076   0.00002
  74        3PY         0.00002   0.00005   0.00038   0.00041  -0.00000
  75        3PZ        -0.00004  -0.00010  -0.00069  -0.00088   0.00000
  76        4S          0.00156   0.00031  -0.00519  -0.00628   0.00372
  77        4PX        -0.00024  -0.00040  -0.00085   0.00089  -0.00087
  78        4PY        -0.00019   0.00017   0.00221   0.00252  -0.00074
  79        4PZ         0.00036  -0.00038  -0.00450  -0.00498   0.00141
  80        5S         -0.01677  -0.02046  -0.00164   0.01207  -0.00330
  81        5PX         0.00265  -0.00002  -0.00297   0.00285  -0.00115
  82        5PY         0.00125   0.00175   0.00027  -0.00078   0.00021
  83        5PZ        -0.00230  -0.00352  -0.00079   0.00180  -0.00051
  84        6D 0        0.00002   0.00002   0.00024   0.00011  -0.00000
  85        6D+1        0.00004   0.00004   0.00034  -0.00041   0.00002
  86        6D-1       -0.00000  -0.00001  -0.00009  -0.00004   0.00000
  87        6D+2       -0.00002  -0.00001  -0.00024  -0.00018  -0.00000
  88        6D-2       -0.00002  -0.00002  -0.00019   0.00019  -0.00001
  89 5   C  1S         -0.00000   0.00000   0.00000  -0.00001  -0.00001
  90        2S          0.00002   0.00000   0.00005   0.00005  -0.00001
  91        2PX        -0.00003  -0.00005   0.00009  -0.00001  -0.00001
  92        2PY        -0.00004  -0.00001  -0.00023  -0.00001  -0.00001
  93        2PZ         0.00009   0.00001   0.00047   0.00001   0.00002
  94        3S         -0.00011  -0.00002   0.00020  -0.00057  -0.00001
  95        3PX         0.00010   0.00013  -0.00012  -0.00028  -0.00003
  96        3PY         0.00025  -0.00001   0.00074   0.00008   0.00011
  97        3PZ        -0.00049   0.00003  -0.00149  -0.00019  -0.00022
  98        4S         -0.00282   0.00428   0.00799   0.00766  -0.00216
  99        4PX        -0.00118  -0.00085   0.00335   0.00175  -0.00372
 100        4PY        -0.00006  -0.00102  -0.00172  -0.00041  -0.00023
 101        4PZ         0.00003   0.00199   0.00372   0.00097   0.00017
 102        5S          0.00926   0.02243  -0.00512   0.00480   0.00167
 103        5PX         0.00314   0.00384  -0.00156   0.00118  -0.00241
 104        5PY         0.00184  -0.00100  -0.00089   0.00002  -0.00103
 105        5PZ        -0.00345   0.00231   0.00166   0.00005   0.00187
 106        6D 0       -0.00010  -0.00004  -0.00074  -0.00012  -0.00008
 107        6D+1       -0.00000   0.00002  -0.00078  -0.00003  -0.00004
 108        6D-1        0.00005  -0.00002   0.00042  -0.00006   0.00001
 109        6D+2        0.00009   0.00010   0.00057   0.00029   0.00012
 110        6D-2        0.00001  -0.00000   0.00043   0.00004   0.00003
 111 6   H  1S         -0.00001   0.00001  -0.00009  -0.00024   0.00002
 112        2S         -0.00006  -0.00019  -0.00018   0.00010  -0.00024
 113        3S          0.00014  -0.00018   0.00032   0.00219  -0.00052
 114        4PX         0.00002   0.00004   0.00017   0.00027   0.00005
 115        4PY         0.00000   0.00001   0.00001   0.00017   0.00003
 116        4PZ        -0.00000  -0.00002  -0.00000  -0.00032  -0.00005
 117 7   H  1S          0.00001   0.00003   0.00004   0.00006   0.00001
 118        2S         -0.00017  -0.00028  -0.00144  -0.00149   0.00001
 119        3S          0.00038   0.00042  -0.00118  -0.00169   0.00059
 120        4PX         0.00002   0.00002   0.00008  -0.00008   0.00004
 121        4PY         0.00001   0.00002   0.00014   0.00014   0.00000
 122        4PZ        -0.00003  -0.00003  -0.00028  -0.00029  -0.00000
 123 8   H  1S         -0.00001   0.00009  -0.00014  -0.00007   0.00007
 124        2S         -0.00013  -0.00091  -0.00060  -0.00050  -0.00107
 125        3S         -0.00092   0.00108   0.00293   0.00055  -0.00144
 126        4PX        -0.00004  -0.00007  -0.00030  -0.00022  -0.00014
 127        4PY         0.00002   0.00008   0.00018   0.00002   0.00008
 128        4PZ        -0.00004  -0.00017  -0.00039  -0.00006  -0.00016
 129 9   C  1S         -0.00002  -0.00002   0.00001  -0.00000   0.56309
 130        2S          0.00010   0.00009  -0.00003   0.00001   0.46334
 131        2PX         0.00017  -0.00034   0.00020   0.00006   0.00040
 132        2PY        -0.00014   0.00001   0.00011   0.00000   0.00026
 133        2PZ         0.00030  -0.00004  -0.00021  -0.00000  -0.00049
 134        3S          0.00023   0.00032   0.00009  -0.00011   0.01800
 135        3PX        -0.00037   0.00067  -0.00039  -0.00023  -0.00101
 136        3PY         0.00032   0.00002  -0.00017  -0.00000  -0.00066
 137        3PZ        -0.00066   0.00002   0.00030  -0.00001   0.00124
 138        4S          0.00265   0.00190   0.00265   0.00094  -0.01088
 139        4PX         0.00644  -0.00692   0.00139  -0.00060  -0.00007
 140        4PY        -0.00268   0.00178   0.00131   0.00059  -0.00042
 141        4PZ         0.00589  -0.00411  -0.00252  -0.00124   0.00083
 142        5S          0.00068  -0.00570  -0.00092  -0.00075  -0.00965
 143        5PX        -0.00081  -0.00037  -0.00058  -0.00035  -0.00103
 144        5PY         0.00065  -0.00071   0.00012   0.00012  -0.00135
 145        5PZ        -0.00136   0.00140  -0.00029  -0.00028   0.00263
 146        6D 0       -0.00037   0.00045  -0.00009   0.00009   0.00006
 147        6D+1       -0.00069  -0.00045   0.00045   0.00014   0.00161
 148        6D-1        0.00031  -0.00016   0.00002  -0.00008  -0.00088
 149        6D+2        0.00011  -0.00057   0.00017  -0.00002   0.00138
 150        6D-2        0.00035   0.00018  -0.00021  -0.00007  -0.00068
 151 10  O  1S          0.55103   0.01758   0.00000   0.00000  -0.00007
 152        2S          0.46947   0.01503   0.00003   0.00002  -0.00004
 153        2PX        -0.00053  -0.00007  -0.00003  -0.00000  -0.00022
 154        2PY         0.00041   0.00002   0.00002   0.00001   0.00019
 155        2PZ        -0.00087  -0.00005  -0.00004  -0.00002  -0.00041
 156        3S          0.01392   0.00001  -0.00018  -0.00013   0.00032
 157        3PX        -0.00031   0.00018   0.00014   0.00004   0.00068
 158        3PY         0.00027  -0.00004  -0.00011  -0.00004  -0.00061
 159        3PZ        -0.00056   0.00010   0.00023   0.00007   0.00128
 160        4S         -0.01221   0.00251   0.00010   0.00065  -0.00368
 161        4PX         0.00084   0.00020  -0.00048  -0.00014   0.00069
 162        4PY        -0.00100   0.00048  -0.00008   0.00005  -0.00073
 163        4PZ         0.00206  -0.00095   0.00013  -0.00011   0.00152
 164        5S          0.00148   0.00304  -0.00027  -0.00070   0.00336
 165        5PX         0.00063  -0.00015  -0.00015  -0.00044  -0.00018
 166        5PY        -0.00017   0.00037  -0.00030  -0.00030   0.00090
 167        5PZ         0.00039  -0.00076   0.00059   0.00058  -0.00183
 168        6D 0        0.00010   0.00011  -0.00008  -0.00001  -0.00053
 169        6D+1        0.00018  -0.00013  -0.00002  -0.00000  -0.00058
 170        6D-1       -0.00013  -0.00006   0.00006   0.00002   0.00059
 171        6D+2        0.00004  -0.00011   0.00006  -0.00001  -0.00004
 172        6D-2       -0.00009   0.00006   0.00002  -0.00000   0.00028
 173 11  O  1S         -0.01758   0.55103   0.00000   0.00000  -0.00007
 174        2S         -0.01493   0.46947   0.00002   0.00001  -0.00005
 175        2PX         0.00000   0.00107   0.00006   0.00003   0.00050
 176        2PY        -0.00002  -0.00008  -0.00000   0.00001  -0.00002
 177        2PZ         0.00003   0.00024   0.00001  -0.00002   0.00008
 178        3S         -0.00087   0.01395  -0.00007  -0.00006   0.00042
 179        3PX        -0.00021   0.00059  -0.00031  -0.00011  -0.00155
 180        3PY         0.00006  -0.00001   0.00001  -0.00003   0.00006
 181        3PZ        -0.00013   0.00006  -0.00004   0.00006  -0.00024
 182        4S          0.00317  -0.01236  -0.00089  -0.00044  -0.00378
 183        4PX         0.00105  -0.00226  -0.00021   0.00004  -0.00148
 184        4PY         0.00029  -0.00007  -0.00016   0.00005   0.00009
 185        4PZ        -0.00051  -0.00004   0.00031  -0.00009  -0.00029
 186        5S          0.00287   0.00667   0.00365  -0.00022   0.00818
 187        5PX         0.00104   0.00126   0.00122   0.00006   0.00322
 188        5PY         0.00006   0.00068   0.00003  -0.00004   0.00028
 189        5PZ        -0.00004  -0.00128   0.00003   0.00008  -0.00031
 190        6D 0       -0.00005  -0.00009   0.00008   0.00002   0.00045
 191        6D+1       -0.00020   0.00010   0.00001   0.00000  -0.00025
 192        6D-1        0.00004  -0.00001  -0.00004  -0.00002   0.00004
 193        6D+2        0.00001   0.00019  -0.00008  -0.00000  -0.00087
 194        6D-2        0.00010  -0.00004  -0.00001  -0.00000   0.00006
                           6         7         8         9        10
                           O         O         O         O         O
     Eigenvalues --   -10.19823 -10.18807 -10.16295  -1.06335  -1.01755
   1 1   N  1S          0.00000  -0.00007   0.00000  -0.04105  -0.05616
   2        2S          0.00003  -0.00004   0.00003  -0.06425  -0.08797
   3        2PX         0.00001   0.00009   0.00005  -0.03042  -0.03406
   4        2PY        -0.00000   0.00023   0.00002   0.00716   0.01315
   5        2PZ         0.00001  -0.00045  -0.00003  -0.01681  -0.02912
   6        3S         -0.00016   0.00071   0.00001   0.17495   0.24075
   7        3PX        -0.00003  -0.00013  -0.00021  -0.05029  -0.05552
   8        3PY        -0.00004  -0.00061  -0.00016   0.01068   0.02025
   9        3PZ         0.00007   0.00121   0.00031  -0.02548  -0.04510
  10        4S         -0.00140  -0.00320  -0.00339   0.10274   0.14788
  11        4PX         0.00112  -0.00067   0.00077  -0.00803  -0.01352
  12        4PY         0.00011  -0.00058  -0.00049   0.00564   0.00832
  13        4PZ        -0.00012   0.00112   0.00104  -0.01195  -0.01778
  14        5S         -0.01240   0.03175  -0.00286   0.10682  -0.06927
  15        5PX         0.00286  -0.00802   0.00133  -0.03304   0.01421
  16        5PY        -0.00120   0.00145  -0.00014  -0.00140  -0.00359
  17        5PZ         0.00263  -0.00355   0.00038   0.00012   0.00835
  18        6D 0       -0.00000  -0.00065  -0.00011  -0.00195  -0.00065
  19        6D+1        0.00011   0.00035   0.00021   0.00221   0.00368
  20        6D-1        0.00000   0.00081   0.00011  -0.00317  -0.00490
  21        6D+2        0.00001  -0.00007   0.00004   0.00836   0.00886
  22        6D-2       -0.00005  -0.00020  -0.00010  -0.00037  -0.00103
  23 2   N  1S         -0.00005   0.00000  -0.00000  -0.06257  -0.05431
  24        2S         -0.00006   0.00002   0.00003  -0.09833  -0.08534
  25        2PX        -0.00005  -0.00002  -0.00004   0.01352   0.03964
  26        2PY         0.00017   0.00001   0.00001   0.00174   0.01369
  27        2PZ        -0.00035  -0.00002  -0.00002  -0.00235  -0.02431
  28        3S          0.00069  -0.00027  -0.00007   0.27064   0.23576
  29        3PX        -0.00012   0.00003   0.00011   0.02112   0.06477
  30        3PY        -0.00033  -0.00011  -0.00013   0.00048   0.02170
  31        3PZ         0.00066   0.00022   0.00027   0.00083  -0.03837
  32        4S         -0.00093   0.00136  -0.00148   0.18484   0.15850
  33        4PX         0.00299   0.00140   0.00222   0.00698   0.02121
  34        4PY        -0.00020   0.00157   0.00027   0.00516   0.01067
  35        4PZ         0.00065  -0.00305  -0.00037  -0.00978  -0.01972
  36        5S          0.01988  -0.02054   0.00196  -0.14514  -0.02912
  37        5PX         0.00611  -0.00616   0.00468  -0.07281   0.00892
  38        5PY         0.00638   0.00445   0.00465  -0.00530  -0.01205
  39        5PZ        -0.01232  -0.00944  -0.00898   0.00484   0.02490
  40        6D 0       -0.00055  -0.00002  -0.00009   0.00061  -0.00189
  41        6D+1       -0.00027  -0.00011  -0.00029  -0.00355   0.00054
  42        6D-1        0.00062  -0.00003   0.00004  -0.00639  -0.00374
  43        6D+2       -0.00001   0.00006   0.00006   0.00823   0.00894
  44        6D-2        0.00012   0.00006   0.00015   0.00255   0.00053
  45 3   C  1S          0.00001   0.56287  -0.00535  -0.01914  -0.03112
  46        2S          0.00004   0.46318  -0.00428  -0.02923  -0.04756
  47        2PX         0.00003   0.00009  -0.00051  -0.01508  -0.02298
  48        2PY         0.00006  -0.00011   0.00020  -0.00738  -0.01145
  49        2PZ        -0.00011   0.00023  -0.00044   0.01360   0.02114
  50        3S         -0.00019   0.01965   0.00000   0.07402   0.12034
  51        3PX         0.00024  -0.00035   0.00178  -0.02133  -0.03251
  52        3PY        -0.00031  -0.00003  -0.00072  -0.01061  -0.01602
  53        3PZ         0.00065   0.00003   0.00159   0.01959   0.02954
  54        4S         -0.00013  -0.01298   0.00408   0.00227   0.02842
  55        4PX        -0.00004   0.00542  -0.00376   0.00758   0.00670
  56        4PY         0.00030   0.00025   0.00001   0.00136   0.00041
  57        4PZ        -0.00060  -0.00007  -0.00032  -0.00212  -0.00028
  58        5S         -0.00111  -0.02468  -0.00793   0.02925   0.12021
  59        5PX         0.00009   0.00486   0.00139  -0.00425  -0.02710
  60        5PY        -0.00002  -0.00108  -0.00002  -0.00109   0.00287
  61        5PZ         0.00004   0.00256   0.00015   0.00186  -0.00795
  62        6D 0       -0.00019  -0.00019   0.00031   0.00157   0.00215
  63        6D+1       -0.00053   0.00004  -0.00127  -0.00483  -0.00652
  64        6D-1        0.00006  -0.00094   0.00017  -0.00421  -0.00645
  65        6D+2        0.00020   0.00175  -0.00091   0.00313   0.00533
  66        6D-2        0.00028   0.00014   0.00056   0.00274   0.00381
  67 4   C  1S          0.00479   0.00525   0.56283  -0.01171  -0.01874
  68        2S          0.00417   0.00445   0.46307  -0.01783  -0.02855
  69        2PX        -0.00065   0.00058   0.00005  -0.00142  -0.00110
  70        2PY        -0.00022  -0.00017   0.00010  -0.00575  -0.00882
  71        2PZ         0.00040   0.00039  -0.00019   0.01143   0.01761
  72        3S          0.00000   0.00049   0.02010   0.04284   0.06941
  73        3PX         0.00294  -0.00229  -0.00067  -0.00246  -0.00138
  74        3PY         0.00101   0.00057  -0.00048  -0.00820  -0.01174
  75        3PZ        -0.00179  -0.00133   0.00092   0.01626   0.02346
  76        4S          0.00157   0.00258  -0.01512   0.04022   0.05998
  77        4PX        -0.00199   0.00122   0.00033  -0.00027  -0.00373
  78        4PY        -0.00072  -0.00108   0.00350  -0.01132  -0.01230
  79        4PZ         0.00129   0.00227  -0.00699   0.02271   0.02439
  80        5S          0.00500   0.02805   0.01513   0.00469  -0.21514
  81        5PX         0.00040   0.00333  -0.00051  -0.00900   0.00155
  82        5PY        -0.00070  -0.00231  -0.00165  -0.00027   0.01704
  83        5PZ         0.00143   0.00491   0.00328  -0.00021  -0.03409
  84        6D 0        0.00014  -0.00019   0.00117   0.00176   0.00272
  85        6D+1        0.00174  -0.00148  -0.00031  -0.00071  -0.00004
  86        6D-1        0.00048   0.00047  -0.00185  -0.00304  -0.00452
  87        6D+2       -0.00079  -0.00052   0.00073   0.00147   0.00208
  88        6D-2       -0.00094   0.00069   0.00025   0.00053   0.00028
  89 5   C  1S          0.56288  -0.00007  -0.00493  -0.02400  -0.02824
  90        2S          0.46313  -0.00003  -0.00384  -0.03666  -0.04319
  91        2PX        -0.00005   0.00004   0.00065   0.01446   0.02250
  92        2PY        -0.00033   0.00003   0.00023  -0.00923  -0.00858
  93        2PZ         0.00065  -0.00006  -0.00041   0.01970   0.01903
  94        3S          0.02005  -0.00008  -0.00028   0.09250   0.10922
  95        3PX         0.00069  -0.00060  -0.00279   0.01889   0.03075
  96        3PY         0.00053  -0.00019  -0.00092  -0.01422  -0.01202
  97        3PZ        -0.00100   0.00033   0.00163   0.03007   0.02659
  98        4S         -0.01401  -0.00529   0.00208   0.00360   0.02152
  99        4PX        -0.00551  -0.00169   0.00307  -0.00899  -0.01506
 100        4PY        -0.00035   0.00062   0.00016   0.00340  -0.00177
 101        4PZ         0.00027  -0.00138  -0.00008  -0.00756   0.00235
 102        5S         -0.01879  -0.02028  -0.01582  -0.00344   0.17147
 103        5PX        -0.00195  -0.00394  -0.00274  -0.00165   0.03690
 104        5PY         0.00190   0.00155   0.00018  -0.00538  -0.00098
 105        5PZ        -0.00398  -0.00342  -0.00059   0.01070   0.00493
 106        6D 0       -0.00062  -0.00009   0.00051   0.00431   0.00223
 107        6D+1       -0.00027   0.00042   0.00130   0.00503   0.00677
 108        6D-1       -0.00077   0.00008   0.00027  -0.00610  -0.00557
 109        6D+2        0.00219   0.00007  -0.00116   0.00225   0.00521
 110        6D-2        0.00033  -0.00020  -0.00075  -0.00221  -0.00285
 111 6   H  1S         -0.00010   0.00019  -0.00008   0.00371   0.00700
 112        2S         -0.00023  -0.00477   0.00034   0.00264   0.00426
 113        3S          0.00058   0.00165   0.00134  -0.00441  -0.00580
 114        4PX         0.00016   0.00236   0.00014  -0.00026  -0.00036
 115        4PY        -0.00001   0.00035  -0.00009  -0.00042  -0.00052
 116        4PZ         0.00003  -0.00051   0.00019   0.00082   0.00101
 117 7   H  1S         -0.00010  -0.00009   0.00020   0.00136   0.00305
 118        2S         -0.00044   0.00011  -0.00526   0.00574   0.00512
 119        3S          0.00097   0.00045   0.00074   0.00586   0.00991
 120        4PX         0.00028  -0.00022   0.00006  -0.00012   0.00008
 121        4PY         0.00016   0.00008   0.00113  -0.00017  -0.00010
 122        4PZ        -0.00030  -0.00018  -0.00227   0.00033   0.00020
 123 8   H  1S          0.00010  -0.00010  -0.00008   0.00647   0.00576
 124        2S         -0.00495  -0.00018   0.00015   0.00651   0.00023
 125        3S          0.00167  -0.00107   0.00109  -0.00907  -0.00706
 126        4PX        -0.00245  -0.00016  -0.00023   0.00090   0.00000
 127        4PY         0.00026  -0.00003  -0.00010  -0.00076  -0.00019
 128        4PZ        -0.00071   0.00005   0.00018   0.00159   0.00038
 129 9   C  1S          0.00001   0.00000   0.00000  -0.06559   0.04680
 130        2S          0.00001   0.00001   0.00002  -0.10023   0.07130
 131        2PX         0.00002  -0.00002   0.00002  -0.00777   0.02776
 132        2PY        -0.00000  -0.00000   0.00001  -0.00560   0.01635
 133        2PZ         0.00001   0.00000  -0.00002   0.01067  -0.03071
 134        3S         -0.00014  -0.00021  -0.00029   0.26902  -0.19355
 135        3PX        -0.00011   0.00010  -0.00003  -0.00522   0.03872
 136        3PY         0.00004   0.00004  -0.00005  -0.00419   0.02269
 137        3PZ        -0.00008  -0.00007   0.00010   0.00804  -0.04259
 138        4S          0.00153   0.00415   0.00196   0.07371  -0.04076
 139        4PX        -0.00224   0.00134   0.00023  -0.00135  -0.00409
 140        4PY         0.00130   0.00075   0.00138   0.00211  -0.00037
 141        4PZ        -0.00278  -0.00141  -0.00275  -0.00432   0.00042
 142        5S          0.00955   0.01086   0.00697   0.01277  -0.03588
 143        5PX         0.00067   0.00238   0.00144   0.00475  -0.00366
 144        5PY         0.00138   0.00134   0.00082  -0.00128  -0.00190
 145        5PZ        -0.00272  -0.00250  -0.00154   0.00295   0.00354
 146        6D 0        0.00003  -0.00000   0.00006   0.00203   0.00082
 147        6D+1        0.00003  -0.00003   0.00002   0.01027  -0.01900
 148        6D-1       -0.00006  -0.00006  -0.00010  -0.01095   0.00534
 149        6D+2        0.00005   0.00009   0.00004   0.01396  -0.01129
 150        6D-2       -0.00001   0.00002  -0.00001  -0.00384   0.00851
 151 10  O  1S          0.00000   0.00000   0.00000  -0.05109   0.04866
 152        2S          0.00001   0.00000   0.00001  -0.08149   0.07767
 153        2PX        -0.00000   0.00000  -0.00002  -0.01845   0.02048
 154        2PY         0.00001   0.00000   0.00001   0.01515  -0.01224
 155        2PZ        -0.00002  -0.00001  -0.00001  -0.03185   0.02616
 156        3S         -0.00014  -0.00003  -0.00005   0.23285  -0.22259
 157        3PX         0.00001  -0.00000   0.00008  -0.02803   0.03031
 158        3PY        -0.00004  -0.00002  -0.00003   0.02215  -0.01732
 159        3PZ         0.00009   0.00003   0.00007  -0.04664   0.03711
 160        4S          0.00107  -0.00022   0.00024   0.15457  -0.15100
 161        4PX        -0.00017   0.00000  -0.00030  -0.00894   0.01256
 162        4PY         0.00029  -0.00004   0.00006   0.00737  -0.00528
 163        4PZ        -0.00059   0.00008  -0.00014  -0.01548   0.01156
 164        5S          0.00599   0.00194   0.00502  -0.01163   0.01124
 165        5PX        -0.00040  -0.00002  -0.00020  -0.00093  -0.00073
 166        5PY         0.00087   0.00040   0.00094   0.00005   0.00071
 167        5PZ        -0.00178  -0.00080  -0.00191  -0.00018  -0.00147
 168        6D 0        0.00001  -0.00001  -0.00001   0.00339  -0.00191
 169        6D+1        0.00000   0.00000  -0.00001   0.00593  -0.00592
 170        6D-1       -0.00000   0.00000   0.00001  -0.00383   0.00255
 171        6D+2       -0.00001   0.00001   0.00001   0.00047  -0.00111
 172        6D-2       -0.00000   0.00000   0.00001  -0.00285   0.00282
 173 11  O  1S          0.00000   0.00000   0.00000  -0.05013   0.04987
 174        2S          0.00000   0.00000   0.00000  -0.07995   0.07959
 175        2PX         0.00001   0.00000   0.00002   0.03797  -0.03396
 176        2PY         0.00001   0.00000   0.00001  -0.00236   0.00404
 177        2PZ        -0.00001  -0.00000  -0.00001   0.00766  -0.01071
 178        3S          0.00007  -0.00001  -0.00002   0.22827  -0.22773
 179        3PX        -0.00004  -0.00003  -0.00007   0.05610  -0.04881
 180        3PY        -0.00002  -0.00001  -0.00003  -0.00394   0.00634
 181        3PZ         0.00004   0.00002   0.00005   0.01223  -0.01648
 182        4S         -0.00128  -0.00022  -0.00056   0.15259  -0.15862
 183        4PX        -0.00062  -0.00015  -0.00007   0.01805  -0.01788
 184        4PY        -0.00009  -0.00002  -0.00004  -0.00097   0.00257
 185        4PZ         0.00013   0.00002   0.00008   0.00333  -0.00653
 186        5S         -0.00248  -0.00022   0.00126  -0.03985   0.00913
 187        5PX        -0.00069   0.00022   0.00046  -0.01282   0.00019
 188        5PY         0.00001  -0.00015   0.00007  -0.00222   0.00103
 189        5PZ        -0.00007   0.00032  -0.00011   0.00348  -0.00206
 190        6D 0        0.00001   0.00001   0.00002  -0.00350   0.00269
 191        6D+1        0.00001  -0.00000   0.00001   0.00349  -0.00427
 192        6D-1       -0.00000  -0.00001  -0.00002   0.00005   0.00010
 193        6D+2       -0.00002  -0.00000   0.00001   0.00631  -0.00519
 194        6D-2       -0.00001   0.00000  -0.00001  -0.00126   0.00173
                          11        12        13        14        15
                           O         O         O         O         O
     Eigenvalues --    -0.95913  -0.81011  -0.77246  -0.61688  -0.59299
   1 1   N  1S         -0.00334   0.05963   0.04233   0.02018  -0.00367
   2        2S         -0.00527   0.09405   0.06705   0.03216  -0.00594
   3        2PX        -0.00215  -0.03322   0.03525   0.03106  -0.10610
   4        2PY        -0.00050  -0.02771   0.00800  -0.00442  -0.03213
   5        2PZ         0.00083   0.05296  -0.01324   0.01141   0.05597
   6        3S          0.01537  -0.26490  -0.19260  -0.09371   0.02180
   7        3PX        -0.00327  -0.04648   0.05676   0.04785  -0.15836
   8        3PY        -0.00072  -0.04110   0.01252  -0.00714  -0.04693
   9        3PZ         0.00119   0.07877  -0.02058   0.01825   0.08149
  10        4S         -0.00989  -0.19248  -0.13643  -0.07603  -0.01389
  11        4PX         0.00645  -0.01407   0.01256   0.02189  -0.05545
  12        4PY        -0.00183  -0.01537   0.00234  -0.00246  -0.02110
  13        4PZ         0.00421   0.02971  -0.00371   0.00672   0.03793
  14        5S         -0.10589   0.16256  -0.02143   0.01427   0.12098
  15        5PX         0.02913  -0.03560   0.00185  -0.00304  -0.02186
  16        5PY         0.00096   0.00909  -0.00006   0.00159   0.00563
  17        5PZ         0.00044  -0.02110   0.00027  -0.00343  -0.01309
  18        6D 0       -0.00019  -0.01006   0.00754   0.00134  -0.01137
  19        6D+1       -0.00044   0.00512   0.00319  -0.00938   0.00703
  20        6D-1       -0.00012   0.00839  -0.00280   0.00022   0.00609
  21        6D+2        0.00047   0.00527  -0.00849  -0.00360   0.01118
  22        6D-2        0.00026  -0.00230  -0.00222   0.00438  -0.00273
  23 2   N  1S          0.00322  -0.06511   0.02639  -0.01607  -0.00217
  24        2S          0.00504  -0.10309   0.04200  -0.02569  -0.00352
  25        2PX         0.01159  -0.06407  -0.04366  -0.07636   0.11497
  26        2PY        -0.00325   0.00425   0.02871  -0.05397  -0.02812
  27        2PZ         0.00743  -0.01362  -0.06117   0.10240   0.06568
  28        3S         -0.01340   0.29367  -0.12291   0.07438   0.01261
  29        3PX         0.01599  -0.09566  -0.06714  -0.11508   0.17014
  30        3PY        -0.00448   0.00527   0.04356  -0.08036  -0.04112
  31        3PZ         0.01024  -0.01816  -0.09290   0.15238   0.09622
  32        4S         -0.01199   0.24020  -0.10084   0.08101   0.02458
  33        4PX         0.02852  -0.04579  -0.03213  -0.07662   0.13144
  34        4PY        -0.00708  -0.00158   0.02250  -0.05583  -0.02419
  35        4PZ         0.01645  -0.00044  -0.04778   0.10614   0.05910
  36        5S          0.06347  -0.14299  -0.01221  -0.01730  -0.09974
  37        5PX         0.05942  -0.03762   0.00042   0.00634  -0.06137
  38        5PY        -0.00802   0.00137  -0.03507   0.00903  -0.00521
  39        5PZ         0.02084  -0.00578   0.07049  -0.01765   0.00557
  40        6D 0        0.00161   0.00839   0.00930   0.00170  -0.00581
  41        6D+1        0.00083   0.00411  -0.00019  -0.00699  -0.00186
  42        6D-1       -0.00070  -0.00650  -0.00448  -0.00059   0.00244
  43        6D+2       -0.00165  -0.00429  -0.00936  -0.00270   0.00618
  44        6D-2       -0.00053  -0.00227  -0.00057   0.00327   0.00138
  45 3   C  1S         -0.00046   0.06486  -0.03082  -0.05125   0.04338
  46        2S         -0.00071   0.09994  -0.04781  -0.08001   0.06761
  47        2PX         0.00019   0.01596  -0.02839   0.02838  -0.05635
  48        2PY        -0.00050   0.02088   0.01938   0.02654   0.02614
  49        2PZ         0.00101  -0.04062  -0.04119  -0.05100  -0.05700
  50        3S          0.00165  -0.26358   0.12571   0.21735  -0.18534
  51        3PX        -0.00025   0.02292  -0.04240   0.03714  -0.07874
  52        3PY        -0.00121   0.02902   0.02842   0.03665   0.03652
  53        3PZ         0.00241  -0.05640  -0.06046  -0.07057  -0.07962
  54        4S          0.01391  -0.13660   0.08586   0.15780  -0.13962
  55        4PX        -0.00507   0.00958  -0.01612   0.00598  -0.03008
  56        4PY        -0.00056   0.00422   0.00239   0.01354   0.01430
  57        4PZ         0.00070  -0.00771  -0.00609  -0.02670  -0.03112
  58        5S          0.00634  -0.11640   0.04323  -0.01526   0.01738
  59        5PX        -0.00127   0.02504  -0.00516   0.01437  -0.01162
  60        5PY         0.00294  -0.00136   0.00243   0.00169   0.00035
  61        5PZ        -0.00601   0.00474  -0.00528  -0.00225  -0.00161
  62        6D 0        0.00043  -0.00797  -0.00621   0.00140  -0.00404
  63        6D+1       -0.00048   0.00570   0.01176   0.00962   0.00415
  64        6D-1       -0.00035   0.01105   0.00097  -0.00175   0.00490
  65        6D+2       -0.00026  -0.00228   0.01045   0.00119   0.00003
  66        6D-2        0.00022  -0.00325  -0.00505  -0.00467  -0.00216
  67 4   C  1S          0.00108   0.01341  -0.08133  -0.03244  -0.05746
  68        2S          0.00162   0.02066  -0.12551  -0.05065  -0.08990
  69        2PX         0.00087  -0.02740  -0.01652   0.06487  -0.01469
  70        2PY         0.00041   0.00321  -0.01649   0.01327   0.01088
  71        2PZ        -0.00075  -0.00864   0.03179  -0.02141  -0.02302
  72        3S         -0.00376  -0.05296   0.32519   0.13636   0.23964
  73        3PX         0.00158  -0.04274  -0.02234   0.09451  -0.01877
  74        3PY         0.00073   0.00386  -0.02120   0.01674   0.01483
  75        3PZ        -0.00134  -0.01119   0.04076  -0.02599  -0.03128
  76        4S         -0.01315  -0.03224   0.16902   0.07591   0.18850
  77        4PX         0.00044  -0.00127  -0.00107   0.03558  -0.01505
  78        4PY         0.00323   0.00125  -0.00511   0.01324   0.00304
  79        4PZ        -0.00644  -0.00261   0.01018  -0.02371  -0.00729
  80        5S         -0.02131   0.06774  -0.04672  -0.05904  -0.07808
  81        5PX        -0.00476   0.01780  -0.01414   0.00416   0.00895
  82        5PY         0.00184  -0.00600   0.00877   0.00841   0.00916
  83        5PZ        -0.00406   0.01348  -0.01875  -0.01655  -0.01770
  84        6D 0       -0.00010  -0.00166   0.00249  -0.00065   0.00266
  85        6D+1        0.00044  -0.00965  -0.00353   0.01040  -0.00135
  86        6D-1        0.00022   0.00192  -0.00836  -0.00042  -0.00498
  87        6D+2       -0.00011  -0.00099   0.00792   0.00280   0.00275
  88        6D-2       -0.00023   0.00470   0.00256  -0.00496   0.00099
  89 5   C  1S          0.00507  -0.04207  -0.06764   0.03942   0.02697
  90        2S          0.00776  -0.06492  -0.10471   0.06162   0.04213
  91        2PX         0.00033  -0.00517   0.04004  -0.01208   0.05837
  92        2PY         0.00220  -0.02135   0.01180   0.00487   0.03680
  93        2PZ        -0.00441   0.04244  -0.02048  -0.01071  -0.06919
  94        3S         -0.01959   0.17271   0.27626  -0.16798  -0.11662
  95        3PX         0.00037  -0.00705   0.05638  -0.01395   0.07934
  96        3PY         0.00245  -0.03196   0.01714   0.00731   0.05267
  97        3PZ        -0.00490   0.06360  -0.02988  -0.01574  -0.09936
  98        4S          0.02046   0.08339   0.16568  -0.08971  -0.07392
  99        4PX         0.00493   0.00583   0.02139   0.01115   0.01992
 100        4PY        -0.00233  -0.00191   0.00535   0.00117   0.01073
 101        4PZ         0.00506   0.00430  -0.00902  -0.00144  -0.01994
 102        5S          0.05083   0.01393   0.09782   0.05000   0.04393
 103        5PX         0.00435   0.00507   0.00679   0.02388   0.01703
 104        5PY        -0.00673   0.00303  -0.01692   0.00425   0.00628
 105        5PZ         0.01385  -0.00568   0.03452  -0.00660  -0.01121
 106        6D 0       -0.00086   0.01118  -0.00437   0.00175  -0.00673
 107        6D+1       -0.00015   0.00489  -0.00641  -0.01026  -0.00710
 108        6D-1        0.00116  -0.01002  -0.00397   0.00177   0.00553
 109        6D+2       -0.00027  -0.00374   0.01286  -0.00669   0.00260
 110        6D-2        0.00003  -0.00254   0.00431   0.00455   0.00364
 111 6   H  1S          0.00026  -0.03389   0.01396   0.07075  -0.06720
 112        2S          0.00046  -0.03759   0.01511   0.09159  -0.08299
 113        3S          0.00080   0.00090   0.00100   0.00966  -0.01410
 114        4PX        -0.00010   0.00628  -0.00233  -0.01346   0.00944
 115        4PY        -0.00004   0.00153   0.00113  -0.00044   0.00233
 116        4PZ         0.00007  -0.00256  -0.00246  -0.00019  -0.00392
 117 7   H  1S         -0.00022  -0.00585   0.04331   0.04607   0.07132
 118        2S         -0.00101  -0.00510   0.04731   0.05612   0.09028
 119        3S         -0.00106  -0.00073  -0.00283   0.00033   0.01254
 120        4PX         0.00004  -0.00189  -0.00121   0.00284  -0.00094
 121        4PY         0.00002   0.00030  -0.00337  -0.00365  -0.00511
 122        4PZ        -0.00004  -0.00075   0.00666   0.00755   0.01018
 123 8   H  1S         -0.00333   0.02708   0.03455  -0.02885  -0.05000
 124        2S         -0.00557   0.03277   0.03677  -0.03072  -0.06527
 125        3S          0.00578  -0.00315   0.00339   0.00092  -0.01302
 126        4PX        -0.00042   0.00610   0.00535  -0.00256  -0.00717
 127        4PY         0.00047  -0.00122   0.00067   0.00047   0.00224
 128        4PZ        -0.00097   0.00294  -0.00093  -0.00114  -0.00507
 129 9   C  1S         -0.00035  -0.00926   0.00715  -0.03955   0.00105
 130        2S         -0.00048  -0.01471   0.01131  -0.06261   0.00163
 131        2PX         0.10839   0.03875  -0.01633   0.05821   0.00199
 132        2PY        -0.03487   0.02017  -0.01277   0.03688  -0.00371
 133        2PZ         0.07838  -0.03753   0.02438  -0.06959   0.00769
 134        3S          0.00180   0.03998  -0.03135   0.18360  -0.00374
 135        3PX         0.13809   0.05627  -0.02531   0.08597   0.00335
 136        3PY        -0.04447   0.03035  -0.01885   0.05451  -0.00514
 137        3PZ         0.09993  -0.05664   0.03587  -0.10286   0.01069
 138        4S         -0.00158   0.02030  -0.02155   0.10247   0.01390
 139        4PX        -0.01822   0.00367   0.00914   0.01492  -0.01923
 140        4PY         0.00645   0.00162  -0.00658   0.01146   0.00536
 141        4PZ        -0.01439  -0.00297   0.01391  -0.02184  -0.01220
 142        5S         -0.01899   0.02651  -0.07924   0.03385   0.01195
 143        5PX         0.00722   0.00932  -0.01195   0.00661   0.00243
 144        5PY        -0.00663   0.00399  -0.01057   0.00640   0.00215
 145        5PZ         0.01387  -0.00730   0.02033  -0.01234  -0.00412
 146        6D 0        0.01577   0.00739   0.00233   0.00332  -0.00901
 147        6D+1        0.00560  -0.01129   0.00814  -0.01041  -0.00309
 148        6D-1       -0.00874  -0.00616  -0.00004  -0.00570   0.00527
 149        6D+2       -0.01353  -0.00456  -0.00318   0.00185   0.00732
 150        6D-2       -0.00366   0.00540  -0.00431   0.00545   0.00201
 151 10  O  1S         -0.08201   0.01066  -0.01310   0.02260   0.00714
 152        2S         -0.13123   0.01714  -0.02106   0.03655   0.01151
 153        2PX        -0.01897   0.00848  -0.00802   0.01432   0.00322
 154        2PY         0.02015   0.00119  -0.00108   0.01349   0.00341
 155        2PZ        -0.04193  -0.00175   0.00155  -0.02599  -0.00657
 156        3S          0.37619  -0.05004   0.06180  -0.10838  -0.03459
 157        3PX        -0.02722   0.01298  -0.01134   0.02180   0.00374
 158        3PY         0.03008   0.00195  -0.00176   0.01914   0.00513
 159        3PZ        -0.06251  -0.00293   0.00265  -0.03676  -0.00997
 160        4S          0.28785  -0.04011   0.04685  -0.10862  -0.02507
 161        4PX        -0.00806   0.00759  -0.00599   0.01468   0.00308
 162        4PY         0.01312   0.00161  -0.00224   0.01183   0.00401
 163        4PZ        -0.02695  -0.00266   0.00403  -0.02265  -0.00777
 164        5S         -0.00322  -0.00354  -0.02730  -0.01273   0.00688
 165        5PX        -0.00344  -0.00037  -0.00022   0.00051  -0.00090
 166        5PY         0.00035  -0.00030  -0.00547  -0.00034   0.00166
 167        5PZ        -0.00096   0.00057   0.01096   0.00072  -0.00340
 168        6D 0        0.00700   0.00147  -0.00063   0.00361   0.00033
 169        6D+1        0.00657  -0.00194   0.00134  -0.00197   0.00018
 170        6D-1       -0.00678  -0.00075   0.00040  -0.00257  -0.00058
 171        6D+2       -0.00125  -0.00159   0.00061  -0.00255   0.00032
 172        6D-2       -0.00324   0.00086  -0.00063   0.00084  -0.00005
 173 11  O  1S          0.08068   0.02231  -0.00308   0.02253  -0.00935
 174        2S          0.12906   0.03584  -0.00494   0.03642  -0.01513
 175        2PX        -0.04875  -0.00346  -0.00144   0.02527  -0.00761
 176        2PY         0.00049   0.00563  -0.00146   0.00969  -0.00531
 177        2PZ        -0.00471  -0.01158   0.00282  -0.01752   0.01010
 178        3S         -0.36933  -0.10478   0.01395  -0.10789   0.04622
 179        3PX        -0.07252  -0.00450  -0.00241   0.03537  -0.01073
 180        3PY         0.00039   0.00796  -0.00238   0.01430  -0.00728
 181        3PZ        -0.00634  -0.01633   0.00458  -0.02599   0.01385
 182        4S         -0.28712  -0.08309   0.01816  -0.11024   0.03295
 183        4PX        -0.03192  -0.00012   0.00158   0.02064  -0.01256
 184        4PY        -0.00242   0.00489  -0.00114   0.00912  -0.00544
 185        4PZ         0.00242  -0.00983   0.00240  -0.01672   0.01000
 186        5S          0.01721  -0.00865   0.01863  -0.02130  -0.03248
 187        5PX         0.00347  -0.00257   0.00575  -0.00327  -0.01345
 188        5PY         0.00321  -0.00002  -0.00003   0.00045  -0.00234
 189        5PZ        -0.00619  -0.00016   0.00050  -0.00116   0.00367
 190        6D 0        0.00626  -0.00001   0.00063  -0.00232   0.00012
 191        6D+1       -0.00168  -0.00277   0.00122  -0.00373   0.00082
 192        6D-1       -0.00066   0.00007  -0.00038   0.00073   0.00040
 193        6D+2       -0.00998  -0.00035  -0.00040   0.00256  -0.00073
 194        6D-2        0.00009   0.00135  -0.00063   0.00204  -0.00047
                          16        17        18        19        20
                           O         O         O         O         O
     Eigenvalues --    -0.53998  -0.47922  -0.45545  -0.43879  -0.43278
   1 1   N  1S         -0.04046  -0.00179   0.00001  -0.00498  -0.01562
   2        2S         -0.06462  -0.00289   0.00002  -0.00792  -0.02498
   3        2PX         0.04599   0.04769  -0.00360   0.06863   0.04219
   4        2PY        -0.00747   0.02841   0.08988   0.02402   0.01180
   5        2PZ         0.01873  -0.05300   0.04478  -0.04291  -0.02020
   6        3S          0.18783   0.00734  -0.00006   0.01960   0.07156
   7        3PX         0.06532   0.07176  -0.00551   0.10245   0.05921
   8        3PY        -0.01149   0.04152   0.13754   0.03496   0.01715
   9        3PZ         0.02837  -0.07726   0.06852  -0.06225  -0.02951
  10        4S          0.20422  -0.00518  -0.00009   0.03749   0.11192
  11        4PX         0.03059   0.03668  -0.00376   0.04262   0.02898
  12        4PY        -0.00486   0.02208   0.09374   0.01752   0.01299
  13        4PZ         0.01225  -0.04118   0.04672  -0.03196  -0.02364
  14        5S         -0.00228   0.04986   0.00027   0.08052  -0.02154
  15        5PX         0.00618  -0.02407  -0.00021  -0.02208   0.01567
  16        5PY         0.00412  -0.00384   0.00476  -0.00338   0.00170
  17        5PZ        -0.00774   0.00577   0.00234   0.00497  -0.00214
  18        6D 0       -0.00039   0.01105  -0.00817   0.01183   0.00169
  19        6D+1       -0.01298   0.00018  -0.00648  -0.00390   0.00094
  20        6D-1        0.00141  -0.00685  -0.00739  -0.00678  -0.00016
  21        6D+2       -0.00275  -0.00878  -0.00362  -0.01061  -0.00260
  22        6D-2        0.00622  -0.00068  -0.01394   0.00124  -0.00068
  23 2   N  1S          0.02348   0.01732   0.00002   0.00515  -0.01027
  24        2S          0.03762   0.02779   0.00003   0.00832  -0.01650
  25        2PX        -0.00921  -0.04071  -0.00571  -0.08188  -0.04038
  26        2PY        -0.04068  -0.00774   0.14329  -0.02189   0.03395
  27        2PZ         0.08103   0.01265   0.07138   0.03712  -0.07126
  28        3S         -0.11063  -0.08529  -0.00009  -0.02785   0.04944
  29        3PX        -0.01370  -0.06334  -0.00872  -0.12337  -0.05721
  30        3PY        -0.05919  -0.01207   0.21886  -0.03280   0.04966
  31        3PZ         0.11786   0.01974   0.10901   0.05557  -0.10406
  32        4S         -0.11713  -0.08842  -0.00001  -0.04214   0.05865
  33        4PX        -0.03630  -0.02573  -0.00733  -0.09205  -0.06559
  34        4PY        -0.05253   0.00479   0.18319  -0.01587   0.04010
  35        4PZ         0.10269  -0.01125   0.09128   0.02409  -0.08557
  36        5S          0.05118  -0.10757   0.00011  -0.11727   0.10585
  37        5PX         0.01508  -0.03908   0.00017  -0.04021   0.01686
  38        5PY         0.01044  -0.00618  -0.01136   0.00204   0.01835
  39        5PZ        -0.01979   0.00925  -0.00552  -0.00726  -0.03549
  40        6D 0       -0.00489   0.00474  -0.00191   0.00322  -0.00147
  41        6D+1        0.00297  -0.01293   0.00259  -0.00983   0.00180
  42        6D-1        0.00377  -0.00396  -0.00156  -0.00240   0.00169
  43        6D+2        0.00309  -0.00351  -0.00152  -0.00291   0.00016
  44        6D-2       -0.00131   0.00625   0.00495   0.00471  -0.00092
  45 3   C  1S          0.02049   0.00907  -0.00001   0.00605   0.02045
  46        2S          0.03243   0.01423  -0.00002   0.00962   0.03271
  47        2PX         0.03571  -0.08572  -0.00208  -0.09130   0.01656
  48        2PY        -0.03023  -0.03233   0.05126  -0.03046  -0.02569
  49        2PZ         0.06358   0.05810   0.02551   0.05369   0.05295
  50        3S         -0.08784  -0.03427   0.00005  -0.02060  -0.09125
  51        3PX         0.05126  -0.11953  -0.00323  -0.12576   0.02694
  52        3PY        -0.04171  -0.04530   0.07984  -0.04255  -0.03482
  53        3PZ         0.08788   0.08148   0.03974   0.07512   0.07216
  54        4S         -0.07145  -0.04790   0.00009  -0.04385  -0.11821
  55        4PX         0.02500  -0.06724  -0.00199  -0.06921   0.02693
  56        4PY        -0.01360  -0.02470   0.04859  -0.02558  -0.01500
  57        4PZ         0.02932   0.04428   0.02420   0.04568   0.03234
  58        5S         -0.02269   0.03005  -0.00029  -0.00859   0.01379
  59        5PX         0.00015  -0.01569  -0.00024  -0.00351  -0.00150
  60        5PY        -0.00593  -0.00401   0.00719  -0.00030   0.00126
  61        5PZ         0.01191   0.00681   0.00360   0.00032  -0.00264
  62        6D 0        0.00891   0.00178   0.00613   0.00755   0.01451
  63        6D+1       -0.00275  -0.00091  -0.00541   0.00298  -0.00280
  64        6D-1       -0.00325  -0.00203   0.00514  -0.00457  -0.00764
  65        6D+2       -0.01077  -0.00009   0.00437  -0.00590  -0.01383
  66        6D-2        0.00057   0.00048  -0.01013  -0.00186   0.00043
  67 4   C  1S         -0.00716  -0.00334   0.00001  -0.01380  -0.01264
  68        2S         -0.01104  -0.00541   0.00001  -0.02189  -0.02000
  69        2PX        -0.08276  -0.04545  -0.00163  -0.01363   0.00616
  70        2PY         0.02541  -0.03534   0.04089  -0.01420   0.06725
  71        2PZ        -0.05764   0.06737   0.02046   0.02732  -0.13448
  72        3S          0.02973   0.01675  -0.00003   0.06070   0.05038
  73        3PX        -0.11684  -0.06421  -0.00249  -0.01828   0.00550
  74        3PY         0.03383  -0.04773   0.06251  -0.01981   0.09030
  75        3PZ        -0.07728   0.09077   0.03126   0.03816  -0.18079
  76        4S          0.00334  -0.00156  -0.00004   0.07353   0.10213
  77        4PX        -0.04735  -0.02961  -0.00155  -0.01635   0.00973
  78        4PY         0.02386  -0.02631   0.03850  -0.01405   0.04787
  79        4PZ        -0.05168   0.05052   0.01925   0.02679  -0.09528
  80        5S          0.11878  -0.10850   0.00066   0.09731   0.00373
  81        5PX         0.00168   0.01730   0.00037  -0.01983  -0.00858
  82        5PY        -0.00581   0.00617  -0.00924  -0.00704   0.00707
  83        5PZ         0.01181  -0.01101  -0.00442   0.01252  -0.01489
[...]
    X6        4.11282  -0.00003   0.00000  -0.00023  -0.00005   4.11277
    Y6        1.30202  -0.00001   0.00000   0.00036   0.00016   1.30218
    Z6       -0.49521   0.00002   0.00000   0.00037   0.00033  -0.49488
    X7        0.13325  -0.00004   0.00000  -0.00108  -0.00076   0.13249
    Y7        2.66871  -0.00002   0.00000  -0.00020  -0.00010   2.66861
    Z7       -3.55853   0.00004   0.00000   0.00048   0.00040  -3.55812
    X8       -4.03578  -0.00002   0.00000  -0.00044  -0.00026  -4.03604
    Y8        1.14319  -0.00002   0.00000  -0.00136  -0.00106   1.14214
    Z8       -0.83024   0.00003   0.00000   0.00135   0.00117  -0.82907
    X9       -2.90322  -0.00010   0.00000   0.00016   0.00012  -2.90310
    Y9       -1.12145   0.00000   0.00000   0.00026   0.00040  -1.12105
    Z9        3.81216   0.00001   0.00000  -0.00042  -0.00062   3.81154
   X10       -1.78605   0.00009   0.00000   0.00002  -0.00010  -1.78615
   Y10       -2.00150   0.00003   0.00000  -0.00017  -0.00012  -2.00162
   Z10        5.66578  -0.00003   0.00000  -0.00049  -0.00069   5.66509
   X11       -5.18919   0.00012   0.00000   0.00048   0.00046  -5.18873
   Y11       -0.95361   0.00003   0.00000   0.00126   0.00155  -0.95206
   Z11        3.29967  -0.00005   0.00000  -0.00100  -0.00124   3.29843
         Item               Value     Threshold  Converged?
 Maximum Force            0.000117     0.000450     YES
 RMS     Force            0.000046     0.000300     YES
 Maximum Displacement     0.001553     0.001800     YES
 RMS     Displacement     0.000536     0.001200     YES
 Predicted change in Energy=-1.645599D-07
 Optimization completed.
    -- Stationary point found.
 GradGradGradGradGradGradGradGradGradGradGradGradGradGradGradGradGradGrad

 Leave Link  103 at Fri Jun  2 11:35:48 2023, MaxMem=  7381975040 cpu:               1.2 elap:               3.2
 (Enter /software/commercial/gaussian/g16/AVX/g16/l9999.exe)

 ----------------------------------------------------------------------

 Electric dipole moment (input orientation):
 (Debye = 10**-18 statcoulomb cm , SI units = C m)
                  (au)            (Debye)         (10**-30 SI)
   Tot        0.575133D+01      0.146184D+02      0.487618D+02
   x          0.246827D+01      0.627370D+01      0.209268D+02
   y          0.165643D+01      0.421022D+01      0.140438D+02
   z         -0.492359D+01     -0.125145D+02     -0.417439D+02

 Dipole polarizability, Alpha (input orientation).
 (esu units = cm**3 , SI units = C**2 m**2 J**-1)
 Alpha(0;0):
               (au)            (10**-24 esu)      (10**-40 SI)
   iso        0.923999D+02      0.136923D+02      0.152347D+02
   aniso      0.543449D+02      0.805308D+01      0.896026D+01
   xx         0.108904D+03      0.161379D+02      0.179559D+02
   yx         0.382120D+01      0.566244D+00      0.630031D+00
   yy         0.677475D+02      0.100391D+02      0.111701D+02
   zx        -0.352050D+01     -0.521685D+00     -0.580453D+00
   zy        -0.220045D+02     -0.326073D+01     -0.362806D+01
   zz         0.100548D+03      0.148997D+02      0.165782D+02

 First dipole hyperpolarizability, Beta (input orientation).
 ||, _|_  parallel and perpendicular components, (z) with respect to z axis,
 vector components x,y,z.  Values do not include the 1/n! factor of 1/2.
 (esu units = statvolt**-1 cm**4 , SI units = C**3 m**3 J**-2)
 Beta(0;0,0):
               (au)            (10**-30 esu)      (10**-50 SI)
   || (z)    -0.246386D+02     -0.212859D+00     -0.790003D-01
   _|_(z)    -0.821287D+01     -0.709528D-01     -0.263334D-01
   x         -0.734956D+02     -0.634944D+00     -0.235653D+00
   y          0.571637D+02      0.493850D+00      0.183288D+00
   z         -0.123193D+03     -0.106429D+01     -0.395002D+00
   ||         0.308842D+02      0.266815D+00      0.990259D-01
   xxx        0.849414D+02      0.733828D+00      0.272353D+00
   xxy       -0.530679D+02     -0.458466D+00     -0.170155D+00
   yxy       -0.163470D+01     -0.141226D-01     -0.524145D-02
   yyy        0.143591D+03      0.124051D+01      0.460404D+00
   xxz        0.106034D+03      0.916049D+00      0.339983D+00
   yxz        0.849515D+02      0.733915D+00      0.272385D+00
   yyz       -0.482926D+02     -0.417211D+00     -0.154844D+00
   zxz       -0.107805D+03     -0.931354D+00     -0.345663D+00
   zyz       -0.714682D+02     -0.617430D+00     -0.229153D+00
   zzz       -0.988055D+02     -0.853603D+00     -0.316806D+00

 ----------------------------------------------------------------------

 Dipole orientation:
     7          2.02956920         -0.44574995         -1.11904987
     7         -0.34527749         -0.55023439         -2.07598388
     6          1.76151274         -0.82209078          1.35202435
     6         -0.80234179         -1.17536484          2.02206819
     6         -2.09150565         -0.98663853         -0.23498610
     1          3.40546149         -0.82731865          2.56400639
     1         -1.58488330         -1.51568609          3.87217054
     1         -4.06774078         -1.12174464         -0.69200917
     6         -0.90440361         -0.21993063         -4.83245078
     8          0.95602041          0.16132311         -6.19330493
     8         -3.19465141         -0.38490510         -5.32643806

 Electric dipole moment (dipole orientation):
 (Debye = 10**-18 statcoulomb cm , SI units = C m)
                  (au)            (Debye)         (10**-30 SI)
   Tot        0.575133D+01      0.146184D+02      0.487618D+02
   x          0.000000D+00      0.000000D+00      0.000000D+00
   y          0.000000D+00      0.000000D+00      0.000000D+00
   z          0.575133D+01      0.146184D+02      0.487618D+02

 Dipole polarizability, Alpha (dipole orientation).
 (esu units = cm**3 , SI units = C**2 m**2 J**-1)
 Alpha(0;0):
               (au)            (10**-24 esu)      (10**-40 SI)
   iso        0.923999D+02      0.136923D+02      0.152347D+02
   aniso      0.543449D+02      0.805308D+01      0.896026D+01
   xx         0.105260D+03      0.155979D+02      0.173550D+02
   yx         0.452158D+01      0.670030D+00      0.745509D+00
   yy         0.581911D+02      0.862304D+01      0.959442D+01
   zx         0.283350D+01      0.419881D+00      0.467181D+00
   zy        -0.776452D+01     -0.115058D+01     -0.128020D+01
   zz         0.113749D+03      0.168558D+02      0.187546D+02

 First dipole hyperpolarizability, Beta (dipole orientation).
 ||, _|_  parallel and perpendicular components, (z) with respect to z axis,
 vector components x,y,z.  Values do not include the 1/n! factor of 1/2.
 (esu units = statvolt**-1 cm**4 , SI units = C**3 m**3 J**-2)
 Beta(0;0,0):
               (au)            (10**-30 esu)      (10**-50 SI)
   || (z)     0.180770D+02      0.156171D+00      0.579613D-01
   _|_(z)     0.602566D+01      0.520570D-01      0.193204D-01
   x         -0.122879D+03     -0.106158D+01     -0.393995D+00
   y         -0.240228D+02     -0.207538D+00     -0.770258D-01
   z          0.903849D+02      0.780855D+00      0.289807D+00
   ||         0.308842D+02      0.266815D+00      0.990259D-01
   xxx        0.109155D+03      0.943018D+00      0.349992D+00
   xxy        0.264653D+01      0.228639D-01      0.848572D-02
   yxy       -0.128483D+02     -0.111000D+00     -0.411965D-01
   yyy       -0.602092D+02     -0.520160D+00     -0.193052D+00
   xxz        0.793367D+02      0.685407D+00      0.254382D+00
   yxz        0.116778D+02      0.100887D+00      0.374432D-01
   yyz        0.128055D+03      0.110630D+01      0.410592D+00
   zxz       -0.137267D+03     -0.118588D+01     -0.440127D+00
   zyz        0.495550D+02      0.428117D+00      0.158891D+00
   zzz       -0.177264D+03     -0.153142D+01     -0.568372D+00

 ----------------------------------------------------------------------
 Unable to Open any file for archive entry.
 1\1\GINC-NODE1964\Freq\RB3LYP\6-311+G(d,p)\C4H3N2O2(1-)\SVICCHI\02-Jun
 -2023\0\\#p freq=raman scale=0.967 pop=(nbo,full,hirshfeld) guess=read
  geom=allcheck b3lyp/6-311+G(d,p) int=grid=ultrafine EmpiricalDispersi
 on=GD3BJ SCRF=(Solvent=ethanol) scf=(xqc,intrep,maxconventionalcycle=3
 50) nosymm\\pyrazolide-CO2_binding-site_index-1.gjf\\-1,1\N,0.69757825
 5,-0.0167335943,1.0358069924\N,-0.6554359496,-0.0260684747,0.945901938
 6\C,1.1177329654,0.5595730899,-0.0871513019\C,0.0353506631,0.930632129
 ,-0.9191120952\C,-1.0850849127,0.5366640642,-0.2181652808\H,2.17640904
 39,0.6889984434,-0.2620560828\H,0.0705120567,1.4122196129,-1.883090690
 3\H,-2.1356419457,0.6049523777,-0.4393453491\C,-1.5363166301,-0.593448
 3416,2.0173080763\O,-0.945135428,-1.0591476793,2.9982016804\O,-2.74600
 01181,-0.5046286273,1.7461121124\\Version=ES64L-G16RevC.01\HF=-414.474
 8595\RMSD=8.514e-09\RMSF=4.598e-05\ZeroPoint=0.0698807\Thermal=0.07613
 9\ETot=-414.3987205\HTot=-414.3977763\GTot=-414.4360756\Dipole=1.21067
 84,1.6065963,-3.1333491\DipoleDeriv=-0.0945336,0.2507861,-0.4893047,0.
 1366559,-0.3220192,0.0949654,-0.2589729,0.1029708,-0.5101916,-0.687306
 3,-0.4322551,0.8176381,-0.4346073,-0.3370067,0.5465259,0.8223525,0.546
 3598,-1.0791928,0.3266491,-0.0575085,0.1517932,-0.1884346,-0.083435,-0
 .0960085,0.4128443,-0.0858222,0.0810972,-0.4417659,-0.1031585,0.195856
 9,-0.0356012,-0.2791845,-0.0582734,0.0615327,-0.0631735,-0.1756258,0.0
 009274,0.0610244,-0.1155029,0.2289484,0.0498648,-0.2738624,-0.4520503,
 -0.286602,0.4451085,-0.0965795,-0.0347294,0.0470952,-0.0192691,0.16351
 85,0.0398537,0.0166268,0.0386748,0.1077248,0.1239457,-0.0035092,-0.001
 5988,-0.0071762,0.1662394,0.1262438,0.0056476,0.1264285,-0.0242744,0.0
 488173,0.0144795,-0.0437175,0.0075572,0.2127062,0.0368726,-0.0293334,0
 .036552,0.1534785,3.1029418,0.1895649,-0.1708754,0.1808546,0.9916367,-
 1.1872388,-0.1554597,-1.1863753,2.7641724,-1.0990148,0.1560982,-0.3502
 624,0.1410934,-0.8736327,0.5929581,-0.3226893,0.5948866,-1.8020191,-2.
 1840812,-0.0407924,-0.0411217,-0.0100212,-0.6886876,0.1779634,-0.10049
 83,0.1761005,-0.9602775\Polar=108.9040779,3.8212024,67.7475065,-3.5205
 029,-22.0045191,100.5481521\PolarDeriv=6.3924404,1.6924143,-0.0903249,
 -2.8762001,-3.6994173,4.901915,-3.1683088,3.3650277,-4.8058319,-3.1499
 914,3.2221796,-1.0676718,6.6241864,-2.7448298,2.7848312,7.6588601,-1.1
 773329,9.8013183,-4.2755869,-2.2604934,0.1720779,4.150983,3.5738077,-5
 .1271264,-3.4156638,-2.6933541,-3.382698,3.1314503,3.8641528,-1.232816
 5,6.6103905,3.3547057,0.4576717,-7.1587739,-2.9734204,8.0427206,2.1230
 457,1.6911509,6.6084923,-4.3511047,0.1600768,6.26491,1.2017663,3.11726
 08,2.805986,7.7685385,-1.56294,-1.1224202,-3.3872493,7.6949777,1.30943
 35,-8.764669,-0.4194836,-2.3785449,2.5926908,-5.4025458,0.7930629,10.8
 267124,1.028432,1.0052728,1.7161277,1.6101916,8.3021546,0.4499445,-3.4
 353309,-3.9071978,-3.4466743,-0.1313231,-2.5325971,2.3505541,-3.41549,
 -5.819246,-5.0285074,1.2902405,-6.6039806,-2.0291874,-0.3281918,-6.153
 2549,0.9083779,-3.2188144,0.4492807,-6.2992872,-2.9016446,-0.6778233,-
 1.2604421,-6.438201,1.7234459,6.1968477,2.2332051,-3.423469,15.499019,
 2.2062367,1.0736563,-3.2069648,-0.7469309,1.8083446,1.6908668,0.491848
 9,-0.0919308,-1.2228893,-0.0429343,1.0449995,-2.1775998,-1.159441,-0.7
 099598,1.996412,0.7338843,-1.0219798,0.5853464,0.9313416,0.2203842,-1.
 7807744,-0.3105282,0.4190687,0.7891817,-0.146275,1.0075257,-0.7529656,
 -2.3569111,6.8063581,-1.460648,-0.6873642,-3.9047867,0.781964,6.060642
 ,-11.8857018,-11.6995419,0.9820784,-1.1073062,-2.8496801,0.6237948,-2.
 3254786,0.9067758,-0.0890505,-0.0020896,1.0721798,0.0898255,0.5212044,
 -2.7537106,1.062224,-0.4793047,-1.9767903,0.2339013,-0.7757209,9.73070
 46,2.4330408,-1.1418182,-4.0681598,-0.3926395,-0.8403474,0.6347636,1.1
 394126,1.2731053,-0.711858,-3.2031332,2.9159626,-0.6166257,-0.6873573,
 -0.019766,1.9387228,4.5822383,-8.3570852,4.8020175,-1.2111995,3.113789
 1,2.4929218,-2.1253332,6.0316889,-2.1173952,1.3006865,-5.9007914,0.831
 2016,6.4705505,-3.7802919,4.3593463,1.028927,2.8536825,-0.0882785,-5.8
 882883,17.5807455,-20.7216281,-2.3522645,-3.0380327,3.6914541,2.216929
 4,-5.9849927,0.8535081,-4.876934,0.3452893,-1.1163231,-0.1438142,0.499
 6969,-2.4909736,-1.2923178,-1.4826505,-2.9348491,0.0301442,-1.7630367\
 HyperPolar=84.9414487,-53.0679277,-1.6347027,143.5907427,106.0337602,8
 4.9514923,-48.2926224,-107.8052701,-71.4682411,-98.8055078\Quadrupole=
 -0.5184176,10.2806456,-9.7622279,-3.6607313,10.7635725,7.1128992\PG=C0
 1 [X(C4H3N2O2)]\NImag=0\\0.43988904,0.02148693,0.19968192,-0.01689211,
 -0.19185096,0.48805122,-0.22596507,-0.00910273,0.00570206,0.60881588,0
 .02609498,-0.07570069,0.01635255,0.02095936,0.23082369,-0.06481252,0.0
 1349113,-0.10096432,-0.00289051,-0.23154987,0.57951651,-0.12391121,-0.
 02847151,0.05290021,-0.08985518,-0.02405161,0.04017466,0.84201355,-0.0
 4199866,-0.12773883,0.11246800,-0.03427403,-0.00522277,0.03018094,0.05
 758478,0.23304240,0.08001767,0.11359241,-0.29176162,0.06072901,0.03099
 391,-0.04613660,-0.05883391,-0.18967522,0.51266524,0.01716469,0.025659
 74,-0.05185108,-0.00776294,-0.03232800,0.06329898,-0.21911627,0.025404
 20,-0.06373587,0.55760317,-0.00274982,0.00300144,0.03643374,-0.0032114
 2,-0.00769704,0.03848631,0.03969756,-0.08370601,0.04401020,0.03661117,
 0.26433142,0.00519794,0.03869553,-0.05602795,0.00487624,0.03616251,-0.
 06060197,-0.09237997,0.04288056,-0.15704491,-0.03704827,-0.29866086,0.
 71083186,-0.07414441,0.00706173,-0.02136814,-0.13217573,0.02287957,-0.
 05143689,-0.07494246,0.01301871,-0.03304665,-0.28277261,-0.06764233,0.
 11761739,0.89329203,0.01771615,0.00396448,0.02451617,0.02819750,-0.102
 20171,0.08159135,-0.01310993,0.01850957,-0.01537891,-0.05448614,-0.094
 00932,0.05573964,0.01430190,0.21851631,-0.04278586,0.02364629,-0.03541
 908,-0.06215569,0.08110235,-0.23063181,0.01938002,-0.01327148,0.039548
 98,0.09128214,0.05471910,-0.16651630,0.03319251,-0.17865482,0.49005378
 ,-0.00553019,-0.00084512,0.00185114,0.00125332,-0.00095630,0.00134990,
 -0.33631420,-0.03265283,0.04101703,-0.00841414,-0.00402390,0.00730888,
 -0.00243317,0.00085439,-0.00227774,0.35142139,-0.01410167,-0.00703424,
 -0.00206469,-0.00201370,0.00524826,0.00603068,-0.02945230,-0.03932138,
 0.01521395,0.00721504,0.00311905,-0.00341896,0.00151350,0.00289077,0.0
 0343279,0.03757628,0.03453462,0.02844854,-0.00100579,-0.00319910,0.003
 49632,0.00611575,-0.00366348,0.03458872,0.01496199,-0.05779257,-0.0152
 5950,-0.00432115,0.00857825,-0.00359565,0.00338448,-0.00254297,-0.0491
 4872,-0.01813735,0.05643486,-0.00376679,0.00206235,-0.00496411,-0.0058
 4327,-0.00226259,0.00356612,0.01022606,0.00941355,-0.01783644,-0.05687
 121,-0.00500984,0.00754557,0.00775659,-0.01006278,0.02095132,0.0000810
 8,-0.00039323,0.00094509,0.04681126,0.00026442,0.00490812,0.00319292,-
 0.00073746,0.00472490,0.00328628,-0.00254760,-0.00344092,0.00072733,-0
 .00588972,-0.09159140,0.13141631,0.00266296,-0.00265135,0.00222267,0.0
 0021186,-0.00146468,-0.00069740,0.00586009,0.09103854,-0.00134490,0.00
 333688,-0.00031815,0.00049071,0.00316379,0.00007848,0.00617955,0.00168
 885,-0.00587480,0.00931470,0.13147947,-0.28907279,-0.00459826,0.001203
 01,-0.00442648,-0.00027370,-0.00074506,-0.00034686,-0.00970226,-0.1392
 8556,0.30023490,0.00130192,-0.00037207,0.00037447,-0.00446987,0.000276
 43,-0.00075506,-0.00228581,-0.00065561,0.00073865,-0.00592570,0.003317
 08,-0.00733916,-0.34865034,0.01914912,-0.06397253,-0.00017022,0.000184
 82,-0.00044135,0.00016177,-0.00001363,0.00027751,0.36220461,0.00090699
 ,0.00366357,0.00464522,0.01399146,-0.00118501,-0.00048248,-0.00208299,
 0.00314164,0.00337679,-0.00697066,0.00429951,-0.00400458,0.01459480,-0
 .03601285,0.01369685,-0.00029893,0.00078546,-0.00018070,0.00057368,-0.
 00236308,-0.00115978,-0.02046131,0.02862796,-0.00219125,0.00454236,-0.
 00335702,-0.02829069,-0.00159394,-0.00104197,0.00360941,0.00349007,-0.
 00180383,0.01330149,-0.00318589,0.01003748,-0.05477073,0.01410481,-0.0
 6240625,0.00052990,-0.00014100,0.00103552,-0.00090257,-0.00120814,-0.0
 0061330,0.06818001,-0.01463202,0.05750449,-0.02951344,-0.00984106,0.01
 849824,-0.07764668,0.00884625,-0.01996581,-0.00357615,0.00652652,-0.01
 361564,0.01046525,0.00549146,-0.01042841,0.01801912,-0.00689236,0.0158
 9284,0.00078187,0.00002364,-0.00017605,0.00167313,0.00057929,-0.001183
 23,-0.00253114,0.00112495,-0.00232077,0.75160015,-0.01192673,-0.009822
 27,-0.00786593,0.00522373,-0.05670067,0.00983743,0.00465137,0.00685593
 ,-0.00596032,0.00822804,0.00334105,-0.00070239,-0.00289764,-0.01354222
 ,0.01382812,0.00062429,0.00240346,-0.00008665,0.00028026,0.00184816,0.
 00026443,-0.00009991,-0.00133216,-0.00057362,-0.11215875,0.29751502,0.
 02259098,-0.00774901,0.00416516,-0.01256000,0.01014440,-0.07348150,-0.
 00995719,-0.00583996,0.01455478,-0.01588797,-0.00092109,0.00328236,0.0
 0780051,0.01355115,-0.03306501,-0.00138332,-0.00013775,0.00250495,-0.0
 0059109,0.00028514,0.00134864,0.00013632,-0.00048039,-0.00064367,0.265
 42403,-0.14929176,0.54975968,-0.00164761,-0.00259542,0.00544567,0.0109
 9889,-0.00545036,0.01053236,0.00263662,0.00037103,-0.00053105,0.001200
 70,-0.00107762,0.00228287,-0.00195406,-0.00058765,0.00074743,-0.000034
 84,0.00005306,-0.00008982,0.00002047,-0.00011999,0.00030008,0.00054793
 ,-0.00036271,0.00076330,-0.19271013,0.07964721,-0.16816951,0.24424802,
 0.00412955,0.00225959,0.00035617,0.00121255,-0.00484045,0.04353618,-0.
 00024127,-0.00145360,0.00283819,-0.00255050,-0.00157365,0.00228653,-0.
 00490588,0.00411023,-0.00193978,-0.00027645,-0.00028449,0.00009710,-0.
 00045258,-0.00080258,0.00004595,0.00005935,0.00020210,-0.00023294,0.07
 747730,-0.14429593,0.13078765,-0.10214715,0.12543183,-0.00798901,-0.00
 012652,0.00102687,-0.00287210,0.04302769,-0.06979074,0.00069517,0.0029
 0296,-0.00577335,0.00524895,0.00239460,-0.00475697,0.00944809,-0.00160
 996,0.00728924,0.00057129,0.00012381,-0.00042955,0.00097255,0.00007242
 ,-0.00083186,-0.00008183,-0.00026824,0.00061861,-0.16375463,0.13092082
 ,-0.35889072,0.22058510,-0.19787912,0.44722642,0.00612306,-0.00504285,
 0.01030365,-0.07734935,-0.01400773,0.02093878,-0.00487495,-0.00273765,
 0.00509718,-0.00557092,-0.00140233,0.00236691,-0.00199495,0.00491980,-
 0.01025443,-0.00064090,-0.00060544,0.00123241,-0.00024909,-0.00027022,
 0.00053980,-0.00018313,-0.00101528,0.00209189,-0.47656197,0.02842814,-
 0.08740277,-0.06330599,0.02769508,-0.06282357,0.62460820,0.00017785,0.
 00281690,0.00381681,-0.02024527,0.01275149,0.00559206,-0.00197648,-0.0
 0066603,0.00026165,-0.00089318,0.00048496,-0.00039429,-0.00058732,0.00
 042608,0.00121791,-0.00021329,-0.00087684,-0.00013028,-0.00000890,-0.0
 0020571,0.00000802,-0.00138426,0.00017286,-0.00056970,0.02882275,-0.08
 627038,0.00965162,0.03226960,0.02124697,0.02044154,-0.03596152,0.05011
 970,-0.00023949,0.00342768,-0.00219600,0.03347464,0.00608085,0.0067174
 0,0.00364332,0.00021329,-0.00058133,0.00133644,-0.00043443,0.00129093,
 0.00075782,0.00155308,-0.00188412,0.00045534,-0.00015641,-0.00057906,0
 .00001582,-0.00001198,-0.00017778,0.00288297,-0.00051067,0.00066993,-0
 .08837056,0.00962987,-0.10953468,-0.07186642,0.02010407,-0.01568794,0.
 11791013,-0.03989535,0.12196265\\-0.00000926,0.00000392,-0.00001352,-0
 .00008409,-0.00004995,0.00009649,0.00002853,0.00001644,-0.00002879,0.0
 0005109,0.00002076,-0.00002468,0.00003570,0.00001651,-0.00001488,0.000
 02861,0.00000853,-0.00001702,0.00003507,0.00002165,-0.00003514,0.00002
 068,0.00002253,-0.00003274,0.00010153,-0.00000074,-0.00000502,-0.00009
 050,-0.00002861,0.00002636,-0.00011734,-0.00003106,0.00004894\\\@
 The archive entry for this job was punched.


 ...THE PHYSICISTS HAVE MADE THEIR UNIVERSE, AND IF YOU DO NOT LIKE
 IT, YOU MUST MAKE YOUR OWN.
                               -- E. R. HARRISON IN "COSMOLOGY" (1980)
 Job cpu time:       0 days  0 hours 17 minutes 49.4 seconds.
 Elapsed time:       0 days  0 hours 10 minutes  2.5 seconds.
 File lengths (MBytes):  RWF=    108 Int=      0 D2E=      0 Chk=     14 Scr=      1
 Normal termination of Gaussian 16 at Fri Jun  2 11:35:53 2023.
