 Entering Gaussian System, Link 0=g16
 Input=pyrazolide-H_dissociation-site_index-1-freq.gjf
 Output=pyrazolide-H_dissociation-site_index-1-freq.log
 Initial command:
 /software/commercial/gaussian/g16/AVX/g16/l1.exe "/scratch1/svicchi/G09-659857.pbs02/Gau-3957638.inp" -scrdir="/scratch1/svicchi/G09-659857.pbs02/"
 Entering Link 1 = /software/commercial/gaussian/g16/AVX/g16/l1.exe PID=   3957639.
  
 Copyright (c) 1988-2019, Gaussian, Inc.  All Rights Reserved.
  
 This is part of the Gaussian(R) 16 program.  It is based on
 the Gaussian(R) 09 system (copyright 2009, Gaussian, Inc.),
 the Gaussian(R) 03 system (copyright 2003, Gaussian, Inc.),
 the Gaussian(R) 98 system (copyright 1998, Gaussian, Inc.),
 the Gaussian(R) 94 system (copyright 1995, Gaussian, Inc.),
 the Gaussian 92(TM) system (copyright 1992, Gaussian, Inc.),
 the Gaussian 90(TM) system (copyright 1990, Gaussian, Inc.),
 the Gaussian 88(TM) system (copyright 1988, Gaussian, Inc.),
 the Gaussian 86(TM) system (copyright 1986, Carnegie Mellon
 University), and the Gaussian 82(TM) system (copyright 1983,
 Carnegie Mellon University). Gaussian is a federally registered
 trademark of Gaussian, Inc.
  
 This software contains proprietary and confidential information,
 including trade secrets, belonging to Gaussian, Inc.
  
 This software is provided under written license and may be
 used, copied, transmitted, or stored only in accord with that
 written license.
  
 The following legend is applicable only to US Government
 contracts under FAR:
  
                    RESTRICTED RIGHTS LEGEND
  
 Use, reproduction and disclosure by the US Government is
 subject to restrictions as set forth in subparagraphs (a)
 and (c) of the Commercial Computer Software - Restricted
 Rights clause in FAR 52.227-19.
  
 Gaussian, Inc.
 340 Quinnipiac St., Bldg. 40, Wallingford CT 06492
  
  
 ---------------------------------------------------------------
 Warning -- This program may not be used in any manner that
 competes with the business of Gaussian, Inc. or will provide
 assistance to any competitor of Gaussian, Inc.  The licensee
 of this program is prohibited from giving any competitor of
 Gaussian, Inc. access to this program.  By using this program,
 the user acknowledges that Gaussian, Inc. is engaged in the
 business of creating and licensing software in the field of
 computational chemistry and represents and warrants to the
 licensee that it is not a competitor of Gaussian, Inc. and that
 it will not use this program in any manner prohibited above.
 ---------------------------------------------------------------
  

 Cite this work as:
 Gaussian 16, Revision C.01,
 M. J. Frisch, G. W. Trucks, H. B. Schlegel, G. E. Scuseria, 
 M. A. Robb, J. R. Cheeseman, G. Scalmani, V. Barone, 
 G. A. Petersson, H. Nakatsuji, X. Li, M. Caricato, A. V. Marenich, 
 J. Bloino, B. G. Janesko, R. Gomperts, B. Mennucci, H. P. Hratchian, 
 J. V. Ortiz, A. F. Izmaylov, J. L. Sonnenberg, D. Williams-Young, 
 F. Ding, F. Lipparini, F. Egidi, J. Goings, B. Peng, A. Petrone, 
 T. Henderson, D. Ranasinghe, V. G. Zakrzewski, J. Gao, N. Rega, 
 G. Zheng, W. Liang, M. Hada, M. Ehara, K. Toyota, R. Fukuda, 
 J. Hasegawa, M. Ishida, T. Nakajima, Y. Honda, O. Kitao, H. Nakai, 
 T. Vreven, K. Throssell, J. A. Montgomery, Jr., J. E. Peralta, 
 F. Ogliaro, M. J. Bearpark, J. J. Heyd, E. N. Brothers, K. N. Kudin, 
 V. N. Staroverov, T. A. Keith, R. Kobayashi, J. Normand, 
 K. Raghavachari, A. P. Rendell, J. C. Burant, S. S. Iyengar, 
 J. Tomasi, M. Cossi, J. M. Millam, M. Klene, C. Adamo, R. Cammi, 
 J. W. Ochterski, R. L. Martin, K. Morokuma, O. Farkas, 
 J. B. Foresman, and D. J. Fox, Gaussian, Inc., Wallingford CT, 2019.
 
 ******************************************
 Gaussian 16:  ES64L-G16RevC.01  3-Jul-2019
                 2-Jun-2023 
 ******************************************
 %NProcShared=2
 Will use up to    2 processors via shared memory.
 %mem=55gb
 %chk=/scratch1/svicchi/G09-659857.pbs02/02-freq/pyrazolide-H_dissociation-site_i
 ndex-1-freq.chk
 ----------------------------------------------------------------------
 #p freq=raman scale=0.967 pop=(nbo,full,hirshfeld) guess=read geom=all
 check b3lyp/6-311+G(d,p) int=grid=ultrafine EmpiricalDispersion=GD3BJ 
 SCRF=(Solvent=ethanol) scf=(xqc,intrep,maxconventionalcycle=350) nosym
 m
 ----------------------------------------------------------------------
 1/10=4,29=7,30=1,38=1,114=967000/1,3;
 2/12=2,15=1,40=1/2;
 3/5=4,6=6,7=111,11=2,14=-4,25=1,30=1,70=2201,71=2,72=4,74=-5,75=-5,116=-2,124=41,140=1/1,2,3;
 4/5=1/1;
 5/5=2,8=3,13=1,17=20,38=6,53=4,85=350,98=1/2,8;
 8/6=4,10=90,11=11/1;
 10/13=10,15=4,31=1/2;
 11/6=3,8=1,9=11,15=111,16=1,31=1/1,2,10;
 10/6=1,31=1/2;
 6/7=3,28=1,40=1,79=1/1,7;
 7/8=1,10=1,25=1,30=1/1,2,3,16;
 1/10=4,30=1/3;
 99//99;
 Leave Link    1 at Fri Jun  2 11:08:48 2023, MaxMem=  7381975040 cpu:               1.1 elap:               1.2
 (Enter /software/commercial/gaussian/g16/AVX/g16/l101.exe)
 Structure from the checkpoint file:  "/scratch1/svicchi/G09-659857.pbs02/02-freq/pyrazolide-H_dissociation-site_index-1-freq.chk"
 ------------------------------------------
 pyrazolide-H_dissociation-site_index-1.gjf
 ------------------------------------------
 Charge =  0 Multiplicity = 1
 No Z-Matrix found in chk file; cartesian coordinates used.
  N                                                 0.664286848648     -0.745098491253      0.556408196117
  N                                                -0.680648881012     -0.626643602165      0.574058718283
  C                                                 1.087612293054      0.365188390257     -0.049286140724
  C                                                 0.009746051026      1.198427464120     -0.421116575225
  C                                                -1.118316671950      0.519897567159      0.000458073748
  H                                                 2.144933140819      0.526873158749     -0.196415353576
  H                                                 0.048332053616      2.151509281465     -0.921843647842
  H                                                -2.167642289004      0.757681664901     -0.061475333829
  H                                                -1.239427545197     -1.356328433233      0.989184063047
 Recover connectivity data from disk.
 ITRead=  0  0  0  0  0  0  0  0  0
 MicOpt= -1 -1 -1 -1 -1 -1 -1 -1 -1
 NAtoms=      9 NQM=        9 NQMF=       0 NMMI=      0 NMMIF=      0
                NMic=       0 NMicF=      0.
                    Isotopes and Nuclear Properties:
 (Nuclear quadrupole moments (NQMom) in fm**2, nuclear magnetic moments (NMagM)
  in nuclear magnetons)

  Atom         1           2           3           4           5           6           7           8           9
 IAtWgt=          14          14          12          12          12           1           1           1           1
 AtmWgt=  14.0030740  14.0030740  12.0000000  12.0000000  12.0000000   1.0078250   1.0078250   1.0078250   1.0078250
 NucSpn=           2           2           0           0           0           1           1           1           1
 AtZEff=   4.5500000   4.5500000   3.6000000   3.6000000   3.6000000   1.0000000   1.0000000   1.0000000   1.0000000
 NQMom=    2.0440000   2.0440000   0.0000000   0.0000000   0.0000000   0.0000000   0.0000000   0.0000000   0.0000000
 NMagM=    0.4037610   0.4037610   0.0000000   0.0000000   0.0000000   2.7928460   2.7928460   2.7928460   2.7928460
 AtZNuc=   7.0000000   7.0000000   6.0000000   6.0000000   6.0000000   1.0000000   1.0000000   1.0000000   1.0000000
 Leave Link  101 at Fri Jun  2 11:08:50 2023, MaxMem=  7381975040 cpu:               0.6 elap:               1.3
 (Enter /software/commercial/gaussian/g16/AVX/g16/l103.exe)

 GradGradGradGradGradGradGradGradGradGradGradGradGradGradGradGradGradGrad
 Berny optimization.
 Initialization pass.
 Trust Radius=3.00D-01 FncErr=1.00D-07 GrdErr=1.00D-07 EigMax=2.50D+02 EigMin=1.00D-04
 Number of steps in this run=      2 maximum allowed number of steps=      2.
 GradGradGradGradGradGradGradGradGradGradGradGradGradGradGradGradGradGrad

 Leave Link  103 at Fri Jun  2 11:08:52 2023, MaxMem=  7381975040 cpu:               0.1 elap:               0.7
 (Enter /software/commercial/gaussian/g16/AVX/g16/l202.exe)
                          Input orientation:                          
 ---------------------------------------------------------------------
 Center     Atomic      Atomic             Coordinates (Angstroms)
 Number     Number       Type             X           Y           Z
 ---------------------------------------------------------------------
      1          7           0        0.664287   -0.745098    0.556408
      2          7           0       -0.680649   -0.626644    0.574059
      3          6           0        1.087612    0.365188   -0.049286
      4          6           0        0.009746    1.198427   -0.421117
      5          6           0       -1.118317    0.519898    0.000458
      6          1           0        2.144933    0.526873   -0.196415
      7          1           0        0.048332    2.151509   -0.921844
      8          1           0       -2.167642    0.757682   -0.061475
      9          1           0       -1.239428   -1.356328    0.989184
 ---------------------------------------------------------------------
                    Distance matrix (angstroms):
                    1          2          3          4          5
     1  N    0.000000
     2  N    1.350257   0.000000
     3  C    1.333719   2.121093   0.000000
     4  C    2.271843   2.190412   1.412211   0.000000
     5  C    2.255431   1.354669   2.211907   1.382264   0.000000
     6  H    2.092121   3.147721   1.079683   2.249555   3.269191
     7  H    3.309829   3.238406   2.243302   1.077303   2.207684
     8  H    3.264958   2.128711   3.278854   2.250471   1.077711
     9  H    2.045733   1.008465   3.075249   3.174297   2.124258
                    6          7          8          9
     6  H    0.000000
     7  H    2.749805   0.000000
     8  H    4.320855   2.755636   0.000000
     9  H    4.050431   4.197056   2.536633   0.000000
 Symmetry turned off by external request.
 Stoichiometry    C3H4N2
 Framework group  C1[X(C3H4N2)]
 Deg. of freedom    21
 Full point group                 C1      NOp   1
 Rotational constants (GHZ):           9.5880818           9.4678778           4.7638004
 Leave Link  202 at Fri Jun  2 11:08:54 2023, MaxMem=  7381975040 cpu:               0.0 elap:               0.8
 (Enter /software/commercial/gaussian/g16/AVX/g16/l301.exe)
 Standard basis: 6-311+G(d,p) (5D, 7F)
 Ernie: Thresh=  0.10000D-02 Tol=  0.10000D-05 Strict=F.
   134 basis functions,   212 primitive gaussians,   139 cartesian basis functions
    18 alpha electrons       18 beta electrons
       nuclear repulsion energy       162.9389337282 Hartrees.
 IExCor=  402 DFT=T Ex+Corr=B3LYP ExCW=0 ScaHFX=  0.200000
 ScaDFX=  0.800000  0.720000  1.000000  0.810000 ScalE2=  1.000000  1.000000
 IRadAn=      5 IRanWt=     -1 IRanGd=            0 ICorTp=0 IEmpDi=141
 NAtoms=    9 NActive=    9 NUniq=    9 SFac= 1.00D+00 NAtFMM=   60 NAOKFM=F Big=F
 Integral buffers will be    131072 words long.
 Raffenetti 2 integral format.
 Two-electron integral symmetry is turned off.
 R6Disp:  Grimme-D3(BJ) Dispersion energy=       -0.0115179491 Hartrees.
 Nuclear repulsion after empirical dispersion term =      162.9274157791 Hartrees.
 Force inversion solution in PCM.
 ------------------------------------------------------------------------------
 Polarizable Continuum Model (PCM)
 =================================
 Model                : PCM.
 Atomic radii         : UFF (Universal Force Field).
 Polarization charges : Total charges.
 Charge compensation  : None.
 Solution method      : Matrix inversion.
 Cavity type          : Scaled VdW (van der Waals Surface) (Alpha=1.100).
 Cavity algorithm     : GePol (No added spheres)
                        Default sphere list used, NSphG=    9.
                        Lebedev-Laikov grids with approx.  5.0 points / Ang**2.
                        Smoothing algorithm: York/Karplus (Gamma=1.0000).
                        Polarization charges: spherical gaussians, with
                                              point-specific exponents (IZeta= 3).
                        Self-potential: point-specific (ISelfS= 7).
                        Self-field    : sphere-specific E.n sum rule (ISelfD= 2).
 1st derivatives      : Analytical E(r).r(x)/FMM algorithm (CHGder, D1EAlg=3).
                        Cavity 1st derivative terms included.
 2nd derivatives      : Analytical E(r).r(xy)/FMM algorithm (CHGder, D2EAlg=3).
                        Cavity 2nd derivative terms included.
 Solvent              : Ethanol, Eps=  24.852000 Eps(inf)=   1.852593
 ------------------------------------------------------------------------------
 Spheres list:
 ISph  on   Nord     Re0    Alpha      Xe            Ye            Ze
    1   N      1    1.8300  1.100      0.664287     -0.745098      0.556408
    2   N      2    1.8300  1.100     -0.680649     -0.626644      0.574059
    3   C      3    1.9255  1.100      1.087612      0.365188     -0.049286
    4   C      4    1.9255  1.100      0.009746      1.198427     -0.421117
    5   C      5    1.9255  1.100     -1.118317      0.519898      0.000458
    6   H      6    1.4430  1.100      2.144933      0.526873     -0.196415
    7   H      7    1.4430  1.100      0.048332      2.151509     -0.921844
    8   H      8    1.4430  1.100     -2.167642      0.757682     -0.061475
    9   H      9    1.4430  1.100     -1.239428     -1.356328      0.989184
 ------------------------------------------------------------------------------
 GePol: Number of generator spheres                  =       9
 GePol: Total number of spheres                      =       9
 GePol: Number of exposed spheres                    =       9 (100.00%)
 GePol: Number of points                             =     882
 GePol: Average weight of points                     =       0.14
 GePol: Minimum weight of points                     =   0.98D-10
 GePol: Maximum weight of points                     =    0.20577
 GePol: Number of points with low weight             =      55
 GePol: Fraction of low-weight points (<1% of avg)   =       6.24%
 GePol: Cavity surface area                          =    119.295 Ang**2
 GePol: Cavity volume                                =    106.863 Ang**3
 Leave Link  301 at Fri Jun  2 11:08:56 2023, MaxMem=  7381975040 cpu:               0.7 elap:               1.6
 (Enter /software/commercial/gaussian/g16/AVX/g16/l302.exe)
 NPDir=0 NMtPBC=     1 NCelOv=     1 NCel=       1 NClECP=     1 NCelD=      1
         NCelK=      1 NCelE2=     1 NClLst=     1 CellRange=     0.0.
 One-electron integrals computed using PRISM.
 NBasis=   134 RedAO= T EigKep=  7.07D-05  NBF=   134
 NBsUse=   134 1.00D-06 EigRej= -1.00D+00 NBFU=   134
 Precomputing XC quadrature grid using
 IXCGrd= 4 IRadAn=           5 IRanWt=          -1 IRanGd=           0 AccXCQ= 0.00D+00.
 Generated NRdTot=       0 NPtTot=           0 NUsed=           0 NTot=          32
 NSgBfM=   139   139   139   139   139 MxSgAt=     9 MxSgA2=     9.
 Leave Link  302 at Fri Jun  2 11:08:59 2023, MaxMem=  7381975040 cpu:               0.8 elap:               1.2
 (Enter /software/commercial/gaussian/g16/AVX/g16/l303.exe)
 DipDrv:  MaxL=1.
 Leave Link  303 at Fri Jun  2 11:09:00 2023, MaxMem=  7381975040 cpu:               0.1 elap:               0.9
 (Enter /software/commercial/gaussian/g16/AVX/g16/l401.exe)
 Initial guess from the checkpoint file:  "/scratch1/svicchi/G09-659857.pbs02/02-freq/pyrazolide-H_dissociation-site_index-1-freq.chk"
 B after Tr=     0.000000    0.000000    0.000000
         Rot=    1.000000    0.000000    0.000000    0.000000 Ang=   0.00 deg.
 Guess basis will be translated and rotated to current coordinates.
 JPrj=2 DoOrth=T DoCkMO=T.
 Leave Link  401 at Fri Jun  2 11:09:03 2023, MaxMem=  7381975040 cpu:               0.7 elap:               1.4
 (Enter /software/commercial/gaussian/g16/AVX/g16/l502.exe)
 Keep R1 ints in memory in canonical form, NReq=42839498.
 FoFCou: FMM=F IPFlag=           0 FMFlag=           0 FMFlg1=           0
         NFxFlg=           0 DoJE=F BraDBF=F KetDBF=F FulRan=T
         wScrn=  0.000000 ICntrl=       600 IOpCl=  0 I1Cent=           0 NGrid=           0
         NMat0=    1 NMatS0=   9045 NMatT0=    0 NMatD0=    1 NMtDS0=    0 NMtDT0=    0
 Symmetry not used in FoFCou.
 Two-electron integral symmetry not used.
 Closed shell SCF:
 Using DIIS extrapolation, IDIIS=  1040.
 NGot=  7381975040 LenX=  7341023700 LenY=  7341003938
 Requested convergence on RMS density matrix=1.00D-08 within 350 cycles.
 Requested convergence on MAX density matrix=1.00D-06.
 Requested convergence on             energy=1.00D-06.
 No special actions if energy rises.

 Cycle   1  Pass 1  IDiag  1:
 Inv3:  Mode=1 IEnd=     2333772.
 Iteration    1 A*A^-1 deviation from unit magnitude is 2.89D-15 for    858.
 Iteration    1 A*A^-1 deviation from orthogonality  is 1.27D-15 for    486    425.
 Iteration    1 A^-1*A deviation from unit magnitude is 2.66D-15 for    858.
 Iteration    1 A^-1*A deviation from orthogonality  is 1.53D-15 for    466    169.
 E= -226.285600849499    
 DIIS: error= 3.97D-08 at cycle   1 NSaved=   1.
 NSaved= 1 IEnMin= 1 EnMin= -226.285600849499     IErMin= 1 ErrMin= 3.97D-08
 ErrMax= 3.97D-08  0.00D+00 EMaxC= 1.00D-01 BMatC= 9.79D-14 BMatP= 9.79D-14
 IDIUse=1 WtCom= 1.00D+00 WtEn= 0.00D+00
 Coeff-Com:  0.100D+01
 Coeff:      0.100D+01
 Gap=     0.259 Goal=   None    Shift=    0.000
 RMSDP=4.40D-09 MaxDP=1.24D-07              OVMax= 3.92D-07

 Error on total polarization charges =  0.01203
 SCF Done:  E(RB3LYP) =  -226.285600849     A.U. after    1 cycles
            NFock=  1  Conv=0.44D-08     -V/T= 2.0042
 KE= 2.253364865395D+02 PE=-8.527869542029D+02 EE= 2.382374510348D+02
 Leave Link  502 at Fri Jun  2 11:09:11 2023, MaxMem=  7381975040 cpu:              10.7 elap:               7.5
 (Enter /software/commercial/gaussian/g16/AVX/g16/l508.exe)
 QCSCF skips out because SCF is already converged.
 Leave Link  508 at Fri Jun  2 11:09:13 2023, MaxMem=  7381975040 cpu:               0.0 elap:               0.4
 (Enter /software/commercial/gaussian/g16/AVX/g16/l801.exe)
 DoSCS=F DFT=T ScalE2(SS,OS)=  1.000000  1.000000
 Range of M.O.s used for correlation:     1   134
 NBasis=   134 NAE=    18 NBE=    18 NFC=     0 NFV=     0
 NROrb=    134 NOA=    18 NOB=    18 NVA=   116 NVB=   116

 **** Warning!!: The largest alpha MO coefficient is  0.47561233D+02

 Leave Link  801 at Fri Jun  2 11:09:14 2023, MaxMem=  7381975040 cpu:               0.1 elap:               0.6
 (Enter /software/commercial/gaussian/g16/AVX/g16/l1002.exe)
 Minotr:  Closed shell wavefunction.
 NEqPCM:  Using equilibrium solvation (IEInf=0, Eps=  24.8520, EpsInf=   1.8526)
          Direct CPHF calculation.
          Differentiating once with respect to electric field.
                with respect to dipole field.
          Electric field/nuclear overlap derivatives assumed to be zero.
          Requested convergence is 1.0D-08 RMS, and 1.0D-07 maximum.
          Secondary convergence is 1.0D-12 RMS, and 1.0D-12 maximum.
          NewPWx=F KeepS1=T KeepF1=T KeepIn=T MapXYZ=F SortEE=F KeepMc=T.
         2725 words used for storage of precomputed grid.
 Keep R1 ints in memory in canonical form, NReq=44170174.
 FoFCou: FMM=F IPFlag=           0 FMFlag=           0 FMFlg1=           0
         NFxFlg=           0 DoJE=F BraDBF=F KetDBF=F FulRan=T
         wScrn=  0.000000 ICntrl=       600 IOpCl=  0 I1Cent=           0 NGrid=           0
         NMat0=    1 NMatS0=   9045 NMatT0=    0 NMatD0=    1 NMtDS0=    0 NMtDT0=    0
 Symmetry not used in FoFCou.
 Two-electron integral symmetry not used.
          MDV=    7381975040 using IRadAn=       1.
          Solving linear equations simultaneously, MaxMat=       0.
          There are     3 degrees of freedom in the 1st order CPHF.  IDoFFX=0 NUNeed=     3.
      3 vectors produced by pass  0 Test12= 6.96D-14 3.33D-08 XBig12= 5.50D+01 4.87D+00.
 AX will form     3 AO Fock derivatives at one time.
      3 vectors produced by pass  1 Test12= 6.96D-14 3.33D-08 XBig12= 2.33D+01 1.37D+00.
      3 vectors produced by pass  2 Test12= 6.96D-14 3.33D-08 XBig12= 2.46D+00 4.10D-01.
      3 vectors produced by pass  3 Test12= 6.96D-14 3.33D-08 XBig12= 1.01D+00 4.06D-01.
      3 vectors produced by pass  4 Test12= 6.96D-14 3.33D-08 XBig12= 4.51D-02 7.34D-02.
      3 vectors produced by pass  5 Test12= 6.96D-14 3.33D-08 XBig12= 2.41D-03 1.13D-02.
      3 vectors produced by pass  6 Test12= 6.96D-14 3.33D-08 XBig12= 2.54D-04 3.39D-03.
      3 vectors produced by pass  7 Test12= 6.96D-14 3.33D-08 XBig12= 4.58D-06 4.79D-04.
      3 vectors produced by pass  8 Test12= 6.96D-14 3.33D-08 XBig12= 4.86D-08 6.10D-05.
      3 vectors produced by pass  9 Test12= 6.96D-14 3.33D-08 XBig12= 1.51D-09 6.84D-06.
      2 vectors produced by pass 10 Test12= 6.96D-14 3.33D-08 XBig12= 1.99D-11 9.09D-07.
      2 vectors produced by pass 11 Test12= 6.96D-14 3.33D-08 XBig12= 4.52D-13 2.31D-07.
      1 vectors produced by pass 12 Test12= 6.96D-14 3.33D-08 XBig12= 1.50D-14 4.43D-08.
 InvSVY:  IOpt=1 It=  1 EMax= 3.55D-15
 Solved reduced A of dimension    35 with     3 vectors.
 End of Minotr F.D. properties file   721 does not exist.
 End of Minotr F.D. properties file   722 does not exist.
 End of Minotr F.D. properties file   788 does not exist.
 Leave Link 1002 at Fri Jun  2 11:09:50 2023, MaxMem=  7381975040 cpu:              55.1 elap:              34.0
 (Enter /software/commercial/gaussian/g16/AVX/g16/l1101.exe)
 Using compressed storage, NAtomX=     9.
 Will process     10 centers per pass.
 R6Disp: Adding Grimme-D3(BJ) dispersion energy 1st derivatives to the gradient.
 Leave Link 1101 at Fri Jun  2 11:09:53 2023, MaxMem=  7381975040 cpu:               0.6 elap:               1.7
 (Enter /software/commercial/gaussian/g16/AVX/g16/l1102.exe)
 Symmetrizing basis deriv contribution to polar:
 IMax=3 JMax=2 DiffMx= 0.00D+00
 Leave Link 1102 at Fri Jun  2 11:09:54 2023, MaxMem=  7381975040 cpu:               0.3 elap:               0.7
 (Enter /software/commercial/gaussian/g16/AVX/g16/l1110.exe)
 Forming Gx(P) for the SCF density, NAtomX=     9.
 Integral derivatives from FoFJK, PRISM(SPDF).
 Do as many integral derivatives as possible in FoFJK.
 G2DrvN: MDV=    7381973995.
 G2DrvN: will do    10 centers at a time, making    1 passes.
 PxScal for G2LodP:  IOpCl= 0 ISclPx=1 IMOff=     1 NMtTot=     4 NTT=    9045 ScalPx= 8.80D+00
 Calling FoFCou, ICntrl=  3107 FMM=F I1Cent=   0 AccDes= 0.00D+00.
 FoFJK:  IHMeth= 1 ICntrl=    3107 DoSepK=F KAlg= 0 I1Cent=           0 FoldK=F
 IRaf=         0 NMat=       1 IRICut=       1 DoRegI=T DoRafI=F ISym2E= 0 IDoP0=0 IntGTp=1.
 FoFCou: FMM=F IPFlag=           0 FMFlag=      100000 FMFlg1=           0
         NFxFlg=           0 DoJE=F BraDBF=F KetDBF=F FulRan=T
         wScrn=  0.000000 ICntrl=      3107 IOpCl=  0 I1Cent=           0 NGrid=           0
         NMat0=    1 NMatS0=      1 NMatT0=    0 NMatD0=    4 NMtDS0=    3 NMtDT0=    0
 Symmetry not used in FoFCou.
 PxScal for G2LodP:  IOpCl= 0 ISclPx=0 IMOff=     1 NMtTot=     4 NTT=    9045 ScalPx= 1.00D+00
 NEqPCM:  Using equilibrium solvation (IEInf=0, Eps=  24.8520, EpsInf=   1.8526)
 G2PCM: DoFxE=T DoFxN=T DoGrad=T DoDP/DQ/DG/TGxP=TFFF NFrqRd=   0 IEInf=0 SqF1=F DoCFld=F IF1Alg=4.
 GePol: Maximum number of non-zero 1st derivatives   =     208
 End of G2Drv F.D. properties file   721 does not exist.
 End of G2Drv F.D. properties file   722 does not exist.
 End of G2Drv F.D. properties file   788 does not exist.
 Leave Link 1110 at Fri Jun  2 11:11:01 2023, MaxMem=  7381975040 cpu:             126.8 elap:              65.7
 (Enter /software/commercial/gaussian/g16/AVX/g16/l1002.exe)
 Minotr:  Closed shell wavefunction.
          IDoAtm=111111111
 NEqPCM:  Using equilibrium solvation (IEInf=0, Eps=  24.8520, EpsInf=   1.8526)
          Direct CPHF calculation.
          Differentiating once with respect to electric field.
                with respect to dipole field.
          Differentiating once with respect to nuclear coordinates.
          Requested convergence is 1.0D-08 RMS, and 1.0D-07 maximum.
          Secondary convergence is 1.0D-12 RMS, and 1.0D-12 maximum.
          NewPWx=T KeepS1=F KeepF1=F KeepIn=T MapXYZ=F SortEE=F KeepMc=T.
         2725 words used for storage of precomputed grid.
 Keep R1 ints in memory in canonical form, NReq=44170381.
 FoFCou: FMM=F IPFlag=           0 FMFlag=           0 FMFlg1=           0
         NFxFlg=           0 DoJE=F BraDBF=F KetDBF=F FulRan=T
         wScrn=  0.000000 ICntrl=       600 IOpCl=  0 I1Cent=           0 NGrid=           0
         NMat0=    1 NMatS0=   9045 NMatT0=    0 NMatD0=    1 NMtDS0=    0 NMtDT0=    0
 Symmetry not used in FoFCou.
 Two-electron integral symmetry not used.
          MDV=    7381975040 using IRadAn=       1.
          Solving linear equations simultaneously, MaxMat=       0.
          There are    30 degrees of freedom in the 1st order CPHF.  IDoFFX=5 NUNeed=    30.
 Will reuse    3 saved solutions.
     24 vectors produced by pass  0 Test12= 6.96D-15 3.33D-09 XBig12= 1.21D-01 1.20D-01.
 AX will form    24 AO Fock derivatives at one time.
     24 vectors produced by pass  1 Test12= 6.96D-15 3.33D-09 XBig12= 1.45D-02 4.79D-02.
     24 vectors produced by pass  2 Test12= 6.96D-15 3.33D-09 XBig12= 1.72D-04 3.80D-03.
     24 vectors produced by pass  3 Test12= 6.96D-15 3.33D-09 XBig12= 8.04D-07 1.79D-04.
     24 vectors produced by pass  4 Test12= 6.96D-15 3.33D-09 XBig12= 1.65D-09 5.65D-06.
     22 vectors produced by pass  5 Test12= 6.96D-15 3.33D-09 XBig12= 2.89D-12 2.67D-07.
      9 vectors produced by pass  6 Test12= 6.96D-15 3.33D-09 XBig12= 4.10D-15 1.08D-08.
 InvSVY:  IOpt=1 It=  1 EMax= 2.11D-15
 Solved reduced A of dimension   151 with    24 vectors.
 FullF1:  Do perturbations      1 to       3.
 Isotropic polarizability for W=    0.000000       59.86 Bohr**3.
 FullF1:  Do perturbations      1 to       6.
 End of Minotr F.D. properties file   721 does not exist.
 End of Minotr F.D. properties file   722 does not exist.
 End of Minotr F.D. properties file   788 does not exist.
 Leave Link 1002 at Fri Jun  2 11:12:03 2023, MaxMem=  7381975040 cpu:             108.5 elap:              60.9
 (Enter /software/commercial/gaussian/g16/AVX/g16/l601.exe)
 Copying SCF densities to generalized density rwf, IOpCl= 0 IROHF=0.

 **********************************************************************

            Population analysis using the SCF Density.

 **********************************************************************

 Alpha  occ. eigenvalues --  -14.39407 -14.34119 -10.21526 -10.19783 -10.17329
 Alpha  occ. eigenvalues --   -1.05685  -0.82822  -0.78817  -0.61915  -0.60577
 Alpha  occ. eigenvalues --   -0.55275  -0.45582  -0.44980  -0.43696  -0.40993
 Alpha  occ. eigenvalues --   -0.30999  -0.27417  -0.26282
 Alpha virt. eigenvalues --   -0.00371   0.00718   0.02983   0.03656   0.04030
 Alpha virt. eigenvalues --    0.05468   0.05639   0.05761   0.07694   0.09481
 Alpha virt. eigenvalues --    0.11041   0.11551   0.12238   0.14943   0.15820
 Alpha virt. eigenvalues --    0.17505   0.17990   0.18515   0.18857   0.20056
 Alpha virt. eigenvalues --    0.20516   0.21085   0.22821   0.24284   0.25420
 Alpha virt. eigenvalues --    0.27309   0.28183   0.33747   0.37403   0.42487
 Alpha virt. eigenvalues --    0.43650   0.45342   0.50667   0.53309   0.56209
 Alpha virt. eigenvalues --    0.56938   0.59577   0.59686   0.65005   0.68792
 Alpha virt. eigenvalues --    0.72165   0.74160   0.76277   0.78919   0.80062
 Alpha virt. eigenvalues --    0.80212   0.83797   0.85477   0.85876   0.86841
 Alpha virt. eigenvalues --    0.93100   0.96582   0.97856   1.05814   1.08233
 Alpha virt. eigenvalues --    1.15924   1.16287   1.23004   1.29773   1.39199
 Alpha virt. eigenvalues --    1.39827   1.49702   1.53884   1.57377   1.62149
 Alpha virt. eigenvalues --    1.67046   1.71791   1.75686   1.76672   1.77774
 Alpha virt. eigenvalues --    1.85119   1.92176   1.93319   1.96620   1.98173
 Alpha virt. eigenvalues --    2.02231   2.07105   2.14197   2.24334   2.30375
 Alpha virt. eigenvalues --    2.37262   2.42514   2.51716   2.51761   2.58284
 Alpha virt. eigenvalues --    2.63214   2.64152   2.65942   2.69889   2.72081
 Alpha virt. eigenvalues --    2.72987   2.75323   2.82409   2.85322   2.93405
 Alpha virt. eigenvalues --    2.97466   3.05379   3.14561   3.29348   3.37718
 Alpha virt. eigenvalues --    3.46908   3.56672   3.64690   3.76173   3.94599
 Alpha virt. eigenvalues --    4.06228   4.07380   4.19209   4.56919   4.92476
 Alpha virt. eigenvalues --    5.41843  23.73599  23.98268  24.16292  35.52608
 Alpha virt. eigenvalues --   35.55374
     Molecular Orbital Coefficients:
                           1         2         3         4         5
                           O         O         O         O         O
     Eigenvalues --   -14.39407 -14.34119 -10.21526 -10.19783 -10.17329
   1 1   N  1S          0.00119   0.55738   0.00000  -0.00007   0.00000
   2        2S          0.00101   0.46585   0.00002  -0.00004   0.00003
   3        2PX        -0.00028  -0.00130   0.00002   0.00010   0.00006
   4        2PY         0.00001   0.00107   0.00002   0.00046   0.00005
   5        2PZ         0.00001  -0.00048  -0.00001  -0.00025  -0.00003
   6        3S          0.00015   0.01565  -0.00015   0.00076   0.00002
   7        3PX         0.00039   0.00038  -0.00009  -0.00019  -0.00027
   8        3PY         0.00002   0.00094  -0.00018  -0.00125  -0.00039
   9        3PZ        -0.00003  -0.00051   0.00010   0.00067   0.00022
  10        4S          0.00173  -0.01608  -0.00057  -0.00319  -0.00285
  11        4PX        -0.00116   0.00188   0.00062  -0.00056   0.00035
  12        4PY         0.00053  -0.00261   0.00043  -0.00079  -0.00073
  13        4PZ        -0.00021   0.00125  -0.00026   0.00045   0.00036
  14        5S         -0.00928   0.02301  -0.01246   0.01853   0.00026
  15        5PX         0.00386  -0.00587   0.00425  -0.00397   0.00067
  16        5PY        -0.00075   0.00187  -0.00176   0.00308  -0.00024
  17        5PZ         0.00016  -0.00063   0.00067  -0.00138   0.00009
  18        6D 0        0.00023  -0.00014  -0.00001   0.00036   0.00001
  19        6D+1        0.00002  -0.00016   0.00005   0.00021   0.00011
  20        6D-1       -0.00001  -0.00031   0.00000   0.00083   0.00012
  21        6D+2       -0.00040  -0.00015   0.00001   0.00048   0.00012
  22        6D-2        0.00006   0.00028  -0.00009  -0.00033  -0.00021
  23 2   N  1S          0.55737  -0.00120  -0.00006   0.00000  -0.00000
  24        2S          0.46566  -0.00099  -0.00006   0.00003   0.00002
  25        2PX         0.00029   0.00030  -0.00007  -0.00004  -0.00007
  26        2PY        -0.00009  -0.00004   0.00041   0.00001   0.00002
  27        2PZ         0.00003   0.00000  -0.00021  -0.00000  -0.00001
  28        3S          0.01625  -0.00003   0.00073  -0.00025  -0.00005
  29        3PX        -0.00055  -0.00056   0.00003   0.00021   0.00030
  30        3PY         0.00020   0.00006  -0.00096  -0.00012  -0.00026
  31        3PZ        -0.00007   0.00000   0.00050   0.00005   0.00012
  32        4S         -0.01244   0.00297  -0.00136   0.00101  -0.00140
  33        4PX        -0.00304   0.00254   0.00125   0.00067   0.00063
  34        4PY        -0.00464  -0.00035  -0.00031   0.00192  -0.00034
  35        4PZ         0.00261   0.00003   0.00009  -0.00104   0.00014
  36        5S          0.01100  -0.01681   0.01931  -0.00891   0.00208
  37        5PX         0.00436  -0.00587   0.00441  -0.00397  -0.00034
  38        5PY         0.00114   0.00002   0.00278  -0.00014   0.00068
  39        5PZ        -0.00085   0.00034  -0.00172   0.00031  -0.00034
  40        6D 0       -0.00041   0.00016   0.00029  -0.00002   0.00001
  41        6D+1       -0.00025  -0.00001  -0.00012  -0.00005  -0.00016
  42        6D-1       -0.00075  -0.00014   0.00067   0.00002   0.00003
  43        6D+2       -0.00026  -0.00045   0.00048   0.00007   0.00007
  44        6D-2        0.00038   0.00010   0.00027   0.00009   0.00029
  45 3   C  1S         -0.00001   0.00000  -0.00010   0.56286  -0.00553
  46        2S          0.00005   0.00007  -0.00002   0.46321  -0.00439
  47        2PX         0.00008  -0.00008  -0.00001   0.00003  -0.00055
  48        2PY        -0.00003  -0.00046   0.00010  -0.00028   0.00043
  49        2PZ         0.00001   0.00025  -0.00005   0.00015  -0.00019
  50        3S         -0.00064   0.00032  -0.00049   0.01921  -0.00037
  51        3PX        -0.00005   0.00009   0.00043  -0.00014   0.00202
  52        3PY         0.00027   0.00151  -0.00057   0.00017  -0.00157
  53        3PZ        -0.00014  -0.00079   0.00027  -0.00008   0.00070
  54        4S          0.00466   0.00668   0.00093  -0.01045   0.00529
  55        4PX        -0.00327  -0.00471  -0.00117   0.00402  -0.00456
  56        4PY         0.00031  -0.00243   0.00049  -0.00027   0.00005
  57        4PZ         0.00003   0.00155  -0.00019  -0.00010   0.00024
  58        5S          0.00628  -0.01594  -0.00112  -0.01699  -0.00939
  59        5PX        -0.00149   0.00361   0.00011   0.00248   0.00131
  60        5PY         0.00182  -0.00122   0.00119  -0.00170  -0.00049
  61        5PZ        -0.00086   0.00042  -0.00063   0.00074   0.00018
  62        6D 0       -0.00020  -0.00013  -0.00009  -0.00144   0.00061
  63        6D+1       -0.00009   0.00038  -0.00028  -0.00019  -0.00058
  64        6D-1       -0.00004   0.00061   0.00003  -0.00099   0.00014
  65        6D+2        0.00031   0.00095   0.00027   0.00113  -0.00068
  66        6D-2        0.00009  -0.00083   0.00048  -0.00011   0.00131
  67 4   C  1S         -0.00001  -0.00001   0.00388   0.00543   0.56284
  68        2S          0.00004   0.00004   0.00345   0.00463   0.46310
  69        2PX        -0.00011   0.00012  -0.00066   0.00058  -0.00000
  70        2PY        -0.00003  -0.00006  -0.00043  -0.00044   0.00011
  71        2PZ         0.00002   0.00003   0.00027   0.00020  -0.00006
  72        3S         -0.00006   0.00002  -0.00019   0.00024   0.01979
  73        3PX         0.00082  -0.00077   0.00299  -0.00232  -0.00049
  74        3PY         0.00064   0.00077   0.00198   0.00165  -0.00061
  75        3PZ        -0.00038  -0.00036  -0.00121  -0.00073   0.00035
  76        4S         -0.00825  -0.00529   0.00021   0.00191  -0.01489
  77        4PX        -0.00008   0.00088  -0.00158   0.00113   0.00029
  78        4PY         0.00481   0.00424  -0.00106  -0.00189   0.00652
  79        4PZ        -0.00251  -0.00227   0.00065   0.00092  -0.00343
  80        5S         -0.00105   0.00512   0.01325   0.01828   0.01976
  81        5PX        -0.00333   0.00376  -0.00323   0.00240  -0.00071
  82        5PY         0.00096  -0.00076  -0.00242  -0.00354  -0.00449
  83        5PZ        -0.00031   0.00018   0.00146   0.00171   0.00239
  84        6D 0        0.00006   0.00009   0.00060   0.00057  -0.00116
  85        6D+1        0.00017  -0.00020   0.00100  -0.00071  -0.00026
  86        6D-1       -0.00016  -0.00007   0.00053   0.00046  -0.00193
  87        6D+2       -0.00036  -0.00019  -0.00056  -0.00012  -0.00062
  88        6D-2       -0.00028   0.00041  -0.00170   0.00151   0.00023
  89 5   C  1S          0.00000  -0.00001   0.56289   0.00004  -0.00402
  90        2S          0.00006   0.00004   0.46318   0.00009  -0.00308
  91        2PX         0.00003  -0.00002  -0.00007   0.00005   0.00066
  92        2PY        -0.00043  -0.00004  -0.00069   0.00007   0.00038
  93        2PZ         0.00022   0.00002   0.00037  -0.00004  -0.00024
  94        3S          0.00032  -0.00037   0.01936  -0.00042  -0.00053
  95        3PX         0.00022  -0.00020   0.00063  -0.00067  -0.00277
  96        3PY         0.00124   0.00031   0.00103  -0.00036  -0.00148
  97        3PZ        -0.00066  -0.00015  -0.00057   0.00023   0.00094
  98        4S          0.00853   0.00444  -0.01020  -0.00171   0.00412
  99        4PX         0.00637   0.00129  -0.00408  -0.00061   0.00397
 100        4PY        -0.00246  -0.00023   0.00011   0.00081  -0.00014
 101        4PZ         0.00091   0.00004   0.00019  -0.00039  -0.00016
 102        5S         -0.00759   0.00680  -0.01641  -0.00663  -0.01242
 103        5PX        -0.00150   0.00177  -0.00253  -0.00151  -0.00198
 104        5PY        -0.00136   0.00139  -0.00131   0.00097  -0.00059
 105        5PZ         0.00080  -0.00083   0.00083  -0.00042   0.00043
 106        6D 0       -0.00003  -0.00013  -0.00163  -0.00007   0.00067
 107        6D+1       -0.00041  -0.00004  -0.00037   0.00022   0.00079
 108        6D-1        0.00050   0.00001  -0.00084   0.00005   0.00026
 109        6D+2        0.00084   0.00024   0.00170   0.00013  -0.00099
 110        6D-2        0.00070   0.00002   0.00014  -0.00044  -0.00124
 111 6   H  1S         -0.00017  -0.00026  -0.00013   0.00017  -0.00009
 112        2S          0.00045   0.00022  -0.00005  -0.00483   0.00028
 113        3S          0.00069   0.00183   0.00068   0.00217   0.00183
 114        4PX         0.00010   0.00024   0.00019   0.00245   0.00020
 115        4PY        -0.00005   0.00030  -0.00002   0.00051  -0.00017
 116        4PZ         0.00002  -0.00017   0.00000  -0.00041   0.00007
 117 7   H  1S         -0.00000   0.00004  -0.00011  -0.00008   0.00018
 118        2S         -0.00122  -0.00138  -0.00043  -0.00017  -0.00530
 119        3S         -0.00121  -0.00136   0.00082   0.00067   0.00090
 120        4PX         0.00004  -0.00007   0.00026  -0.00021   0.00008
 121        4PY         0.00026   0.00028   0.00032   0.00026   0.00231
 122        4PZ        -0.00014  -0.00014  -0.00018  -0.00012  -0.00121
 123 8   H  1S         -0.00023  -0.00009   0.00010  -0.00009  -0.00007
 124        2S          0.00070  -0.00020  -0.00500  -0.00036   0.00004
 125        3S          0.00249  -0.00025   0.00220  -0.00008   0.00172
 126        4PX        -0.00011  -0.00015  -0.00253  -0.00022  -0.00027
 127        4PY         0.00025   0.00004   0.00074  -0.00001  -0.00015
 128        4PZ        -0.00013  -0.00001  -0.00024   0.00002   0.00009
 129 9   H  1S          0.00014  -0.00013   0.00002  -0.00009  -0.00008
 130        2S         -0.00417  -0.00009  -0.00003   0.00105   0.00017
 131        3S          0.00202   0.00013   0.00050  -0.00008   0.00044
 132        4PX        -0.00113  -0.00027  -0.00009   0.00011  -0.00006
 133        4PY        -0.00144  -0.00003   0.00004   0.00007   0.00006
 134        4PZ         0.00082   0.00003  -0.00001  -0.00004  -0.00003
                           6         7         8         9        10
                           O         O         O         O         O
     Eigenvalues --    -1.05685  -0.82822  -0.78817  -0.61915  -0.60577
   1 1   N  1S         -0.06794   0.06275   0.04038  -0.02314   0.00706
   2        2S         -0.10638   0.09897   0.06397  -0.03686   0.01132
   3        2PX        -0.04699  -0.02986   0.03744  -0.00590   0.10984
   4        2PY         0.03166  -0.05303   0.01544   0.02663   0.04993
   5        2PZ        -0.01378   0.02950  -0.01029  -0.01359  -0.03261
   6        3S          0.29077  -0.27873  -0.18405   0.10664  -0.03646
   7        3PX        -0.07652  -0.04131   0.06019  -0.01055   0.16474
   8        3PY         0.04900  -0.07947   0.02440   0.04078   0.07242
   9        3PZ        -0.02109   0.04401  -0.01632  -0.02072  -0.04762
  10        4S          0.17284  -0.20529  -0.13285   0.09531  -0.01304
  11        4PX        -0.01742  -0.01078   0.01836  -0.00531   0.06564
  12        4PY         0.01702  -0.03035   0.00613   0.01982   0.03511
  13        4PZ        -0.00787   0.01651  -0.00429  -0.01006  -0.02225
  14        5S         -0.04931   0.15003   0.00959  -0.04313   0.00855
  15        5PX         0.00462  -0.03070  -0.00951   0.00714  -0.01079
  16        5PY        -0.00936   0.02558  -0.00085  -0.01123   0.00107
  17        5PZ         0.00462  -0.01157   0.00101   0.00546   0.00007
  18        6D 0       -0.00957   0.00063   0.00376  -0.00142   0.00490
  19        6D+1        0.00073   0.00207   0.00265   0.00420  -0.00344
  20        6D-1       -0.00565   0.00890  -0.00318  -0.00203  -0.00591
  21        6D+2        0.00817   0.01063  -0.01145  -0.00154  -0.01547
  22        6D-2       -0.00453  -0.00449  -0.00321  -0.00823   0.00892
  23 2   N  1S         -0.08530  -0.06539   0.02752   0.02294  -0.00373
  24        2S         -0.13393  -0.10344   0.04374   0.03651  -0.00588
  25        2PX         0.03627  -0.07326  -0.04194   0.05940  -0.12928
  26        2PY         0.01571   0.00956   0.06929   0.11920   0.04498
  27        2PZ        -0.01035  -0.00064  -0.03376  -0.06589  -0.01585
  28        3S          0.36851   0.29361  -0.12795  -0.10462   0.01449
  29        3PX         0.06051  -0.10835  -0.06583   0.08748  -0.19232
  30        3PY         0.02447   0.01339   0.10439   0.17400   0.06605
  31        3PZ        -0.01636  -0.00056  -0.05070  -0.09623  -0.02313
  32        4S          0.23861   0.22565  -0.09271  -0.09971  -0.00124
  33        4PX         0.02338  -0.04143  -0.02575   0.05122  -0.12635
  34        4PY         0.02727   0.00388   0.04482   0.10836   0.03011
  35        4PZ        -0.01564   0.00044  -0.02192  -0.05974  -0.00825
  36        5S         -0.03424  -0.11426  -0.04720   0.00007  -0.01006
  37        5PX        -0.00953  -0.03888   0.00825   0.02447   0.01116
  38        5PY        -0.01606  -0.02240   0.00062   0.01659  -0.00015
  39        5PZ         0.00896   0.01402  -0.00082  -0.01015  -0.00058
  40        6D 0       -0.00995  -0.00036   0.00351  -0.00086   0.00248
  41        6D+1       -0.00212   0.00226   0.00058   0.00342   0.00065
  42        6D-1       -0.00756  -0.00738  -0.00422   0.00139  -0.00221
  43        6D+2        0.00697  -0.01017  -0.01191   0.00242  -0.00742
  44        6D-2        0.00086  -0.00367   0.00069  -0.00687  -0.00005
  45 3   C  1S         -0.03391   0.06480  -0.03255   0.04441  -0.05358
  46        2S         -0.05183   0.09984  -0.05052   0.06942  -0.08358
  47        2PX        -0.02622   0.01768  -0.02869  -0.02157   0.06214
  48        2PY        -0.02312   0.04088   0.03793  -0.06944  -0.04448
  49        2PZ         0.01364  -0.02242  -0.01813   0.03759   0.01958
  50        3S          0.13149  -0.26322   0.13408  -0.18866   0.22927
  51        3PX        -0.03742   0.02603  -0.04413  -0.02807   0.08593
  52        3PY        -0.03333   0.05723   0.05553  -0.09618  -0.06299
  53        3PZ         0.01965  -0.03147  -0.02642   0.05195   0.02786
  54        4S          0.01951  -0.12902   0.07704  -0.14349   0.17312
  55        4PX         0.01719   0.00795  -0.01266  -0.00446   0.02430
  56        4PY        -0.00038   0.00786   0.00866  -0.03359  -0.01997
  57        4PZ        -0.00082  -0.00458  -0.00378   0.01783   0.00900
  58        5S          0.09251  -0.13407   0.03558   0.04563  -0.09871
  59        5PX        -0.02125   0.02654  -0.00143  -0.01902   0.03558
  60        5PY         0.00076  -0.00948   0.00201   0.00325  -0.00955
  61        5PZ         0.00086   0.00339  -0.00097  -0.00057   0.00289
  62        6D 0       -0.00605   0.00581  -0.00630   0.00140  -0.00191
  63        6D+1       -0.00509   0.00393   0.00464  -0.00578  -0.00122
  64        6D-1       -0.00760   0.01168   0.00078   0.00023  -0.00561
  65        6D+2        0.00112   0.00523   0.01045  -0.00048  -0.00417
  66        6D-2        0.00793  -0.00624  -0.01122   0.01137   0.00208
  67 4   C  1S         -0.02071   0.01373  -0.08003   0.04436   0.05144
  68        2S         -0.03153   0.02115  -0.12355   0.06929   0.08045
  69        2PX        -0.00212  -0.02673  -0.01633  -0.06864   0.03237
  70        2PY        -0.01974   0.00951  -0.03224  -0.02619  -0.01632
  71        2PZ         0.01045  -0.00339   0.01782   0.01776   0.00662
  72        3S          0.07624  -0.05422   0.32088  -0.18626  -0.21393
  73        3PX        -0.00326  -0.04157  -0.02302  -0.10064   0.04471
  74        3PY        -0.02745   0.01278  -0.04303  -0.03262  -0.02278
  75        3PZ         0.01455  -0.00422   0.02386   0.02302   0.00927
  76        4S          0.08207  -0.02821   0.16609  -0.11986  -0.17799
  77        4PX        -0.00528  -0.00446  -0.00337  -0.03581   0.02041
  78        4PY        -0.03632   0.00507  -0.01120  -0.02513   0.00556
  79        4PZ         0.01930  -0.00239   0.00605   0.01526  -0.00411
  80        5S         -0.14530   0.07873  -0.08915   0.00259   0.18915
  81        5PX         0.00808   0.02580   0.00224  -0.00699  -0.01042
  82        5PY         0.01826  -0.01727   0.02542  -0.00612  -0.03071
  83        5PZ        -0.01003   0.00750  -0.01342   0.00361   0.01667
  84        6D 0       -0.00354   0.00185  -0.00791   0.00284   0.00328
  85        6D+1       -0.00074  -0.00480  -0.00301  -0.00522   0.00239
  86        6D-1       -0.00547   0.00209  -0.00893   0.00109   0.00502
  87        6D+2       -0.00137   0.00106   0.00185  -0.00187   0.00073
  88        6D-2        0.00056   0.00952   0.00344   0.01078  -0.00371
  89 5   C  1S         -0.03710  -0.04210  -0.06858  -0.04572  -0.01579
  90        2S         -0.05671  -0.06490  -0.10630  -0.07157  -0.02461
  91        2PX         0.02602  -0.00604   0.04077   0.00216  -0.06031
  92        2PY        -0.02855  -0.04277   0.01736  -0.01828  -0.06988
  93        2PZ         0.01339   0.02273  -0.01149   0.00943   0.04012
  94        3S          0.14388   0.17200   0.28381   0.19711   0.06836
  95        3PX         0.03432  -0.00923   0.05858   0.00118  -0.08204
  96        3PY        -0.04078  -0.06375   0.02478  -0.02720  -0.10206
  97        3PZ         0.01929   0.03389  -0.01643   0.01415   0.05823
  98        4S          0.00578   0.08966   0.14762   0.10655   0.06248
  99        4PX        -0.02857   0.00153   0.01429  -0.01279  -0.01584
 100        4PY         0.00200  -0.01047   0.00680  -0.00202  -0.03057
 101        4PZ         0.00065   0.00538  -0.00439   0.00182   0.01693
 102        5S          0.10393   0.04243   0.06556  -0.04083  -0.08487
 103        5PX         0.02172   0.00956   0.00561  -0.02047  -0.02256
 104        5PY         0.00693   0.00561  -0.00493  -0.00462  -0.01899
 105        5PZ        -0.00491  -0.00350   0.00225   0.00363   0.01126
 106        6D 0       -0.00671  -0.00211  -0.00888  -0.00548   0.00017
 107        6D+1        0.00353   0.00227  -0.00433   0.00535   0.00306
 108        6D-1       -0.00854  -0.01074  -0.00433  -0.00234  -0.00623
 109        6D+2       -0.00141  -0.01186   0.01019   0.00456  -0.00970
 110        6D-2       -0.00839  -0.00403   0.00509  -0.01193  -0.00507
 111 6   H  1S          0.00702  -0.03253   0.01437  -0.06381   0.08163
 112        2S          0.00213  -0.03607   0.01619  -0.08248   0.10355
 113        3S         -0.00943   0.00144  -0.00071  -0.00610   0.01525
 114        4PX        -0.00016   0.00609  -0.00256   0.01254  -0.01262
 115        4PY        -0.00112   0.00252   0.00217  -0.00139  -0.00382
 116        4PZ         0.00059  -0.00168  -0.00098  -0.00002   0.00274
 117 7   H  1S          0.00281  -0.00555   0.04123  -0.06175  -0.05963
 118        2S          0.00721  -0.00615   0.04522  -0.07545  -0.07657
 119        3S          0.01215  -0.00214  -0.00220  -0.00009  -0.01583
 120        4PX         0.00002  -0.00176  -0.00115  -0.00293   0.00186
 121        4PY        -0.00032   0.00088  -0.00647   0.00977   0.00843
 122        4PZ         0.00017  -0.00036   0.00345  -0.00494  -0.00452
 123 8   H  1S          0.00877   0.02743   0.03462   0.03995   0.03963
 124        2S          0.00240   0.03198   0.03828   0.04683   0.05426
 125        3S         -0.01336  -0.00234  -0.00249   0.00225   0.01257
 126        4PX         0.00043   0.00603   0.00572   0.00415   0.00616
 127        4PY        -0.00126  -0.00316   0.00042  -0.00214  -0.00538
 128        4PZ         0.00063   0.00129  -0.00056   0.00087   0.00245
 129 9   H  1S          0.04055   0.07270  -0.04603  -0.12547   0.02814
 130        2S          0.04611   0.07106  -0.04589  -0.13984   0.02644
 131        3S         -0.01261  -0.01620   0.01155   0.00751   0.00541
 132        4PX         0.00705   0.00478  -0.00766  -0.01021  -0.00348
 133        4PY         0.00819   0.01229  -0.00487  -0.01185   0.00634
 134        4PZ        -0.00471  -0.00671   0.00300   0.00681  -0.00311
                          11        12        13        14        15
                           O         O         O         O         O
     Eigenvalues --    -0.55275  -0.45582  -0.44980  -0.43696  -0.40993
   1 1   N  1S         -0.03832   0.00449   0.00003  -0.01643  -0.00225
   2        2S         -0.06122   0.00721   0.00004  -0.02633  -0.00359
   3        2PX         0.04325  -0.10267   0.00655   0.06419  -0.02045
   4        2PY        -0.02526  -0.06279   0.06069   0.02650   0.04749
   5        2PZ         0.01066   0.03853   0.11649  -0.01753  -0.02365
   6        3S          0.17814  -0.01820  -0.00011   0.07558   0.01162
   7        3PX         0.06152  -0.15402   0.01002   0.09176  -0.03313
   8        3PY        -0.03816  -0.09098   0.09269   0.03841   0.07124
   9        3PZ         0.01633   0.05611   0.17788  -0.02532  -0.03533
  10        4S          0.19599  -0.01373  -0.00012   0.10615   0.03767
  11        4PX         0.02570  -0.07857   0.00727   0.05477  -0.04011
  12        4PY        -0.01876  -0.04673   0.06638   0.02893   0.04999
  13        4PZ         0.00829   0.02868   0.12724  -0.01823  -0.02379
  14        5S          0.05331   0.01350   0.00001   0.02568   0.01310
  15        5PX        -0.01437   0.00076   0.00005  -0.00331   0.01807
  16        5PY         0.00972   0.00394   0.00041   0.00169   0.01148
  17        5PZ        -0.00424  -0.00210   0.00076  -0.00068  -0.00707
  18        6D 0        0.00255  -0.00510  -0.01012   0.00219   0.00076
  19        6D+1       -0.00695   0.00236  -0.01663   0.00052   0.00483
  20        6D-1        0.00206   0.00950   0.00997  -0.00088  -0.00578
  21        6D+2        0.00043   0.02117  -0.00771  -0.00509  -0.01055
  22        6D-2        0.01381  -0.00723  -0.00778  -0.00006  -0.00820
  23 2   N  1S          0.01904  -0.00834  -0.00000  -0.01104   0.00725
  24        2S          0.03051  -0.01367  -0.00000  -0.01785   0.01180
  25        2PX        -0.01419   0.11361   0.00966  -0.05538  -0.00916
  26        2PY        -0.08923   0.06556   0.08221   0.08720  -0.00324
  27        2PZ         0.04753  -0.04156   0.15687  -0.04216   0.00221
  28        3S         -0.08872   0.04930   0.00003   0.05455  -0.03747
  29        3PX        -0.02155   0.16863   0.01472  -0.08136  -0.01410
  30        3PY        -0.13049   0.09142   0.12541   0.12631  -0.00578
  31        3PZ         0.06956  -0.05863   0.23933  -0.06099   0.00382
  32        4S         -0.11294   0.04594   0.00002   0.05888  -0.05161
  33        4PX        -0.03664   0.10822   0.01201  -0.06840  -0.03421
  34        4PY        -0.10362   0.05233   0.10302   0.09220   0.01550
  35        4PZ         0.05639  -0.03445   0.19676  -0.04396  -0.00612
  36        5S         -0.01641  -0.03753  -0.00002   0.02204  -0.02318
  37        5PX        -0.01550   0.03242   0.00046   0.00871   0.01624
  38        5PY        -0.00874   0.01277   0.00353   0.02340  -0.00772
  39        5PZ         0.00550  -0.00864   0.00669  -0.01275   0.00307
  40        6D 0       -0.00034  -0.00233  -0.00765   0.00158  -0.00290
  41        6D+1        0.00176   0.00837   0.01053   0.00137   0.00031
  42        6D-1        0.00408   0.00565   0.00493   0.00012   0.00380
  43        6D+2        0.00573   0.00949  -0.00311  -0.00289   0.01004
  44        6D-2       -0.00383  -0.01720   0.00602  -0.00194  -0.00208
  45 3   C  1S          0.01545  -0.00792  -0.00004   0.02394  -0.00862
  46        2S          0.02454  -0.01250  -0.00006   0.03833  -0.01365
  47        2PX         0.04492   0.11066   0.00445   0.02132  -0.15642
  48        2PY        -0.05271   0.08479   0.03744  -0.06992   0.02566
  49        2PZ         0.02491  -0.05112   0.07090   0.03538  -0.00416
  50        3S         -0.06665   0.02638   0.00014  -0.10740   0.04589
  51        3PX         0.06473   0.15438   0.00691   0.03397  -0.21604
  52        3PY        -0.07285   0.11993   0.05843  -0.09599   0.03589
  53        3PZ         0.03427  -0.07221   0.11076   0.04831  -0.00599
  54        4S         -0.04489   0.04592   0.00018  -0.12590  -0.00303
  55        4PX         0.02901   0.08919   0.00421   0.02305  -0.12970
  56        4PY        -0.02380   0.06928   0.03571  -0.04394   0.03012
  57        4PZ         0.01073  -0.04173   0.06772   0.02170  -0.00808
  58        5S         -0.04077   0.00278   0.00001  -0.03209  -0.01460
  59        5PX         0.00477   0.01346   0.00078   0.01044  -0.00651
  60        5PY        -0.01925   0.01311   0.00670  -0.00495   0.01997
  61        5PZ         0.00978  -0.00770   0.01273   0.00198  -0.01006
  62        6D 0        0.00507  -0.00089   0.00951   0.00572   0.00289
  63        6D+1        0.00023  -0.00165  -0.01360  -0.00009   0.00191
  64        6D-1       -0.00321   0.00525  -0.00603  -0.00965  -0.00665
  65        6D+2       -0.01304   0.00913   0.00389  -0.02291  -0.01457
  66        6D-2        0.00184   0.00234  -0.00780   0.00328  -0.00181
  67 4   C  1S         -0.00789   0.01481   0.00005  -0.01454  -0.00171
  68        2S         -0.01215   0.02361   0.00008  -0.02302  -0.00264
  69        2PX        -0.07176   0.05629   0.00353  -0.00237   0.15520
  70        2PY         0.06278   0.06145   0.02973   0.15108   0.01144
  71        2PZ        -0.02857  -0.03564   0.05678  -0.07880  -0.01518
  72        3S          0.03259  -0.06773  -0.00023   0.05830   0.00549
  73        3PX        -0.10076   0.07904   0.00538  -0.00693   0.22348
  74        3PY         0.08474   0.08506   0.04548   0.20410   0.01459
  75        3PZ        -0.03833  -0.04943   0.08684  -0.10623  -0.02087
  76        4S          0.00892  -0.05194  -0.00025   0.10594   0.03978
  77        4PX        -0.04203   0.04419   0.00343   0.00263   0.10660
  78        4PY         0.05757   0.04617   0.02911   0.11735  -0.00409
  79        4PZ        -0.02761  -0.02693   0.05563  -0.06146  -0.00419
  80        5S          0.09765  -0.02857  -0.00016   0.07927  -0.02870
  81        5PX         0.01378  -0.01431  -0.00084  -0.00982  -0.00937
  82        5PY        -0.00880   0.01288  -0.00735   0.00545   0.00418
  83        5PZ         0.00378  -0.00584  -0.01410  -0.00228  -0.00163
  84        6D 0       -0.00001  -0.00088   0.00986   0.00366   0.00002
  85        6D+1       -0.00246   0.00093  -0.00147  -0.00206   0.01307
  86        6D-1        0.00506   0.00636  -0.00769  -0.01085  -0.00255
  87        6D+2        0.00767   0.00991   0.00552  -0.02054  -0.00710
  88        6D-2        0.00411  -0.00268  -0.00159   0.00632  -0.02425
  89 5   C  1S         -0.03859  -0.00753  -0.00003   0.01877   0.01416
  90        2S         -0.06058  -0.01179  -0.00005   0.03018   0.02264
  91        2PX        -0.10471  -0.08208   0.00476   0.02079  -0.15105
  92        2PY         0.09639  -0.03839   0.04400  -0.08753  -0.04076
  93        2PZ        -0.04418   0.02467   0.08427   0.04462   0.03026
  94        3S          0.16208   0.03277   0.00013  -0.08056  -0.07207
  95        3PX        -0.14115  -0.11192   0.00745   0.02579  -0.20725
  96        3PY         0.13161  -0.05760   0.06838  -0.12365  -0.05410
  97        3PZ        -0.06042   0.03633   0.13096   0.06325   0.04057
  98        4S          0.19899   0.06100   0.00023  -0.12298  -0.06473
  99        4PX        -0.03751  -0.06255   0.00416   0.01696  -0.14150
 100        4PY         0.04364  -0.02095   0.03817  -0.04635  -0.03406
 101        4PZ        -0.02058   0.01443   0.07305   0.02330   0.02620
 102        5S         -0.05066   0.04834   0.00017  -0.06155   0.04064
 103        5PX        -0.02327   0.00669   0.00092  -0.01204   0.00085
 104        5PY         0.00574  -0.01963   0.00786  -0.01456  -0.01405
 105        5PZ        -0.00162   0.00983   0.01506   0.00834   0.00730
 106        6D 0        0.00073  -0.00091   0.01001   0.00674  -0.00296
 107        6D+1       -0.00700   0.00879   0.01413   0.00384   0.00295
 108        6D-1        0.00212   0.00005  -0.00958  -0.01323   0.00371
 109        6D+2        0.00360  -0.00090   0.00744  -0.03063   0.00930
 110        6D-2        0.01320  -0.01691   0.00640  -0.00327  -0.00706
 111 6   H  1S          0.00453   0.11231   0.00030  -0.02855  -0.11825
 112        2S          0.00469   0.15503   0.00042  -0.03904  -0.16949
 113        3S         -0.00207   0.03905   0.00011  -0.01717  -0.06620
 114        4PX        -0.00134  -0.01362   0.00028   0.00173   0.01067
 115        4PY        -0.00326   0.00108   0.00276  -0.00424   0.00402
 116        4PZ         0.00179   0.00022   0.00527   0.00212  -0.00273
 117 7   H  1S          0.05159   0.03910  -0.00003   0.15963   0.02268
 118        2S          0.06503   0.05708  -0.00003   0.22313   0.03400
 119        3S         -0.00149   0.01212  -0.00001   0.07117   0.01918
 120        4PX        -0.00399   0.00278   0.00024  -0.00141   0.01047
 121        4PY        -0.00799  -0.00656   0.00207  -0.01444  -0.00218
 122        4PZ         0.00441   0.00326   0.00397   0.00764   0.00052
 123 8   H  1S          0.12635   0.06481   0.00023  -0.06421   0.10155
 124        2S          0.17220   0.08812   0.00032  -0.08756   0.14775
 125        3S          0.03144   0.02488   0.00008  -0.03330   0.05262
 126        4PX         0.02129   0.00618   0.00041  -0.00474   0.00859
 127        4PY        -0.00114  -0.00522   0.00343  -0.00428  -0.00663
 128        4PZ        -0.00067   0.00234   0.00659   0.00253   0.00296
 129 9   H  1S          0.04641  -0.10419  -0.00024  -0.02995  -0.00349
 130        2S          0.04078  -0.15610  -0.00039  -0.04551  -0.00164
 131        3S         -0.00423  -0.01996  -0.00008  -0.00375   0.00609
 132        4PX         0.00461  -0.00379   0.00065  -0.00677  -0.00011
 133        4PY         0.00189  -0.00970   0.00571   0.00137   0.00050
 134        4PZ        -0.00126   0.00527   0.01098  -0.00030  -0.00026
                          16        17        18        19        20
                           O         O         O         V         V
     Eigenvalues --    -0.30999  -0.27417  -0.26282  -0.00371   0.00718
   1 1   N  1S         -0.04676   0.00001   0.00000   0.00001   0.00900
   2        2S         -0.07509   0.00002   0.00000   0.00001   0.01510
   3        2PX         0.10055   0.00483  -0.00829   0.00897  -0.01303
   4        2PY        -0.18956   0.04276  -0.07339   0.07912   0.00771
   5        2PZ         0.09321   0.08166  -0.14032   0.15130  -0.00326
   6        3S          0.21028  -0.00005  -0.00001  -0.00003  -0.05690
   7        3PX         0.14702   0.00719  -0.01251   0.01315  -0.02283
   8        3PY        -0.27306   0.06373  -0.11071   0.11597   0.01027
   9        3PZ         0.13414   0.12173  -0.21168   0.22176  -0.00402
  10        4S          0.36400  -0.00006  -0.00002  -0.00003  -0.07970
  11        4PX         0.10227   0.00717  -0.01210   0.01898   0.00118
  12        4PY        -0.21617   0.06361  -0.10706   0.16755  -0.00734
  13        4PZ         0.10703   0.12149  -0.20470   0.32038   0.00378
  14        5S          0.26980   0.00021   0.00006   0.00010  -1.88729
  15        5PX        -0.00248   0.00118  -0.00245   0.02418  -0.05398
  16        5PY        -0.02276   0.01120  -0.02153   0.21411  -0.21176
  17        5PZ         0.01205   0.02133  -0.04116   0.40943   0.11392
  18        6D 0        0.00878  -0.01454   0.00527  -0.00102   0.00244
  19        6D+1       -0.00378   0.01151   0.01070   0.00381   0.00358
  20        6D-1        0.01088   0.01030  -0.00542   0.00038   0.00025
  21        6D+2        0.00120  -0.00697   0.00429  -0.00013  -0.00475
  22        6D-2        0.00944   0.00715   0.00509   0.00206  -0.00579
  23 2   N  1S          0.01586  -0.00001  -0.00000  -0.00002   0.01913
  24        2S          0.02564  -0.00002  -0.00001  -0.00003   0.03180
  25        2PX        -0.06278  -0.00916  -0.00281  -0.00863   0.02628
  26        2PY         0.03657  -0.08084  -0.02475  -0.07602   0.02990
  27        2PZ        -0.01544  -0.15450  -0.04731  -0.14530  -0.01722
  28        3S         -0.07751   0.00006   0.00002   0.00008  -0.11212
  29        3PX        -0.10343  -0.01384  -0.00426  -0.01273   0.04247
  30        3PY         0.05134  -0.12214  -0.03750  -0.11209   0.04056
  31        3PZ        -0.02078  -0.23343  -0.07170  -0.21424  -0.02376
  32        4S         -0.15110   0.00008   0.00001   0.00016  -0.20743
  33        4PX        -0.08830  -0.01405  -0.00465  -0.01898   0.06515
  34        4PY        -0.01671  -0.12382  -0.04102  -0.16713   0.08524
  35        4PZ         0.01393  -0.23662  -0.07839  -0.31934  -0.04852
  36        5S         -0.19194  -0.00021  -0.00013  -0.00003  -1.04785
  37        5PX        -0.02005  -0.00348  -0.00174  -0.02612   0.78279
  38        5PY        -0.00869  -0.03000  -0.01514  -0.22997  -0.15126
  39        5PZ         0.00573  -0.05726  -0.02897  -0.43975   0.03275
  40        6D 0        0.00171   0.00268  -0.00916  -0.00920   0.00253
  41        6D+1        0.01071   0.00953  -0.01725   0.00903  -0.00316
  42        6D-1       -0.00219  -0.00322   0.00926   0.00633  -0.00098
  43        6D+2       -0.00881   0.00267  -0.00729  -0.00421  -0.00476
  44        6D-2       -0.01920   0.00470  -0.00814   0.00542   0.00700
  45 3   C  1S          0.01632  -0.00000   0.00000  -0.00000   0.01273
  46        2S          0.02604  -0.00001   0.00000  -0.00001   0.02172
  47        2PX        -0.02383   0.00901  -0.00008  -0.00527  -0.02337
  48        2PY         0.08233   0.07957  -0.00074  -0.04657  -0.00933
  49        2PZ        -0.04160   0.15221  -0.00140  -0.08903   0.00626
  50        3S         -0.07860   0.00002  -0.00001   0.00001  -0.09025
  51        3PX        -0.02896   0.01401  -0.00006  -0.00790  -0.03894
  52        3PY         0.12618   0.12373  -0.00053  -0.06976  -0.00675
  53        3PZ        -0.06420   0.23669  -0.00100  -0.13338   0.00584
  54        4S         -0.09709  -0.00001   0.00002   0.00005   0.05417
  55        4PX        -0.00560   0.01251  -0.00018  -0.01433  -0.12597
  56        4PY         0.05336   0.11064  -0.00142  -0.12669  -0.07737
  57        4PZ        -0.02752   0.21160  -0.00269  -0.24225   0.04792
  58        5S         -0.12589  -0.00023   0.00009  -0.00003   3.45425
  59        5PX         0.02858   0.00199  -0.00059  -0.01701  -0.28267
  60        5PY         0.00140   0.01715  -0.00506  -0.15031  -0.25398
  61        5PZ        -0.00242   0.03289  -0.00970  -0.28737   0.14962
  62        6D 0        0.00301   0.00656  -0.01980   0.02321   0.00197
  63        6D+1        0.01535  -0.01029  -0.00812  -0.00137  -0.00224
  64        6D-1        0.00044  -0.00407   0.01673  -0.01837   0.00740
  65        6D+2       -0.00863   0.00254  -0.01232   0.01315   0.00748
  66        6D-2       -0.02766  -0.00585  -0.00255  -0.00264   0.00425
  67 4   C  1S         -0.01444  -0.00000  -0.00001  -0.00000   0.01389
  68        2S         -0.02320  -0.00000  -0.00001  -0.00000   0.02333
  69        2PX         0.05810   0.00459   0.00838  -0.00250  -0.00336
  70        2PY        -0.04874   0.04068   0.07405  -0.02196  -0.02444
  71        2PZ         0.02206   0.07779   0.14162  -0.04198   0.01298
  72        3S          0.07050   0.00000   0.00004   0.00001  -0.08465
  73        3PX         0.08241   0.00708   0.01295  -0.00379  -0.00569
  74        3PY        -0.06939   0.06263   0.11445  -0.03328  -0.03820
  75        3PZ         0.03143   0.11977   0.21888  -0.06363   0.02032
  76        4S          0.06639  -0.00002  -0.00003  -0.00001  -0.10279
  77        4PX         0.08156   0.00652   0.01192  -0.00731  -0.01427
  78        4PY        -0.02841   0.05768   0.10518  -0.06419   0.01948
  79        4PZ         0.01004   0.11030   0.20106  -0.12274  -0.00934
  80        5S          0.05166   0.00006  -0.00029   0.00045  -1.33045
  81        5PX         0.01359   0.00107   0.00225  -0.01051  -0.55006
  82        5PY        -0.00826   0.00871   0.01986  -0.09269   1.13374
  83        5PZ         0.00352   0.01672   0.03784  -0.17695  -0.56045
  84        6D 0        0.00074   0.00481   0.00927   0.00399   0.00642
  85        6D+1       -0.00071   0.01655  -0.01153  -0.02901   0.00034
  86        6D-1        0.00178  -0.00572  -0.00610   0.00011   0.00022
  87        6D+2        0.00140   0.00472   0.00395  -0.00115  -0.01063
  88        6D-2        0.00145   0.00814  -0.00672  -0.01531   0.00182
  89 5   C  1S         -0.01069   0.00000   0.00001   0.00001   0.01377
  90        2S         -0.01727   0.00000   0.00001   0.00002   0.02362
  91        2PX         0.02125  -0.00360   0.00803   0.00816   0.03811
  92        2PY        -0.05110  -0.03161   0.07067   0.07187  -0.02001
  93        2PZ         0.02545  -0.06052   0.13515   0.13742   0.00819
  94        3S          0.05705  -0.00001  -0.00003  -0.00006  -0.10084
  95        3PX         0.03319  -0.00561   0.01253   0.01212   0.06438
  96        3PY        -0.08196  -0.04930   0.11032   0.10674  -0.01650
  97        3PZ         0.04086  -0.09437   0.21100   0.20412   0.00480
  98        4S          0.13722   0.00003   0.00004  -0.00010   0.02014
  99        4PX         0.04946  -0.00470   0.01190   0.02353   0.07321
 100        4PY        -0.07287  -0.04147   0.10446   0.20713  -0.11153
 101        4PZ         0.03515  -0.07936   0.19982   0.39619   0.05393
 102        5S          0.08770   0.00015   0.00023  -0.00042   1.72070
 103        5PX         0.02666  -0.00087   0.00176   0.03036  -0.34898
 104        5PY        -0.02178  -0.00801   0.01495   0.26862  -1.04781
 105        5PZ         0.00980  -0.01543   0.02859   0.51361   0.56894
 106        6D 0        0.00069  -0.01870  -0.00876  -0.01185   0.00177
 107        6D+1       -0.00134   0.00366   0.01292  -0.01140   0.00236
 108        6D-1       -0.00074   0.01451   0.00553   0.01075   0.00897
 109        6D+2       -0.00182  -0.01029  -0.00349  -0.00815   0.00873
 110        6D-2        0.00285   0.00345   0.00740  -0.00490  -0.00461
 111 6   H  1S         -0.03500   0.00000  -0.00000  -0.00001  -0.00371
 112        2S         -0.05814   0.00002  -0.00000  -0.00002   0.05644
 113        3S         -0.04431   0.00002   0.00001  -0.00005  -0.08563
 114        4PX         0.00027   0.00077  -0.00000  -0.00075   0.00853
 115        4PY         0.00555   0.00677  -0.00000  -0.00663   0.00121
 116        4PZ        -0.00292   0.01296  -0.00000  -0.01268  -0.00114
 117 7   H  1S         -0.03297  -0.00000  -0.00000  -0.00000  -0.00189
 118        2S         -0.05982  -0.00000  -0.00001   0.00001   0.04267
 119        3S         -0.04100   0.00001  -0.00001  -0.00002  -0.24182
 120        4PX         0.00383   0.00040   0.00074  -0.00033   0.00042
 121        4PY         0.00239   0.00354   0.00658  -0.00290   0.01043
 122        4PZ        -0.00148   0.00677   0.01257  -0.00554  -0.00548
 123 8   H  1S         -0.02058  -0.00000  -0.00000   0.00002  -0.00894
 124        2S         -0.03235   0.00000  -0.00000   0.00004   0.04038
 125        3S         -0.00648  -0.00000   0.00001   0.00006  -0.12215
 126        4PX        -0.00158  -0.00032   0.00070   0.00118  -0.01380
 127        4PY        -0.00217  -0.00279   0.00615   0.01037   0.00087
 128        4PZ         0.00123  -0.00533   0.01176   0.01983   0.00037
 129 9   H  1S         -0.02590  -0.00001  -0.00001  -0.00005   0.01322
 130        2S         -0.06999  -0.00001  -0.00001  -0.00012   0.06958
 131        3S         -0.01632  -0.00004   0.00002  -0.00014   0.41040
 132        4PX        -0.00614  -0.00089  -0.00028  -0.00120  -0.01019
 133        4PY        -0.00179  -0.00786  -0.00248  -0.01061  -0.01063
 134        4PZ         0.00130  -0.01501  -0.00474  -0.02028   0.00617
                          21        22        23        24        25
                           V         V         V         V         V
     Eigenvalues --     0.02983   0.03656   0.04030   0.05468   0.05639
   1 1   N  1S          0.00400   0.00630   0.00000   0.01721   0.00005
   2        2S          0.00639   0.01049   0.00001   0.02835   0.00008
   3        2PX         0.00590  -0.03019   0.00494   0.01569   0.00057
   4        2PY         0.01447   0.02818   0.04384   0.00332   0.00489
   5        2PZ        -0.00787  -0.01296   0.08384  -0.00270   0.00930
   6        3S         -0.01522  -0.03865  -0.00003  -0.09230  -0.00026
   7        3PX         0.00553  -0.04674   0.00746   0.01884   0.00070
   8        3PY         0.02018   0.03601   0.06616   0.00632   0.00595
   9        3PZ        -0.01081  -0.01609   0.12651  -0.00448   0.01131
  10        4S         -0.11041  -0.00129   0.00004  -0.24211  -0.00075
  11        4PX         0.05836  -0.05220   0.01050   0.12849   0.00278
  12        4PY         0.01617   0.09256   0.09348  -0.04115   0.02243
  13        4PZ        -0.01183  -0.04534   0.17870   0.01379   0.04329
  14        5S          2.70712   1.67134  -0.00132  -2.66944  -0.00716
  15        5PX        -1.58191  -0.80037   0.02168  -0.32550   0.00120
  16        5PY        -0.03998   0.00465   0.18646  -0.52065   0.01634
  17        5PZ         0.11486   0.04469   0.35637   0.29138   0.03520
  18        6D 0        0.00169  -0.00001   0.00709  -0.00143   0.00786
  19        6D+1        0.00115   0.00232  -0.01476  -0.00046  -0.00255
  20        6D-1        0.00052  -0.00182  -0.00399   0.00101  -0.00598
  21        6D+2       -0.00243  -0.00313   0.00232   0.00388   0.00421
  22        6D-2       -0.00158  -0.00416  -0.00821   0.00022  -0.00196
  23 2   N  1S         -0.00987   0.01674   0.00001  -0.02650  -0.00004
  24        2S         -0.01612   0.02782   0.00001  -0.04345  -0.00007
  25        2PX        -0.02100   0.03049   0.00137  -0.00781  -0.00030
  26        2PY        -0.03265   0.01854   0.01203  -0.01747  -0.00260
  27        2PZ         0.01835  -0.01153   0.02296   0.00964  -0.00489
  28        3S          0.04774  -0.09705  -0.00005   0.13402   0.00021
  29        3PX        -0.03638   0.04730   0.00227  -0.01348  -0.00079
  30        3PY        -0.04760   0.02901   0.01990  -0.02829  -0.00674
  31        3PZ         0.02709  -0.01802   0.03798   0.01566  -0.01274
  32        4S          0.17572  -0.17043  -0.00008   0.48386   0.00087
  33        4PX         0.00218   0.04049   0.00258   0.05195   0.00167
  34        4PY        -0.07604   0.00203   0.02303   0.06886   0.01293
  35        4PZ         0.03970  -0.00354   0.04406  -0.03903   0.02473
  36        5S         -2.96867  -2.84096   0.00132   3.16006   0.00218
  37        5PX        -1.24642  -0.99031   0.00647   0.18409  -0.00553
  38        5PY         0.56305  -0.59242   0.05580   0.70022  -0.04735
  39        5PZ        -0.22078   0.36874   0.10859  -0.37702  -0.09430
  40        6D 0       -0.00079  -0.00124   0.00711   0.00364   0.00847
  41        6D+1       -0.00015  -0.00069   0.01741   0.00053   0.00348
  42        6D-1       -0.00028  -0.00079  -0.00764   0.00326  -0.00714
  43        6D+2        0.00100   0.00118   0.00614  -0.00184   0.00525
  44        6D-2        0.00002   0.00089   0.00839   0.00009   0.00109
  45 3   C  1S          0.01367   0.00960  -0.00001   0.00011  -0.00002
  46        2S          0.02276   0.01632  -0.00002   0.00050  -0.00004
  47        2PX        -0.05179  -0.00774  -0.00693  -0.01106  -0.00525
  48        2PY        -0.01053  -0.01544  -0.06147  -0.00360  -0.04652
  49        2PZ         0.00852   0.00857  -0.11756   0.00274  -0.08895
  50        3S         -0.08087  -0.06468   0.00004  -0.01144   0.00006
  51        3PX        -0.10186  -0.01449  -0.01054  -0.02485  -0.00666
  52        3PY        -0.01644  -0.01369  -0.09358   0.00109  -0.05903
  53        3PZ         0.01455   0.00807  -0.17899   0.00116  -0.11295
  54        4S         -0.08880  -0.04910   0.00016   0.05788   0.00108
  55        4PX         0.02308  -0.01179  -0.02189   0.12040  -0.01966
  56        4PY        -0.04495  -0.01637  -0.19328  -0.15233  -0.17350
  57        4PZ         0.02200   0.00936  -0.36966   0.07327  -0.33083
  58        5S         -2.65553  -6.79603  -0.00002  -1.97980   0.00917
  59        5PX         1.80176   2.10589  -0.06376   0.70395   0.01398
  60        5PY        -1.15158  -1.21001  -0.55705  -2.25187   0.14675
  61        5PZ         0.49466   0.50826  -1.06488   1.13531   0.29026
  62        6D 0        0.00303  -0.00079  -0.00245   0.00012  -0.00449
  63        6D+1       -0.00094   0.00022  -0.02142   0.00541   0.00417
  64        6D-1        0.00147   0.00101   0.00439   0.00411   0.00314
  65        6D+2       -0.00284   0.00266  -0.00394   0.00401  -0.00209
  66        6D-2        0.00276  -0.00080  -0.01085  -0.01050   0.00250
  67 4   C  1S          0.00882  -0.01608  -0.00001  -0.01413  -0.00000
  68        2S          0.01450  -0.02635  -0.00001  -0.02335  -0.00000
  69        2PX         0.01105   0.00225   0.00867   0.01297   0.00041
  70        2PY        -0.02125   0.04122   0.07663   0.01474   0.00337
  71        2PZ         0.01054  -0.02173   0.14647  -0.00853   0.00633
  72        3S         -0.04940   0.08881   0.00003   0.07298   0.00003
  73        3PX         0.01105   0.00807   0.01274   0.00975   0.00145
  74        3PY        -0.04269   0.08527   0.11254   0.02244   0.01264
  75        3PZ         0.02179  -0.04513   0.21507  -0.01241   0.02399
  76        4S         -0.07627   0.05903  -0.00003   0.41515  -0.00011
  77        4PX         0.07947   0.02443   0.02735   0.01342   0.00247
  78        4PY        -0.00654   0.04749   0.24179  -0.15289   0.02105
  79        4PZ        -0.00105  -0.02639   0.46234   0.07893   0.03958
  80        5S         -3.53598   7.53678   0.00414   9.27221  -0.00718
  81        5PX         2.37394   1.08842   0.06598   0.68642   0.02739
  82        5PY         0.93643  -2.19220   0.58671  -2.20203   0.22442
  83        5PZ        -0.62944   1.08144   1.12518   1.10999   0.42751
  84        6D 0        0.00073   0.00260  -0.01185   0.00117  -0.01486
  85        6D+1       -0.00136  -0.00135  -0.00585   0.00358  -0.00057
  86        6D-1        0.00144  -0.00084   0.01013   0.00009   0.01196
  87        6D+2        0.00111  -0.00517  -0.00749  -0.00274  -0.00859
  88        6D-2        0.00270   0.00362  -0.00204  -0.00628   0.00092
  89 5   C  1S         -0.01040  -0.00928   0.00000   0.02334   0.00002
  90        2S         -0.01754  -0.01473   0.00000   0.03762   0.00003
  91        2PX        -0.03382  -0.02816  -0.00458   0.01134  -0.00504
  92        2PY         0.01729  -0.00547  -0.04030   0.00029  -0.04408
  93        2PZ        -0.00706   0.00455  -0.07705  -0.00067  -0.08432
  94        3S          0.07034   0.02964  -0.00003  -0.08964  -0.00006
  95        3PX        -0.06759  -0.05617  -0.00705   0.03139  -0.00643
  96        3PY         0.02370  -0.00140  -0.06213  -0.00197  -0.05625
  97        3PZ        -0.00844   0.00411  -0.11879  -0.00064  -0.10763
  98        4S          0.00795   0.34150   0.00023  -0.83636  -0.00072
  99        4PX         0.05050   0.08967  -0.01507  -0.23878  -0.01870
 100        4PY         0.04808  -0.08177  -0.13285   0.15528  -0.16337
 101        4PZ        -0.02818   0.03746  -0.25403  -0.06642  -0.31303
 102        5S          6.88562  -0.24444  -0.00394  -7.11072   0.00208
 103        5PX         2.51662   0.60097  -0.04902  -2.78447   0.02771
 104        5PY         1.18884  -0.46102  -0.42222   1.34096   0.24604
 105        5PZ        -0.77135   0.20558  -0.80706  -0.53699   0.46245
 106        6D 0        0.00187  -0.00287  -0.01570   0.00361  -0.00724
 107        6D+1        0.00069  -0.00448   0.02024   0.00217  -0.00550
 108        6D-1        0.00089   0.00163   0.01025  -0.00112   0.00643
 109        6D+2       -0.00213   0.00832  -0.00661  -0.00818  -0.00485
 110        6D-2       -0.00064   0.00712   0.01175  -0.00255  -0.00224
 111 6   H  1S         -0.02219   0.00281  -0.00000  -0.00828  -0.00003
 112        2S          0.01043   0.02618  -0.00005  -0.03982  -0.00018
 113        3S         -0.28295  -0.01147   0.00004  -0.05678   0.00018
 114        4PX         0.01380   0.00811  -0.00127   0.00659  -0.00019
 115        4PY         0.00318  -0.00470  -0.01115  -0.00941  -0.00162
 116        4PZ        -0.00249   0.00198  -0.02132   0.00454  -0.00305
 117 7   H  1S         -0.01203   0.02309  -0.00000   0.00078  -0.00001
 118        2S          0.01494  -0.02863  -0.00003  -0.01793  -0.00013
 119        3S         -0.19021   0.30216   0.00010   0.16204  -0.00012
 120        4PX         0.00541   0.00436   0.00126  -0.00866   0.00071
 121        4PY         0.00576  -0.01185   0.01117  -0.00852   0.00644
 122        4PZ        -0.00332   0.00593   0.02139   0.00494   0.01235
 123 8   H  1S          0.00972   0.01037  -0.00003   0.00445  -0.00002
 124        2S          0.00660  -0.01923  -0.00005   0.07881   0.00007
 125        3S          0.09623   0.24787  -0.00012  -0.38806  -0.00061
 126        4PX         0.01457   0.00337  -0.00091  -0.00578  -0.00005
 127        4PY         0.00154  -0.01046  -0.00798   0.00640  -0.00060
 128        4PZ        -0.00168   0.00528  -0.01526  -0.00300  -0.00119
 129 9   H  1S          0.00014   0.00588  -0.00001  -0.02218  -0.00004
 130        2S         -0.05195   0.06103   0.00002  -0.05604  -0.00023
 131        3S          0.10909  -0.19635  -0.00060  -0.24582   0.00019
 132        4PX         0.00982  -0.00804   0.00001   0.01188   0.00035
 133        4PY         0.00598  -0.01318   0.00007   0.01214   0.00287
 134        4PZ        -0.00371   0.00738   0.00016  -0.00707   0.00547
                          26        27        28        29        30
                           V         V         V         V         V
     Eigenvalues --     0.05761   0.07694   0.09481   0.11041   0.11551
   1 1   N  1S         -0.02008  -0.00955  -0.00000   0.00001   0.01309
   2        2S         -0.03337  -0.01543  -0.00000   0.00001   0.02168
   3        2PX         0.00394   0.00813  -0.00113   0.00125   0.01205
   4        2PY        -0.00928  -0.00758  -0.00997   0.01098   0.01202
   5        2PZ         0.00467   0.00345  -0.01907   0.02098  -0.00701
   6        3S          0.11511   0.04206   0.00001  -0.00004  -0.07029
   7        3PX        -0.00002   0.01632  -0.00121   0.00133   0.02016
   8        3PY        -0.01520  -0.00575  -0.01076   0.01165   0.01780
   9        3PZ         0.00802   0.00199  -0.02057   0.02225  -0.01051
  10        4S          0.26161   0.22388  -0.00003   0.00000  -0.19929
  11        4PX        -0.01293  -0.03388  -0.00579   0.00393   0.06517
  12        4PY         0.05953   0.03583  -0.05118   0.03490  -0.02911
  13        4PZ        -0.03021  -0.01682  -0.09781   0.06669   0.01133
  14        5S          2.83228   0.55874   0.00078  -0.00123  -4.30219
  15        5PX        -0.09462   0.13791   0.00886  -0.01286   0.43398
  16        5PY         0.46573   0.33981   0.07960  -0.11767  -0.74414
  17        5PZ        -0.23773  -0.18583   0.15213  -0.22515   0.36378
  18        6D 0       -0.00378   0.00572  -0.00535  -0.00843  -0.00240
  19        6D+1        0.00109  -0.00226   0.00007  -0.00122  -0.00256
  20        6D-1       -0.00279   0.00785   0.00427   0.00686   0.00123
[...]
     20  0.220362D-03 -0.381129D-03 -0.859222D-03  0.105038D-01  0.296530D+00
     21 -0.239759D-03 -0.789207D-03 -0.157229D-02 -0.701138D-02 -0.144350D+00
     22 -0.299902D-03  0.562501D-03 -0.235097D-03  0.211460D-03 -0.308753D-03
     23 -0.544441D-03  0.109570D-02 -0.175940D-03  0.860372D-03 -0.672071D-03
     24  0.342665D-03 -0.241345D-03  0.803492D-03 -0.635218D-03 -0.115249D-02
     25 -0.191076D-04 -0.132310D-02  0.815499D-03  0.989990D-03  0.282312D-03
     26  0.257307D-03  0.103811D-02  0.524619D-03 -0.820157D-03  0.417594D-03
     27 -0.118158D-04  0.617003D-03  0.174723D-02  0.483596D-03  0.775097D-03
               21            22            23            24            25 
     21  0.975872D-01
     22 -0.242994D-04  0.355849D+00
     23 -0.122144D-02 -0.712114D-01  0.607191D-01
     24 -0.226962D-02  0.174046D-01 -0.162429D-01  0.289608D-01
     25 -0.904900D-04 -0.188869D-03 -0.607342D-03  0.231066D-03  0.190103D+00
     26  0.841280D-03  0.343875D-03 -0.170660D-03 -0.998758D-03  0.161517D+00
     27  0.149913D-02 -0.284792D-03 -0.912276D-03 -0.151707D-02 -0.950951D-01
               26            27 
     26  0.268764D+00
     27 -0.143547D+00  0.936236D-01
 Leave Link  716 at Fri Jun  2 11:13:35 2023, MaxMem=  7381975040 cpu:               0.5 elap:               1.2
 (Enter /software/commercial/gaussian/g16/AVX/g16/l103.exe)

 GradGradGradGradGradGradGradGradGradGradGradGradGradGradGradGradGradGrad
 Berny optimization.
 Search for a local minimum.
 Step number   1 out of a maximum of    2
 All quantities printed in internal units (Hartrees-Bohrs-Radians)
 Second derivative matrix not updated -- analytic derivatives used.
 ITU=  0
     Eigenvalues ---    0.01978   0.02631   0.04467   0.04972   0.05512
     Eigenvalues ---    0.06609   0.06855   0.16540   0.17553   0.21734
     Eigenvalues ---    0.22586   0.24406   0.28785   0.41060   0.62962
     Eigenvalues ---    0.81934   0.86422   1.08420   1.17584   1.28089
     Eigenvalues ---    1.35150
 Angle between quadratic step and forces=  50.07 degrees.
 Linear search not attempted -- first point.
 B after Tr=    -0.000001   -0.000010    0.000001
         Rot=    1.000000   -0.000001    0.000000    0.000000 Ang=  -0.00 deg.
 Variable       Old X    -DE/DX   Delta X   Delta X   Delta X     New X
                                 (Linear)    (Quad)   (Total)
    X1        1.25532   0.00001   0.00000   0.00002   0.00002   1.25534
    Y1       -1.40803  -0.00004   0.00000  -0.00005  -0.00006  -1.40809
    Z1        1.05146   0.00001   0.00000   0.00002   0.00002   1.05148
    X2       -1.28624  -0.00005   0.00000  -0.00007  -0.00007  -1.28631
    Y2       -1.18418  -0.00005   0.00000  -0.00006  -0.00008  -1.18426
    Z2        1.08481   0.00003   0.00000   0.00002   0.00002   1.08483
    X3        2.05529   0.00003   0.00000   0.00005   0.00005   2.05534
    Y3        0.69011   0.00005   0.00000   0.00005   0.00004   0.69014
    Z3       -0.09314  -0.00003   0.00000  -0.00003  -0.00002  -0.09316
    X4        0.01842   0.00001   0.00000   0.00002   0.00002   0.01844
    Y4        2.26470   0.00001   0.00000   0.00000  -0.00001   2.26469
    Z4       -0.79579  -0.00000   0.00000  -0.00000   0.00000  -0.79579
    X5       -2.11331  -0.00002   0.00000  -0.00003  -0.00003  -2.11334
    Y5        0.98246   0.00002   0.00000   0.00001  -0.00000   0.98246
    Z5        0.00087  -0.00000   0.00000  -0.00001  -0.00000   0.00086
    X6        4.05334   0.00000   0.00000   0.00004   0.00004   4.05338
    Y6        0.99565   0.00000   0.00000   0.00010   0.00009   0.99573
    Z6       -0.37117  -0.00000   0.00000  -0.00004  -0.00003  -0.37120
    X7        0.09133  -0.00000   0.00000   0.00002   0.00002   0.09135
    Y7        4.06576   0.00000   0.00000   0.00000  -0.00001   4.06576
    Z7       -1.74203   0.00000   0.00000  -0.00001   0.00000  -1.74203
    X8       -4.09625   0.00000   0.00000  -0.00001  -0.00001  -4.09626
    Y8        1.43181  -0.00000   0.00000   0.00006   0.00005   1.43186
    Z8       -0.11617   0.00000   0.00000  -0.00002  -0.00002  -0.11619
    X9       -2.34218   0.00001   0.00000  -0.00003  -0.00004  -2.34222
    Y9       -2.56309   0.00001   0.00000  -0.00002  -0.00003  -2.56312
    Z9        1.86929  -0.00001   0.00000   0.00005   0.00004   1.86933
         Item               Value     Threshold  Converged?
 Maximum Force            0.000053     0.000450     YES
 RMS     Force            0.000022     0.000300     YES
 Maximum Displacement     0.000086     0.001800     YES
 RMS     Displacement     0.000038     0.001200     YES
 Predicted change in Energy=-7.262996D-09
 Optimization completed.
    -- Stationary point found.
 GradGradGradGradGradGradGradGradGradGradGradGradGradGradGradGradGradGrad

 Leave Link  103 at Fri Jun  2 11:13:38 2023, MaxMem=  7381975040 cpu:               1.3 elap:               1.9
 (Enter /software/commercial/gaussian/g16/AVX/g16/l9999.exe)

 ----------------------------------------------------------------------

 Electric dipole moment (input orientation):
 (Debye = 10**-18 statcoulomb cm , SI units = C m)
                  (au)            (Debye)         (10**-30 SI)
   Tot        0.122400D+01      0.311109D+01      0.103775D+02
   x         -0.116750D+01     -0.296750D+01     -0.989852D+01
   y          0.349668D+00      0.888766D+00      0.296461D+01
   z         -0.113288D+00     -0.287949D+00     -0.960494D+00

 Dipole polarizability, Alpha (input orientation).
 (esu units = cm**3 , SI units = C**2 m**2 J**-1)
 Alpha(0;0):
               (au)            (10**-24 esu)      (10**-40 SI)
   iso        0.598619D+02      0.887061D+01      0.986989D+01
   aniso      0.291156D+02      0.431448D+01      0.480051D+01
   xx         0.702381D+02      0.104082D+02      0.115807D+02
   yx        -0.118166D+01     -0.175104D+00     -0.194829D+00
   yy         0.627479D+02      0.929827D+01      0.103457D+02
   zx        -0.114725D+01     -0.170004D+00     -0.189155D+00
   zy        -0.115723D+02     -0.171484D+01     -0.190802D+01
   zz         0.465996D+02      0.690535D+01      0.768324D+01

 First dipole hyperpolarizability, Beta (input orientation).
 ||, _|_  parallel and perpendicular components, (z) with respect to z axis,
 vector components x,y,z.  Values do not include the 1/n! factor of 1/2.
 (esu units = statvolt**-1 cm**4 , SI units = C**3 m**3 J**-2)
 Beta(0;0,0):
               (au)            (10**-30 esu)      (10**-50 SI)
   || (z)    -0.249273D+02     -0.215353D+00     -0.799260D-01
   _|_(z)    -0.830910D+01     -0.717842D-01     -0.266420D-01
   x          0.161388D+03      0.139427D+01      0.517470D+00
   y          0.219667D+03      0.189775D+01      0.704331D+00
   z         -0.124637D+03     -0.107676D+01     -0.399630D+00
   ||         0.599447D+02      0.517875D+00      0.192204D+00
   xxx        0.715873D+01      0.618458D-01      0.229535D-01
   xxy       -0.202324D+02     -0.174792D+00     -0.648724D-01
   yxy        0.322179D+02      0.278338D+00      0.103302D+00
   yyy        0.606084D+02      0.523610D+00      0.194333D+00
   xxz        0.119545D+02      0.103277D+00      0.383304D-01
   yxz       -0.164092D+01     -0.141762D-01     -0.526137D-02
   yyz        0.568091D+02      0.490786D+00      0.182150D+00
   zxz        0.144195D+02      0.124573D+00      0.462342D-01
   zyz        0.328463D+02      0.283766D+00      0.105317D+00
   zzz       -0.110309D+03     -0.952985D+00     -0.353691D+00

 ----------------------------------------------------------------------

 Dipole orientation:
     7          0.57683016         -1.20482436         -1.69694274
     7          0.68252306         -1.77382919          0.78817513
     6          0.11300408          1.27182036         -1.75466188
     6         -0.07905940          2.29389397          0.70306016
     6          0.30138224          0.25926317          2.29636152
     1         -0.06568406          2.22929228         -3.54747160
     1         -0.44098298          4.22519230          1.23561027
     1          0.32987477          0.10618666          4.32697947
     1          1.01949266         -3.56990961          1.32884954

 Electric dipole moment (dipole orientation):
 (Debye = 10**-18 statcoulomb cm , SI units = C m)
                  (au)            (Debye)         (10**-30 SI)
   Tot        0.122400D+01      0.311109D+01      0.103775D+02
   x          0.000000D+00      0.000000D+00      0.000000D+00
   y          0.000000D+00      0.000000D+00      0.000000D+00
   z          0.122400D+01      0.311109D+01      0.103775D+02

 Dipole polarizability, Alpha (dipole orientation).
 (esu units = cm**3 , SI units = C**2 m**2 J**-1)
 Alpha(0;0):
               (au)            (10**-24 esu)      (10**-40 SI)
   iso        0.598619D+02      0.887061D+01      0.986989D+01
   aniso      0.291156D+02      0.431448D+01      0.480051D+01
   xx         0.414343D+02      0.613993D+01      0.683159D+01
   yx        -0.509160D+01     -0.754497D+00     -0.839491D+00
   yy         0.676736D+02      0.100282D+02      0.111579D+02
   zx        -0.453191D-02     -0.671560D-03     -0.747212D-03
   zy        -0.952576D-02     -0.141157D-02     -0.157059D-02
   zz         0.704777D+02      0.104437D+02      0.116202D+02

 First dipole hyperpolarizability, Beta (dipole orientation).
 ||, _|_  parallel and perpendicular components, (z) with respect to z axis,
 vector components x,y,z.  Values do not include the 1/n! factor of 1/2.
 (esu units = statvolt**-1 cm**4 , SI units = C**3 m**3 J**-2)
 Beta(0;0,0):
               (au)            (10**-30 esu)      (10**-50 SI)
   || (z)    -0.159300D+02     -0.137623D+00     -0.510775D-01
   _|_(z)    -0.531002D+01     -0.458744D-01     -0.170258D-01
   x         -0.533444D+02     -0.460854D+00     -0.171041D+00
   y          0.283979D+03      0.245336D+01      0.910540D+00
   z         -0.796502D+02     -0.688116D+00     -0.255387D+00
   ||         0.599447D+02      0.517875D+00      0.192204D+00
   xxx       -0.526273D+02     -0.454659D+00     -0.168742D+00
   xxy        0.881211D+02      0.761298D+00      0.282548D+00
   yxy        0.296041D+02      0.255756D+00      0.949213D-01
   yyy        0.354052D+02      0.305873D+00      0.113522D+00
   xxz        0.121014D+02      0.104547D+00      0.388015D-01
   yxz        0.358114D+01      0.309383D-01      0.114824D-01
   yyz       -0.597135D+01     -0.515878D-01     -0.191463D-01
   zxz        0.524177D+01      0.452848D-01      0.168070D-01
   zyz       -0.288665D+02     -0.249384D+00     -0.925565D-01
   zzz       -0.326801D+02     -0.282331D+00     -0.104784D+00

 ----------------------------------------------------------------------
 Unable to Open any file for archive entry.
 1\1\GINC-NODE1971\Freq\RB3LYP\6-311+G(d,p)\C3H4N2\SVICCHI\02-Jun-2023\
 0\\#p freq=raman scale=0.967 pop=(nbo,full,hirshfeld) guess=read geom=
 allcheck b3lyp/6-311+G(d,p) int=grid=ultrafine EmpiricalDispersion=GD3
 BJ SCRF=(Solvent=ethanol) scf=(xqc,intrep,maxconventionalcycle=350) no
 symm\\pyrazolide-H_dissociation-site_index-1.gjf\\0,1\N,0.6642868486,-
 0.7450984913,0.5564081961\N,-0.680648881,-0.6266436022,0.5740587183\C,
 1.0876122931,0.3651883903,-0.0492861407\C,0.009746051,1.1984274641,-0.
 4211165752\C,-1.1183166719,0.5198975672,0.0004580737\H,2.1449331408,0.
 5268731587,-0.1964153536\H,0.0483320536,2.1515092815,-0.9218436478\H,-
 2.167642289,0.7576816649,-0.0614753338\H,-1.2394275452,-1.3563284332,0
 .989184063\\Version=ES64L-G16RevC.01\HF=-226.2856008\RMSD=4.400e-09\RM
 SF=2.205e-05\ZeroPoint=0.068742\Thermal=0.0725513\ETot=-226.2130496\HT
 ot=-226.2121054\GTot=-226.2431466\Dipole=-1.1675046,0.3496676,-0.11328
 78\DipoleDeriv=-0.1234272,0.3794491,-0.2091102,0.3061786,-0.5720337,0.
 1261604,-0.1704621,0.121762,-0.3503275,-0.2245031,-0.4539408,0.2369718
 ,-0.4121929,-0.4102593,0.1142706,0.215494,0.1168568,-0.3122115,0.30783
 27,-0.1018229,0.0282076,-0.2989888,0.2062146,-0.1510744,0.1316603,-0.1
 622767,-0.0386121,-0.3357629,-0.0457487,0.0266643,-0.0104246,-0.158513
 4,-0.071243,0.0081847,-0.0699872,-0.2600254,0.0246619,0.1490678,-0.085
 686,0.3467204,0.3168247,-0.238324,-0.1891581,-0.2259965,0.0292638,-0.0
 526044,-0.0260885,0.0281681,0.0019795,0.1250601,0.0349333,0.0133412,0.
 0365596,0.1721712,0.1327257,0.0122227,-0.0002931,0.0040275,0.0180169,0
 .112813,0.0040131,0.1122055,0.1753315,0.0109105,0.0261367,-0.0002202,0
 .0159525,0.1395705,0.0499597,0.0044693,0.0492656,0.211158,0.2601669,0.
 0607247,-0.0247023,0.0467477,0.3351197,0.0225043,-0.0175426,0.0216109,
 0.3732521\Polar=70.2381011,-1.1816591,62.7478637,-1.1472463,-11.572331
 ,46.5996332\PolarDeriv=2.9050425,-0.2508229,1.8732089,-0.0451808,-2.08
 91078,-0.496004,-6.7237084,7.9898053,-11.6486308,-3.1868366,2.1955196,
 -2.5514138,3.5075711,-3.6418134,1.8399616,3.23351,-3.9565141,5.2888848
 ,0.9915345,-0.2784611,-1.8794881,0.0945293,1.421352,0.5984587,-2.24943
 69,-2.6654606,-1.1408433,0.9605088,-1.7664696,0.6619072,0.954232,0.683
 9675,-3.0534633,-1.3359855,-1.7263761,3.5335539,-0.15543,2.661929,5.60
 09834,-0.6635956,0.2134087,6.0131543,4.7921218,-6.7743991,3.8779891,6.
 3458529,-1.1594925,-0.5350767,-1.7891029,6.5612088,-1.128162,2.5803536
 ,1.2494433,-2.0993737,6.0539154,-7.6537299,3.0507001,3.7663396,-0.1549
 853,0.9894273,3.8863583,1.869523,4.1906819,-0.4079316,3.4849209,2.2585
 492,-2.2919944,0.244117,3.3563933,0.7495845,2.2032605,-7.0340418,-5.65
 54474,2.5896518,-4.9688329,-1.8152838,-0.7305296,-5.7739702,-1.9669543
 ,2.9196742,-0.8515006,-5.2839761,0.1775258,-1.6473163,0.4998676,-5.351
 3796,2.2989162,-4.3702086,1.2630962,0.4578564,13.5905211,1.8211224,1.3
 128423,-1.7135781,-0.4247683,1.0474434,1.5971771,1.5351312,0.7411607,-
 0.8322268,-0.4486808,0.5077522,-1.6071767,-0.8616104,-0.6016788,0.6348
 534,0.1601907,-0.1941934,0.3855141,1.4686932,0.1528381,-0.8053175,-0.1
 728821,0.1883975,1.336411,0.1350481,9.9533841,-0.2695046,-5.0749119,3.
 4953977,-0.7547979,-0.3359716,-5.6615109,-0.114217,2.3250193,-1.303046
 3,-13.7109998,2.6570275,-1.8476457,-0.5983098,0.3820568,-0.9697003,2.6
 854107,-1.7859105,1.0904758,1.0592765,-0.3466257,0.4501813,-0.5120326,
 1.03376,-0.5540866,-0.0211652,0.0697502,-0.1300886,-4.4046504,-3.01540
 99,-3.2946062,1.7803966,1.5554556,-1.5972066,-3.3573793,-3.2234117,-6.
 2127169,1.6148374,2.9382141,-2.6399807,1.9934338,1.6677218,3.5036306,-
 1.3567251,-1.5878699,1.4804487\HyperPolar=7.1587282,-20.2324098,32.217
 9294,60.6084422,11.9544882,-1.6409155,56.8090784,14.4195082,32.8462532
 ,-110.3090904\Quadrupole=2.8645527,-0.4399753,-2.4245773,2.9180939,-2.
 3484875,-1.5484531\PG=C01 [X(C3H4N2)]\NImag=0\\0.46139782,0.00701809,0
 .46845685,-0.02487275,-0.19119535,0.20521348,-0.25957404,-0.00896155,0
 .01627292,0.68268749,0.05489466,-0.09813623,0.01483270,0.13677317,0.72
 869957,-0.01708887,0.01860452,-0.07239772,-0.10687852,-0.34238186,0.27
 543708,-0.12460796,-0.04708922,0.02776611,-0.09203864,-0.03951413,0.02
 689936,0.85156700,-0.07691869,-0.27994279,0.11332586,-0.05555454,-0.04
 125045,0.03152706,0.05164843,0.50088120,0.04337250,0.11155585,-0.13291
 127,0.03524163,0.03059417,-0.00528258,-0.06936672,-0.19273400,0.242930
 86,0.01909795,0.05285600,-0.02757054,-0.00431970,-0.05949787,0.0321097
 1,-0.22133832,0.06385263,-0.02402803,0.55391033,-0.00760113,-0.0554946
 3,0.04003022,-0.00489331,-0.05977780,0.03825479,0.09358573,-0.15880424
 ,0.04345172,0.03122129,0.70476957,0.00404406,0.03644900,0.00090330,0.0
 0357672,0.04148969,-0.00907530,-0.03961362,0.04522761,-0.08624794,-0.0
 4250540,-0.30978865,0.28032338,-0.07412273,0.02076533,-0.00542442,-0.1
 3793000,0.06026868,-0.02662447,-0.07202429,0.03571622,-0.01380711,-0.2
 7685093,-0.11017287,0.07031189,0.88692922,0.04557719,-0.03629304,0.025
 49988,0.05990601,-0.25639965,0.10102986,-0.02038903,0.03987787,-0.0142
 6527,-0.08465812,-0.16045712,0.05507508,-0.05413470,0.49410882,-0.0184
 2607,0.02698156,0.00461975,-0.02636367,0.10092909,-0.10778994,0.015551
 26,-0.01758400,0.01857045,0.05697328,0.05660067,-0.09773515,-0.0170867
 2,-0.19000589,0.22495113,-0.00515552,-0.00153625,0.00068627,0.00163456
 ,-0.00091203,0.00078416,-0.34022986,-0.03881677,0.03862872,-0.00830192
 ,-0.00680150,0.00412437,-0.00218465,0.00219430,-0.00074488,0.35443697,
 -0.02778913,-0.00259068,-0.00072784,-0.00354478,-0.00347262,0.00557769
 ,-0.03196605,-0.05646458,0.01544679,0.01552109,0.00828850,-0.00459287,
 0.00357316,-0.00240474,0.00347253,0.04593904,0.05489144,0.01442227,-0.
 00228227,-0.00678169,0.00215654,0.00542029,0.00382510,0.03504082,0.015
 85431,-0.04091770,-0.00754926,-0.00327340,0.00341822,-0.00146381,0.003
 55436,0.00286785,-0.04356972,-0.01876275,0.03660980,-0.00374388,0.0051
 8265,-0.00210949,-0.00549960,-0.00339146,0.00239625,0.00998226,0.01784
 599,-0.01008274,-0.05632898,-0.00812453,0.00606122,0.00720980,-0.02108
 397,0.01051503,0.00011942,-0.00097273,0.00038274,0.04705952,0.00134060
 ,-0.00029673,0.00342503,-0.00028685,0.00048052,0.00237352,-0.00587157,
 -0.00584445,0.00201038,-0.01009924,-0.28626186,0.13670484,0.00421930,-
 0.00397192,0.00107302,0.00022036,-0.00038113,-0.00085922,0.01050384,0.
 29653006,-0.00009678,0.00319436,0.00473916,0.00076973,0.00255759,0.003
 60096,0.00231913,0.00059929,-0.00311823,0.00709125,0.13659897,-0.09783
 802,-0.00271740,0.00256934,-0.00262830,-0.00023976,-0.00078921,-0.0015
 7229,-0.00701138,-0.14435018,0.09758721,0.00134111,-0.00032964,0.00046
 447,-0.00203965,-0.00161569,0.00080912,-0.00269122,-0.00102014,0.00098
 992,-0.00654030,0.00825353,-0.00379561,-0.34564135,0.06532576,-0.01532
 832,-0.00029990,0.00056250,-0.00023510,0.00021146,-0.00030875,-0.00002
 430,0.35584872,0.00102617,-0.00295473,0.00476082,0.03035404,-0.0019977
 3,-0.00217876,-0.00374237,-0.00152198,0.00362652,-0.01282070,0.0104703
 5,-0.00358429,0.05668570,-0.06496801,0.01592827,-0.00054444,0.00109570
 ,-0.00017594,0.00086037,-0.00067207,-0.00122144,-0.07121144,0.06071913
 ,-0.00024264,0.00484385,0.00375018,-0.01592072,-0.00026333,-0.00158971
 ,0.00240541,0.00346193,0.00303672,0.00720645,-0.00483269,0.00425732,-0
 .01079163,0.01542574,-0.03543209,0.00034267,-0.00024134,0.00080349,-0.
 00063522,-0.00115249,-0.00226962,0.01740462,-0.01624292,0.02896078,-0.
 01463275,-0.02790541,0.01478743,-0.18292043,-0.14700534,0.08759327,-0.
 00861898,0.00324687,-0.00094816,0.00067187,0.00453277,-0.00220362,0.01
 461491,0.00726257,-0.00508990,-0.00001911,-0.00132310,0.00081550,0.000
 98999,0.00028231,-0.00009049,-0.00018887,-0.00060734,0.00023107,0.1901
 0337,0.00245223,0.00725198,-0.00995133,-0.15379220,-0.26814563,0.14719
 316,0.00333821,0.00306941,0.00031384,0.00362492,-0.00273277,0.00301958
 ,-0.01692083,-0.00949221,0.00260474,0.00025731,0.00103811,0.00052462,-
 0.00082016,0.00041759,0.00084128,0.00034387,-0.00017066,-0.00099876,0.
 16151665,0.26876417,-0.00111172,-0.00815154,-0.00713519,0.09114537,0.1
 4682165,-0.08672787,-0.00100175,0.00032194,0.00393970,-0.00172747,0.00
 295837,0.00199420,0.00760368,0.00111690,-0.00742370,-0.00001182,0.0006
 1700,0.00174723,0.00048360,0.00077510,0.00149913,-0.00028479,-0.000912
 28,-0.00151707,-0.09509510,-0.14354713,0.09362357\\-0.00001393,0.00003
 612,-0.00001357,0.00004723,0.00005334,-0.00002993,-0.00003122,-0.00004
 629,0.00002911,-0.00001263,-0.00000777,0.00000329,0.00002322,-0.000017
 13,0.00000371,-0.00000098,-0.00000459,0.00000476,0.00000130,-0.0000005
 8,-0.00000078,-0.00000087,0.00000009,-0.00000329,-0.00001213,-0.000013
 19,0.00000671\\\@
 The archive entry for this job was punched.


 WE ARE PERHAPS NOT FAR REMOVED FROM THE TIME WHEN WE SHALL BE ABLE TO SUBMIT
 THE BULK OF CHEMICAL PHENOMENA TO CALCULATION.

            -- JOSEPH LOUIS GAY-LUSSAC
               MEMOIRES DE LA SOCIETE D'ARCUEIL, 2, 207 (1808)
 Job cpu time:       0 days  0 hours  7 minutes 44.5 seconds.
 Elapsed time:       0 days  0 hours  4 minutes 30.1 seconds.
 File lengths (MBytes):  RWF=     72 Int=      0 D2E=      0 Chk=      8 Scr=      1
 Normal termination of Gaussian 16 at Fri Jun  2 11:13:41 2023.
