 Entering Gaussian System, Link 0=g16
 Input=PG-CO2_binding-site_index-0-freq.gjf
 Output=PG-CO2_binding-site_index-0-freq.log
 Initial command:
 /software/commercial/gaussian/g16/AVX/g16/l1.exe "/scratch1/svicchi/G09-763143.pbs02/Gau-520870.inp" -scrdir="/scratch1/svicchi/G09-763143.pbs02/"
 Entering Link 1 = /software/commercial/gaussian/g16/AVX/g16/l1.exe PID=    520871.
  
 Copyright (c) 1988-2019, Gaussian, Inc.  All Rights Reserved.
  
 This is part of the Gaussian(R) 16 program.  It is based on
 the Gaussian(R) 09 system (copyright 2009, Gaussian, Inc.),
 the Gaussian(R) 03 system (copyright 2003, Gaussian, Inc.),
 the Gaussian(R) 98 system (copyright 1998, Gaussian, Inc.),
 the Gaussian(R) 94 system (copyright 1995, Gaussian, Inc.),
 the Gaussian 92(TM) system (copyright 1992, Gaussian, Inc.),
 the Gaussian 90(TM) system (copyright 1990, Gaussian, Inc.),
 the Gaussian 88(TM) system (copyright 1988, Gaussian, Inc.),
 the Gaussian 86(TM) system (copyright 1986, Carnegie Mellon
 University), and the Gaussian 82(TM) system (copyright 1983,
 Carnegie Mellon University). Gaussian is a federally registered
 trademark of Gaussian, Inc.
  
 This software contains proprietary and confidential information,
 including trade secrets, belonging to Gaussian, Inc.
  
 This software is provided under written license and may be
 used, copied, transmitted, or stored only in accord with that
 written license.
  
 The following legend is applicable only to US Government
 contracts under FAR:
  
                    RESTRICTED RIGHTS LEGEND
  
 Use, reproduction and disclosure by the US Government is
 subject to restrictions as set forth in subparagraphs (a)
 and (c) of the Commercial Computer Software - Restricted
 Rights clause in FAR 52.227-19.
  
 Gaussian, Inc.
 340 Quinnipiac St., Bldg. 40, Wallingford CT 06492
  
  
 ---------------------------------------------------------------
 Warning -- This program may not be used in any manner that
 competes with the business of Gaussian, Inc. or will provide
 assistance to any competitor of Gaussian, Inc.  The licensee
 of this program is prohibited from giving any competitor of
 Gaussian, Inc. access to this program.  By using this program,
 the user acknowledges that Gaussian, Inc. is engaged in the
 business of creating and licensing software in the field of
 computational chemistry and represents and warrants to the
 licensee that it is not a competitor of Gaussian, Inc. and that
 it will not use this program in any manner prohibited above.
 ---------------------------------------------------------------
  

 Cite this work as:
 Gaussian 16, Revision C.01,
 M. J. Frisch, G. W. Trucks, H. B. Schlegel, G. E. Scuseria, 
 M. A. Robb, J. R. Cheeseman, G. Scalmani, V. Barone, 
 G. A. Petersson, H. Nakatsuji, X. Li, M. Caricato, A. V. Marenich, 
 J. Bloino, B. G. Janesko, R. Gomperts, B. Mennucci, H. P. Hratchian, 
 J. V. Ortiz, A. F. Izmaylov, J. L. Sonnenberg, D. Williams-Young, 
 F. Ding, F. Lipparini, F. Egidi, J. Goings, B. Peng, A. Petrone, 
 T. Henderson, D. Ranasinghe, V. G. Zakrzewski, J. Gao, N. Rega, 
 G. Zheng, W. Liang, M. Hada, M. Ehara, K. Toyota, R. Fukuda, 
 J. Hasegawa, M. Ishida, T. Nakajima, Y. Honda, O. Kitao, H. Nakai, 
 T. Vreven, K. Throssell, J. A. Montgomery, Jr., J. E. Peralta, 
 F. Ogliaro, M. J. Bearpark, J. J. Heyd, E. N. Brothers, K. N. Kudin, 
 V. N. Staroverov, T. A. Keith, R. Kobayashi, J. Normand, 
 K. Raghavachari, A. P. Rendell, J. C. Burant, S. S. Iyengar, 
 J. Tomasi, M. Cossi, J. M. Millam, M. Klene, C. Adamo, R. Cammi, 
 J. W. Ochterski, R. L. Martin, K. Morokuma, O. Farkas, 
 J. B. Foresman, and D. J. Fox, Gaussian, Inc., Wallingford CT, 2019.
 
 ******************************************
 Gaussian 16:  ES64L-G16RevC.01  3-Jul-2019
                19-Jun-2023 
 ******************************************
 %NProcShared=4
 Will use up to    4 processors via shared memory.
 %mem=55gb
 %chk=/scratch1/svicchi/G09-763143.pbs02/02-freq/PG-CO2_binding-site_index-0-freq
 .chk
 ----------------------------------------------------------------------
 #p freq=raman scale=0.967 pop=(nbo,full,hirshfeld) guess=read geom=all
 check b3lyp/6-311+G(d,p) int=grid=ultrafine EmpiricalDispersion=GD3BJ 
 SCRF=(Solvent=ethanol) scf=(xqc,intrep,maxconventionalcycle=350) nosym
 m
 ----------------------------------------------------------------------
 1/10=4,29=7,30=1,38=1,114=967000/1,3;
 2/12=2,15=1,40=1/2;
 3/5=4,6=6,7=111,11=2,14=-4,25=1,30=1,70=2201,71=2,72=4,74=-5,75=-5,116=-2,124=41,140=1/1,2,3;
 4/5=1/1;
 5/5=2,8=3,13=1,17=20,38=6,53=4,85=350,98=1/2,8;
 8/6=4,10=90,11=11/1;
 10/13=10,15=4,31=1/2;
 11/6=3,8=1,9=11,15=111,16=1,31=1/1,2,10;
 10/6=1,31=1/2;
 6/7=3,28=1,40=1,79=1/1,7;
 7/8=1,10=1,25=1,30=1/1,2,3,16;
 1/10=4,30=1/3;
 99//99;
 Leave Link    1 at Mon Jun 19 19:00:50 2023, MaxMem=  7381975040 cpu:               0.4 elap:               0.1
 (Enter /software/commercial/gaussian/g16/AVX/g16/l101.exe)
 Structure from the checkpoint file:  "/scratch1/svicchi/G09-763143.pbs02/02-freq/PG-CO2_binding-site_index-0-freq.chk"
 -------------------------------
 PG-CO2_binding-site_index-0.gjf
 -------------------------------
 Charge =  0 Multiplicity = 1
 No Z-Matrix found in chk file; cartesian coordinates used.
  O                                                -4.215327671925      1.831544963051      0.572067887745
  C                                                -2.950594284347      2.503649417268      0.462497039116
  C                                                -1.988012738160      1.538028510400     -0.210182230628
  H                                                -2.573978466504      2.768499702653      1.456048010016
  H                                                -3.051470755792      3.412954051006     -0.139280822989
  C                                                -0.592267422191      2.119185882039     -0.341218349267
  H                                                -0.610265239056      3.023877543096     -0.953573015941
  H                                                 0.073618774430      1.397150030129     -0.817816945302
  H                                                -0.185222423512      2.369812085177      0.642099002566
  O                                                -1.900162574769      0.326615350216      0.554862942331
  H                                                -2.384854235055      1.301112855179     -1.206047090228
  H                                                -2.807638459110      0.074863217602      0.771171643262
  H                                                -4.744056786479      2.260148548404      1.252507342288
  C                                                -5.620273135428      1.821617572175     -1.839754654104
  O                                                -4.744707081874      2.371433935878     -2.368108075807
  O                                                -6.519157210227      1.272000295726     -1.352693703057
 Recover connectivity data from disk.
 ITRead=  0  0  0  0  0  0  0  0  0  0  0  0  0  0  0  0
 MicOpt= -1 -1 -1 -1 -1 -1 -1 -1 -1 -1 -1 -1 -1 -1 -1 -1
 NAtoms=     16 NQM=       16 NQMF=       0 NMMI=      0 NMMIF=      0
                NMic=       0 NMicF=      0.
                    Isotopes and Nuclear Properties:
 (Nuclear quadrupole moments (NQMom) in fm**2, nuclear magnetic moments (NMagM)
  in nuclear magnetons)

  Atom         1           2           3           4           5           6           7           8           9          10
 IAtWgt=          16          12          12           1           1          12           1           1           1          16
 AtmWgt=  15.9949146  12.0000000  12.0000000   1.0078250   1.0078250  12.0000000   1.0078250   1.0078250   1.0078250  15.9949146
 NucSpn=           0           0           0           1           1           0           1           1           1           0
 AtZEff=   5.6000000   3.6000000   3.6000000   1.0000000   1.0000000   3.6000000   1.0000000   1.0000000   1.0000000   5.6000000
 NQMom=    0.0000000   0.0000000   0.0000000   0.0000000   0.0000000   0.0000000   0.0000000   0.0000000   0.0000000   0.0000000
 NMagM=    0.0000000   0.0000000   0.0000000   2.7928460   2.7928460   0.0000000   2.7928460   2.7928460   2.7928460   0.0000000
 AtZNuc=   8.0000000   6.0000000   6.0000000   1.0000000   1.0000000   6.0000000   1.0000000   1.0000000   1.0000000   8.0000000

  Atom        11          12          13          14          15          16
 IAtWgt=           1           1           1          12          16          16
 AtmWgt=   1.0078250   1.0078250   1.0078250  12.0000000  15.9949146  15.9949146
 NucSpn=           1           1           1           0           0           0
 AtZEff=   1.0000000   1.0000000   1.0000000   3.6000000   5.6000000   5.6000000
 NQMom=    0.0000000   0.0000000   0.0000000   0.0000000   0.0000000   0.0000000
 NMagM=    2.7928460   2.7928460   2.7928460   0.0000000   0.0000000   0.0000000
 AtZNuc=   1.0000000   1.0000000   1.0000000   6.0000000   8.0000000   8.0000000
 Leave Link  101 at Mon Jun 19 19:00:51 2023, MaxMem=  7381975040 cpu:               0.4 elap:               0.2
 (Enter /software/commercial/gaussian/g16/AVX/g16/l103.exe)

 GradGradGradGradGradGradGradGradGradGradGradGradGradGradGradGradGradGrad
 Berny optimization.
 Initialization pass.
 Trust Radius=3.00D-01 FncErr=1.00D-07 GrdErr=1.00D-07 EigMax=2.50D+02 EigMin=1.00D-04
 Number of steps in this run=      2 maximum allowed number of steps=      2.
 GradGradGradGradGradGradGradGradGradGradGradGradGradGradGradGradGradGrad

 Leave Link  103 at Mon Jun 19 19:00:51 2023, MaxMem=  7381975040 cpu:               0.1 elap:               0.1
 (Enter /software/commercial/gaussian/g16/AVX/g16/l202.exe)
                          Input orientation:                          
 ---------------------------------------------------------------------
 Center     Atomic      Atomic             Coordinates (Angstroms)
 Number     Number       Type             X           Y           Z
 ---------------------------------------------------------------------
      1          8           0       -4.215328    1.831545    0.572068
      2          6           0       -2.950594    2.503649    0.462497
      3          6           0       -1.988013    1.538029   -0.210182
      4          1           0       -2.573978    2.768500    1.456048
      5          1           0       -3.051471    3.412954   -0.139281
      6          6           0       -0.592267    2.119186   -0.341218
      7          1           0       -0.610265    3.023878   -0.953573
      8          1           0        0.073619    1.397150   -0.817817
      9          1           0       -0.185222    2.369812    0.642099
     10          8           0       -1.900163    0.326615    0.554863
     11          1           0       -2.384854    1.301113   -1.206047
     12          1           0       -2.807638    0.074863    0.771172
     13          1           0       -4.744057    2.260149    1.252507
     14          6           0       -5.620273    1.821618   -1.839755
     15          8           0       -4.744707    2.371434   -2.368108
     16          8           0       -6.519157    1.272000   -1.352694
 ---------------------------------------------------------------------
                    Distance matrix (angstroms):
                    1          2          3          4          5
     1  O    0.000000
     2  C    1.436412   0.000000
     3  C    2.378865   1.520357   0.000000
     4  H    2.086464   1.095047   2.152612   0.000000
     5  H    2.088405   1.095056   2.156691   1.785608   0.000000
     6  C    3.747452   2.521007   1.517570   2.752990   2.786090
     7  H    4.092153   2.784427   2.158371   3.118920   2.602679
     8  H    4.529408   3.465459   2.153925   3.749778   3.780220
     9  H    4.066495   2.774428   2.160625   2.554921   3.148663
    10  O    2.761358   2.418970   1.435456   2.688673   3.366427
    11  H    2.606470   2.133119   1.097888   3.045610   2.458097
    12  H    2.259903   2.452492   1.943115   2.789145   3.468606
    13  H    0.962421   1.974821   3.202608   2.238100   2.476062
    14  C    2.791211   3.590643   3.991146   4.586808   3.467378
    15  O    3.035845   3.353900   3.598690   4.415189   2.986551
    16  O    3.053756   4.188856   4.680531   5.068824   4.252165
                    6          7          8          9         10
     6  C    0.000000
     7  H    1.092597   0.000000
     8  H    1.091736   1.769850   0.000000
     9  H    1.093349   1.776128   1.773253   0.000000
    10  O    2.393086   3.348796   2.631750   2.668948   0.000000
    11  H    2.151869   2.486127   2.490790   3.065313   2.070115
    12  H    3.213182   4.062004   3.546120   3.487193   0.966272
    13  H    4.449403   4.747452   5.314227   4.600825   3.508987
    14  C    5.254998   5.227899   5.800425   5.999991   4.669952
    15  O    4.627598   4.418167   5.154502   5.463538   4.562508
    16  O    6.071971   6.176032   6.615622   6.730759   5.086024
                   11         12         13         14         15
    11  H    0.000000
    12  H    2.364705   0.000000
    13  H    3.539785   2.959201   0.000000
    14  C    3.337731   4.216515   3.243786   0.000000
    15  O    2.839873   4.345290   3.622325   1.161065   0.000000
    16  O    4.137005   4.440643   3.303709   1.160733   2.321313
                   16
    16  O    0.000000
 Symmetry turned off by external request.
 Stoichiometry    C4H8O4
 Framework group  C1[X(C4H8O4)]
 Deg. of freedom    42
 Full point group                 C1      NOp   1
 Rotational constants (GHZ):           3.4095106           0.9140590           0.8406335
 Leave Link  202 at Mon Jun 19 19:00:52 2023, MaxMem=  7381975040 cpu:               0.0 elap:               0.1
 (Enter /software/commercial/gaussian/g16/AVX/g16/l301.exe)
 Standard basis: 6-311+G(d,p) (5D, 7F)
 Ernie: Thresh=  0.10000D-02 Tol=  0.10000D-05 Strict=F.
   224 basis functions,   352 primitive gaussians,   232 cartesian basis functions
    32 alpha electrons       32 beta electrons
       nuclear repulsion energy       374.8057640571 Hartrees.
 IExCor=  402 DFT=T Ex+Corr=B3LYP ExCW=0 ScaHFX=  0.200000
 ScaDFX=  0.800000  0.720000  1.000000  0.810000 ScalE2=  1.000000  1.000000
 IRadAn=      5 IRanWt=     -1 IRanGd=            0 ICorTp=0 IEmpDi=141
 NAtoms=   16 NActive=   16 NUniq=   16 SFac= 1.00D+00 NAtFMM=   60 NAOKFM=F Big=F
 Integral buffers will be    131072 words long.
 Raffenetti 2 integral format.
 Two-electron integral symmetry is turned off.
 R6Disp:  Grimme-D3(BJ) Dispersion energy=       -0.0190813580 Hartrees.
 Nuclear repulsion after empirical dispersion term =      374.7866826991 Hartrees.
 Force inversion solution in PCM.
 ------------------------------------------------------------------------------
 Polarizable Continuum Model (PCM)
 =================================
 Model                : PCM.
 Atomic radii         : UFF (Universal Force Field).
 Polarization charges : Total charges.
 Charge compensation  : None.
 Solution method      : Matrix inversion.
 Cavity type          : Scaled VdW (van der Waals Surface) (Alpha=1.100).
 Cavity algorithm     : GePol (No added spheres)
                        Default sphere list used, NSphG=   16.
                        Lebedev-Laikov grids with approx.  5.0 points / Ang**2.
                        Smoothing algorithm: York/Karplus (Gamma=1.0000).
                        Polarization charges: spherical gaussians, with
                                              point-specific exponents (IZeta= 3).
                        Self-potential: point-specific (ISelfS= 7).
                        Self-field    : sphere-specific E.n sum rule (ISelfD= 2).
 1st derivatives      : Analytical E(r).r(x)/FMM algorithm (CHGder, D1EAlg=3).
                        Cavity 1st derivative terms included.
 2nd derivatives      : Analytical E(r).r(xy)/FMM algorithm (CHGder, D2EAlg=3).
                        Cavity 2nd derivative terms included.
 Solvent              : Ethanol, Eps=  24.852000 Eps(inf)=   1.852593
 ------------------------------------------------------------------------------
 Spheres list:
 ISph  on   Nord     Re0    Alpha      Xe            Ye            Ze
    1   O      1    1.7500  1.100     -4.215328      1.831545      0.572068
    2   C      2    1.9255  1.100     -2.950594      2.503649      0.462497
    3   C      3    1.9255  1.100     -1.988013      1.538029     -0.210182
    4   H      4    1.4430  1.100     -2.573978      2.768500      1.456048
    5   H      5    1.4430  1.100     -3.051471      3.412954     -0.139281
    6   C      6    1.9255  1.100     -0.592267      2.119186     -0.341218
    7   H      7    1.4430  1.100     -0.610265      3.023878     -0.953573
    8   H      8    1.4430  1.100      0.073619      1.397150     -0.817817
    9   H      9    1.4430  1.100     -0.185222      2.369812      0.642099
   10   O     10    1.7500  1.100     -1.900163      0.326615      0.554863
   11   H     11    1.4430  1.100     -2.384854      1.301113     -1.206047
   12   H     12    1.4430  1.100     -2.807638      0.074863      0.771172
   13   H     13    1.4430  1.100     -4.744057      2.260149      1.252507
   14   C     14    1.9255  1.100     -5.620273      1.821618     -1.839755
   15   O     15    1.7500  1.100     -4.744707      2.371434     -2.368108
   16   O     16    1.7500  1.100     -6.519157      1.272000     -1.352694
 ------------------------------------------------------------------------------
 GePol: Number of generator spheres                  =      16
 GePol: Total number of spheres                      =      16
 GePol: Number of exposed spheres                    =      16 (100.00%)
 GePol: Number of points                             =    1446
 GePol: Average weight of points                     =       0.13
 GePol: Minimum weight of points                     =   0.10D-08
 GePol: Maximum weight of points                     =    0.20577
 GePol: Number of points with low weight             =      77
 GePol: Fraction of low-weight points (<1% of avg)   =       5.33%
 GePol: Cavity surface area                          =    193.302 Ang**2
 GePol: Cavity volume                                =    181.966 Ang**3
 Leave Link  301 at Mon Jun 19 19:00:52 2023, MaxMem=  7381975040 cpu:               0.4 elap:               0.2
 (Enter /software/commercial/gaussian/g16/AVX/g16/l302.exe)
 NPDir=0 NMtPBC=     1 NCelOv=     1 NCel=       1 NClECP=     1 NCelD=      1
         NCelK=      1 NCelE2=     1 NClLst=     1 CellRange=     0.0.
 One-electron integrals computed using PRISM.
 NBasis=   224 RedAO= T EigKep=  4.10D-05  NBF=   224
 NBsUse=   224 1.00D-06 EigRej= -1.00D+00 NBFU=   224
 Precomputing XC quadrature grid using
 IXCGrd= 4 IRadAn=           5 IRanWt=          -1 IRanGd=           0 AccXCQ= 0.00D+00.
 Generated NRdTot=       0 NPtTot=           0 NUsed=           0 NTot=          32
 NSgBfM=   232   232   232   232   232 MxSgAt=    16 MxSgA2=    16.
 Leave Link  302 at Mon Jun 19 19:00:53 2023, MaxMem=  7381975040 cpu:               1.0 elap:               0.3
 (Enter /software/commercial/gaussian/g16/AVX/g16/l303.exe)
 DipDrv:  MaxL=1.
 Leave Link  303 at Mon Jun 19 19:00:54 2023, MaxMem=  7381975040 cpu:               0.1 elap:               0.1
 (Enter /software/commercial/gaussian/g16/AVX/g16/l401.exe)
 Initial guess from the checkpoint file:  "/scratch1/svicchi/G09-763143.pbs02/02-freq/PG-CO2_binding-site_index-0-freq.chk"
 B after Tr=     0.000000    0.000000    0.000000
         Rot=    1.000000    0.000000    0.000000    0.000000 Ang=   0.00 deg.
 Guess basis will be translated and rotated to current coordinates.
 JPrj=2 DoOrth=T DoCkMO=T.
 Leave Link  401 at Mon Jun 19 19:00:54 2023, MaxMem=  7381975040 cpu:               0.7 elap:               0.2
 (Enter /software/commercial/gaussian/g16/AVX/g16/l502.exe)
 Keep R1 ints in memory in canonical form, NReq=323858320.
 FoFCou: FMM=F IPFlag=           0 FMFlag=           0 FMFlg1=           0
         NFxFlg=           0 DoJE=F BraDBF=F KetDBF=F FulRan=T
         wScrn=  0.000000 ICntrl=       600 IOpCl=  0 I1Cent=           0 NGrid=           0
         NMat0=    1 NMatS0=  25200 NMatT0=    0 NMatD0=    1 NMtDS0=    0 NMtDT0=    0
 Symmetry not used in FoFCou.
 Two-electron integral symmetry not used.
 Closed shell SCF:
 Using DIIS extrapolation, IDIIS=  1040.
 NGot=  7381975040 LenX=  7064331210 LenY=  7064276945
 Requested convergence on RMS density matrix=1.00D-08 within 350 cycles.
 Requested convergence on MAX density matrix=1.00D-06.
 Requested convergence on             energy=1.00D-06.
 No special actions if energy rises.

 Cycle   1  Pass 1  IDiag  1:
 Inv3:  Mode=1 IEnd=     6272748.
 Iteration    1 A*A^-1 deviation from unit magnitude is 3.22D-15 for   1427.
 Iteration    1 A*A^-1 deviation from orthogonality  is 1.73D-15 for   1143    957.
 Iteration    1 A^-1*A deviation from unit magnitude is 3.22D-15 for   1427.
 Iteration    1 A^-1*A deviation from orthogonality  is 2.15D-15 for   1298    377.
 E= -458.342905737804    
 DIIS: error= 1.87D-08 at cycle   1 NSaved=   1.
 NSaved= 1 IEnMin= 1 EnMin= -458.342905737804     IErMin= 1 ErrMin= 1.87D-08
 ErrMax= 1.87D-08  0.00D+00 EMaxC= 1.00D-01 BMatC= 1.19D-13 BMatP= 1.19D-13
 IDIUse=1 WtCom= 1.00D+00 WtEn= 0.00D+00
 Coeff-Com:  0.100D+01
 Coeff:      0.100D+01
 Gap=     0.272 Goal=   None    Shift=    0.000
 RMSDP=2.78D-09 MaxDP=1.39D-07              OVMax= 1.74D-07

 Error on total polarization charges =  0.01107
 SCF Done:  E(RB3LYP) =  -458.342905738     A.U. after    1 cycles
            NFock=  1  Conv=0.28D-08     -V/T= 2.0036
 KE= 4.566787581476D+02 PE=-1.825712468650D+03 EE= 5.359041220654D+02
 Leave Link  502 at Mon Jun 19 19:01:04 2023, MaxMem=  7381975040 cpu:              34.3 elap:               9.0
 (Enter /software/commercial/gaussian/g16/AVX/g16/l508.exe)
 QCSCF skips out because SCF is already converged.
 Leave Link  508 at Mon Jun 19 19:01:05 2023, MaxMem=  7381975040 cpu:               0.0 elap:               0.1
 (Enter /software/commercial/gaussian/g16/AVX/g16/l801.exe)
 DoSCS=F DFT=T ScalE2(SS,OS)=  1.000000  1.000000
 Range of M.O.s used for correlation:     1   224
 NBasis=   224 NAE=    32 NBE=    32 NFC=     0 NFV=     0
 NROrb=    224 NOA=    32 NOB=    32 NVA=   192 NVB=   192

 **** Warning!!: The largest alpha MO coefficient is  0.50297356D+02

 Leave Link  801 at Mon Jun 19 19:01:05 2023, MaxMem=  7381975040 cpu:               0.1 elap:               0.1
 (Enter /software/commercial/gaussian/g16/AVX/g16/l1002.exe)
 Minotr:  Closed shell wavefunction.
 NEqPCM:  Using equilibrium solvation (IEInf=0, Eps=  24.8520, EpsInf=   1.8526)
          Direct CPHF calculation.
          Differentiating once with respect to electric field.
                with respect to dipole field.
          Electric field/nuclear overlap derivatives assumed to be zero.
          Requested convergence is 1.0D-08 RMS, and 1.0D-07 maximum.
          Secondary convergence is 1.0D-12 RMS, and 1.0D-12 maximum.
          NewPWx=F KeepS1=T KeepF1=T KeepIn=T MapXYZ=F SortEE=F KeepMc=T.
         4944 words used for storage of precomputed grid.
 Keep R1 ints in memory in canonical form, NReq=323865116.
 FoFCou: FMM=F IPFlag=           0 FMFlag=           0 FMFlg1=           0
         NFxFlg=           0 DoJE=F BraDBF=F KetDBF=F FulRan=T
         wScrn=  0.000000 ICntrl=       600 IOpCl=  0 I1Cent=           0 NGrid=           0
         NMat0=    1 NMatS0=  25200 NMatT0=    0 NMatD0=    1 NMtDS0=    0 NMtDT0=    0
 Symmetry not used in FoFCou.
 Two-electron integral symmetry not used.
          MDV=    7381975040 using IRadAn=       1.
          Solving linear equations simultaneously, MaxMat=       0.
          There are     3 degrees of freedom in the 1st order CPHF.  IDoFFX=0 NUNeed=     3.
      3 vectors produced by pass  0 Test12= 2.05D-13 3.33D-08 XBig12= 4.51D+01 2.07D+00.
 AX will form     3 AO Fock derivatives at one time.
      3 vectors produced by pass  1 Test12= 2.05D-13 3.33D-08 XBig12= 2.61D+01 1.67D+00.
      3 vectors produced by pass  2 Test12= 2.05D-13 3.33D-08 XBig12= 3.00D+00 2.30D-01.
      3 vectors produced by pass  3 Test12= 2.05D-13 3.33D-08 XBig12= 3.37D-01 7.62D-02.
      3 vectors produced by pass  4 Test12= 2.05D-13 3.33D-08 XBig12= 5.58D-02 2.58D-02.
      3 vectors produced by pass  5 Test12= 2.05D-13 3.33D-08 XBig12= 6.09D-03 2.29D-02.
      3 vectors produced by pass  6 Test12= 2.05D-13 3.33D-08 XBig12= 1.46D-03 4.68D-03.
      3 vectors produced by pass  7 Test12= 2.05D-13 3.33D-08 XBig12= 1.54D-04 2.51D-03.
      3 vectors produced by pass  8 Test12= 2.05D-13 3.33D-08 XBig12= 4.70D-06 3.28D-04.
      3 vectors produced by pass  9 Test12= 2.05D-13 3.33D-08 XBig12= 7.24D-08 2.83D-05.
      3 vectors produced by pass 10 Test12= 2.05D-13 3.33D-08 XBig12= 1.60D-09 6.43D-06.
      3 vectors produced by pass 11 Test12= 2.05D-13 3.33D-08 XBig12= 3.33D-11 6.69D-07.
      3 vectors produced by pass 12 Test12= 2.05D-13 3.33D-08 XBig12= 7.27D-13 1.08D-07.
 InvSVY:  IOpt=1 It=  1 EMax= 2.66D-15
 Solved reduced A of dimension    39 with     3 vectors.
 End of Minotr F.D. properties file   721 does not exist.
 End of Minotr F.D. properties file   722 does not exist.
 End of Minotr F.D. properties file   788 does not exist.
 Leave Link 1002 at Mon Jun 19 19:01:52 2023, MaxMem=  7381975040 cpu:             181.8 elap:              45.9
 (Enter /software/commercial/gaussian/g16/AVX/g16/l1101.exe)
 Using compressed storage, NAtomX=    16.
 Will process     17 centers per pass.
 R6Disp: Adding Grimme-D3(BJ) dispersion energy 1st derivatives to the gradient.
 Leave Link 1101 at Mon Jun 19 19:01:52 2023, MaxMem=  7381975040 cpu:               0.8 elap:               0.3
 (Enter /software/commercial/gaussian/g16/AVX/g16/l1102.exe)
 Symmetrizing basis deriv contribution to polar:
 IMax=3 JMax=2 DiffMx= 0.00D+00
 Leave Link 1102 at Mon Jun 19 19:01:53 2023, MaxMem=  7381975040 cpu:               0.1 elap:               0.1
 (Enter /software/commercial/gaussian/g16/AVX/g16/l1110.exe)
 Forming Gx(P) for the SCF density, NAtomX=    16.
 Integral derivatives from FoFJK, PRISM(SPDF).
 Do as many integral derivatives as possible in FoFJK.
 G2DrvN: MDV=    7381973256.
 G2DrvN: will do    17 centers at a time, making    1 passes.
 PxScal for G2LodP:  IOpCl= 0 ISclPx=1 IMOff=     1 NMtTot=     4 NTT=   25200 ScalPx= 7.85D+00
 Calling FoFCou, ICntrl=  3107 FMM=F I1Cent=   0 AccDes= 0.00D+00.
 FoFJK:  IHMeth= 1 ICntrl=    3107 DoSepK=F KAlg= 0 I1Cent=           0 FoldK=F
 IRaf=         0 NMat=       1 IRICut=       1 DoRegI=T DoRafI=F ISym2E= 0 IDoP0=0 IntGTp=1.
 FoFCou: FMM=F IPFlag=           0 FMFlag=      100000 FMFlg1=           0
         NFxFlg=           0 DoJE=F BraDBF=F KetDBF=F FulRan=T
         wScrn=  0.000000 ICntrl=      3107 IOpCl=  0 I1Cent=           0 NGrid=           0
         NMat0=    1 NMatS0=      1 NMatT0=    0 NMatD0=    4 NMtDS0=    3 NMtDT0=    0
 Symmetry not used in FoFCou.
 PxScal for G2LodP:  IOpCl= 0 ISclPx=0 IMOff=     1 NMtTot=     4 NTT=   25200 ScalPx= 1.00D+00
 NEqPCM:  Using equilibrium solvation (IEInf=0, Eps=  24.8520, EpsInf=   1.8526)
 G2PCM: DoFxE=T DoFxN=T DoGrad=T DoDP/DQ/DG/TGxP=TFFF NFrqRd=   0 IEInf=0 SqF1=F DoCFld=F IF1Alg=4.
 GePol: Maximum number of non-zero 1st derivatives   =     216
 End of G2Drv F.D. properties file   721 does not exist.
 End of G2Drv F.D. properties file   722 does not exist.
 End of G2Drv F.D. properties file   788 does not exist.
 Leave Link 1110 at Mon Jun 19 19:04:03 2023, MaxMem=  7381975040 cpu:             515.4 elap:             129.4
 (Enter /software/commercial/gaussian/g16/AVX/g16/l1002.exe)
 Minotr:  Closed shell wavefunction.
          IDoAtm=1111111111111111
 NEqPCM:  Using equilibrium solvation (IEInf=0, Eps=  24.8520, EpsInf=   1.8526)
          Direct CPHF calculation.
          Differentiating once with respect to electric field.
                with respect to dipole field.
          Differentiating once with respect to nuclear coordinates.
          Requested convergence is 1.0D-08 RMS, and 1.0D-07 maximum.
          Secondary convergence is 1.0D-12 RMS, and 1.0D-12 maximum.
          NewPWx=T KeepS1=F KeepF1=F KeepIn=T MapXYZ=F SortEE=F KeepMc=T.
         4944 words used for storage of precomputed grid.
 Keep R1 ints in memory in canonical form, NReq=323865484.
 FoFCou: FMM=F IPFlag=           0 FMFlag=           0 FMFlg1=           0
         NFxFlg=           0 DoJE=F BraDBF=F KetDBF=F FulRan=T
         wScrn=  0.000000 ICntrl=       600 IOpCl=  0 I1Cent=           0 NGrid=           0
         NMat0=    1 NMatS0=  25200 NMatT0=    0 NMatD0=    1 NMtDS0=    0 NMtDT0=    0
 Symmetry not used in FoFCou.
 Two-electron integral symmetry not used.
          MDV=    7381975040 using IRadAn=       1.
          Solving linear equations simultaneously, MaxMat=       0.
          There are    51 degrees of freedom in the 1st order CPHF.  IDoFFX=5 NUNeed=    51.
 Will reuse    3 saved solutions.
     45 vectors produced by pass  0 Test12= 1.20D-14 1.96D-09 XBig12= 2.40D-01 1.13D-01.
 AX will form    45 AO Fock derivatives at one time.
     45 vectors produced by pass  1 Test12= 1.20D-14 1.96D-09 XBig12= 8.98D-03 1.31D-02.
     45 vectors produced by pass  2 Test12= 1.20D-14 1.96D-09 XBig12= 2.15D-04 1.78D-03.
     45 vectors produced by pass  3 Test12= 1.20D-14 1.96D-09 XBig12= 7.01D-07 1.02D-04.
     45 vectors produced by pass  4 Test12= 1.20D-14 1.96D-09 XBig12= 1.37D-09 4.28D-06.
     33 vectors produced by pass  5 Test12= 1.20D-14 1.96D-09 XBig12= 1.45D-12 1.66D-07.
     12 vectors produced by pass  6 Test12= 1.20D-14 1.96D-09 XBig12= 1.57D-15 1.32D-08.
 InvSVY:  IOpt=1 It=  1 EMax= 6.11D-16
 Solved reduced A of dimension   270 with    51 vectors.
 FullF1:  Do perturbations      1 to       3.
 Isotropic polarizability for W=    0.000000       77.41 Bohr**3.
 FullF1:  Do perturbations      1 to       6.
 End of Minotr F.D. properties file   721 does not exist.
 End of Minotr F.D. properties file   722 does not exist.
 End of Minotr F.D. properties file   788 does not exist.
 Leave Link 1002 at Mon Jun 19 19:06:35 2023, MaxMem=  7381975040 cpu:             606.5 elap:             152.3
 (Enter /software/commercial/gaussian/g16/AVX/g16/l601.exe)
 Copying SCF densities to generalized density rwf, IOpCl= 0 IROHF=0.

 **********************************************************************

            Population analysis using the SCF Density.

 **********************************************************************

 Alpha  occ. eigenvalues --  -19.20309 -19.20304 -19.14034 -19.12630 -10.36096
 Alpha  occ. eigenvalues --  -10.22591 -10.22203 -10.16385  -1.16458  -1.12591
 Alpha  occ. eigenvalues --   -1.04613  -1.01956  -0.77902  -0.69117  -0.59524
 Alpha  occ. eigenvalues --   -0.56726  -0.54018  -0.52601  -0.51906  -0.51756
 Alpha  occ. eigenvalues --   -0.51025  -0.48177  -0.44056  -0.40276  -0.39210
 Alpha  occ. eigenvalues --   -0.38127  -0.37596  -0.37404  -0.36312  -0.34315
 Alpha  occ. eigenvalues --   -0.30016  -0.28385
 Alpha virt. eigenvalues --   -0.01139   0.01404   0.01569   0.02655   0.02995
 Alpha virt. eigenvalues --    0.03166   0.04368   0.05476   0.06066   0.06270
 Alpha virt. eigenvalues --    0.06915   0.08087   0.08572   0.09806   0.10649
 Alpha virt. eigenvalues --    0.11986   0.12676   0.13803   0.14512   0.15815
 Alpha virt. eigenvalues --    0.16307   0.17251   0.17947   0.18802   0.19770
 Alpha virt. eigenvalues --    0.20488   0.20826   0.21598   0.22426   0.23245
 Alpha virt. eigenvalues --    0.24169   0.25027   0.25477   0.26001   0.26845
 Alpha virt. eigenvalues --    0.27247   0.27469   0.28442   0.28750   0.29478
 Alpha virt. eigenvalues --    0.30650   0.32029   0.32327   0.34594   0.35585
 Alpha virt. eigenvalues --    0.37387   0.39642   0.42689   0.45026   0.46455
 Alpha virt. eigenvalues --    0.50601   0.53825   0.54089   0.55234   0.57374
 Alpha virt. eigenvalues --    0.58868   0.59364   0.62281   0.64068   0.64709
 Alpha virt. eigenvalues --    0.66001   0.66740   0.69581   0.70836   0.71981
 Alpha virt. eigenvalues --    0.73144   0.74595   0.84739   0.85434   0.86463
 Alpha virt. eigenvalues --    0.91972   0.95339   0.98019   0.98716   1.00676
 Alpha virt. eigenvalues --    1.05802   1.06166   1.09536   1.10804   1.11473
 Alpha virt. eigenvalues --    1.12910   1.13399   1.16323   1.16707   1.18015
 Alpha virt. eigenvalues --    1.19606   1.22786   1.27484   1.31245   1.32820
 Alpha virt. eigenvalues --    1.36863   1.38283   1.39761   1.40644   1.42132
 Alpha virt. eigenvalues --    1.45621   1.46242   1.50321   1.52072   1.53893
 Alpha virt. eigenvalues --    1.54415   1.57707   1.57863   1.59369   1.61852
 Alpha virt. eigenvalues --    1.64814   1.68687   1.71777   1.74626   1.75572
 Alpha virt. eigenvalues --    1.77287   1.81560   1.86940   1.89886   1.92168
 Alpha virt. eigenvalues --    2.00415   2.03622   2.06755   2.07767   2.09553
 Alpha virt. eigenvalues --    2.13989   2.18253   2.25520   2.32595   2.37581
 Alpha virt. eigenvalues --    2.45372   2.46691   2.47916   2.52079   2.54721
 Alpha virt. eigenvalues --    2.56035   2.56604   2.57446   2.59474   2.61762
 Alpha virt. eigenvalues --    2.63001   2.65536   2.70561   2.72401   2.74251
 Alpha virt. eigenvalues --    2.76517   2.77130   2.83880   2.85228   2.85695
 Alpha virt. eigenvalues --    2.88168   2.91835   2.98849   3.07942   3.09001
 Alpha virt. eigenvalues --    3.11059   3.13558   3.14814   3.17614   3.19716
 Alpha virt. eigenvalues --    3.21703   3.28544   3.33182   3.40791   3.67141
 Alpha virt. eigenvalues --    3.68567   3.77310   3.80107   3.81309   3.83818
 Alpha virt. eigenvalues --    3.84621   3.85510   3.88645   3.94419   3.99239
 Alpha virt. eigenvalues --    4.14521   4.30183   4.96038   4.99636   5.02928
 Alpha virt. eigenvalues --    5.04339   5.05964   5.07789   5.36605   5.40737
 Alpha virt. eigenvalues --    5.62791   5.63844   5.65977   5.69906  23.78261
 Alpha virt. eigenvalues --   23.82584  23.95805  24.39331  49.90075  49.91913
 Alpha virt. eigenvalues --   49.92017  50.06819
     Molecular Orbital Coefficients:
                           1         2         3         4         5
                           O         O         O         O         O
     Eigenvalues --   -19.20309 -19.20304 -19.14034 -19.12630 -10.36096
   1 1   O  1S          0.00000  -0.00000   0.55133  -0.00000  -0.00000
   2        2S         -0.00000  -0.00000   0.46972  -0.00001  -0.00001
   3        2PX        -0.00001   0.00002   0.00034  -0.00001   0.00000
   4        2PY        -0.00001   0.00001   0.00097  -0.00000   0.00000
   5        2PZ         0.00001   0.00000   0.00068   0.00002  -0.00000
   6        3S          0.00004   0.00000   0.01370   0.00004   0.00008
   7        3PX         0.00006  -0.00009  -0.00009   0.00005  -0.00002
   8        3PY         0.00004  -0.00003  -0.00002   0.00001   0.00000
   9        3PZ        -0.00005  -0.00001   0.00006  -0.00006  -0.00002
  10        4S          0.00006  -0.00001  -0.00988   0.00017  -0.00023
  11        4PX        -0.00025   0.00046  -0.00161  -0.00048   0.00023
  12        4PY        -0.00015   0.00003  -0.00035  -0.00004  -0.00012
  13        4PZ         0.00017   0.00001   0.00045   0.00025   0.00012
  14        5S         -0.00048  -0.00004   0.00850  -0.00185  -0.00064
  15        5PX        -0.00006  -0.00021   0.00064  -0.00062  -0.00036
  16        5PY         0.00006   0.00005   0.00011   0.00012  -0.00001
  17        5PZ        -0.00004   0.00041  -0.00010   0.00057   0.00033
  18        6D 0       -0.00000  -0.00001   0.00008   0.00003  -0.00002
  19        6D+1       -0.00001   0.00001  -0.00019  -0.00001  -0.00001
  20        6D-1        0.00001  -0.00001   0.00013   0.00001  -0.00001
  21        6D+2       -0.00000  -0.00000   0.00002  -0.00001  -0.00001
  22        6D-2       -0.00002   0.00003  -0.00015  -0.00000   0.00000
  23 2   C  1S          0.00000  -0.00000   0.00002  -0.00000   0.00000
  24        2S         -0.00002   0.00001  -0.00007   0.00002  -0.00000
  25        2PX         0.00003  -0.00003  -0.00012   0.00004  -0.00000
  26        2PY         0.00000  -0.00001  -0.00013  -0.00006  -0.00001
  27        2PZ         0.00001  -0.00001  -0.00000  -0.00004  -0.00000
  28        3S          0.00011  -0.00006   0.00007  -0.00011   0.00002
  29        3PX        -0.00016   0.00014  -0.00022  -0.00022   0.00000
  30        3PY        -0.00003   0.00009   0.00030   0.00038   0.00004
  31        3PZ        -0.00006   0.00001   0.00009   0.00021  -0.00003
  32        4S          0.00009   0.00015   0.00427  -0.00024   0.00039
  33        4PX         0.00008  -0.00012  -0.00072  -0.00082  -0.00019
  34        4PY        -0.00007   0.00028  -0.00168   0.00044   0.00010
  35        4PZ         0.00039  -0.00064  -0.00012  -0.00048  -0.00017
  36        5S         -0.00158  -0.00354  -0.01826   0.01054  -0.00269
  37        5PX        -0.00046  -0.00104  -0.00041   0.00174  -0.00121
  38        5PY         0.00052   0.00084   0.00385  -0.00227   0.00068
  39        5PZ         0.00032   0.00005   0.00263  -0.00062   0.00004
  40        6D 0       -0.00002  -0.00000   0.00010   0.00007  -0.00002
  41        6D+1        0.00001  -0.00001   0.00003   0.00002  -0.00001
  42        6D-1        0.00001  -0.00005  -0.00005  -0.00012  -0.00003
  43        6D+2        0.00002  -0.00003  -0.00008  -0.00002  -0.00000
  44        6D-2        0.00001  -0.00004  -0.00011   0.00011  -0.00002
  45 3   C  1S          0.00000  -0.00000   0.00000   0.00001   0.00000
  46        2S         -0.00000   0.00000  -0.00000  -0.00003  -0.00000
  47        2PX         0.00002  -0.00001  -0.00003   0.00003   0.00001
  48        2PY         0.00000  -0.00000   0.00002  -0.00009  -0.00001
  49        2PZ         0.00001  -0.00001   0.00003   0.00012  -0.00000
  50        3S         -0.00004   0.00003   0.00011  -0.00027  -0.00002
  51        3PX        -0.00008   0.00002   0.00020  -0.00007  -0.00005
  52        3PY        -0.00002   0.00003  -0.00013  -0.00036   0.00003
  53        3PZ        -0.00004   0.00004  -0.00021  -0.00021   0.00000
  54        4S          0.00050  -0.00015  -0.00198   0.00474   0.00037
  55        4PX        -0.00021   0.00010   0.00003  -0.00017   0.00019
  56        4PY         0.00008  -0.00039  -0.00138  -0.00109  -0.00021
  57        4PZ        -0.00021   0.00023  -0.00026   0.00158  -0.00001
  58        5S         -0.00070   0.00270   0.02657  -0.02563   0.00500
  59        5PX        -0.00097  -0.00190   0.00131  -0.00321  -0.00119
  60        5PY        -0.00088   0.00020   0.00419  -0.00109   0.00057
  61        5PZ         0.00025   0.00059   0.00202  -0.00390   0.00006
  62        6D 0        0.00001   0.00000   0.00002   0.00006  -0.00001
  63        6D+1        0.00003  -0.00002   0.00007   0.00002   0.00001
  64        6D-1        0.00000  -0.00002  -0.00003   0.00011  -0.00002
  65        6D+2        0.00002  -0.00002  -0.00003   0.00007   0.00001
  66        6D-2        0.00000   0.00001   0.00010   0.00004   0.00001
  67 4   H  1S          0.00003  -0.00001   0.00004   0.00005   0.00001
  68        2S         -0.00012   0.00016  -0.00093  -0.00015   0.00002
  69        3S         -0.00000   0.00034  -0.00028   0.00022   0.00012
  70        4PX         0.00000  -0.00001   0.00020  -0.00000   0.00000
  71        4PY         0.00000  -0.00003   0.00020   0.00012  -0.00001
  72        4PZ        -0.00001  -0.00001   0.00017   0.00011  -0.00001
  73 5   H  1S          0.00001   0.00003   0.00006  -0.00001   0.00002
  74        2S          0.00007  -0.00031  -0.00112  -0.00031  -0.00014
  75        3S          0.00049  -0.00050   0.00108  -0.00012  -0.00043
  76        4PX        -0.00000   0.00003   0.00014   0.00004   0.00003
  77        4PY        -0.00001   0.00009   0.00030   0.00008   0.00006
  78        4PZ        -0.00000   0.00000  -0.00010  -0.00006  -0.00000
  79 6   C  1S          0.00000  -0.00000  -0.00000  -0.00000  -0.00000
  80        2S         -0.00000   0.00000   0.00000   0.00001   0.00000
  81        2PX        -0.00001   0.00000  -0.00001  -0.00007   0.00000
  82        2PY         0.00000   0.00000  -0.00001  -0.00002   0.00000
  83        2PZ        -0.00000   0.00000   0.00001   0.00000  -0.00000
  84        3S          0.00000  -0.00003  -0.00010  -0.00003  -0.00000
  85        3PX         0.00002   0.00001   0.00006   0.00038   0.00000
  86        3PY        -0.00001  -0.00001   0.00005   0.00017  -0.00001
  87        3PZ         0.00001  -0.00000  -0.00005  -0.00004   0.00001
  88        4S         -0.00005   0.00025   0.00129  -0.00041  -0.00011
  89        4PX        -0.00007  -0.00009  -0.00061   0.00011   0.00011
  90        4PY         0.00002   0.00014   0.00002   0.00038   0.00019
  91        4PZ        -0.00000  -0.00015   0.00051  -0.00050  -0.00006
  92        5S          0.00237   0.00285  -0.01171   0.01226   0.00065
  93        5PX        -0.00061  -0.00066   0.00269  -0.00245  -0.00013
  94        5PY        -0.00003  -0.00020   0.00070  -0.00184   0.00001
  95        5PZ         0.00007   0.00011  -0.00060   0.00113   0.00019
  96        6D 0       -0.00001  -0.00000   0.00004   0.00003   0.00001
  97        6D+1       -0.00000   0.00001   0.00002   0.00006   0.00001
  98        6D-1       -0.00001   0.00000  -0.00001  -0.00004   0.00000
  99        6D+2       -0.00000   0.00001   0.00001  -0.00008   0.00000
 100        6D-2        0.00001  -0.00001  -0.00001  -0.00011  -0.00001
 101 7   H  1S          0.00000   0.00000   0.00003  -0.00001  -0.00000
 102        2S         -0.00003  -0.00004  -0.00028  -0.00025   0.00001
 103        3S          0.00012  -0.00038   0.00028   0.00011  -0.00042
 104        4PX        -0.00000  -0.00001   0.00000  -0.00005  -0.00000
 105        4PY         0.00000   0.00001   0.00001   0.00006  -0.00000
 106        4PZ        -0.00000  -0.00000  -0.00005  -0.00003  -0.00000
 107 8   H  1S         -0.00000   0.00000   0.00003   0.00004  -0.00000
 108        2S          0.00003  -0.00004  -0.00015  -0.00019   0.00003
 109        3S         -0.00004  -0.00011   0.00031  -0.00021  -0.00016
 110        4PX         0.00001   0.00002   0.00004   0.00012   0.00001
 111        4PY         0.00001  -0.00001   0.00000  -0.00002  -0.00000
 112        4PZ         0.00000   0.00001  -0.00002  -0.00006   0.00001
 113 9   H  1S          0.00000  -0.00001   0.00005   0.00005   0.00000
 114        2S          0.00001   0.00003  -0.00045  -0.00016  -0.00000
 115        3S          0.00005  -0.00020   0.00001   0.00011  -0.00016
 116        4PX        -0.00000   0.00001   0.00004   0.00010   0.00000
 117        4PY        -0.00000  -0.00000  -0.00001   0.00009  -0.00001
 118        4PZ        -0.00000   0.00000   0.00005   0.00006   0.00001
 119 10  O  1S         -0.00000   0.00000   0.00000   0.55133   0.00000
 120        2S         -0.00000  -0.00000  -0.00000   0.46972   0.00000
 121        2PX        -0.00000   0.00000  -0.00001  -0.00105  -0.00000
 122        2PY        -0.00000  -0.00000  -0.00002   0.00058  -0.00000
 123        2PZ        -0.00000   0.00000   0.00000  -0.00032  -0.00000
 124        3S          0.00000   0.00001   0.00008   0.01372  -0.00000
 125        3PX         0.00000  -0.00000   0.00002  -0.00008   0.00002
 126        3PY         0.00002   0.00000   0.00008  -0.00004   0.00000
 127        3PZ         0.00001  -0.00001  -0.00002   0.00007   0.00001
 128        4S         -0.00003  -0.00011  -0.00025  -0.01037  -0.00007
 129        4PX         0.00007  -0.00006   0.00045   0.00006  -0.00006
 130        4PY        -0.00006  -0.00008  -0.00026  -0.00151  -0.00004
 131        4PZ        -0.00001   0.00007   0.00013   0.00078  -0.00000
 132        5S         -0.00028  -0.00040  -0.00205   0.00933  -0.00059
 133        5PX        -0.00000  -0.00003  -0.00053  -0.00034   0.00003
 134        5PY         0.00030   0.00010  -0.00091   0.00094   0.00005
 135        5PZ         0.00002  -0.00000   0.00026  -0.00018   0.00009
 136        6D 0        0.00000  -0.00000   0.00004  -0.00009  -0.00000
 137        6D+1       -0.00000  -0.00000   0.00002  -0.00010  -0.00000
 138        6D-1       -0.00000   0.00000   0.00002   0.00002  -0.00000
 139        6D+2       -0.00001   0.00001  -0.00003   0.00017   0.00000
 140        6D-2        0.00000  -0.00000   0.00002   0.00013  -0.00000
 141 11  H  1S          0.00004  -0.00001   0.00006   0.00005   0.00000
 142        2S         -0.00024   0.00018  -0.00031  -0.00112   0.00009
 143        3S         -0.00008  -0.00075  -0.00050   0.00034  -0.00107
 144        4PX         0.00002   0.00003   0.00009  -0.00007   0.00003
 145        4PY        -0.00003   0.00001  -0.00001   0.00010  -0.00002
 146        4PZ        -0.00005   0.00003  -0.00018  -0.00037  -0.00001
 147 12  H  1S         -0.00001   0.00000  -0.00003   0.00005  -0.00002
 148        2S          0.00006  -0.00005   0.00031   0.00002   0.00003
 149        3S          0.00026  -0.00006  -0.00073  -0.00133   0.00010
 150        4PX         0.00000  -0.00001   0.00012  -0.00073  -0.00001
 151        4PY         0.00002  -0.00000   0.00000  -0.00009   0.00001
 152        4PZ        -0.00001  -0.00001  -0.00004   0.00013  -0.00002
 153 13  H  1S         -0.00000  -0.00000   0.00003  -0.00001  -0.00000
 154        2S         -0.00009   0.00022  -0.00029  -0.00015   0.00023
 155        3S          0.00021  -0.00031  -0.00118  -0.00047  -0.00032
 156        4PX         0.00002  -0.00003  -0.00037   0.00002   0.00000
 157        4PY         0.00006  -0.00004   0.00045   0.00005  -0.00000
 158        4PZ        -0.00000  -0.00005   0.00062   0.00006  -0.00004
 159 14  C  1S         -0.00009  -0.00010   0.00000   0.00000   0.56285
 160        2S          0.00039   0.00042  -0.00001   0.00000   0.46272
 161        2PX         0.00006  -0.00004   0.00001   0.00001   0.00003
 162        2PY         0.00003  -0.00003  -0.00001   0.00000  -0.00000
 163        2PZ        -0.00002   0.00003   0.00003   0.00001   0.00005
 164        3S         -0.00017  -0.00017   0.00007  -0.00002   0.02097
 165        3PX         0.00041  -0.00040  -0.00002  -0.00006  -0.00019
 166        3PY         0.00025  -0.00026   0.00002  -0.00002  -0.00001
 167        3PZ        -0.00024   0.00023  -0.00007  -0.00003  -0.00029
 168        4S         -0.00258  -0.00295   0.00171   0.00005  -0.00405
 169        4PX         0.01060  -0.01006  -0.00020  -0.00001  -0.00040
 170        4PY         0.00657  -0.00624  -0.00017  -0.00008  -0.00037
 171        4PZ        -0.00599   0.00589   0.00018   0.00029   0.00066
 172        5S         -0.00311  -0.00372   0.00211  -0.00049  -0.00584
 173        5PX        -0.00041  -0.00075   0.00052  -0.00039  -0.00109
 174        5PY         0.00014  -0.00005  -0.00001   0.00000  -0.00015
 175        5PZ        -0.00053  -0.00046   0.00051   0.00004  -0.00059
 176        6D 0        0.00046   0.00051  -0.00007   0.00001  -0.00158
 177        6D+1        0.00124   0.00138  -0.00010   0.00000  -0.00432
 178        6D-1        0.00076   0.00085  -0.00003  -0.00003  -0.00269
 179        6D+2       -0.00066  -0.00074   0.00003   0.00002   0.00233
 180        6D-2       -0.00134  -0.00148   0.00008   0.00002   0.00469
 181 15  O  1S          0.55067   0.02629  -0.00000   0.00000  -0.00012
 182        2S          0.46912   0.02236  -0.00000   0.00000   0.00013
 183        2PX        -0.00103   0.00007  -0.00002   0.00000  -0.00067
 184        2PY        -0.00064   0.00005  -0.00001  -0.00000  -0.00042
 185        2PZ         0.00059  -0.00006  -0.00002   0.00000   0.00041
 186        3S          0.01465   0.00060   0.00003  -0.00000  -0.00157
 187        3PX        -0.00082  -0.00078   0.00008  -0.00000   0.00327
 188        3PY        -0.00054  -0.00051   0.00003   0.00001   0.00206
 189        3PZ         0.00057   0.00054   0.00007  -0.00002  -0.00197
 190        4S         -0.01407   0.00710  -0.00016  -0.00001  -0.00675
 191        4PX         0.00217  -0.00185   0.00010  -0.00002   0.00156
 192        4PY         0.00145  -0.00113   0.00009  -0.00002   0.00104
 193        4PZ        -0.00153   0.00104  -0.00035   0.00003  -0.00117
 194        5S         -0.00266   0.01048  -0.00097   0.00037   0.00732
 195        5PX         0.00167  -0.00221   0.00015  -0.00013  -0.00158
 196        5PY         0.00080  -0.00158   0.00023  -0.00011  -0.00111
 197        5PZ        -0.00050   0.00171  -0.00014  -0.00000   0.00126
 198        6D 0       -0.00007  -0.00007  -0.00002   0.00000   0.00030
 199        6D+1       -0.00025  -0.00029   0.00002   0.00000   0.00106
 200        6D-1       -0.00016  -0.00019   0.00003  -0.00000   0.00067
 201        6D+2        0.00012   0.00013  -0.00002   0.00000  -0.00051
 202        6D-2        0.00026   0.00028  -0.00003   0.00000  -0.00107
 203 16  O  1S         -0.02628   0.55067   0.00000  -0.00000  -0.00012
 204        2S         -0.02242   0.46911  -0.00000  -0.00000   0.00013
 205        2PX        -0.00018   0.00101  -0.00001  -0.00000   0.00068
 206        2PY        -0.00011   0.00063  -0.00000   0.00000   0.00042
 207        2PZ         0.00009  -0.00059  -0.00001  -0.00000  -0.00038
 208        3S         -0.00079   0.01466   0.00003   0.00002  -0.00155
 209        3PX         0.00077   0.00102   0.00001   0.00001  -0.00332
 210        3PY         0.00045   0.00060   0.00000  -0.00001  -0.00205
 211        3PZ        -0.00037  -0.00046   0.00004   0.00001   0.00184
 212        4S          0.00816  -0.01350  -0.00036  -0.00020  -0.00719
 213        4PX         0.00193  -0.00241  -0.00032  -0.00014  -0.00209
 214        4PY         0.00123  -0.00139  -0.00021  -0.00001  -0.00115
 215        4PZ        -0.00110   0.00106   0.00010  -0.00001   0.00077
 216        5S          0.00992  -0.00265  -0.00158  -0.00011   0.00505
 217        5PX         0.00264  -0.00105  -0.00048   0.00017   0.00159
 218        5PY         0.00139  -0.00082  -0.00011  -0.00006   0.00071
 219        5PZ        -0.00101   0.00096  -0.00011  -0.00003  -0.00027
 220        6D 0       -0.00012  -0.00011   0.00000   0.00000   0.00044
 221        6D+1       -0.00022  -0.00025   0.00001   0.00001   0.00097
 222        6D-1       -0.00013  -0.00015   0.00002   0.00000   0.00059
 223        6D+2        0.00015   0.00015  -0.00002  -0.00000  -0.00059
 224        6D-2        0.00027   0.00029  -0.00003  -0.00001  -0.00113
                           6         7         8         9        10
                           O         O         O         O         O
     Eigenvalues --   -10.22591 -10.22203 -10.16385  -1.16458  -1.12591
   1 1   O  1S          0.00000  -0.00002   0.00000  -0.00190   0.00022
   2        2S         -0.00000  -0.00007   0.00000  -0.00301   0.00035
   3        2PX         0.00002   0.00009   0.00002  -0.00021  -0.00031
   4        2PY         0.00002   0.00008   0.00001   0.00046  -0.00021
   5        2PZ         0.00001  -0.00000  -0.00000  -0.00037   0.00013
   6        3S          0.00015   0.00055  -0.00002   0.00830  -0.00087
   7        3PX        -0.00004   0.00015  -0.00007  -0.00024  -0.00002
   8        3PY        -0.00004  -0.00005  -0.00005   0.00072  -0.00013
   9        3PZ        -0.00003  -0.00004   0.00001  -0.00056   0.00006
  10        4S         -0.00158  -0.00057   0.00010   0.00693  -0.00071
  11        4PX        -0.00023   0.00041   0.00028  -0.00089  -0.00232
  12        4PY        -0.00058  -0.00003   0.00013   0.00058  -0.00081
  13        4PZ        -0.00029  -0.00041  -0.00010  -0.00101   0.00066
  14        5S         -0.00048   0.00969   0.00189  -0.00133   0.00040
  15        5PX        -0.00006   0.00261   0.00015   0.00013   0.00026
  16        5PY         0.00008   0.00141   0.00037  -0.00060  -0.00014
  17        5PZ        -0.00041   0.00050   0.00008  -0.00064  -0.00159
  18        6D 0       -0.00001   0.00008   0.00000   0.00009  -0.00003
  19        6D+1        0.00002   0.00007  -0.00000   0.00003   0.00002
  20        6D-1       -0.00003  -0.00005  -0.00000   0.00006   0.00007
  21        6D+2       -0.00002  -0.00007  -0.00000   0.00010   0.00002
  22        6D-2       -0.00007  -0.00012  -0.00001   0.00003  -0.00007
  23 2   C  1S          0.01698   0.56278   0.00004  -0.00056   0.00021
  24        2S          0.01399   0.46308   0.00006  -0.00084   0.00028
  25        2PX         0.00027  -0.00095   0.00004  -0.00054   0.00025
  26        2PY        -0.00035  -0.00057  -0.00004  -0.00024   0.00009
  27        2PZ        -0.00027   0.00004  -0.00003  -0.00008   0.00016
  28        3S          0.00047   0.01885  -0.00022   0.00187  -0.00021
  29        3PX        -0.00060   0.00123  -0.00026  -0.00083  -0.00055
  30        3PY         0.00106   0.00187   0.00025  -0.00058  -0.00017
  31        3PZ         0.00069   0.00038   0.00016  -0.00004  -0.00012
  32        4S          0.00648  -0.01520   0.00046  -0.00024   0.00015
  33        4PX         0.00151   0.00055   0.00138  -0.00070   0.00087
  34        4PY        -0.00189   0.00184   0.00043  -0.00076  -0.00081
  35        4PZ        -0.00108   0.00030   0.00003   0.00035   0.00372
  36        5S          0.00297  -0.02251  -0.00529   0.02283   0.00130
  37        5PX        -0.00048  -0.00257  -0.00001   0.00575   0.00178
  38        5PY        -0.00066   0.00283   0.00131  -0.00588   0.00085
  39        5PZ        -0.00082   0.00237   0.00070  -0.00211   0.00194
  40        6D 0        0.00017   0.00074   0.00002  -0.00005  -0.00008
  41        6D+1        0.00052   0.00052   0.00007   0.00006  -0.00001
  42        6D-1       -0.00063  -0.00033  -0.00008   0.00014   0.00008
  43        6D+2       -0.00011  -0.00073   0.00001   0.00023   0.00010
  44        6D-2        0.00051  -0.00033   0.00010   0.00030   0.00008
  45 3   C  1S          0.56281  -0.01701  -0.00110  -0.00019   0.00013
  46        2S          0.46313  -0.01397  -0.00092  -0.00029   0.00019
  47        2PX         0.00013  -0.00029   0.00047  -0.00018   0.00015
  48        2PY        -0.00068   0.00038   0.00020   0.00002  -0.00000
  49        2PZ         0.00068   0.00023  -0.00002   0.00001   0.00005
  50        3S          0.01877  -0.00044   0.00026   0.00067  -0.00065
  51        3PX        -0.00059   0.00056  -0.00105  -0.00005  -0.00013
  52        3PY         0.00054  -0.00087  -0.00044  -0.00004  -0.00007
  53        3PZ        -0.00176  -0.00069  -0.00014   0.00003  -0.00012
  54        4S         -0.02116   0.00315   0.00192  -0.00045   0.00159
  55        4PX        -0.00023  -0.00066   0.00114  -0.00035  -0.00119
  56        4PY        -0.00092   0.00134   0.00011   0.00129   0.00107
  57        4PZ        -0.00240   0.00040  -0.00040   0.00054  -0.00181
  58        5S         -0.00646   0.01312   0.02395  -0.01014  -0.00593
  59        5PX         0.00160  -0.00229   0.00309   0.01205   0.00386
  60        5PY         0.00016   0.00212   0.00329   0.00178  -0.00382
  61        5PZ         0.00130   0.00196   0.00061  -0.00334  -0.00098
  62        6D 0        0.00064   0.00021   0.00047  -0.00001   0.00001
  63        6D+1        0.00046   0.00041   0.00018  -0.00006   0.00013
  64        6D-1        0.00063  -0.00039   0.00010   0.00009   0.00000
  65        6D+2        0.00039   0.00019  -0.00040  -0.00001   0.00008
  66        6D-2        0.00023   0.00064  -0.00043  -0.00009   0.00001
  67 4   H  1S         -0.00011   0.00003   0.00004   0.00011   0.00005
  68        2S         -0.00095  -0.00261  -0.00050   0.00030  -0.00102
  69        3S          0.00054   0.00386  -0.00066  -0.00065  -0.00119
  70        4PX         0.00022   0.00070  -0.00007  -0.00003   0.00003
  71        4PY         0.00002   0.00036  -0.00001   0.00003   0.00006
  72        4PZ         0.00028   0.00197   0.00013  -0.00002   0.00000
  73 5   H  1S         -0.00006   0.00009   0.00004   0.00018  -0.00019
  74        2S         -0.00133  -0.00314  -0.00044   0.00129   0.00045
  75        3S          0.00062   0.00479  -0.00046   0.00040   0.00387
  76        4PX         0.00002  -0.00028  -0.00015  -0.00018   0.00005
  77        4PY         0.00038   0.00174   0.00007  -0.00034  -0.00008
  78        4PZ        -0.00031  -0.00130  -0.00006  -0.00004   0.00005
  79 6   C  1S          0.00108  -0.00007   0.56294  -0.00002   0.00002
  80        2S          0.00088  -0.00003   0.46318  -0.00004   0.00003
  81        2PX        -0.00050  -0.00007  -0.00021  -0.00001   0.00001
  82        2PY        -0.00020  -0.00002  -0.00004  -0.00001   0.00000
  83        2PZ         0.00001   0.00001  -0.00001   0.00001  -0.00001
  84        3S          0.00019  -0.00016   0.01945   0.00020  -0.00007
  85        3PX         0.00135   0.00046   0.00142  -0.00016   0.00012
  86        3PY         0.00053   0.00011   0.00053   0.00001   0.00004
  87        3PZ        -0.00007  -0.00010  -0.00014  -0.00003   0.00006
  88        4S          0.00548  -0.00018  -0.01065  -0.00038  -0.00025
  89        4PX        -0.00216  -0.00011   0.00135   0.00044  -0.00029
  90        4PY        -0.00090   0.00049   0.00032  -0.00052  -0.00053
  91        4PZ         0.00053   0.00046  -0.00047   0.00042   0.00044
  92        5S         -0.00001   0.00356  -0.02204  -0.02103  -0.00311
  93        5PX         0.00009  -0.00133   0.00428   0.00518   0.00029
  94        5PY        -0.00009   0.00038   0.00139   0.00119   0.00073
  95        5PZ        -0.00062   0.00027  -0.00080  -0.00064  -0.00042
  96        6D 0        0.00049   0.00006   0.00035   0.00000   0.00000
  97        6D+1        0.00002  -0.00003   0.00008  -0.00000  -0.00003
  98        6D-1       -0.00003   0.00005   0.00003   0.00001  -0.00002
  99        6D+2       -0.00065  -0.00010  -0.00045  -0.00000  -0.00002
 100        6D-2       -0.00062  -0.00016  -0.00046   0.00002   0.00003
 101 7   H  1S         -0.00008   0.00002   0.00020   0.00001   0.00000
 102        2S         -0.00095  -0.00019  -0.00308   0.00021  -0.00006
 103        3S          0.00056  -0.00067   0.00415   0.00104   0.00199
 104        4PX        -0.00009   0.00007  -0.00019   0.00002  -0.00001
 105        4PY         0.00028   0.00003   0.00172  -0.00002  -0.00001
 106        4PZ        -0.00022  -0.00010  -0.00114   0.00001  -0.00000
 107 8   H  1S         -0.00007  -0.00005   0.00022  -0.00000  -0.00001
 108        2S         -0.00096   0.00001  -0.00331   0.00004   0.00009
 109        3S          0.00004   0.00044   0.00414   0.00069  -0.00016
 110        4PX         0.00020   0.00000   0.00118  -0.00007   0.00001
 111        4PY        -0.00026  -0.00006  -0.00149   0.00001   0.00002
 112        4PZ        -0.00018  -0.00004  -0.00092  -0.00002  -0.00001
 113 9   H  1S         -0.00009   0.00002   0.00019   0.00002   0.00001
 114        2S         -0.00085  -0.00028  -0.00295  -0.00011  -0.00013
 115        3S          0.00048  -0.00080   0.00453   0.00066   0.00090
 116        4PX        -0.00002   0.00010   0.00060  -0.00002  -0.00001
 117        4PY         0.00003  -0.00001   0.00043   0.00002   0.00001
 118        4PZ         0.00029   0.00005   0.00189  -0.00001   0.00000
 119 10  O  1S         -0.00002   0.00000   0.00000  -0.00014   0.00009
 120        2S         -0.00004   0.00002   0.00001  -0.00022   0.00015
 121        2PX        -0.00002  -0.00002  -0.00001  -0.00007   0.00004
 122        2PY         0.00013   0.00004   0.00003   0.00006  -0.00004
 123        2PZ        -0.00007  -0.00001  -0.00001  -0.00003   0.00001
 124        3S          0.00027  -0.00012  -0.00001   0.00063  -0.00042
 125        3PX         0.00008   0.00009   0.00002  -0.00012   0.00005
 126        3PY        -0.00005  -0.00018  -0.00011   0.00006  -0.00003
 127        3PZ        -0.00004   0.00003   0.00005  -0.00004   0.00008
 128        4S          0.00091  -0.00005  -0.00050   0.00064  -0.00017
 129        4PX         0.00038  -0.00028   0.00032   0.00004   0.00040
 130        4PY         0.00096   0.00015   0.00008   0.00038   0.00002
 131        4PZ        -0.00011   0.00009   0.00004  -0.00022  -0.00019
 132        5S          0.00706   0.00147  -0.00197   0.00205   0.00177
 133        5PX        -0.00158  -0.00076   0.00108   0.00044  -0.00094
 134        5PY         0.00136   0.00000   0.00002  -0.00105   0.00111
 135        5PZ        -0.00104  -0.00004  -0.00013  -0.00019   0.00020
 136        6D 0        0.00003  -0.00002   0.00000  -0.00001   0.00001
 137        6D+1       -0.00001  -0.00004   0.00000   0.00000   0.00000
 138        6D-1        0.00020   0.00005   0.00004  -0.00002   0.00001
 139        6D+2        0.00005   0.00002   0.00001  -0.00000  -0.00002
 140        6D-2        0.00002  -0.00003   0.00002  -0.00001   0.00001
 141 11  H  1S         -0.00004  -0.00012  -0.00009   0.00016  -0.00008
 142        2S         -0.00259  -0.00049  -0.00069   0.00067  -0.00167
 143        3S          0.00444  -0.00013  -0.00021   0.00393   0.00117
 144        4PX        -0.00081  -0.00018  -0.00008  -0.00033   0.00018
 145        4PY        -0.00051   0.00001  -0.00005   0.00015  -0.00021
 146        4PZ        -0.00196  -0.00019  -0.00030   0.00001  -0.00012
 147 12  H  1S         -0.00007  -0.00004  -0.00002   0.00016  -0.00009
 148        2S          0.00061  -0.00014   0.00042   0.00008   0.00021
 149        3S         -0.00216  -0.00149   0.00142   0.00040   0.00005
 150        4PX         0.00015   0.00002   0.00012   0.00005   0.00002
 151        4PY         0.00019   0.00002   0.00003  -0.00000   0.00002
 152        4PZ        -0.00018   0.00001  -0.00006   0.00002  -0.00000
 153 13  H  1S         -0.00005  -0.00001   0.00000   0.00124  -0.00008
 154        2S          0.00086   0.00042   0.00005   0.00050  -0.00081
 155        3S         -0.00004  -0.00141  -0.00033   0.00034   0.00145
 156        4PX         0.00017   0.00023   0.00002   0.00016   0.00011
 157        4PY        -0.00004  -0.00007  -0.00003  -0.00013   0.00023
 158        4PZ        -0.00014  -0.00017  -0.00001  -0.00018   0.00007
 159 14  C  1S         -0.00000  -0.00000  -0.00000  -0.08698  -0.00030
 160        2S         -0.00000  -0.00000   0.00000  -0.13188  -0.00046
 161        2PX        -0.00002  -0.00001   0.00000  -0.00123  -0.12874
 162        2PY         0.00001  -0.00000  -0.00001   0.00021  -0.07973
 163        2PZ        -0.00002  -0.00001   0.00000  -0.00292   0.07360
 164        3S         -0.00002   0.00007   0.00002   0.34855   0.00125
 165        3PX         0.00008   0.00013   0.00002  -0.00187  -0.13138
 166        3PY        -0.00002   0.00006   0.00004   0.00033  -0.08141
 167        3PZ         0.00008   0.00003  -0.00002  -0.00417   0.07520
 168        4S          0.00069  -0.00126  -0.00011   0.10907  -0.00008
 169        4PX        -0.00007   0.00018   0.00029   0.00193   0.05407
 170        4PY         0.00007   0.00026   0.00008   0.00130   0.03368
 171        4PZ        -0.00020  -0.00066  -0.00018  -0.00209  -0.03143
 172        5S          0.00053   0.00037   0.00033   0.03198   0.00125
 173        5PX         0.00016  -0.00033   0.00010   0.00414  -0.00565
 174        5PY        -0.00033  -0.00005  -0.00011  -0.00035  -0.00329
 175        5PZ        -0.00004   0.00015   0.00018   0.00331   0.00315
 176        6D 0       -0.00003   0.00000   0.00000  -0.01243  -0.00096
 177        6D+1       -0.00002   0.00001   0.00001  -0.03340   0.00050
 178        6D-1        0.00002   0.00002   0.00001  -0.02048   0.00052
 179        6D+2       -0.00000  -0.00004  -0.00002   0.01772   0.00059
 180        6D-2        0.00000  -0.00006  -0.00002   0.03581   0.00043
 181 15  O  1S         -0.00000  -0.00000   0.00000  -0.07395   0.08023
 182        2S         -0.00000  -0.00001  -0.00000  -0.11761   0.12856
 183        2PX        -0.00001  -0.00000   0.00001  -0.04577   0.04653
 184        2PY        -0.00000  -0.00001   0.00000  -0.02866   0.02927
 185        2PZ        -0.00001   0.00001   0.00000   0.02725  -0.02822
 186        3S          0.00001   0.00011   0.00000   0.33241  -0.36957
 187        3PX         0.00004   0.00001  -0.00003  -0.05789   0.07153
 188        3PY         0.00001   0.00002  -0.00000  -0.03600   0.04497
 189        3PZ         0.00004  -0.00003  -0.00000   0.03375  -0.04341
 190        4S          0.00008  -0.00039  -0.00005   0.20169  -0.28280
 191        4PX        -0.00007  -0.00011   0.00013  -0.01721   0.02931
 192        4PY        -0.00001  -0.00007   0.00002  -0.01114   0.01868
 193        4PZ        -0.00012   0.00005  -0.00001   0.01078  -0.01824
 194        5S         -0.00111   0.00091  -0.00049  -0.04153  -0.02824
 195        5PX         0.00031   0.00039  -0.00027   0.00603   0.01304
 196        5PY         0.00038   0.00002   0.00016   0.00529   0.00742
 197        5PZ        -0.00037   0.00024  -0.00016  -0.00644  -0.00635
 198        6D 0       -0.00001  -0.00000   0.00000  -0.00219   0.00320
 199        6D+1       -0.00000  -0.00001  -0.00000  -0.00591   0.01040
 200        6D-1        0.00001  -0.00001   0.00000  -0.00364   0.00652
 201        6D+2       -0.00001  -0.00000  -0.00000   0.00313  -0.00506
 202        6D-2       -0.00000  -0.00000   0.00000   0.00633  -0.01063
 203 16  O  1S          0.00000   0.00000   0.00000  -0.07348  -0.08068
 204        2S          0.00000   0.00001   0.00000  -0.11685  -0.12927
 205        2PX         0.00000  -0.00000  -0.00000   0.04641   0.04820
 206        2PY        -0.00000  -0.00000   0.00000   0.02852   0.02950
 207        2PZ         0.00000  -0.00000  -0.00000  -0.02561  -0.02610
 208        3S         -0.00001  -0.00010  -0.00003   0.33014   0.37171
 209        3PX        -0.00001   0.00002   0.00001   0.05789   0.07396
 210        3PY         0.00002   0.00000   0.00000   0.03579   0.04522
 211        3PZ        -0.00001   0.00001   0.00000  -0.03261  -0.03998
 212        4S         -0.00001   0.00074   0.00027   0.20184   0.28331
 213        4PX         0.00002   0.00027   0.00006   0.01871   0.03066
 214        4PY        -0.00007   0.00018   0.00007   0.01143   0.01889
 215        4PZ         0.00005  -0.00017  -0.00005  -0.01025  -0.01656
 216        5S         -0.00015   0.00053   0.00006  -0.03416   0.02967
 217        5PX         0.00002   0.00042   0.00003  -0.00778   0.01240
 218        5PY         0.00012   0.00005   0.00002  -0.00356   0.00722
 219        5PZ         0.00001   0.00035   0.00000   0.00193  -0.00630
 220        6D 0       -0.00000  -0.00000  -0.00000  -0.00219  -0.00426
 221        6D+1        0.00000  -0.00001  -0.00001  -0.00588  -0.00976
 222        6D-1       -0.00000  -0.00001  -0.00000  -0.00360  -0.00589
 223        6D+2        0.00000   0.00001   0.00000   0.00310   0.00567
 224        6D-2       -0.00000   0.00002   0.00001   0.00629   0.01105
                          11        12        13        14        15
                           O         O         O         O         O
     Eigenvalues --    -1.04613  -1.01956  -0.77902  -0.69117  -0.59524
   1 1   O  1S         -0.09126   0.06582   0.01949   0.02460  -0.01137
   2        2S         -0.14595   0.10534   0.03141   0.03971  -0.01840
   3        2PX         0.01423  -0.00391   0.03123   0.07747  -0.03900
   4        2PY         0.02828  -0.02291  -0.00101   0.00396  -0.02208
   5        2PZ         0.01926  -0.01602  -0.01880  -0.03800   0.00274
   6        3S          0.42087  -0.30511  -0.09385  -0.11911   0.05552
   7        3PX         0.02414  -0.00764   0.04573   0.11382  -0.05714
   8        3PY         0.04537  -0.03670  -0.00149   0.00605  -0.03199
   9        3PZ         0.03012  -0.02454  -0.02792  -0.05585   0.00426
  10        4S          0.31382  -0.23025  -0.07704  -0.10541   0.05229
  11        4PX         0.01998  -0.00786   0.02532   0.06315  -0.03549
  12        4PY         0.01717  -0.01491   0.00072   0.00531  -0.02563
  13        4PZ         0.00708  -0.00721  -0.01392  -0.02819  -0.00355
  14        5S         -0.04233   0.03667  -0.00497  -0.02220   0.00904
  15        5PX        -0.01047   0.00691  -0.00332  -0.01136  -0.00807
  16        5PY        -0.00148   0.00197  -0.00058   0.00035   0.00329
  17        5PZ         0.00141  -0.00191   0.00084   0.00540   0.00645
  18        6D 0       -0.00210   0.00071  -0.00205  -0.00475   0.00237
  19        6D+1       -0.00438   0.00325   0.00132   0.00342  -0.00327
  20        6D-1        0.00436  -0.00341  -0.00213  -0.00370   0.00024
  21        6D+2        0.00317  -0.00143   0.00170   0.00261   0.00121
  22        6D-2        0.00238  -0.00176   0.00312   0.00708  -0.00474
  23 2   C  1S         -0.03701   0.01550  -0.05089  -0.07435   0.03705
  24        2S         -0.05695   0.02381  -0.07903  -0.11608   0.05806
  25        2PX        -0.02790   0.02805   0.03228   0.00975   0.01565
  26        2PY        -0.02055   0.00425  -0.00771  -0.00149  -0.04732
  27        2PZ         0.00282  -0.00422  -0.01671  -0.00620  -0.03377
  28        3S          0.14662  -0.06195   0.21208   0.31642  -0.15854
  29        3PX        -0.04557   0.04866   0.04571   0.00618   0.03095
  30        3PY        -0.03982   0.00642  -0.01818  -0.01045  -0.06804
  31        3PZ         0.00271  -0.00914  -0.02735  -0.01077  -0.05129
  32        4S          0.03433  -0.00145   0.10709   0.19838  -0.12014
  33        4PX        -0.00432   0.01069   0.01123   0.00036   0.00370
  34        4PY         0.00066  -0.01000   0.00261   0.00133  -0.03575
  35        4PZ         0.00785  -0.00183  -0.00569   0.00119  -0.02914
  36        5S          0.10045  -0.15785   0.03475   0.00741   0.00272
  37        5PX        -0.00358  -0.01138   0.00994   0.01083   0.00569
  38        5PY        -0.01993   0.03234  -0.00183   0.00630  -0.00114
  39        5PZ        -0.01395   0.01580   0.00214   0.00415  -0.00147
  40        6D 0       -0.01060   0.00488  -0.00056  -0.00057  -0.00217
  41        6D+1       -0.00537   0.00164  -0.00383   0.00158  -0.00494
  42        6D-1        0.00107   0.00277   0.00444   0.00176   0.00794
  43        6D+2        0.00982  -0.00805   0.00041  -0.00347  -0.00266
  44        6D-2        0.01041  -0.01192  -0.00538   0.00212  -0.00735
  45 3   C  1S         -0.02879  -0.03105  -0.06962  -0.00470  -0.06598
  46        2S         -0.04441  -0.04793  -0.10811  -0.00728  -0.10386
  47        2PX        -0.00634   0.00477   0.01246  -0.07041  -0.01468
  48        2PY        -0.01624  -0.03309   0.04182   0.01879  -0.04652
  49        2PZ         0.01559   0.01872  -0.00584   0.02123  -0.02909
  50        3S          0.11464   0.12676   0.28953   0.01942   0.29204
  51        3PX        -0.01165   0.01003   0.02212  -0.10951  -0.01855
  52        3PY        -0.02453  -0.05515   0.06146   0.02994  -0.07846
  53        3PZ         0.03107   0.03364  -0.00160   0.03363  -0.03443
  54        4S          0.04891   0.01345   0.18613   0.01433   0.19704
  55        4PX        -0.00973   0.00250   0.00904  -0.04663  -0.02474
  56        4PY         0.00422  -0.01219   0.02666   0.00957  -0.03599
  57        4PZ         0.00394  -0.00074   0.00168   0.01441  -0.02159
  58        5S         -0.06619   0.25142  -0.11995   0.10504  -0.00485
  59        5PX         0.00278   0.00104  -0.01977   0.00909  -0.00770
  60        5PY        -0.02223   0.02006  -0.01631   0.01195  -0.01022
  61        5PZ        -0.00323   0.03307  -0.01403  -0.00221  -0.01671
  62        6D 0       -0.00231  -0.00190  -0.00498   0.00352   0.00343
  63        6D+1       -0.00333   0.00050  -0.00275  -0.00533   0.00673
  64        6D-1       -0.00882  -0.01670   0.00572   0.00685  -0.00782
  65        6D+2       -0.00613  -0.01225   0.00616  -0.00565  -0.00646
  66        6D-2       -0.00272   0.00193  -0.00054  -0.01079  -0.00325
  67 4   H  1S          0.01491  -0.00549   0.03379   0.05701  -0.05816
  68        2S          0.02155  -0.01009   0.04006   0.06914  -0.06896
  69        3S         -0.00803   0.00094  -0.00445  -0.00630   0.00052
  70        4PX        -0.00280   0.00170  -0.00107  -0.00320   0.00355
  71        4PY        -0.00254   0.00039  -0.00202  -0.00271  -0.00014
  72        4PZ        -0.00557   0.00202  -0.00750  -0.01096   0.00739
  73 5   H  1S          0.01300  -0.00676   0.03675   0.05929  -0.04813
  74        2S          0.02463  -0.01069   0.04272   0.07227  -0.05942
  75        3S         -0.01273   0.00761  -0.00470  -0.00251  -0.00508
  76        4PX        -0.00036   0.00050   0.00239   0.00202  -0.00061
  77        4PY        -0.00628   0.00246  -0.00716  -0.00995   0.00407
  78        4PZ         0.00348  -0.00142   0.00368   0.00623  -0.00585
  79 6   C  1S         -0.00543  -0.00703  -0.06649   0.07186   0.04334
  80        2S         -0.00834  -0.01081  -0.10265   0.11143   0.06747
  81        2PX        -0.00414  -0.00495  -0.02552  -0.00977  -0.04937
  82        2PY        -0.00266  -0.00450  -0.00506   0.00544  -0.03462
  83        2PZ         0.00135   0.00189   0.00218   0.00394  -0.00353
  84        3S          0.02106   0.02690   0.26702  -0.29400  -0.17910
  85        3PX        -0.01083  -0.01213  -0.04431  -0.00987  -0.07338
  86        3PY        -0.00612  -0.00908  -0.00919   0.00908  -0.05017
  87        3PZ         0.00295   0.00338   0.00334   0.00581  -0.00561
  88        4S          0.00913   0.02090   0.13547  -0.18169  -0.12167
  89        4PX        -0.00053  -0.00497  -0.00492  -0.01022  -0.03824
  90        4PY        -0.00261  -0.00472   0.00214   0.00088  -0.02723
  91        4PZ        -0.00099   0.00306  -0.00148   0.00049  -0.00475
  92        5S          0.02030  -0.08397   0.09303  -0.11514  -0.01791
  93        5PX        -0.00491   0.01929  -0.01763   0.02677   0.00499
  94        5PY         0.00327   0.01002  -0.00886   0.00783   0.00087
  95        5PZ         0.00074  -0.00821   0.00526  -0.00561   0.00302
  96        6D 0       -0.00161  -0.00160  -0.00408  -0.00039  -0.00656
  97        6D+1       -0.00117  -0.00121  -0.00097  -0.00117   0.00029
  98        6D-1       -0.00008  -0.00007  -0.00009  -0.00020   0.00032
  99        6D+2        0.00180   0.00162   0.00614   0.00224   0.00634
 100        6D-2        0.00237   0.00320   0.00301  -0.00086   0.00867
 101 7   H  1S          0.00175   0.00199   0.04546  -0.05520  -0.05614
 102        2S          0.00396   0.00361   0.05246  -0.06730  -0.07164
 103        3S         -0.00302  -0.00185  -0.00726   0.00424  -0.00510
 104        4PX        -0.00009  -0.00013  -0.00104  -0.00065  -0.00209
 105        4PY        -0.00095  -0.00119  -0.00817   0.00917   0.00618
 106        4PZ         0.00079   0.00072   0.00550  -0.00564  -0.00568
 107 8   H  1S          0.00227   0.00365   0.04030  -0.06329  -0.04260
 108        2S          0.00355   0.00328   0.04920  -0.07600  -0.05386
 109        3S         -0.00067   0.00034  -0.00725   0.00566  -0.00585
 110        4PX        -0.00112  -0.00101  -0.00670   0.00718   0.00137
 111        4PY         0.00036   0.00042   0.00541  -0.00783  -0.00656
 112        4PZ         0.00074   0.00086   0.00389  -0.00521  -0.00297
 113 9   H  1S          0.00245   0.00339   0.04299  -0.05551  -0.05887
 114        2S          0.00481   0.00337   0.05145  -0.06702  -0.07276
 115        3S         -0.00089  -0.00189  -0.00702   0.00768  -0.00242
 116        4PX        -0.00068  -0.00071  -0.00465   0.00357   0.00150
 117        4PY        -0.00055  -0.00084  -0.00232   0.00288   0.00021
 118        4PZ        -0.00096  -0.00094  -0.00819   0.00984   0.00873
 119 10  O  1S         -0.05956  -0.09350   0.03284   0.00549   0.01635
 120        2S         -0.09522  -0.14960   0.05289   0.00889   0.02637
 121        2PX        -0.02237  -0.03216   0.02888  -0.02114   0.04733
 122        2PY         0.01540   0.01956   0.03304   0.00085   0.08026
 123        2PZ        -0.00719  -0.01065  -0.01873   0.00764  -0.07311
 124        3S          0.27430   0.43283  -0.15738  -0.02711  -0.07814
 125        3PX        -0.03465  -0.05017   0.04325  -0.03050   0.06848
 126        3PY         0.02509   0.03272   0.04889   0.00125   0.11794
 127        3PZ        -0.01215  -0.01796  -0.02733   0.01132  -0.10737
 128        4S          0.20034   0.32308  -0.13413  -0.02310  -0.07644
 129        4PX        -0.01377  -0.01735   0.01835  -0.02290   0.03666
 130        4PY         0.01481   0.01844   0.02275   0.00112   0.06876
 131        4PZ        -0.00731  -0.01012  -0.01402   0.00749  -0.06784
 132        5S         -0.02844  -0.05759  -0.00152  -0.01656  -0.03297
 133        5PX         0.00783   0.00143  -0.00134   0.01464   0.01115
 134        5PY        -0.00312  -0.01346  -0.00209   0.00173   0.00300
 135        5PZ         0.00123   0.00524   0.00212  -0.00286   0.00390
 136        6D 0       -0.00298  -0.00393   0.00124  -0.00149   0.00396
 137        6D+1       -0.00071  -0.00124   0.00146   0.00095   0.00475
 138        6D-1       -0.00429  -0.00614  -0.00190   0.00102  -0.00679
 139        6D+2        0.00063   0.00126  -0.00585   0.00082  -0.00872
 140        6D-2       -0.00016   0.00092  -0.00197  -0.00299  -0.00477
 141 11  H  1S          0.01174   0.01167   0.04510   0.00487   0.08430
 142        2S          0.01737   0.02053   0.05097   0.00510   0.10403
 143        3S         -0.00582  -0.00982  -0.00344  -0.00214   0.00997
 144        4PX         0.00128   0.00254   0.00419  -0.00305   0.00510
 145        4PY         0.00061   0.00034   0.00405   0.00115   0.00226
 146        4PZ         0.00562   0.00543   0.00893   0.00177   0.01215
 147 12  H  1S          0.04980   0.07524  -0.05180   0.00987  -0.07560
 148        2S          0.04009   0.05974  -0.05083   0.00624  -0.09118
 149        3S          0.00839  -0.00066  -0.00600   0.01884  -0.00269
 150        4PX         0.01054   0.01809  -0.01089   0.00045  -0.01541
 151        4PY         0.00564   0.00657  -0.00138   0.00198   0.00098
 152        4PZ        -0.00369  -0.00580   0.00195  -0.00040  -0.00162
 153 13  H  1S          0.07275  -0.05651  -0.03582  -0.06805   0.02171
 154        2S          0.05869  -0.04605  -0.03367  -0.07282   0.02921
 155        3S         -0.00281  -0.00033  -0.00442  -0.01553  -0.00256
 156        4PX         0.01205  -0.00929  -0.00321  -0.00439  -0.00095
 157        4PY        -0.00678   0.00509   0.00378   0.00807  -0.00505
 158        4PZ        -0.01299   0.00977   0.00530   0.00992  -0.00394
 159 14  C  1S          0.00151  -0.00081   0.00033   0.00051   0.00066
 160        2S          0.00233  -0.00126   0.00053   0.00081   0.00106
 161        2PX         0.00003  -0.00032  -0.00077  -0.00146   0.00304
 162        2PY        -0.00027  -0.00001  -0.00068  -0.00100  -0.00252
 163        2PZ         0.00115  -0.00073   0.00023  -0.00019   0.00483
 164        3S         -0.00688   0.00389  -0.00155  -0.00235  -0.00394
 165        3PX         0.00054  -0.00062  -0.00145  -0.00273   0.00466
 166        3PY        -0.00035   0.00004  -0.00093  -0.00148  -0.00351
 167        3PZ         0.00230  -0.00138   0.00015  -0.00064   0.00728
 168        4S         -0.00756   0.00590  -0.00031  -0.00084   0.00198
 169        4PX         0.00110  -0.00089  -0.00097  -0.00127   0.00580
 170        4PY         0.00027  -0.00005  -0.00106  -0.00239  -0.00055
 171        4PZ         0.00090  -0.00179  -0.00005   0.00121   0.00324
 172        5S         -0.01490   0.00871   0.00191  -0.00117  -0.00060
 173        5PX        -0.00287   0.00320   0.00240  -0.00012  -0.00007
 174        5PY        -0.00008   0.00113   0.00163   0.00042   0.00053
 175        5PZ        -0.00332   0.00154  -0.00034   0.00011   0.00252
 176        6D 0        0.00087  -0.00064  -0.00028  -0.00058   0.00034
 177        6D+1        0.00153  -0.00099   0.00002   0.00004   0.00051
 178        6D-1        0.00059  -0.00030   0.00001   0.00005   0.00003
[...]
 957,-1.3526937031\\Version=ES64L-G16RevC.01\HF=-458.3429057\RMSD=2.781
 e-09\RMSF=2.886e-05\ZeroPoint=0.1210136\Thermal=0.1319446\ETot=-458.21
 09611\HTot=-458.2100169\GTot=-458.2612701\Dipole=-0.3811104,1.1663388,
 0.2847529\DipoleDeriv=-1.2253604,-0.1608735,0.0583644,-0.1312723,-0.60
 26936,0.1499324,0.0544187,0.1209087,-0.6074776,0.8881599,0.2920187,-0.
 0433942,0.1854584,0.3385522,-0.0742464,-0.0370035,-0.1220302,0.3844077
 ,0.405907,0.0305514,-0.0402712,0.0537403,0.8665181,-0.289303,0.0299827
 ,-0.2677499,0.556468,-0.0605687,-0.050625,-0.0677,-0.0516543,0.0456044
 ,-0.0210017,-0.0707512,-0.0872306,-0.1489858,-0.0090654,0.0268787,-0.0
 026152,-0.0353375,-0.1426747,0.1050499,0.0141926,0.1469148,-0.0099097,
 -0.0503169,-0.086112,0.0672089,-0.0118972,0.0455674,0.0136795,0.032318
 6,0.0196313,0.1308366,0.0659861,0.024497,-0.0282393,-0.0211709,-0.0789
 759,0.1188785,-0.0021565,0.1198298,0.0190167,-0.0562055,0.0634905,0.06
 6877,0.1108107,-0.0255172,-0.0863146,0.0716013,-0.0771127,0.0464771,0.
 0141504,-0.0324276,-0.0330742,-0.0377929,0.0783283,-0.0406275,-0.11217
 64,-0.0685843,-0.1367103,-0.5211894,-0.0219361,0.0575761,0.0091564,-1.
 1426828,0.2116494,0.0568145,0.2291224,-0.7769236,-0.0243365,-0.0128151
 ,-0.0970063,-0.0383974,-0.0479515,-0.0438134,-0.0800351,0.0043869,-0.1
 958615,0.2616682,-0.0472439,0.0032146,-0.021462,0.3927499,0.0395559,-0
 .0268578,0.0493009,0.3627362,0.3181701,-0.0227147,0.0166785,-0.0099974
 ,0.293701,-0.0939119,0.0150932,-0.0744014,0.3342913,2.2003189,0.897522
 3,-0.6672321,0.9279938,1.1660482,-0.4726632,-0.6966471,-0.4910028,1.23
 09685,-1.0670943,-0.4371622,0.370292,-0.4448091,-0.5903663,0.2702232,0
 .3855101,0.2696203,-0.6391276,-1.1402233,-0.4630488,0.3393209,-0.48336
 85,-0.5962078,0.212913,0.3656957,0.2283968,-0.550206\Polar=86.1835503,
 7.9454987,73.7015961,-7.2876143,-4.8004289,72.3333596\PolarDeriv=-5.16
 66338,-2.2749663,0.6669785,-1.3693174,1.2424197,1.8645173,-5.5637196,-
 0.5795388,-2.8192503,1.7378378,-1.229931,-2.1510814,-4.5686165,1.37429
 58,-2.2066533,0.2660501,-1.9058473,-3.038453,2.8994785,2.0489753,-1.41
 64793,-1.6061423,-2.8362042,-4.2549581,4.2936346,-0.979422,-6.1213681,
 -2.5273515,3.8491518,-4.229033,-1.2272725,-2.0695422,4.6765722,-3.9165
 093,-5.6881223,-7.5324604,-1.7142055,-3.4531127,1.4043683,2.0159694,2.
 7761999,5.2593509,-3.8888139,1.3396736,3.9194176,1.9502501,-2.2953008,
 1.9444753,3.1236514,2.5957356,-3.9827992,5.0467834,4.0000572,12.296720
 4,2.8273914,0.7512023,1.0802525,2.4548066,1.5336676,2.9167655,-0.41864
 57,0.8589571,2.28958,0.7227513,1.7286579,1.351545,2.6231405,0.8045992,
 2.1692301,2.3090444,3.3258728,9.8636648,-0.7513864,1.7641816,-0.438610
 3,-1.3592247,0.3005907,0.0008525,1.1694238,-0.445998,10.3808658,0.3901
 598,-3.5038538,2.3602048,-1.8953642,0.4071153,-4.7093107,0.3491706,3.6
 221841,-2.8332808,1.449647,4.1243295,-2.2336117,-0.9308285,-3.3353302,
 -3.6365816,4.8026128,-3.0773942,-3.1008327,-3.5448136,5.2675841,-3.348
 6064,-0.8526905,-3.2900841,5.4904084,-5.4548956,-3.7420983,-4.7930434,
 -0.449249,1.0356023,0.1831544,-0.929433,0.1794099,0.1483815,1.4402517,
 1.5400071,8.0744966,-0.3108935,-4.0069609,3.2492164,-1.3690389,-0.3401
 319,-4.067102,1.1268333,3.51003,-3.7168129,6.1431604,-3.3938739,2.1373
 112,-2.4134859,1.4059581,2.0109224,-4.9202255,3.2077307,-4.3487936,1.9
 4123,-2.4044289,-1.6775482,-2.8265611,1.4588544,-2.274697,2.9739011,-1
 .3425586,-2.4160851,2.5824606,0.4499452,0.886731,2.7565586,0.8469718,2
 .1741518,0.4048796,1.5150137,1.7082394,0.9773803,1.165258,1.4227102,4.
 3239016,1.5083663,1.6628614,3.7197739,1.9510174,8.4592438,8.0030061,0.
 1682158,4.2934654,-0.6809261,-1.9760213,0.9436586,1.7998268,1.4816015,
 -6.8896009,-0.4099902,1.5886556,1.3157128,-1.38136,-1.0833038,2.077769
 9,0.1894349,-2.4713578,0.0805982,-2.5401593,0.2468983,-1.1455383,-3.25
 58908,-1.0000804,-3.4022767,0.3768836,-1.0760963,-1.7263534,-0.4705019
 ,-1.9518012,-1.4589905,-3.6504273,-0.9072884,-1.8107769,-3.2466803,-1.
 7178805,-12.4109135,-7.3226095,-2.1246872,-4.3649204,1.8233916,1.46928
 07,-1.8492013,-1.8543353,-2.0954898,-2.3129323,0.6785111,0.7842062,-0.
 9517803,1.7851943,0.8642214,1.3439135,-0.8704738,-1.1078625,1.5210401,
 -5.964615,0.9765453,-0.9713847,2.5789535,-0.9513107,-2.9285928,2.52897
 85,-1.2496176,1.0630933,-1.2030222,1.3717824,1.9264024,4.7828674,-1.24
 19982,1.6382006,-3.6706941,1.2082747,3.8876417,1.6932238,0.5681979,-0.
 5052612,1.8481304,0.4836502,0.936696,0.6523687,0.1978489,0.0439946,0.4
 292596,0.0159389,-0.2275396,1.8536016,0.0962681,-0.1411198,3.0744336,0
 .2236396,3.8628143,11.4901946,2.7092283,3.0934284,-1.8344095,-0.297224
 3,3.8070752,2.6500553,3.745856,5.9339532,0.1044577,-2.3038072,2.848767
 ,-2.757283,-0.5083974,-1.6729285,2.399708,2.4885461,-7.8930725,-13.179
 7038,-3.5966816,-2.6698838,0.901848,0.1580224,-3.9907612,-3.4731754,-4
 .3831318,-6.0945092,-0.4652648,1.9248488,-2.3744546,2.0362573,0.331290
 1,1.8064314,-4.2958803,-2.3538947,4.6623985\HyperPolar=28.0545009,13.7
 466277,14.7269566,94.370559,-12.9709756,10.0743835,-45.3975448,-12.499
 9487,49.181722,-8.548265\Quadrupole=-1.7921056,3.7629709,-1.9708653,-7
 .2506007,-4.3049038,3.3149868\PG=C01 [X(C4H8O4)]\NImag=0\\0.41448214,-
 0.01584211,0.24479901,-0.22118031,0.18421350,0.33991101,-0.16249034,-0
 .04380421,0.02724931,0.43903585,-0.07067116,-0.10878737,-0.00450604,-0
 .01631000,0.54495789,-0.00329482,-0.01921518,-0.07956735,0.03421302,-0
 .01769331,0.59876526,-0.04034459,0.01599405,0.02336143,-0.10698296,0.0
 3176666,0.02852610,0.53889452,-0.01488004,0.00831085,0.01309036,0.0529
 2357,-0.11800072,-0.04885289,0.02577938,0.45140334,0.00510094,0.000962
 08,-0.00099443,0.03023008,-0.03658250,-0.11026853,0.02518817,0.0408457
 4,0.55916792,-0.02699006,-0.01688890,-0.02571031,-0.07231504,-0.014507
 29,-0.07071636,0.00655152,0.00521132,0.02119207,0.09004960,-0.01406100
 ,-0.00597643,-0.01448224,-0.01579116,-0.06387606,-0.04592460,-0.005120
 63,-0.00565092,-0.02138860,0.02527816,0.06622823,0.00141322,0.00152050
 ,0.00953366,-0.07478313,-0.05138334,-0.26604088,-0.00474525,-0.0022979
 7,-0.01741182,0.08056036,0.05803235,0.28289170,-0.01074140,-0.03536098
 ,0.01895402,-0.05223255,0.03382549,-0.01966755,0.00076718,0.01244273,-
 0.01430198,0.00105802,0.00796924,-0.00422422,0.06340653,-0.01227286,-0
 .01305629,0.00813448,0.03073019,-0.21725689,0.11110130,0.00254910,-0.0
 1490573,0.01401121,0.00003036,0.00773705,-0.00413525,-0.02321835,0.239
 81485,0.00630328,0.00225383,0.00322831,-0.02060850,0.11413598,-0.13260
 228,0.00152203,-0.01151916,0.00770542,-0.00509395,0.02372360,-0.014505
 81,0.01647987,-0.12651880,0.13478890,-0.00212990,0.00244826,0.00241603
 ,-0.02487424,-0.00663294,0.00261419,-0.18740283,-0.04237435,0.00723676
 ,0.00163374,-0.00095974,-0.00082190,0.00027032,-0.00066842,-0.00031707
 ,0.49333685,0.00705975,-0.00224357,-0.00439936,0.01262768,0.01372286,0
 .00141549,-0.03036388,-0.08985117,-0.00288435,0.00021091,0.00031997,-0
 .00012401,-0.00009160,0.00011640,0.00039914,-0.03565953,0.55991414,0.0
 0299865,-0.00151189,-0.00142471,0.01453539,0.00512104,-0.00218953,-0.0
 0160225,-0.00389648,-0.07813640,0.00055671,0.00046391,0.00027591,-0.00
 034773,0.00039305,0.00023801,0.00511400,-0.00000648,0.56957481,0.00056
 136,0.00013956,-0.00050527,0.00011516,0.00007195,0.00066563,0.00565823
 ,-0.02318559,0.01716569,-0.00004259,0.00007257,-0.00000206,-0.00063598
 ,0.00028788,0.00019749,-0.04842181,0.00565190,-0.00493910,0.05001233,-
 0.00031591,0.00024283,-0.00015277,0.00085638,-0.00051391,0.00006832,0.
 00374786,-0.00958384,0.00581956,-0.00006771,0.00001699,-0.00001783,0.0
 0010384,0.00052823,-0.00012718,0.00282572,-0.22595771,0.12226296,-0.00
 364918,0.24531770,0.00003013,-0.00023995,0.00009280,-0.00020137,0.0004
 6502,-0.00009164,-0.00101692,0.00049686,-0.00345797,0.00006257,0.00005
 319,0.00008191,0.00028702,-0.00026904,0.00013246,-0.00301025,0.1228639
 7,-0.12905802,0.00317867,-0.13565186,0.13666647,-0.00243145,0.00092195
 ,0.00173701,-0.00221524,-0.00511437,-0.00136797,-0.02150945,0.02323005
 ,0.01457182,0.00009366,-0.00004999,0.00021268,0.00014718,0.00001233,-0
 .00026722,-0.14115617,0.10518440,0.06908739,-0.00030556,-0.00033936,-0
 .00087392,0.15610050,-0.00101460,0.00034175,0.00039162,-0.00130866,-0.
 00134500,0.00029794,-0.00997904,0.00835459,0.00739056,-0.00005331,-0.0
 0004327,0.00006738,-0.00017456,0.00018058,-0.00003284,0.10836547,-0.16
 453908,-0.07895801,0.01531838,-0.01667145,-0.01222590,-0.11570735,0.17
 589693,0.00035756,-0.00015863,0.00021179,0.00009753,0.00066586,0.00067
 831,0.00110908,-0.00083145,-0.00250447,-0.00018360,0.00033303,0.000345
 31,0.00002305,-0.00038858,-0.00000113,0.06976169,-0.07852808,-0.097602
 67,-0.01218754,0.01174516,0.00868793,-0.07667375,0.08581257,0.10135198
 ,0.00026220,0.00008177,0.00048658,0.00110699,-0.00070145,-0.00198048,-
 0.01404458,-0.00667605,-0.03107325,-0.00028657,0.00037409,0.00075346,-
 0.00006308,0.00001395,0.00011595,-0.08070404,-0.02112249,-0.08287962,-
 0.00097953,0.00042654,0.00027556,0.00768877,0.00319370,0.01799264,0.08
 951624,0.00004648,-0.00009065,0.00008962,0.00106202,-0.00010069,0.0001
 8509,-0.00554825,-0.00440596,-0.01196409,0.00004045,0.00032335,0.00029
 107,0.00003823,0.00001389,0.00001420,-0.02043026,-0.06016953,-0.052786
 45,0.01015374,0.00780391,0.02393502,-0.00878456,-0.00461946,-0.0191253
 1,0.02492868,0.06021103,-0.00009337,-0.00000661,0.00020860,0.00076438,
 0.00001702,0.00053029,0.00047173,0.00157479,0.00156879,-0.00031504,0.0
 0031181,0.00034361,0.00002113,-0.00008845,0.00002930,-0.08531967,-0.05
 363694,-0.25989077,-0.00537859,-0.00446643,-0.01457911,-0.00461416,-0.
 00212876,-0.01180740,0.09402601,0.05926463,0.28092645,-0.00178936,0.00
 472919,-0.00065869,-0.00364359,0.02037746,-0.01260465,-0.09440653,-0.0
 0654842,0.00308105,0.00082838,-0.00102310,-0.00012613,-0.00235861,0.00
 290802,0.00229310,0.00247682,-0.03546708,0.02308746,-0.00713349,-0.003
 92492,0.00103820,0.00257856,0.00065628,-0.00008961,0.00250703,0.000756
 24,0.00002004,0.55118316,-0.00049136,0.00182994,0.00036581,0.00635834,
 -0.04517271,0.02504538,0.03044099,-0.14520128,0.05319311,-0.00211574,0
 .00271312,0.00058884,0.00676659,-0.00422350,-0.00335685,-0.00336410,-0
 .02333822,0.01575605,-0.00349786,-0.00092001,0.00026589,0.00038003,0.0
 0149259,-0.00030427,0.00147493,0.00099767,-0.00100556,0.08627935,0.276
 48179,0.00115337,-0.00193955,0.00170988,0.00028942,-0.00062635,0.00625
 592,-0.01857307,0.06063067,-0.10578052,-0.00107187,0.00069959,0.003017
 34,0.00175329,-0.00167478,0.00075075,0.00213177,0.01247638,-0.00459538
 ,0.00171426,0.00071262,0.00062347,-0.00088885,-0.00067249,0.00006675,0
 .00078551,-0.00049169,0.00135103,-0.08918921,-0.14731624,0.15470906,0.
 00205658,-0.00065620,-0.00114026,0.00589187,0.00770591,0.02035731,-0.0
 8345936,-0.02230790,-0.07715328,-0.00249884,0.00226082,0.00239534,0.00
 071747,-0.00063408,-0.00064794,-0.01291043,-0.00953669,-0.02741706,0.0
 0095369,-0.00003838,0.00043032,0.00136312,0.00091066,-0.00000734,-0.00
 519917,-0.00245832,0.00039524,0.00335963,0.00299482,-0.00263257,0.0901
 7441,-0.00015105,0.00129627,0.00159553,-0.00761294,-0.00657516,-0.0223
 5857,-0.02266326,-0.06269188,-0.05922348,0.00318979,-0.00205232,-0.002
 20210,-0.00065462,0.00050573,0.00041421,-0.00455866,-0.00254076,-0.011
 34012,0.00034733,0.00020862,-0.00000397,0.00027149,0.00059739,0.000748
 38,-0.00248789,-0.00021667,0.00029073,0.01228530,-0.00692201,0.0391413
 9,0.02138148,0.07748851,-0.00030889,0.00085626,0.00124272,-0.00584505,
 -0.00778141,-0.01586454,-0.07554955,-0.05906517,-0.24351408,0.00184932
 ,-0.00175376,-0.00017847,0.00051568,-0.00032180,0.00059013,0.00137231,
 -0.00003313,0.00446405,-0.00071390,-0.00045402,0.00026141,-0.00047825,
 0.00017259,0.00047395,0.00141673,0.00050450,0.00123337,-0.00576525,0.0
 1411785,-0.02088006,0.08525601,0.05300655,0.27232965,0.00053179,-0.001
 12143,-0.00043429,0.00191214,0.00376205,-0.00120573,0.00281087,0.00070
 405,-0.00140132,-0.00025013,-0.00033146,-0.00004240,-0.00103096,-0.000
 14619,0.00014504,0.00042113,-0.00009704,0.00097997,0.00009982,0.000381
 27,-0.00021106,0.00018411,0.00004424,-0.00018892,0.00022680,0.00019668
 ,0.00010287,-0.45441087,-0.12449753,0.10471404,-0.00004428,0.00101937,
 -0.00099744,0.44995364,-0.00159010,0.00260286,-0.00054787,-0.00304752,
 -0.00335298,0.00048513,-0.03533648,-0.01466003,0.01009177,0.00041870,-
 0.00022814,-0.00014837,-0.00048973,0.00092373,0.00000245,0.00145480,-0
 .00601473,0.00405390,-0.00176347,-0.00053899,0.00032444,0.00024263,0.0
 0033890,0.00003213,0.00037622,0.00022284,-0.00011433,-0.08215950,-0.05
 834185,0.03920854,0.00023567,0.00074334,0.00015003,0.12099654,0.077572
 95,0.00000343,0.00024107,-0.00173316,-0.00000098,-0.00020278,0.0018270
 6,0.02198873,0.00921045,-0.00707399,-0.00005842,-0.00021635,-0.0001934
 1,0.00008323,0.00002668,-0.00019008,-0.00103291,0.00244796,-0.00197877
 ,0.00080054,0.00031293,0.00065034,-0.00031114,-0.00010448,0.00001752,0
 .00001822,0.00009088,0.00014463,0.07987655,0.04219555,-0.03716364,0.00
 060374,-0.00022230,-0.00013137,-0.10193222,-0.05301185,0.04580234,-0.1
 6816107,0.09039122,0.17587380,-0.02167674,0.01698357,0.02567237,-0.006
 40605,-0.00460662,-0.00034194,0.00213404,0.00133690,-0.00068415,0.0006
 4381,0.00020449,0.00004424,-0.00062173,0.00168124,0.00087139,0.0001069
 4,-0.00000974,0.00000343,-0.00057128,-0.00026180,-0.00001051,-0.000014
 84,0.00000938,-0.00008180,0.00073642,-0.00086470,0.00008046,0.00041243
 ,-0.00026274,-0.00010074,-0.00031242,0.00054606,-0.00002446,0.19315737
 ,0.12488970,-0.12871841,-0.18484562,-0.01619437,0.00648500,0.01616613,
 -0.00135001,-0.00306141,0.00028463,-0.00065424,0.00045044,-0.00023382,
 -0.00114684,-0.00048580,0.00068537,-0.00044268,0.00059200,0.00032343,0
 .00005097,0.00006238,-0.00001013,-0.00025337,0.00002031,0.00000436,0.0
 0006911,0.00000744,-0.00002579,0.00112390,0.00075335,-0.00032801,-0.00
 001080,0.00005275,0.00020444,-0.00091600,0.00071358,-0.00076967,-0.105
 22637,0.12317275,0.20876322,-0.16666788,-0.26809524,-0.00481667,-0.001
 25762,-0.00152311,-0.00062843,0.00044566,0.00010283,-0.00145024,-0.000
 00519,0.00183770,0.00007150,-0.00064864,-0.00017002,-0.00020458,0.0000
 7735,0.00045747,-0.00000254,-0.00004851,-0.00001364,-0.00015678,-0.000
 02301,0.00008738,0.00010550,0.00001451,-0.00004725,-0.00103167,0.00030
 039,0.00016231,-0.00017294,0.00024460,0.00046145,0.00057564,-0.0006320
 7,0.00003311,-0.20123578,0.16823680,0.26763443,-0.00272295,-0.00105975
 ,0.00443042,-0.00270398,-0.00046476,-0.00232793,-0.00069603,0.00106857
 ,-0.00213474,0.00030023,-0.00024421,0.00063249,-0.00021396,-0.00092104
 ,-0.00036055,-0.00000152,-0.00023079,0.00055315,-0.00005928,0.00000616
 ,-0.00001359,0.00019896,-0.00001546,-0.00005167,0.00031001,0.00014082,
 0.00011487,0.00056619,-0.00138627,0.00111514,-0.00125529,0.00088300,0.
 00095868,-0.00006454,0.00053754,-0.00022448,0.00190340,0.00019569,0.00
 084039,1.15788877,-0.00106224,-0.00218123,0.00203629,-0.00053349,0.000
 33551,-0.00177555,-0.00022166,0.00037207,-0.00110039,-0.00018922,-0.00
 030332,0.00033350,-0.00030387,-0.00067898,-0.00012955,-0.00003436,-0.0
 0004734,0.00024510,-0.00003199,-0.00001181,0.00000279,0.00006590,-0.00
 001538,-0.00001321,0.00013041,0.00005756,0.00005002,0.00018383,-0.0007
 7438,0.00059277,-0.00024587,0.00052673,0.00061690,0.00009556,0.0001638
 1,0.00000643,0.00021265,0.00012492,-0.00007360,0.62778962,0.53550418,0
 .00514267,0.00084607,0.00122171,-0.00355969,-0.00177827,0.00246755,0.0
 0006485,0.00047245,0.00141039,0.00130384,0.00061699,-0.00016507,0.0005
 6308,0.00085192,-0.00020701,0.00011360,-0.00028998,-0.00033783,0.00000
 344,0.00003515,0.00000569,0.00012267,0.00003230,-0.00002224,-0.0001112
 2,-0.00003829,-0.00003253,0.00029329,0.00020464,-0.00068087,0.00019606
 ,-0.00046956,-0.00060676,-0.00042172,0.00045566,0.00004501,0.00036234,
 -0.00004325,-0.00149314,-0.58611865,-0.35915351,0.46721014,0.00124923,
 0.00056364,-0.00277484,0.00028786,-0.00018987,0.00123838,0.00025121,-0
 .00029264,0.00195900,0.00011908,0.00024322,-0.00035897,0.00020375,0.00
 074060,0.00008946,0.00008239,0.00004473,-0.00044095,0.00004187,-0.0000
 0444,0.00001635,-0.00007862,0.00002147,0.00002580,-0.00022531,-0.00010
 400,-0.00007054,-0.00025557,0.00093006,-0.00095948,0.00002877,-0.00064
 262,-0.00130250,-0.00008004,-0.00016833,0.00013079,-0.00058996,-0.0000
 8640,-0.00044678,-0.56599919,-0.30963614,0.29653536,0.61009772,0.00015
 436,0.00087104,-0.00009838,-0.00009357,-0.00048246,0.00059892,0.000168
 70,-0.00018968,-0.00008541,0.00012502,0.00023801,-0.00015850,0.0002313
 7,0.00050209,0.00004052,0.00001769,0.00000006,0.00001968,0.00001802,0.
 00001351,-0.00000699,-0.00001869,0.00000462,-0.00000318,-0.00000816,-0
 .00000172,-0.00001003,-0.00006430,0.00023021,-0.00008336,0.00022546,-0
 .00015892,0.00010900,-0.00005285,-0.00003187,-0.00001377,0.00007313,-0
 .00015892,0.00003211,-0.30952021,-0.26628558,0.18412745,0.35830090,0.2
 6034018,-0.00169415,0.00028880,-0.00462956,0.00162596,0.00067704,-0.00
 067348,0.00001133,-0.00023792,-0.00010265,-0.00038081,-0.00015369,0.00
 001411,-0.00004712,-0.00005171,0.00016692,-0.00000997,0.00013252,0.000
 02702,0.00000995,-0.00002309,0.00000049,-0.00007227,-0.00000522,0.0000
 1073,-0.00000286,-0.00000958,-0.00000015,-0.00018533,0.00016540,0.0001
 0402,-0.00031964,0.00012513,-0.00020966,0.00016037,-0.00023345,-0.0000
 2032,-0.00067569,0.00027732,-0.00004187,0.29691500,0.18456296,-0.24414
 375,-0.33925735,-0.21341884,0.24190845,-0.00134216,-0.00053603,-0.0021
 0463,0.00078481,0.00009875,-0.00012151,0.00031886,-0.00048806,0.000680
 92,-0.00038505,0.00004628,-0.00017935,0.00006228,0.00038399,0.00010476
 ,0.00000143,0.00010851,-0.00015741,0.00002885,0.00000186,0.00000487,-0
 .00008709,0.00000459,0.00002557,-0.00010091,-0.00004735,-0.00004308,-0
 .00023817,0.00059245,-0.00042222,0.00040941,-0.00034396,-0.00030715,0.
 00005294,-0.00025304,0.00007940,-0.00074031,-0.00004827,-0.00020984,-0
 .58745081,-0.31621914,0.28551008,-0.04513319,-0.04955684,0.04392258,0.
 63381911,0.00020214,0.00075939,-0.00088492,0.00013774,-0.00003732,0.00
 045640,0.00013650,-0.00023823,0.00063014,-0.00002831,0.00010331,-0.000
 13243,0.00006305,0.00028463,0.00001508,0.00001313,0.00003669,-0.000139
 70,0.00001580,0.00000356,0.00000068,-0.00004110,0.00000599,0.00001122,
 -0.00007336,-0.00003301,-0.00002609,-0.00011224,0.00039530,-0.00032950
 ,0.00017341,-0.00026160,-0.00032884,-0.00003725,-0.00011342,0.00000926
 ,-0.00020668,-0.00001038,0.00000510,-0.31677891,-0.26678676,0.17413025
 ,-0.04972019,0.00510942,0.02790433,0.36625625,0.26078242,-0.00469494,-
 0.00144244,-0.00091603,0.00081031,0.00072967,-0.00170306,-0.00012797,-
 0.00006593,-0.00071048,-0.00054427,-0.00031003,0.00015421,-0.00016327,
 -0.00042159,0.00004610,-0.00004398,0.00008952,0.00017680,-0.00000668,-
 0.00001502,-0.00000261,-0.00002728,-0.00001425,0.00000626,0.00007128,0
 .00002589,0.00002113,-0.00003914,-0.00021598,0.00034994,-0.00014301,0.
 00025361,0.00032822,0.00015717,-0.00011610,-0.00003526,0.00024704,0.00
 007381,0.00060757,0.28567146,0.17379904,-0.22467129,0.04561627,0.02895
 075,0.00758970,-0.32678301,-0.20132096,0.21875879\\0.00001223,-0.00001
 091,-0.00001520,-0.00000128,0.00000156,-0.00000013,-0.00000003,0.00000
 173,0.00000005,0.00000045,0.00000110,0.00000114,-0.00000075,0.00000161
 ,-0.00000017,-0.00000125,0.00000351,-0.00000101,-0.00000118,0.00000291
 ,-0.00000181,0.00000112,0.00000018,-0.00000184,0.00000085,0.00000224,0
 .00000037,0.00000458,0.00000277,0.00000164,-0.00000075,0.00000033,-0.0
 0000016,-0.00000055,0.00000088,0.00000144,-0.00001170,0.00000967,0.000
 01700,0.00000303,-0.00000450,0.00000163,0.00010311,0.00006102,-0.00006
 209,-0.00010789,-0.00007410,0.00005915\\\@
 The archive entry for this job was punched.


 EXPERIENCE IS THE FRUIT OF THE TREE OF ERRORS.
 Job cpu time:       0 days  0 hours 31 minutes 50.5 seconds.
 Elapsed time:       0 days  0 hours  8 minutes  1.6 seconds.
 File lengths (MBytes):  RWF=    155 Int=      0 D2E=      0 Chk=     18 Scr=      1
 Normal termination of Gaussian 16 at Mon Jun 19 19:09:04 2023.
