 Entering Gaussian System, Link 0=g16
 Input=TDA-H_dissociation-site_index-10-freq.gjf
 Output=TDA-H_dissociation-site_index-10-freq.log
 Initial command:
 /software/commercial/gaussian/g16/AVX/g16/l1.exe "/scratch1/svicchi/G09-659905.pbs02/Gau-2163044.inp" -scrdir="/scratch1/svicchi/G09-659905.pbs02/"
 Entering Link 1 = /software/commercial/gaussian/g16/AVX/g16/l1.exe PID=   2163045.
  
 Copyright (c) 1988-2019, Gaussian, Inc.  All Rights Reserved.
  
 This is part of the Gaussian(R) 16 program.  It is based on
 the Gaussian(R) 09 system (copyright 2009, Gaussian, Inc.),
 the Gaussian(R) 03 system (copyright 2003, Gaussian, Inc.),
 the Gaussian(R) 98 system (copyright 1998, Gaussian, Inc.),
 the Gaussian(R) 94 system (copyright 1995, Gaussian, Inc.),
 the Gaussian 92(TM) system (copyright 1992, Gaussian, Inc.),
 the Gaussian 90(TM) system (copyright 1990, Gaussian, Inc.),
 the Gaussian 88(TM) system (copyright 1988, Gaussian, Inc.),
 the Gaussian 86(TM) system (copyright 1986, Carnegie Mellon
 University), and the Gaussian 82(TM) system (copyright 1983,
 Carnegie Mellon University). Gaussian is a federally registered
 trademark of Gaussian, Inc.
  
 This software contains proprietary and confidential information,
 including trade secrets, belonging to Gaussian, Inc.
  
 This software is provided under written license and may be
 used, copied, transmitted, or stored only in accord with that
 written license.
  
 The following legend is applicable only to US Government
 contracts under FAR:
  
                    RESTRICTED RIGHTS LEGEND
  
 Use, reproduction and disclosure by the US Government is
 subject to restrictions as set forth in subparagraphs (a)
 and (c) of the Commercial Computer Software - Restricted
 Rights clause in FAR 52.227-19.
  
 Gaussian, Inc.
 340 Quinnipiac St., Bldg. 40, Wallingford CT 06492
  
  
 ---------------------------------------------------------------
 Warning -- This program may not be used in any manner that
 competes with the business of Gaussian, Inc. or will provide
 assistance to any competitor of Gaussian, Inc.  The licensee
 of this program is prohibited from giving any competitor of
 Gaussian, Inc. access to this program.  By using this program,
 the user acknowledges that Gaussian, Inc. is engaged in the
 business of creating and licensing software in the field of
 computational chemistry and represents and warrants to the
 licensee that it is not a competitor of Gaussian, Inc. and that
 it will not use this program in any manner prohibited above.
 ---------------------------------------------------------------
  

 Cite this work as:
 Gaussian 16, Revision C.01,
 M. J. Frisch, G. W. Trucks, H. B. Schlegel, G. E. Scuseria, 
 M. A. Robb, J. R. Cheeseman, G. Scalmani, V. Barone, 
 G. A. Petersson, H. Nakatsuji, X. Li, M. Caricato, A. V. Marenich, 
 J. Bloino, B. G. Janesko, R. Gomperts, B. Mennucci, H. P. Hratchian, 
 J. V. Ortiz, A. F. Izmaylov, J. L. Sonnenberg, D. Williams-Young, 
 F. Ding, F. Lipparini, F. Egidi, J. Goings, B. Peng, A. Petrone, 
 T. Henderson, D. Ranasinghe, V. G. Zakrzewski, J. Gao, N. Rega, 
 G. Zheng, W. Liang, M. Hada, M. Ehara, K. Toyota, R. Fukuda, 
 J. Hasegawa, M. Ishida, T. Nakajima, Y. Honda, O. Kitao, H. Nakai, 
 T. Vreven, K. Throssell, J. A. Montgomery, Jr., J. E. Peralta, 
 F. Ogliaro, M. J. Bearpark, J. J. Heyd, E. N. Brothers, K. N. Kudin, 
 V. N. Staroverov, T. A. Keith, R. Kobayashi, J. Normand, 
 K. Raghavachari, A. P. Rendell, J. C. Burant, S. S. Iyengar, 
 J. Tomasi, M. Cossi, J. M. Millam, M. Klene, C. Adamo, R. Cammi, 
 J. W. Ochterski, R. L. Martin, K. Morokuma, O. Farkas, 
 J. B. Foresman, and D. J. Fox, Gaussian, Inc., Wallingford CT, 2019.
 
 ******************************************
 Gaussian 16:  ES64L-G16RevC.01  3-Jul-2019
                 2-Jun-2023 
 ******************************************
 %NProcShared=2
 Will use up to    2 processors via shared memory.
 %mem=55gb
 %chk=/scratch1/svicchi/G09-659905.pbs02/02-freq/TDA-H_dissociation-site_index-10
 -freq.chk
 ----------------------------------------------------------------------
 #p freq=raman scale=0.967 pop=(nbo,full,hirshfeld) guess=read geom=all
 check b3lyp/6-311+G(d,p) int=grid=ultrafine EmpiricalDispersion=GD3BJ 
 SCRF=(Solvent=ethanol) scf=(xqc,intrep,maxconventionalcycle=350) nosym
 m
 ----------------------------------------------------------------------
 1/10=4,29=7,30=1,38=1,114=967000/1,3;
 2/12=2,15=1,40=1/2;
 3/5=4,6=6,7=111,11=2,14=-4,25=1,30=1,70=2201,71=2,72=4,74=-5,75=-5,116=-2,124=41,140=1/1,2,3;
 4/5=1/1;
 5/5=2,8=3,13=1,17=20,38=6,53=4,85=350,98=1/2,8;
 8/6=4,10=90,11=11/1;
 10/13=10,15=4,31=1/2;
 11/6=3,8=1,9=11,15=111,16=1,31=1/1,2,10;
 10/6=1,31=1/2;
 6/7=3,28=1,40=1,79=1/1,7;
 7/8=1,10=1,25=1,30=1/1,2,3,16;
 1/10=4,30=1/3;
 99//99;
 Leave Link    1 at Fri Jun  2 11:31:25 2023, MaxMem=  7381975040 cpu:               6.3 elap:               6.5
 (Enter /software/commercial/gaussian/g16/AVX/g16/l101.exe)
 Structure from the checkpoint file:  "/scratch1/svicchi/G09-659905.pbs02/02-freq/TDA-H_dissociation-site_index-10-freq.chk"
 ------------------------------------
 TDA-H_dissociation-site_index-10.gjf
 ------------------------------------
 Charge = -1 Multiplicity = 1
 No Z-Matrix found in chk file; cartesian coordinates used.
  C                                                -3.563177776100      0.806497447291      0.110870263089
  C                                                -2.284018919592      1.634771959943      0.038704968313
  C                                                -1.004598188487      0.801655705163     -0.094763943571
  H                                                -2.204402576927      2.257023775109      0.941026237955
  H                                                -2.350231248547      2.324847472220     -0.811093410227
  N                                                -4.753047015903      1.669187867233      0.251911953044
  H                                                -3.476607370443      0.077326084274      0.931146739857
  H                                                -3.680868029840      0.229782079261     -0.812657022516
  H                                                -4.690316159529      2.193311895985      1.120989093927
  H                                                -5.591295561674      1.099970597005      0.327134108437
  N                                                 0.170390830753      1.653526107597     -0.201566729607
  H                                                -1.162119518703      0.127904772380     -0.970234162098
  H                                                -0.989235405193      0.108477464722      0.778829355971
  H                                                 0.980939940184      1.034862771818     -0.283369452573
 Recover connectivity data from disk.
 ITRead=  0  0  0  0  0  0  0  0  0  0  0  0  0  0
 MicOpt= -1 -1 -1 -1 -1 -1 -1 -1 -1 -1 -1 -1 -1 -1
 NAtoms=     14 NQM=       14 NQMF=       0 NMMI=      0 NMMIF=      0
                NMic=       0 NMicF=      0.
                    Isotopes and Nuclear Properties:
 (Nuclear quadrupole moments (NQMom) in fm**2, nuclear magnetic moments (NMagM)
  in nuclear magnetons)

  Atom         1           2           3           4           5           6           7           8           9          10
 IAtWgt=          12          12          12           1           1          14           1           1           1           1
 AtmWgt=  12.0000000  12.0000000  12.0000000   1.0078250   1.0078250  14.0030740   1.0078250   1.0078250   1.0078250   1.0078250
 NucSpn=           0           0           0           1           1           2           1           1           1           1
 AtZEff=   3.6000000   3.6000000   3.6000000   1.0000000   1.0000000   4.5500000   1.0000000   1.0000000   1.0000000   1.0000000
 NQMom=    0.0000000   0.0000000   0.0000000   0.0000000   0.0000000   2.0440000   0.0000000   0.0000000   0.0000000   0.0000000
 NMagM=    0.0000000   0.0000000   0.0000000   2.7928460   2.7928460   0.4037610   2.7928460   2.7928460   2.7928460   2.7928460
 AtZNuc=   6.0000000   6.0000000   6.0000000   1.0000000   1.0000000   7.0000000   1.0000000   1.0000000   1.0000000   1.0000000

  Atom        11          12          13          14
 IAtWgt=          14           1           1           1
 AtmWgt=  14.0030740   1.0078250   1.0078250   1.0078250
 NucSpn=           2           1           1           1
 AtZEff=   4.5500000   1.0000000   1.0000000   1.0000000
 NQMom=    2.0440000   0.0000000   0.0000000   0.0000000
 NMagM=    0.4037610   2.7928460   2.7928460   2.7928460
 AtZNuc=   7.0000000   1.0000000   1.0000000   1.0000000
 Leave Link  101 at Fri Jun  2 11:31:28 2023, MaxMem=  7381975040 cpu:               0.3 elap:               0.8
 (Enter /software/commercial/gaussian/g16/AVX/g16/l103.exe)

 GradGradGradGradGradGradGradGradGradGradGradGradGradGradGradGradGradGrad
 Berny optimization.
 Initialization pass.
 Trust Radius=3.00D-01 FncErr=1.00D-07 GrdErr=1.00D-07 EigMax=2.50D+02 EigMin=1.00D-04
 Number of steps in this run=      2 maximum allowed number of steps=      2.
 GradGradGradGradGradGradGradGradGradGradGradGradGradGradGradGradGradGrad

 Leave Link  103 at Fri Jun  2 11:31:29 2023, MaxMem=  7381975040 cpu:               0.1 elap:               0.3
 (Enter /software/commercial/gaussian/g16/AVX/g16/l202.exe)
                          Input orientation:                          
 ---------------------------------------------------------------------
 Center     Atomic      Atomic             Coordinates (Angstroms)
 Number     Number       Type             X           Y           Z
 ---------------------------------------------------------------------
      1          6           0       -3.563178    0.806497    0.110870
      2          6           0       -2.284019    1.634772    0.038705
      3          6           0       -1.004598    0.801656   -0.094764
      4          1           0       -2.204403    2.257024    0.941026
      5          1           0       -2.350231    2.324847   -0.811093
      6          7           0       -4.753047    1.669188    0.251912
      7          1           0       -3.476607    0.077326    0.931147
      8          1           0       -3.680868    0.229782   -0.812657
      9          1           0       -4.690316    2.193312    1.120989
     10          1           0       -5.591296    1.099971    0.327134
     11          7           0        0.170391    1.653526   -0.201567
     12          1           0       -1.162120    0.127905   -0.970234
     13          1           0       -0.989235    0.108477    0.778829
     14          1           0        0.980940    1.034863   -0.283369
 ---------------------------------------------------------------------
                    Distance matrix (angstroms):
                    1          2          3          4          5
     1  C    0.000000
     2  C    1.525613   0.000000
     3  C    2.566834   1.532584   0.000000
     4  H    2.153940   1.098963   2.151857   0.000000
     5  H    2.150963   1.096698   2.154987   1.759486   0.000000
     6  N    1.476454   2.478455   3.863116   2.704814   2.708024
     7  H    1.100926   2.155077   2.772720   2.523823   3.058672
     8  H    1.095150   2.156386   2.829281   3.060239   2.481914
     9  H    2.052812   2.696956   4.123018   2.493233   3.037473
    10  H    2.060621   3.362630   4.615710   3.631347   3.646969
    11  N    3.841173   2.466214   1.455228   2.703585   2.678755
    12  H    2.719256   2.132432   1.115886   3.045065   2.502697
    13  H    2.749287   2.133969   1.115301   2.473700   3.048354
    14  H    4.566901   3.335203   2.008064   3.624807   3.610991
                    6          7          8          9         10
     6  N    0.000000
     7  H    2.150507   0.000000
     8  H    2.086807   1.762333   0.000000
     9  H    1.016827   2.446738   2.934863   0.000000
    10  H    1.016035   2.425395   2.388741   1.623997   0.000000
    11  N    4.944303   4.131349   4.151226   5.066260   5.812313
    12  H    4.094381   2.995774   2.525728   4.592090   4.716532
    13  H    4.108496   2.492226   3.129286   4.261644   4.729275
    14  H    5.793747   4.718226   4.760331   5.956289   6.600851
                   11         12         13         14
    11  N    0.000000
    12  H    2.166553   0.000000
    13  H    2.166353   1.757694   0.000000
    14  H    1.022950   2.426326   2.422405   0.000000
 Symmetry turned off by external request.
 Stoichiometry    C3H9N2(1-)
 Framework group  C1[X(C3H9N2)]
 Deg. of freedom    36
 Full point group                 C1      NOp   1
 Rotational constants (GHZ):          20.4708335           2.0169711           1.9105055
 Leave Link  202 at Fri Jun  2 11:31:32 2023, MaxMem=  7381975040 cpu:               0.0 elap:               1.1
 (Enter /software/commercial/gaussian/g16/AVX/g16/l301.exe)
 Standard basis: 6-311+G(d,p) (5D, 7F)
 Ernie: Thresh=  0.10000D-02 Tol=  0.10000D-05 Strict=F.
   164 basis functions,   252 primitive gaussians,   169 cartesian basis functions
    21 alpha electrons       21 beta electrons
       nuclear repulsion energy       176.5505907031 Hartrees.
 IExCor=  402 DFT=T Ex+Corr=B3LYP ExCW=0 ScaHFX=  0.200000
 ScaDFX=  0.800000  0.720000  1.000000  0.810000 ScalE2=  1.000000  1.000000
 IRadAn=      5 IRanWt=     -1 IRanGd=            0 ICorTp=0 IEmpDi=141
 NAtoms=   14 NActive=   14 NUniq=   14 SFac= 1.00D+00 NAtFMM=   60 NAOKFM=F Big=F
 Integral buffers will be    131072 words long.
 Raffenetti 2 integral format.
 Two-electron integral symmetry is turned off.
 R6Disp:  Grimme-D3(BJ) Dispersion energy=       -0.0156212453 Hartrees.
 Nuclear repulsion after empirical dispersion term =      176.5349694577 Hartrees.
 Force inversion solution in PCM.
 ------------------------------------------------------------------------------
 Polarizable Continuum Model (PCM)
 =================================
 Model                : PCM.
 Atomic radii         : UFF (Universal Force Field).
 Polarization charges : Total charges.
 Charge compensation  : None.
 Solution method      : Matrix inversion.
 Cavity type          : Scaled VdW (van der Waals Surface) (Alpha=1.100).
 Cavity algorithm     : GePol (No added spheres)
                        Default sphere list used, NSphG=   14.
                        Lebedev-Laikov grids with approx.  5.0 points / Ang**2.
                        Smoothing algorithm: York/Karplus (Gamma=1.0000).
                        Polarization charges: spherical gaussians, with
                                              point-specific exponents (IZeta= 3).
                        Self-potential: point-specific (ISelfS= 7).
                        Self-field    : sphere-specific E.n sum rule (ISelfD= 2).
 1st derivatives      : Analytical E(r).r(x)/FMM algorithm (CHGder, D1EAlg=3).
                        Cavity 1st derivative terms included.
 2nd derivatives      : Analytical E(r).r(xy)/FMM algorithm (CHGder, D2EAlg=3).
                        Cavity 2nd derivative terms included.
 Solvent              : Ethanol, Eps=  24.852000 Eps(inf)=   1.852593
 ------------------------------------------------------------------------------
 Spheres list:
 ISph  on   Nord     Re0    Alpha      Xe            Ye            Ze
    1   C      1    1.9255  1.100     -3.563178      0.806497      0.110870
    2   C      2    1.9255  1.100     -2.284019      1.634772      0.038705
    3   C      3    1.9255  1.100     -1.004598      0.801656     -0.094764
    4   H      4    1.4430  1.100     -2.204403      2.257024      0.941026
    5   H      5    1.4430  1.100     -2.350231      2.324847     -0.811093
    6   N      6    1.8300  1.100     -4.753047      1.669188      0.251912
    7   H      7    1.4430  1.100     -3.476607      0.077326      0.931147
    8   H      8    1.4430  1.100     -3.680868      0.229782     -0.812657
    9   H      9    1.4430  1.100     -4.690316      2.193312      1.120989
   10   H     10    1.4430  1.100     -5.591296      1.099971      0.327134
   11   N     11    1.8300  1.100      0.170391      1.653526     -0.201567
   12   H     12    1.4430  1.100     -1.162120      0.127905     -0.970234
   13   H     13    1.4430  1.100     -0.989235      0.108477      0.778829
   14   H     14    1.4430  1.100      0.980940      1.034863     -0.283369
 ------------------------------------------------------------------------------
 GePol: Number of generator spheres                  =      14
 GePol: Total number of spheres                      =      14
 GePol: Number of exposed spheres                    =      14 (100.00%)
 GePol: Number of points                             =    1131
 GePol: Average weight of points                     =       0.14
 GePol: Minimum weight of points                     =   0.78D-11
 GePol: Maximum weight of points                     =    0.20577
 GePol: Number of points with low weight             =      60
 GePol: Fraction of low-weight points (<1% of avg)   =       5.31%
 GePol: Cavity surface area                          =    154.436 Ang**2
 GePol: Cavity volume                                =    139.207 Ang**3
 Leave Link  301 at Fri Jun  2 11:31:34 2023, MaxMem=  7381975040 cpu:               0.5 elap:               1.5
 (Enter /software/commercial/gaussian/g16/AVX/g16/l302.exe)
 NPDir=0 NMtPBC=     1 NCelOv=     1 NCel=       1 NClECP=     1 NCelD=      1
         NCelK=      1 NCelE2=     1 NClLst=     1 CellRange=     0.0.
 One-electron integrals computed using PRISM.
 NBasis=   164 RedAO= T EigKep=  3.64D-05  NBF=   164
 NBsUse=   164 1.00D-06 EigRej= -1.00D+00 NBFU=   164
 Precomputing XC quadrature grid using
 IXCGrd= 4 IRadAn=           5 IRanWt=          -1 IRanGd=           0 AccXCQ= 0.00D+00.
 Generated NRdTot=       0 NPtTot=           0 NUsed=           0 NTot=          32
 NSgBfM=   169   169   169   169   169 MxSgAt=    14 MxSgA2=    14.
 Leave Link  302 at Fri Jun  2 11:31:37 2023, MaxMem=  7381975040 cpu:               1.2 elap:               1.5
 (Enter /software/commercial/gaussian/g16/AVX/g16/l303.exe)
 DipDrv:  MaxL=1.
 Leave Link  303 at Fri Jun  2 11:31:40 2023, MaxMem=  7381975040 cpu:               0.4 elap:               1.7
 (Enter /software/commercial/gaussian/g16/AVX/g16/l401.exe)
 Initial guess from the checkpoint file:  "/scratch1/svicchi/G09-659905.pbs02/02-freq/TDA-H_dissociation-site_index-10-freq.chk"
 B after Tr=     0.000000    0.000000    0.000000
         Rot=    1.000000    0.000000    0.000000    0.000000 Ang=   0.00 deg.
 Guess basis will be translated and rotated to current coordinates.
 JPrj=2 DoOrth=T DoCkMO=T.
 Leave Link  401 at Fri Jun  2 11:31:44 2023, MaxMem=  7381975040 cpu:               0.7 elap:               1.7
 (Enter /software/commercial/gaussian/g16/AVX/g16/l502.exe)
 Keep R1 ints in memory in canonical form, NReq=93994629.
 FoFCou: FMM=F IPFlag=           0 FMFlag=           0 FMFlg1=           0
         NFxFlg=           0 DoJE=F BraDBF=F KetDBF=F FulRan=T
         wScrn=  0.000000 ICntrl=       600 IOpCl=  0 I1Cent=           0 NGrid=           0
         NMat0=    1 NMatS0=  13530 NMatT0=    0 NMatD0=    1 NMtDS0=    0 NMtDT0=    0
 Symmetry not used in FoFCou.
 Two-electron integral symmetry not used.
 Closed shell SCF:
 Using DIIS extrapolation, IDIIS=  1040.
 NGot=  7381975040 LenX=  7290377922 LenY=  7290348920
 Requested convergence on RMS density matrix=1.00D-08 within 350 cycles.
 Requested convergence on MAX density matrix=1.00D-06.
 Requested convergence on             energy=1.00D-06.
 No special actions if energy rises.

 Cycle   1  Pass 1  IDiag  1:
 Inv3:  Mode=1 IEnd=     3837483.
 Iteration    1 A*A^-1 deviation from unit magnitude is 5.55D-15 for   1118.
 Iteration    1 A*A^-1 deviation from orthogonality  is 1.56D-15 for   1127    397.
 Iteration    1 A^-1*A deviation from unit magnitude is 5.55D-15 for   1118.
 Iteration    1 A^-1*A deviation from orthogonality  is 1.86D-15 for   1101    454.
 E= -229.383408048979    
 DIIS: error= 2.78D-09 at cycle   1 NSaved=   1.
 NSaved= 1 IEnMin= 1 EnMin= -229.383408048979     IErMin= 1 ErrMin= 2.78D-09
 ErrMax= 2.78D-09  0.00D+00 EMaxC= 1.00D-01 BMatC= 1.30D-15 BMatP= 1.30D-15
 IDIUse=1 WtCom= 1.00D+00 WtEn= 0.00D+00
 Coeff-Com:  0.100D+01
 Coeff:      0.100D+01
 Gap=     0.141 Goal=   None    Shift=    0.000
 RMSDP=1.36D-09 MaxDP=3.84D-08              OVMax= 1.85D-08

 Error on total polarization charges =  0.03196
 SCF Done:  E(RB3LYP) =  -229.383408049     A.U. after    1 cycles
            NFock=  1  Conv=0.14D-08     -V/T= 2.0050
 KE= 2.282506040013D+02 PE=-8.945837911023D+02 EE= 2.604148095943D+02
 Leave Link  502 at Fri Jun  2 11:31:56 2023, MaxMem=  7381975040 cpu:              18.7 elap:              11.7
 (Enter /software/commercial/gaussian/g16/AVX/g16/l508.exe)
 QCSCF skips out because SCF is already converged.
 Leave Link  508 at Fri Jun  2 11:31:59 2023, MaxMem=  7381975040 cpu:               0.1 elap:               0.7
 (Enter /software/commercial/gaussian/g16/AVX/g16/l801.exe)
 DoSCS=F DFT=T ScalE2(SS,OS)=  1.000000  1.000000
 Range of M.O.s used for correlation:     1   164
 NBasis=   164 NAE=    21 NBE=    21 NFC=     0 NFV=     0
 NROrb=    164 NOA=    21 NOB=    21 NVA=   143 NVB=   143

 **** Warning!!: The largest alpha MO coefficient is  0.54091181D+02

 Leave Link  801 at Fri Jun  2 11:32:00 2023, MaxMem=  7381975040 cpu:               0.1 elap:               0.5
 (Enter /software/commercial/gaussian/g16/AVX/g16/l1002.exe)
 Minotr:  Closed shell wavefunction.
 NEqPCM:  Using equilibrium solvation (IEInf=0, Eps=  24.8520, EpsInf=   1.8526)
          Direct CPHF calculation.
          Differentiating once with respect to electric field.
                with respect to dipole field.
          Electric field/nuclear overlap derivatives assumed to be zero.
          Requested convergence is 1.0D-08 RMS, and 1.0D-07 maximum.
          Secondary convergence is 1.0D-12 RMS, and 1.0D-12 maximum.
          NewPWx=F KeepS1=T KeepF1=T KeepIn=T MapXYZ=F SortEE=F KeepMc=T.
         4278 words used for storage of precomputed grid.
 Keep R1 ints in memory in canonical form, NReq=95923622.
 FoFCou: FMM=F IPFlag=           0 FMFlag=           0 FMFlg1=           0
         NFxFlg=           0 DoJE=F BraDBF=F KetDBF=F FulRan=T
         wScrn=  0.000000 ICntrl=       600 IOpCl=  0 I1Cent=           0 NGrid=           0
         NMat0=    1 NMatS0=  13530 NMatT0=    0 NMatD0=    1 NMtDS0=    0 NMtDT0=    0
 Symmetry not used in FoFCou.
 Two-electron integral symmetry not used.
          MDV=    7381975040 using IRadAn=       1.
          Solving linear equations simultaneously, MaxMat=       0.
          There are     3 degrees of freedom in the 1st order CPHF.  IDoFFX=0 NUNeed=     3.
      3 vectors produced by pass  0 Test12= 1.00D-13 3.33D-08 XBig12= 5.89D+01 2.73D+00.
 AX will form     3 AO Fock derivatives at one time.
      3 vectors produced by pass  1 Test12= 1.00D-13 3.33D-08 XBig12= 4.67D+00 7.64D-01.
      3 vectors produced by pass  2 Test12= 1.00D-13 3.33D-08 XBig12= 1.41D+00 2.66D-01.
      3 vectors produced by pass  3 Test12= 1.00D-13 3.33D-08 XBig12= 1.57D-01 1.13D-01.
      3 vectors produced by pass  4 Test12= 1.00D-13 3.33D-08 XBig12= 2.25D-02 3.18D-02.
      3 vectors produced by pass  5 Test12= 1.00D-13 3.33D-08 XBig12= 4.88D-03 1.78D-02.
      3 vectors produced by pass  6 Test12= 1.00D-13 3.33D-08 XBig12= 2.40D-04 4.50D-03.
      3 vectors produced by pass  7 Test12= 1.00D-13 3.33D-08 XBig12= 9.71D-06 5.40D-04.
      3 vectors produced by pass  8 Test12= 1.00D-13 3.33D-08 XBig12= 1.86D-07 1.03D-04.
      3 vectors produced by pass  9 Test12= 1.00D-13 3.33D-08 XBig12= 6.21D-09 2.04D-05.
      3 vectors produced by pass 10 Test12= 1.00D-13 3.33D-08 XBig12= 1.40D-10 1.89D-06.
      3 vectors produced by pass 11 Test12= 1.00D-13 3.33D-08 XBig12= 3.21D-12 3.58D-07.
      2 vectors produced by pass 12 Test12= 1.00D-13 3.33D-08 XBig12= 4.92D-14 6.04D-08.
 InvSVY:  IOpt=1 It=  1 EMax= 1.13D-15
 Solved reduced A of dimension    38 with     3 vectors.
 End of Minotr F.D. properties file   721 does not exist.
 End of Minotr F.D. properties file   722 does not exist.
 End of Minotr F.D. properties file   788 does not exist.
 Leave Link 1002 at Fri Jun  2 11:33:00 2023, MaxMem=  7381975040 cpu:             101.3 elap:              59.0
 (Enter /software/commercial/gaussian/g16/AVX/g16/l1101.exe)
 Using compressed storage, NAtomX=    14.
 Will process     15 centers per pass.
 R6Disp: Adding Grimme-D3(BJ) dispersion energy 1st derivatives to the gradient.
 Leave Link 1101 at Fri Jun  2 11:33:03 2023, MaxMem=  7381975040 cpu:               1.3 elap:               1.6
 (Enter /software/commercial/gaussian/g16/AVX/g16/l1102.exe)
 Symmetrizing basis deriv contribution to polar:
 IMax=3 JMax=2 DiffMx= 0.00D+00
 Leave Link 1102 at Fri Jun  2 11:33:05 2023, MaxMem=  7381975040 cpu:               0.1 elap:               1.2
 (Enter /software/commercial/gaussian/g16/AVX/g16/l1110.exe)
 Forming Gx(P) for the SCF density, NAtomX=    14.
 Integral derivatives from FoFJK, PRISM(SPDF).
 Do as many integral derivatives as possible in FoFJK.
 G2DrvN: MDV=    7381973462.
 G2DrvN: will do    15 centers at a time, making    1 passes.
 PxScal for G2LodP:  IOpCl= 0 ISclPx=1 IMOff=     1 NMtTot=     4 NTT=   13530 ScalPx= 3.73D+01
 Calling FoFCou, ICntrl=  3107 FMM=F I1Cent=   0 AccDes= 0.00D+00.
 FoFJK:  IHMeth= 1 ICntrl=    3107 DoSepK=F KAlg= 0 I1Cent=           0 FoldK=F
 IRaf=         0 NMat=       1 IRICut=       1 DoRegI=T DoRafI=F ISym2E= 0 IDoP0=0 IntGTp=1.
 FoFCou: FMM=F IPFlag=           0 FMFlag=      100000 FMFlg1=           0
         NFxFlg=           0 DoJE=F BraDBF=F KetDBF=F FulRan=T
         wScrn=  0.000000 ICntrl=      3107 IOpCl=  0 I1Cent=           0 NGrid=           0
         NMat0=    1 NMatS0=      1 NMatT0=    0 NMatD0=    4 NMtDS0=    3 NMtDT0=    0
 Symmetry not used in FoFCou.
 PxScal for G2LodP:  IOpCl= 0 ISclPx=0 IMOff=     1 NMtTot=     4 NTT=   13530 ScalPx= 1.00D+00
 NEqPCM:  Using equilibrium solvation (IEInf=0, Eps=  24.8520, EpsInf=   1.8526)
 G2PCM: DoFxE=T DoFxN=T DoGrad=T DoDP/DQ/DG/TGxP=TFFF NFrqRd=   0 IEInf=0 SqF1=F DoCFld=F IF1Alg=4.
 GePol: Maximum number of non-zero 1st derivatives   =     214
 End of G2Drv F.D. properties file   721 does not exist.
 End of G2Drv F.D. properties file   722 does not exist.
 End of G2Drv F.D. properties file   788 does not exist.
 Leave Link 1110 at Fri Jun  2 11:35:27 2023, MaxMem=  7381975040 cpu:             274.6 elap:             140.9
 (Enter /software/commercial/gaussian/g16/AVX/g16/l1002.exe)
 Minotr:  Closed shell wavefunction.
          IDoAtm=11111111111111
 NEqPCM:  Using equilibrium solvation (IEInf=0, Eps=  24.8520, EpsInf=   1.8526)
          Direct CPHF calculation.
          Differentiating once with respect to electric field.
                with respect to dipole field.
          Differentiating once with respect to nuclear coordinates.
          Requested convergence is 1.0D-08 RMS, and 1.0D-07 maximum.
          Secondary convergence is 1.0D-12 RMS, and 1.0D-12 maximum.
          NewPWx=T KeepS1=F KeepF1=F KeepIn=T MapXYZ=F SortEE=F KeepMc=T.
         4278 words used for storage of precomputed grid.
 Keep R1 ints in memory in canonical form, NReq=95923944.
 FoFCou: FMM=F IPFlag=           0 FMFlag=           0 FMFlg1=           0
         NFxFlg=           0 DoJE=F BraDBF=F KetDBF=F FulRan=T
         wScrn=  0.000000 ICntrl=       600 IOpCl=  0 I1Cent=           0 NGrid=           0
         NMat0=    1 NMatS0=  13530 NMatT0=    0 NMatD0=    1 NMtDS0=    0 NMtDT0=    0
 Symmetry not used in FoFCou.
 Two-electron integral symmetry not used.
          MDV=    7381975040 using IRadAn=       1.
          Solving linear equations simultaneously, MaxMat=       0.
          There are    45 degrees of freedom in the 1st order CPHF.  IDoFFX=5 NUNeed=    45.
 Will reuse    3 saved solutions.
     39 vectors produced by pass  0 Test12= 6.67D-15 2.22D-09 XBig12= 1.12D-01 1.22D-01.
 AX will form    39 AO Fock derivatives at one time.
     39 vectors produced by pass  1 Test12= 6.67D-15 2.22D-09 XBig12= 6.48D-03 1.65D-02.
     39 vectors produced by pass  2 Test12= 6.67D-15 2.22D-09 XBig12= 1.16D-04 2.80D-03.
     39 vectors produced by pass  3 Test12= 6.67D-15 2.22D-09 XBig12= 5.43D-07 1.25D-04.
     39 vectors produced by pass  4 Test12= 6.67D-15 2.22D-09 XBig12= 1.45D-09 5.77D-06.
     32 vectors produced by pass  5 Test12= 6.67D-15 2.22D-09 XBig12= 1.84D-12 1.64D-07.
      7 vectors produced by pass  6 Test12= 6.67D-15 2.22D-09 XBig12= 2.15D-15 8.76D-09.
 InvSVY:  IOpt=1 It=  1 EMax= 1.55D-15
 Solved reduced A of dimension   234 with    39 vectors.
 FullF1:  Do perturbations      1 to       3.
 Isotropic polarizability for W=    0.000000       92.21 Bohr**3.
 FullF1:  Do perturbations      1 to       6.
 End of Minotr F.D. properties file   721 does not exist.
 End of Minotr F.D. properties file   722 does not exist.
 End of Minotr F.D. properties file   788 does not exist.
 Leave Link 1002 at Fri Jun  2 11:38:04 2023, MaxMem=  7381975040 cpu:             295.0 elap:             156.4
 (Enter /software/commercial/gaussian/g16/AVX/g16/l601.exe)
 Copying SCF densities to generalized density rwf, IOpCl= 0 IROHF=0.

 **********************************************************************

            Population analysis using the SCF Density.

 **********************************************************************

 Alpha  occ. eigenvalues --  -14.28814 -14.18642 -10.17750 -10.14742 -10.13637
 Alpha  occ. eigenvalues --   -0.87367  -0.78086  -0.70690  -0.60108  -0.54591
 Alpha  occ. eigenvalues --   -0.47755  -0.44760  -0.42152  -0.39268  -0.36773
 Alpha  occ. eigenvalues --   -0.33049  -0.31087  -0.30857  -0.24206  -0.20107
 Alpha  occ. eigenvalues --   -0.12982
 Alpha virt. eigenvalues --    0.01124   0.02265   0.03169   0.04286   0.05737
 Alpha virt. eigenvalues --    0.07208   0.07807   0.08342   0.08807   0.11487
 Alpha virt. eigenvalues --    0.11867   0.12887   0.14878   0.16120   0.16527
 Alpha virt. eigenvalues --    0.17589   0.18760   0.18946   0.20172   0.21275
 Alpha virt. eigenvalues --    0.22263   0.22603   0.23383   0.24229   0.25582
 Alpha virt. eigenvalues --    0.25663   0.26183   0.29098   0.30299   0.31209
 Alpha virt. eigenvalues --    0.31618   0.33911   0.36130   0.43150   0.45137
 Alpha virt. eigenvalues --    0.45798   0.49083   0.53267   0.55153   0.59636
 Alpha virt. eigenvalues --    0.61288   0.61834   0.64818   0.65033   0.66127
 Alpha virt. eigenvalues --    0.66676   0.68505   0.70550   0.71900   0.74182
 Alpha virt. eigenvalues --    0.77046   0.79674   0.81175   0.85871   0.89794
 Alpha virt. eigenvalues --    0.91947   0.93132   0.95418   0.97493   1.00467
 Alpha virt. eigenvalues --    1.04863   1.14808   1.19234   1.23828   1.27473
 Alpha virt. eigenvalues --    1.29628   1.30602   1.37698   1.40340   1.44263
 Alpha virt. eigenvalues --    1.50621   1.55686   1.56590   1.57155   1.60418
 Alpha virt. eigenvalues --    1.61560   1.64037   1.66597   1.67993   1.70578
 Alpha virt. eigenvalues --    1.71634   1.73632   1.75465   1.79089   1.82173
 Alpha virt. eigenvalues --    1.85545   1.91210   1.92045   1.98636   2.04745
 Alpha virt. eigenvalues --    2.06548   2.10333   2.13118   2.16408   2.20834
 Alpha virt. eigenvalues --    2.25992   2.33015   2.35607   2.40380   2.43733
 Alpha virt. eigenvalues --    2.45661   2.47315   2.51109   2.55452   2.56258
 Alpha virt. eigenvalues --    2.58018   2.60884   2.61349   2.64494   2.65117
 Alpha virt. eigenvalues --    2.69704   2.71901   2.75940   2.77153   2.79202
 Alpha virt. eigenvalues --    2.80250   2.82428   2.83172   2.89811   2.96451
 Alpha virt. eigenvalues --    2.99138   3.06083   3.15139   3.17721   3.32673
 Alpha virt. eigenvalues --    3.52776   3.60755   3.75151   3.81889   3.86009
 Alpha virt. eigenvalues --    3.99599   4.08163   4.12887   4.29110   4.47203
 Alpha virt. eigenvalues --    4.72613   4.84133   4.87582  23.85359  23.88466
 Alpha virt. eigenvalues --   23.92148  35.59181  35.61449
     Molecular Orbital Coefficients:
                           1         2         3         4         5
                           O         O         O         O         O
     Eigenvalues --   -14.28814 -14.18642 -10.17750 -10.14742 -10.13637
   1 1   C  1S          0.00001  -0.00000   0.56303   0.00004  -0.00156
   2        2S         -0.00003   0.00001   0.46329   0.00005  -0.00128
   3        2PX        -0.00025   0.00002  -0.00052   0.00006   0.00040
   4        2PY         0.00023   0.00001   0.00048   0.00004   0.00033
   5        2PZ         0.00003  -0.00000   0.00008  -0.00000  -0.00001
   6        3S          0.00003  -0.00022   0.01864  -0.00003  -0.00013
   7        3PX         0.00036  -0.00013   0.00053  -0.00032  -0.00083
   8        3PY        -0.00062  -0.00011  -0.00210  -0.00022  -0.00098
   9        3PZ        -0.00004   0.00000  -0.00029   0.00000  -0.00002
  10        4S          0.00551   0.00211  -0.01418  -0.00121   0.00625
  11        4PX        -0.00114   0.00119  -0.00096   0.00042   0.00201
  12        4PY         0.00173   0.00003  -0.00167  -0.00099   0.00162
  13        4PZ        -0.00007  -0.00016   0.00001  -0.00024  -0.00014
  14        5S         -0.00609  -0.01445  -0.02801  -0.00396  -0.00110
  15        5PX         0.00062  -0.00199  -0.00239  -0.00051  -0.00087
  16        5PY        -0.00190  -0.00199  -0.00340  -0.00114   0.00020
  17        5PZ         0.00001  -0.00007  -0.00024  -0.00008   0.00002
  18        6D 0        0.00031   0.00004   0.00084   0.00008   0.00044
  19        6D+1        0.00009   0.00001   0.00027   0.00002   0.00008
  20        6D-1       -0.00009  -0.00001  -0.00005   0.00001   0.00003
  21        6D+2       -0.00016  -0.00000  -0.00059  -0.00009  -0.00023
  22        6D-2        0.00039  -0.00001   0.00022  -0.00017  -0.00061
  23 2   C  1S          0.00000   0.00000   0.00154   0.00548   0.56293
  24        2S         -0.00000  -0.00000   0.00127   0.00452   0.46325
  25        2PX        -0.00005   0.00004  -0.00042   0.00040  -0.00022
  26        2PY        -0.00003  -0.00003  -0.00034  -0.00034  -0.00015
  27        2PZ         0.00001  -0.00000   0.00002  -0.00004   0.00005
  28        3S          0.00017   0.00014   0.00007   0.00017   0.01907
  29        3PX         0.00030  -0.00028   0.00096  -0.00089   0.00012
  30        3PY         0.00015   0.00016   0.00102   0.00100   0.00175
  31        3PZ        -0.00003   0.00003  -0.00005   0.00011   0.00001
  32        4S         -0.00286  -0.00273   0.00458   0.00484  -0.01681
  33        4PX         0.00003  -0.00011  -0.00174   0.00176   0.00008
  34        4PY         0.00157   0.00160  -0.00091  -0.00114   0.00277
  35        4PZ         0.00022   0.00014   0.00009  -0.00010   0.00019
  36        5S          0.01386   0.01921   0.02617   0.02427  -0.00190
  37        5PX         0.00384  -0.00386  -0.00387   0.00490  -0.00004
  38        5PY        -0.00209  -0.00286  -0.00425  -0.00378  -0.00171
  39        5PZ        -0.00043   0.00032   0.00030  -0.00052   0.00004
  40        6D 0        0.00005   0.00004   0.00046   0.00045   0.00075
  41        6D+1        0.00000   0.00001   0.00005   0.00010   0.00016
  42        6D-1        0.00001  -0.00002   0.00003  -0.00007  -0.00005
  43        6D+2       -0.00009  -0.00008  -0.00022  -0.00020  -0.00052
  44        6D-2       -0.00013   0.00017  -0.00070   0.00065  -0.00001
  45 3   C  1S         -0.00000   0.00001  -0.00006   0.56304  -0.00551
  46        2S          0.00001  -0.00003  -0.00002   0.46332  -0.00452
  47        2PX        -0.00002   0.00029  -0.00006   0.00001  -0.00039
  48        2PY         0.00001   0.00027   0.00004   0.00024   0.00032
  49        2PZ         0.00000  -0.00002   0.00001   0.00000   0.00004
  50        3S         -0.00024   0.00011  -0.00007   0.01817  -0.00029
  51        3PX         0.00010  -0.00052   0.00031  -0.00046   0.00082
  52        3PY        -0.00010  -0.00074  -0.00020  -0.00177  -0.00090
  53        3PZ        -0.00002   0.00004  -0.00004   0.00003  -0.00009
  54        4S          0.00230   0.00545  -0.00094  -0.01424   0.00610
  55        4PX        -0.00124   0.00111  -0.00052   0.00113  -0.00197
  56        4PY         0.00007   0.00172  -0.00097  -0.00162   0.00157
  57        4PZ         0.00001  -0.00013   0.00009  -0.00018   0.00007
  58        5S         -0.01177  -0.00996  -0.00645  -0.02869  -0.00027
  59        5PX         0.00163  -0.00043   0.00093   0.00264   0.00079
  60        5PY        -0.00159  -0.00274  -0.00151  -0.00352   0.00035
  61        5PZ        -0.00021   0.00001  -0.00006  -0.00030  -0.00016
  62        6D 0        0.00003   0.00040   0.00007   0.00062   0.00037
  63        6D+1        0.00001   0.00009   0.00002   0.00016   0.00010
  64        6D-1        0.00000   0.00004  -0.00001  -0.00002  -0.00006
  65        6D+2        0.00000  -0.00020  -0.00008  -0.00051  -0.00022
  66        6D-2        0.00001  -0.00049   0.00019   0.00011   0.00065
  67 4   H  1S          0.00004   0.00004  -0.00011  -0.00009   0.00011
  68        2S         -0.00022  -0.00019  -0.00066  -0.00075  -0.00264
  69        3S         -0.00119  -0.00153  -0.00072  -0.00050   0.00388
  70        4PX         0.00012  -0.00011  -0.00003   0.00007   0.00015
  71        4PY         0.00001   0.00002   0.00012   0.00014   0.00102
  72        4PZ         0.00011   0.00014   0.00028   0.00028   0.00182
  73 5   H  1S          0.00004   0.00003  -0.00010  -0.00010   0.00009
  74        2S         -0.00014  -0.00015  -0.00072  -0.00069  -0.00265
  75        3S         -0.00116  -0.00144  -0.00061  -0.00051   0.00396
  76        4PX         0.00011  -0.00012  -0.00006   0.00002  -0.00014
  77        4PY         0.00002   0.00002   0.00015   0.00016   0.00118
  78        4PZ        -0.00013  -0.00011  -0.00027  -0.00028  -0.00176
  79 6   N  1S          0.55739  -0.00000  -0.00002   0.00000   0.00000
  80        2S          0.46575  -0.00000  -0.00005   0.00001   0.00000
  81        2PX         0.00011  -0.00001   0.00019   0.00003   0.00002
  82        2PY        -0.00078  -0.00001  -0.00015  -0.00002  -0.00004
  83        2PZ         0.00092   0.00000  -0.00001  -0.00001  -0.00000
  84        3S          0.01560   0.00005   0.00043  -0.00013   0.00014
  85        3PX        -0.00048   0.00004  -0.00015  -0.00013  -0.00008
  86        3PY        -0.00007   0.00003   0.00014   0.00008   0.00014
  87        3PZ         0.00075  -0.00001  -0.00007   0.00003   0.00000
  88        4S         -0.00900  -0.00015   0.00016   0.00076  -0.00149
  89        4PX        -0.00241  -0.00028   0.00048   0.00067  -0.00049
  90        4PY         0.00091  -0.00005  -0.00021  -0.00030   0.00035
  91        4PZ         0.00087   0.00004  -0.00012   0.00011   0.00011
  92        5S          0.00690   0.00193   0.01223   0.00253   0.00021
  93        5PX         0.00200  -0.00028   0.00062   0.00046   0.00048
  94        5PY        -0.00002  -0.00079  -0.00232   0.00023   0.00052
  95        5PZ        -0.00050   0.00015   0.00056   0.00004   0.00024
  96        6D 0        0.00002   0.00000   0.00015   0.00001   0.00004
  97        6D+1       -0.00007   0.00000   0.00002   0.00001   0.00003
  98        6D-1        0.00050  -0.00001  -0.00008   0.00002  -0.00001
  99        6D+2        0.00012  -0.00001  -0.00005   0.00001  -0.00002
 100        6D-2        0.00053   0.00001   0.00031   0.00002   0.00009
 101 7   H  1S         -0.00001   0.00005   0.00009   0.00001  -0.00006
 102        2S         -0.00102  -0.00053  -0.00282  -0.00020  -0.00097
 103        3S         -0.00026   0.00005   0.00379  -0.00053   0.00079
 104        4PX         0.00015  -0.00003   0.00017  -0.00009   0.00010
 105        4PY        -0.00032  -0.00003  -0.00127  -0.00001  -0.00016
 106        4PZ         0.00022   0.00008   0.00168   0.00010   0.00025
 107 8   H  1S         -0.00001   0.00005   0.00006   0.00003  -0.00006
 108        2S         -0.00108  -0.00052  -0.00289  -0.00028  -0.00107
 109        3S         -0.00033  -0.00004   0.00380  -0.00064   0.00093
 110        4PX         0.00002  -0.00005  -0.00024  -0.00012   0.00004
 111        4PY        -0.00021  -0.00002  -0.00100  -0.00001  -0.00013
 112        4PZ        -0.00023  -0.00008  -0.00192  -0.00009  -0.00029
 113 9   H  1S         -0.00000   0.00000  -0.00014   0.00001   0.00000
 114        2S         -0.00168   0.00004   0.00054  -0.00022   0.00006
 115        3S          0.00041  -0.00027  -0.00133  -0.00016  -0.00063
 116        4PX         0.00023   0.00000   0.00013  -0.00001  -0.00006
 117        4PY         0.00082   0.00002  -0.00015   0.00003   0.00000
 118        4PZ         0.00138  -0.00001  -0.00009   0.00003   0.00001
 119 10  H  1S         -0.00001  -0.00001  -0.00013  -0.00001  -0.00004
 120        2S         -0.00187   0.00004   0.00047  -0.00002   0.00033
 121        3S          0.00107  -0.00075  -0.00311  -0.00005   0.00042
 122        4PX        -0.00127   0.00003   0.00002  -0.00005   0.00013
 123        4PY        -0.00103  -0.00002  -0.00003   0.00002  -0.00002
 124        4PZ         0.00007  -0.00001   0.00000  -0.00002  -0.00002
 125 11  N  1S          0.00000   0.55743   0.00000  -0.00003   0.00000
 126        2S         -0.00000   0.46588   0.00001  -0.00005   0.00001
 127        2PX         0.00001  -0.00006  -0.00003  -0.00022  -0.00003
 128        2PY        -0.00001  -0.00123  -0.00002  -0.00018  -0.00004
 129        2PZ        -0.00000   0.00000   0.00000   0.00002   0.00000
 130        3S          0.00005   0.01497  -0.00011   0.00049   0.00013
 131        3PX        -0.00004   0.00032   0.00013   0.00029   0.00010
 132        3PY         0.00003  -0.00067   0.00007   0.00033   0.00015
 133        3PZ         0.00000  -0.00004  -0.00002  -0.00003  -0.00001
 134        4S         -0.00019  -0.01070   0.00057  -0.00013  -0.00149
 135        4PX         0.00024   0.00230  -0.00063  -0.00055   0.00048
 136        4PY         0.00001   0.00074  -0.00034  -0.00005   0.00037
 137        4PZ        -0.00001  -0.00021   0.00006   0.00006  -0.00002
 138        5S          0.00113   0.00955   0.00223   0.01155  -0.00093
 139        5PX         0.00026  -0.00210  -0.00034  -0.00049  -0.00032
 140        5PY        -0.00071  -0.00019   0.00025  -0.00291   0.00051
 141        5PZ        -0.00001   0.00020   0.00001   0.00002   0.00005
 142        6D 0        0.00001  -0.00042  -0.00001   0.00029   0.00005
 143        6D+1        0.00000  -0.00009  -0.00000   0.00005   0.00001
 144        6D-1       -0.00000   0.00004   0.00000   0.00003   0.00001
 145        6D+2       -0.00001   0.00022   0.00001  -0.00009  -0.00001
 146        6D-2       -0.00000  -0.00044  -0.00002  -0.00040  -0.00009
 147 12  H  1S          0.00006  -0.00001   0.00002   0.00013  -0.00006
 148        2S         -0.00057  -0.00108  -0.00029  -0.00252  -0.00087
 149        3S          0.00002  -0.00038  -0.00043   0.00366   0.00071
 150        4PX         0.00001  -0.00018   0.00008  -0.00026  -0.00015
 151        4PY        -0.00003  -0.00033  -0.00000  -0.00106  -0.00009
 152        4PZ        -0.00009  -0.00024  -0.00010  -0.00163  -0.00022
 153 13  H  1S          0.00004  -0.00001   0.00002   0.00013  -0.00006
 154        2S         -0.00049  -0.00106  -0.00029  -0.00251  -0.00083
 155        3S          0.00007  -0.00032  -0.00056   0.00376   0.00091
 156        4PX         0.00003  -0.00013   0.00010   0.00005  -0.00011
 157        4PY        -0.00001  -0.00033  -0.00001  -0.00109  -0.00008
 158        4PZ         0.00007   0.00026   0.00009   0.00163   0.00024
 159 14  H  1S         -0.00001  -0.00004  -0.00001  -0.00015  -0.00004
 160        2S          0.00009  -0.00139   0.00001   0.00072   0.00036
 161        3S         -0.00053   0.00043   0.00003  -0.00336   0.00062
 162        4PX        -0.00005   0.00120   0.00003  -0.00009  -0.00014
 163        4PY        -0.00002  -0.00103   0.00002  -0.00003  -0.00002
 164        4PZ         0.00000  -0.00012  -0.00000   0.00001   0.00001
                           6         7         8         9        10
                           O         O         O         O         O
     Eigenvalues --    -0.87367  -0.78086  -0.70690  -0.60108  -0.54591
   1 1   C  1S         -0.05521  -0.01482  -0.05496  -0.07075  -0.01413
   2        2S         -0.08515  -0.02293  -0.08531  -0.11049  -0.02209
   3        2PX        -0.02986   0.02596   0.04351  -0.02008  -0.02163
   4        2PY         0.02394   0.00035   0.00124  -0.03625  -0.06014
   5        2PZ         0.00565  -0.00310  -0.00668  -0.00932  -0.00728
   6        3S          0.22278   0.06076   0.22798   0.30209   0.06031
   7        3PX        -0.04906   0.04113   0.06626  -0.03354  -0.03428
   8        3PY         0.04480   0.00274   0.00817  -0.04728  -0.08819
   9        3PZ         0.01026  -0.00484  -0.00975  -0.01301  -0.01051
  10        4S          0.08254   0.02515   0.13918   0.20696   0.03156
  11        4PX        -0.00977   0.00800   0.01745  -0.01797  -0.01596
  12        4PY         0.00111  -0.00195   0.00033  -0.03017  -0.05366
  13        4PZ         0.00612  -0.00057   0.00091  -0.00087  -0.01051
  14        5S          0.06296   0.05114   0.06589   0.09639  -0.00597
  15        5PX         0.00450   0.00740   0.00536   0.00244  -0.00239
  16        5PY         0.00910   0.00686   0.00673   0.01169  -0.00298
  17        5PZ         0.00032   0.00158   0.00416   0.00385  -0.00415
  18        6D 0       -0.00952  -0.00098  -0.00138   0.00520   0.00529
  19        6D+1       -0.00380   0.00051   0.00139   0.00285   0.00130
  20        6D-1        0.00305  -0.00078  -0.00106  -0.00047  -0.00080
  21        6D+2        0.00610   0.00125  -0.00030  -0.00361   0.00491
  22        6D-2       -0.01169   0.00634   0.01001  -0.00352  -0.00613
  23 2   C  1S         -0.02105  -0.05005  -0.06579   0.04143   0.04463
  24        2S         -0.03237  -0.07726  -0.10187   0.06453   0.06971
  25        2PX        -0.01320   0.01754  -0.02543  -0.05213   0.03875
  26        2PY        -0.00508  -0.01181  -0.01181  -0.01772  -0.07035
  27        2PZ         0.00137  -0.00193   0.00150   0.00049  -0.00834
  28        3S          0.08219   0.20023   0.26875  -0.17400  -0.19019
  29        3PX        -0.02292   0.02966  -0.04054  -0.08051   0.05768
  30        3PY        -0.01165  -0.02387  -0.02330  -0.02329  -0.10118
  31        3PZ         0.00203  -0.00329   0.00238   0.00107  -0.01222
  32        4S          0.05179   0.12311   0.14879  -0.10171  -0.11188
  33        4PX        -0.00843   0.00808  -0.01755  -0.02509   0.03495
  34        4PY        -0.00742  -0.01347  -0.00660  -0.01489  -0.05925
  35        4PZ        -0.00145  -0.00094   0.00026  -0.00343  -0.00595
  36        5S         -0.09475  -0.09180  -0.03402   0.00045  -0.02387
  37        5PX        -0.02037   0.00684   0.01272   0.04311   0.00149
  38        5PY         0.01814   0.02016   0.01251  -0.00680  -0.00489
  39        5PZ         0.00191  -0.00083  -0.00285  -0.00554   0.00235
  40        6D 0       -0.00330  -0.00446  -0.00252  -0.00323  -0.00837
  41        6D+1       -0.00076  -0.00105   0.00015   0.00040  -0.00082
  42        6D-1       -0.00019   0.00062  -0.00008  -0.00092   0.00093
  43        6D+2        0.00378   0.00336  -0.00125   0.00286  -0.00039
  44        6D-2        0.00336  -0.00429   0.00577   0.01355  -0.00733
  45 3   C  1S         -0.00724  -0.07444   0.00830   0.03791  -0.06227
  46        2S         -0.01114  -0.11504   0.01295   0.05902  -0.09722
  47        2PX        -0.00387   0.01318  -0.05846   0.04974  -0.02375
  48        2PY         0.00206   0.02310  -0.00760   0.00227  -0.06362
  49        2PZ         0.00038  -0.00107   0.00547  -0.00585   0.00052
  50        3S          0.02935   0.30544  -0.03639  -0.15978   0.26625
  51        3PX        -0.00667   0.02112  -0.09034   0.07483  -0.03142
  52        3PY         0.00446   0.04311  -0.01076  -0.00088  -0.08913
  53        3PZ         0.00079  -0.00164   0.00854  -0.00880   0.00034
  54        4S          0.00664   0.12983  -0.00778  -0.11963   0.16613
  55        4PX         0.00008   0.00676  -0.02808   0.02869  -0.01483
  56        4PY        -0.00098  -0.00181   0.00134  -0.00238  -0.05712
  57        4PZ         0.00062  -0.00074   0.00276  -0.00184   0.00084
  58        5S          0.06836   0.07998  -0.01021  -0.08940   0.03216
  59        5PX        -0.00797  -0.00874  -0.00260   0.00951  -0.00672
  60        5PY         0.01090   0.00962  -0.00338  -0.01143  -0.00189
  61        5PZ         0.00125   0.00072  -0.00011  -0.00137   0.00064
  62        6D 0       -0.00129  -0.00984   0.00202  -0.00140   0.00772
  63        6D+1       -0.00042  -0.00227   0.00031  -0.00038   0.00203
  64        6D-1        0.00009  -0.00046   0.00134  -0.00114  -0.00033
  65        6D+2        0.00139   0.00675  -0.00076   0.00456  -0.00433
  66        6D-2       -0.00077   0.00601  -0.01369   0.01065   0.00140
  67 4   H  1S          0.01208   0.03074   0.04451  -0.04385  -0.07073
  68        2S          0.01471   0.03519   0.05280  -0.05451  -0.09107
  69        3S          0.00263  -0.00038   0.00004  -0.00349  -0.01709
  70        4PX        -0.00134   0.00053  -0.00201  -0.00148   0.00341
  71        4PY        -0.00192  -0.00429  -0.00577   0.00355   0.00321
  72        4PZ        -0.00274  -0.00603  -0.00739   0.00637   0.00945
  73 5   H  1S          0.01165   0.03080   0.04470  -0.04010  -0.06762
  74        2S          0.01254   0.03544   0.05299  -0.04991  -0.08596
  75        3S          0.00121  -0.00119  -0.00289  -0.00512  -0.01147
  76        4PX        -0.00061   0.00150  -0.00084  -0.00304   0.00119
  77        4PY        -0.00193  -0.00476  -0.00637   0.00364   0.00358
  78        4PZ         0.00267   0.00553   0.00719  -0.00550  -0.00935
  79 6   N  1S         -0.10018   0.02288   0.03647   0.02380   0.00118
  80        2S         -0.15735   0.03608   0.05763   0.03770   0.00190
  81        2PX         0.01006   0.00912   0.03684   0.05496  -0.02667
  82        2PY        -0.02659   0.00326  -0.00395  -0.04090  -0.03680
  83        2PZ         0.02712  -0.00962  -0.02333  -0.03914  -0.01585
  84        3S          0.43135  -0.10091  -0.16194  -0.10655  -0.00593
  85        3PX         0.01932   0.01293   0.05451   0.08166  -0.03892
  86        3PY        -0.04335   0.00524  -0.00576  -0.06107  -0.05378
  87        3PZ         0.04054  -0.01418  -0.03454  -0.05733  -0.02286
  88        4S          0.29986  -0.06954  -0.12518  -0.08933   0.00410
  89        4PX         0.01343   0.00742   0.02444   0.04285  -0.02069
  90        4PY        -0.01885   0.00269  -0.00169  -0.03530  -0.03607
  91        4PZ         0.01366  -0.00535  -0.01514  -0.03030  -0.01146
  92        5S         -0.02652  -0.01608  -0.04978  -0.05921   0.02509
  93        5PX        -0.01694   0.00235  -0.00122   0.00211   0.00673
  94        5PY         0.00098   0.00140   0.00490   0.01247  -0.00140
  95        5PZ         0.00382  -0.00371  -0.00744  -0.00765   0.00285
  96        6D 0       -0.00333  -0.00034  -0.00254  -0.00631  -0.00309
  97        6D+1       -0.00060   0.00033   0.00101   0.00098  -0.00164
  98        6D-1        0.00439  -0.00092  -0.00183  -0.00285  -0.00213
  99        6D+2        0.00254   0.00053   0.00134  -0.00157  -0.00342
 100        6D-2       -0.00173  -0.00153  -0.00606  -0.01026   0.00058
 101 7   H  1S          0.02761   0.01036   0.04018   0.06962   0.03620
 102        2S          0.03396   0.01233   0.04588   0.08400   0.04736
 103        3S         -0.00924  -0.00180  -0.00414   0.00549   0.00729
 104        4PX        -0.00140   0.00095   0.00139  -0.00167  -0.00088
 105        4PY         0.00593   0.00150   0.00520   0.00612   0.00108
 106        4PZ        -0.00589  -0.00177  -0.00622  -0.00966  -0.00481
 107 8   H  1S          0.02754   0.01050   0.04194   0.07865   0.04135
 108        2S          0.03672   0.01259   0.04962   0.09690   0.05093
 109        3S         -0.00570  -0.00080  -0.00021   0.00989   0.00296
 110        4PX        -0.00005   0.00142   0.00305   0.00086   0.00007
 111        4PY         0.00510   0.00127   0.00455   0.00543   0.00023
 112        4PZ         0.00688   0.00177   0.00668   0.01124   0.00533
 113 9   H  1S          0.07862  -0.02131  -0.04258  -0.05855  -0.02819
 114        2S          0.07419  -0.02306  -0.04719  -0.06985  -0.03638
 115        3S         -0.00332   0.00495   0.00794  -0.00151  -0.01506
 116        4PX        -0.00039   0.00092   0.00313   0.00413  -0.00232
 117        4PY        -0.01110   0.00283   0.00470   0.00378   0.00085
 118        4PZ        -0.01383   0.00366   0.00638   0.00728   0.00373
 119 10  H  1S          0.07787  -0.02393  -0.04950  -0.03990   0.02964
 120        2S          0.07464  -0.02449  -0.05367  -0.04981   0.03387
 121        3S         -0.00912   0.00533   0.00722   0.00722   0.00549
 122        4PX         0.01561  -0.00400  -0.00652  -0.00267   0.00373
 123        4PY         0.00839  -0.00267  -0.00612  -0.00752   0.00030
 124        4PZ         0.00032  -0.00031  -0.00097  -0.00230  -0.00136
 125 11  N  1S         -0.00304  -0.07154   0.06144  -0.04130   0.03665
 126        2S         -0.00474  -0.11218   0.09661  -0.06515   0.05799
 127        2PX        -0.00168  -0.01889  -0.00359   0.03201  -0.03382
 128        2PY        -0.00157  -0.03885   0.03325  -0.01905  -0.00011
 129        2PZ         0.00016   0.00157   0.00055  -0.00336   0.00298
 130        3S          0.01248   0.30570  -0.26627   0.18122  -0.16301
 131        3PX        -0.00263  -0.03111  -0.00367   0.04646  -0.04895
 132        3PY        -0.00259  -0.06036   0.05070  -0.02861   0.00041
 133        3PZ         0.00023   0.00262   0.00066  -0.00485   0.00430
 134        4S          0.01030   0.21677  -0.19593   0.15169  -0.13048
 135        4PX        -0.00264  -0.01531   0.00057   0.01715  -0.02624
 136        4PY        -0.00103  -0.02288   0.02083  -0.01337  -0.00579
 137        4PZ         0.00020   0.00133  -0.00002  -0.00221   0.00213
 138        5S         -0.00712  -0.02483  -0.00412   0.03859  -0.02439
 139        5PX        -0.00202   0.01069  -0.00504   0.00270  -0.00226
 140        5PY         0.00316   0.00230  -0.00270  -0.00711   0.00205
 141        5PZ         0.00009  -0.00083   0.00090   0.00014  -0.00010
 142        6D 0       -0.00048  -0.00839   0.00585  -0.00263   0.00143
 143        6D+1       -0.00011  -0.00161   0.00096  -0.00031   0.00059
 144        6D-1       -0.00002  -0.00031  -0.00009   0.00062  -0.00071
 145        6D+2        0.00035   0.00239   0.00027  -0.00115  -0.00237
 146        6D-2        0.00038   0.00409   0.00025  -0.00549   0.00797
 147 12  H  1S          0.00393   0.04127  -0.00071  -0.03185   0.08168
 148        2S          0.00562   0.05090  -0.00254  -0.03776   0.10296
 149        3S         -0.00069  -0.00855   0.00061  -0.00195   0.01757
 150        4PX        -0.00005   0.00136  -0.00248   0.00122   0.00016
 151        4PY         0.00076   0.00705  -0.00050  -0.00350   0.00506
 152        4PZ         0.00093   0.00800  -0.00023  -0.00491   0.01092
 153 13  H  1S          0.00396   0.04128  -0.00096  -0.03296   0.08048
 154        2S          0.00526   0.05095  -0.00276  -0.03999   0.10059
 155        3S         -0.00100  -0.00854   0.00053  -0.00333   0.01711
 156        4PX        -0.00025  -0.00020  -0.00237   0.00219  -0.00190
 157        4PY         0.00072   0.00723  -0.00054  -0.00386   0.00506
 158        4PZ        -0.00084  -0.00795   0.00072   0.00455  -0.01060
 159 14  H  1S          0.00192   0.05811  -0.06280   0.06118  -0.05360
 160        2S          0.00155   0.05581  -0.06353   0.06838  -0.06382
 161        3S          0.00318   0.00181  -0.00420   0.00520  -0.01299
 162        4PX        -0.00039  -0.01137   0.01031  -0.00737   0.00512
 163        4PY         0.00021   0.00472  -0.00525   0.00559  -0.00617
 164        4PZ         0.00004   0.00112  -0.00103   0.00074  -0.00054
                          11        12        13        14        15
                           O         O         O         O         O
     Eigenvalues --    -0.47755  -0.44760  -0.42152  -0.39268  -0.36773
   1 1   C  1S          0.00998   0.00047  -0.00121   0.00568   0.00183
   2        2S          0.01560   0.00061  -0.00167   0.00895   0.00280
   3        2PX        -0.03235  -0.04141   0.10898   0.05998  -0.01895
   4        2PY        -0.02001   0.09077  -0.07439   0.06768   0.03265
   5        2PZ        -0.08437  -0.08930  -0.03978  -0.03445   0.13141
   6        3S         -0.04205   0.00179   0.00034  -0.02340  -0.00633
   7        3PX        -0.04696  -0.06291   0.16370   0.08882  -0.02893
   8        3PY        -0.03069   0.13529  -0.11062   0.09876   0.04819
   9        3PZ        -0.12475  -0.12991  -0.05788  -0.05064   0.18938
  10        4S         -0.04696  -0.00191   0.01277  -0.03345  -0.02178
  11        4PX        -0.04820  -0.02715   0.09950   0.04680  -0.01450
  12        4PY        -0.02846   0.07928  -0.05983   0.06367   0.02433
  13        4PZ        -0.08612  -0.07262  -0.04720  -0.04182   0.14434
  14        5S         -0.03629   0.04881   0.00506  -0.04874  -0.05173
  15        5PX        -0.02883  -0.00344   0.03267  -0.00890  -0.00636
  16        5PY        -0.00017   0.01599  -0.01087  -0.00068  -0.00771
  17        5PZ        -0.00907   0.00337  -0.01356  -0.00290   0.01628
  18        6D 0        0.00019  -0.00751   0.01191  -0.00864  -0.00757
  19        6D+1        0.00375  -0.00463  -0.00526   0.00542  -0.00722
  20        6D-1        0.00017   0.00768  -0.00001   0.00233  -0.01536
  21        6D+2        0.01072  -0.00351  -0.00521   0.00632   0.00476
  22        6D-2        0.00451  -0.01120   0.01663   0.00845  -0.00209
  23 2   C  1S         -0.01760   0.01215  -0.00758  -0.01127  -0.00459
  24        2S         -0.02762   0.01909  -0.01191  -0.01770  -0.00726
  25        2PX         0.02835  -0.03257  -0.02755  -0.08268  -0.02431
  26        2PY         0.03452   0.00435  -0.04788  -0.02768   0.02884
  27        2PZ        -0.05403  -0.08706  -0.07785   0.04493  -0.03044
  28        3S          0.07424  -0.05253   0.03365   0.04775   0.01990
  29        3PX         0.03966  -0.04607  -0.04036  -0.12082  -0.03689
  30        3PY         0.05053   0.00660  -0.07038  -0.03963   0.04246
  31        3PZ        -0.07906  -0.12806  -0.11363   0.06542  -0.04308
  32        4S          0.09387  -0.05103   0.01633   0.06305   0.03305
  33        4PX         0.01294  -0.03098  -0.01754  -0.07434  -0.01607
  34        4PY         0.01888   0.00921  -0.03807  -0.02875   0.02319
  35        4PZ        -0.04091  -0.08813  -0.07632   0.05479  -0.04441
  36        5S          0.14041  -0.09249  -0.06432   0.02661   0.10101
  37        5PX         0.03364  -0.01531  -0.02017  -0.02817   0.01427
  38        5PY        -0.02305   0.01372   0.01363  -0.00387  -0.01375
  39        5PZ        -0.00271  -0.01026  -0.00289   0.00864  -0.00884
  40        6D 0        0.00444  -0.00309  -0.00266  -0.00020   0.00544
  41        6D+1        0.00462   0.00199  -0.00193   0.00552  -0.01384
  42        6D-1       -0.00095  -0.00235  -0.00407   0.00317  -0.00450
  43        6D+2       -0.00157   0.00541  -0.00727  -0.00439  -0.00368
  44        6D-2       -0.00228  -0.00280   0.00641   0.00386  -0.00156
  45 3   C  1S          0.00870  -0.01438   0.01592   0.01098   0.00152
  46        2S          0.01359  -0.02259   0.02515   0.01750   0.00243
  47        2PX        -0.00960   0.01117  -0.03348  -0.01993  -0.01228
  48        2PY         0.03917  -0.03446  -0.00848  -0.11982  -0.05206
  49        2PZ        -0.02289  -0.05734  -0.06489   0.05448  -0.12061
  50        3S         -0.03599   0.06217  -0.07200  -0.05498  -0.00846
  51        3PX        -0.01483   0.01726  -0.04984  -0.03051  -0.01869
  52        3PY         0.05766  -0.05002  -0.01431  -0.17797  -0.07612
  53        3PZ        -0.03397  -0.08420  -0.09499   0.07951  -0.17526
  54        4S         -0.04073   0.06460  -0.06597  -0.04556  -0.01494
  55        4PX        -0.00530   0.00745  -0.02811  -0.01625  -0.00591
  56        4PY         0.02950  -0.02760  -0.00758  -0.11576  -0.05578
  57        4PZ        -0.01601  -0.04047  -0.05382   0.04529  -0.11348
  58        5S         -0.09944   0.06937   0.03137   0.02127  -0.05923
  59        5PX         0.00726  -0.00767  -0.00420  -0.00765   0.00760
  60        5PY        -0.01845   0.00790   0.00930  -0.00734  -0.01505
  61        5PZ        -0.00082  -0.00034   0.00022   0.00305  -0.01205
  62        6D 0       -0.00432   0.00377  -0.00204   0.01028   0.00535
  63        6D+1        0.00256   0.00630   0.00375  -0.00060   0.00160
  64        6D-1        0.00075   0.00145   0.00341  -0.00307   0.01007
  65        6D+2       -0.00056  -0.00203   0.00704   0.00565  -0.00078
  66        6D-2       -0.00351   0.00288  -0.00194  -0.00606  -0.00224
  67 4   H  1S         -0.00153  -0.06842  -0.06621   0.02505  -0.00623
  68        2S         -0.00437  -0.08716  -0.08606   0.02709  -0.00614
  69        3S         -0.00778  -0.01529  -0.03034   0.01057  -0.00563
  70        4PX         0.00321  -0.00109  -0.00105  -0.00488  -0.00209
  71        4PY         0.00265   0.00618   0.00342  -0.00316   0.00197
  72        4PZ        -0.00276   0.00358   0.00428   0.00034  -0.00141
  73 5   H  1S          0.06368   0.04424   0.03451  -0.02765   0.04299
  74        2S          0.08005   0.05348   0.04228  -0.03759   0.05747
  75        3S          0.02032   0.01340   0.01462  -0.01031   0.01960
  76        4PX         0.00209  -0.00235  -0.00102  -0.00575  -0.00063
  77        4PY        -0.00451  -0.00436  -0.00585   0.00111  -0.00177
  78        4PZ         0.00469   0.00054  -0.00092  -0.00094   0.00288
  79 6   N  1S         -0.00460  -0.01247   0.00690  -0.00557   0.00576
  80        2S         -0.00737  -0.02009   0.01123  -0.00893   0.00925
  81        2PX        -0.09943   0.12057  -0.10377  -0.04664   0.00930
  82        2PY        -0.10374   0.04081   0.09358  -0.01232  -0.08882
  83        2PZ        -0.09881  -0.03261   0.07901  -0.05355   0.00229
  84        3S          0.02161   0.06148  -0.03674   0.02637  -0.02708
  85        3PX        -0.14391   0.17657  -0.15250  -0.06714   0.01378
  86        3PY        -0.15028   0.05811   0.13839  -0.01610  -0.12906
  87        3PZ        -0.14443  -0.04840   0.11294  -0.07807   0.00608
  88        4S          0.01850   0.06120  -0.03364   0.02513  -0.02477
  89        4PX        -0.09149   0.11549  -0.10726  -0.04836   0.01617
  90        4PY        -0.09147   0.04497   0.09178  -0.00501  -0.10072
  91        4PZ        -0.09332  -0.04200   0.08299  -0.06120   0.01619
  92        5S         -0.01105  -0.07660   0.08357  -0.02670   0.03553
  93        5PX        -0.00280  -0.00049  -0.00935  -0.01547   0.01107
  94        5PY         0.00143   0.01531  -0.00885  -0.00055  -0.01719
  95        5PZ        -0.00348  -0.01297   0.02430  -0.01269   0.00286
  96        6D 0       -0.01420   0.00149   0.01225  -0.00584  -0.00711
  97        6D+1       -0.00956   0.00058  -0.00402  -0.00409   0.00481
  98        6D-1       -0.00466   0.00774   0.00580  -0.00024  -0.01176
  99        6D+2       -0.00152   0.00310  -0.00005   0.00581   0.00033
 100        6D-2        0.00926  -0.01050   0.01097   0.00702  -0.00083
 101 7   H  1S         -0.04994  -0.10181   0.02327  -0.06019   0.06328
 102        2S         -0.06019  -0.13532   0.03411  -0.07986   0.08552
 103        3S         -0.01259  -0.04232   0.01000  -0.02818   0.03572
 104        4PX        -0.00122  -0.00109   0.00394   0.00503  -0.00214
 105        4PY        -0.00522  -0.00594  -0.00130  -0.00144   0.00735
 106        4PZ         0.00128   0.00671  -0.00463   0.00462   0.00084
 107 8   H  1S          0.05343   0.02466   0.05426  -0.01726  -0.11384
 108        2S          0.06241   0.03475   0.07102  -0.02713  -0.15714
 109        3S          0.01040   0.02151   0.01804  -0.00825  -0.07853
 110        4PX        -0.00048  -0.00066   0.00639   0.00296  -0.00127
 111        4PY         0.00342   0.00745  -0.00026   0.00263  -0.00618
 112        4PZ         0.00247  -0.00159   0.00417  -0.00422  -0.00596
 113 9   H  1S         -0.11266   0.01443   0.08675  -0.04198  -0.05060
 114        2S         -0.14738   0.02171   0.11987  -0.05727  -0.08303
 115        3S         -0.04484   0.02594   0.02490  -0.01203  -0.05002
 116        4PX        -0.00686   0.00772  -0.00984  -0.00264   0.00222
 117        4PY         0.00606   0.00182  -0.00221   0.00385  -0.00261
 118        4PZ         0.01125  -0.00509  -0.00743   0.00237   0.00809
 119 10  H  1S          0.11435  -0.09100   0.02603   0.04618   0.03173
 120        2S          0.15261  -0.12115   0.03629   0.07019   0.04313
 121        3S          0.05063  -0.02411  -0.00914   0.03399   0.01575
 122        4PX         0.01228  -0.00660  -0.00385   0.00265   0.00567
 123        4PY         0.00426  -0.00591   0.00959   0.00431  -0.00386
 124        4PZ        -0.00797  -0.00222   0.00598  -0.00447   0.00052
 125 11  N  1S         -0.00361   0.00800  -0.00774   0.00517   0.00595
 126        2S         -0.00574   0.01270  -0.01225   0.00839   0.00953
 127        2PX        -0.00947  -0.00921   0.04718   0.12739   0.04108
 128        2PY         0.00909  -0.00886   0.00022  -0.02760  -0.01333
 129        2PZ        -0.00454  -0.01329  -0.02324   0.00395  -0.04481
 130        3S          0.01615  -0.03583   0.03403  -0.02676  -0.02851
 131        3PX        -0.01363  -0.01346   0.06788   0.18376   0.05895
 132        3PY         0.01319  -0.01301   0.00091  -0.03852  -0.01874
 133        3PZ        -0.00705  -0.02020  -0.03487   0.00660  -0.06661
 134        4S          0.01621  -0.03628   0.03698  -0.02121  -0.02754
 135        4PX        -0.00755  -0.00840   0.03896   0.10440   0.03377
 136        4PY         0.00751  -0.00751  -0.00060  -0.02910  -0.01441
 137        4PZ        -0.00415  -0.01302  -0.02155   0.00691  -0.04689
 138        5S          0.01332  -0.01672   0.01666   0.02147   0.00193
 139        5PX         0.00454  -0.00276  -0.00020   0.00922   0.00701
 140        5PY        -0.00226   0.00154  -0.00099  -0.00792  -0.00588
 141        5PZ        -0.00150  -0.00070  -0.00408   0.00228  -0.00891
 142        6D 0       -0.00016  -0.00049  -0.00042  -0.00037  -0.00129
 143        6D+1        0.00085   0.00271   0.00291  -0.00189   0.00527
 144        6D-1        0.00091   0.00210   0.00369  -0.00113   0.00675
 145        6D+2        0.00249  -0.00207   0.00035  -0.00664  -0.00253
 146        6D-2        0.00003   0.00285  -0.00708  -0.01480  -0.00424
 147 12  H  1S         -0.01052   0.06312   0.03296   0.01358   0.10438
 148        2S         -0.01188   0.08371   0.04515   0.01579   0.14461
 149        3S         -0.00160   0.03340   0.01925   0.00166   0.07315
 150        4PX        -0.00116   0.00095  -0.00241  -0.00018   0.00190
 151        4PY         0.00137   0.00407   0.00281  -0.00526   0.00630
 152        4PZ        -0.00256   0.00451   0.00048   0.00461   0.00543
 153 13  H  1S         -0.03999  -0.00557  -0.05227   0.08216  -0.05392
 154        2S         -0.05199  -0.01047  -0.06984   0.11043  -0.07425
 155        3S         -0.01631  -0.00689  -0.03145   0.04891  -0.04167
 156        4PX         0.00058   0.00192  -0.00121  -0.00108  -0.00041
 157        4PY        -0.00171  -0.00277  -0.00532   0.00132  -0.00765
 158        4PZ         0.00347  -0.00257   0.00242  -0.00671  -0.00068
 159 14  H  1S         -0.00587  -0.00928   0.04085   0.09539   0.03276
 160        2S         -0.00810  -0.01078   0.05353   0.13275   0.04683
 161        3S         -0.00602  -0.00200   0.02374   0.06097   0.02074
 162        4PX         0.00103  -0.00020  -0.00234  -0.00582  -0.00230
 163        4PY         0.00022  -0.00176   0.00414   0.00686   0.00183
 164        4PZ        -0.00057  -0.00125  -0.00152   0.00218  -0.00387
                          16        17        18        19        20
                           O         O         O         O         O
     Eigenvalues --    -0.33049  -0.31087  -0.30857  -0.24206  -0.20107
   1 1   C  1S          0.00771  -0.00210  -0.01160  -0.00732   0.00039
   2        2S          0.01239  -0.00326  -0.01841  -0.01177   0.00051
   3        2PX        -0.07660   0.02335   0.09144  -0.01179  -0.00833
   4        2PY        -0.10146  -0.00758   0.03490   0.05357  -0.01351
   5        2PZ        -0.02269  -0.05558   0.02555  -0.06140   0.00403
   6        3S         -0.04075   0.00721   0.05348   0.03881   0.00202
   7        3PX        -0.11211   0.03504   0.13552  -0.01772  -0.01271
   8        3PY        -0.14641  -0.01131   0.05186   0.07850  -0.02029
   9        3PZ        -0.03211  -0.07742   0.03485  -0.08332   0.00562
  10        4S         -0.04550   0.02489   0.06759  -0.00742  -0.05739
  11        4PX        -0.08201   0.01834   0.08892  -0.00007  -0.02621
  12        4PY        -0.11626  -0.00518   0.04907   0.05315  -0.03648
  13        4PZ        -0.02321  -0.05388   0.01961  -0.05285   0.00236
  14        5S         -0.01733  -0.00065  -0.06985  -0.10033  -0.21610
  15        5PX        -0.00810  -0.00577   0.00442   0.01884  -0.01043
  16        5PY        -0.01947  -0.00064  -0.00999  -0.00763  -0.05430
  17        5PZ        -0.00425  -0.00526   0.00306  -0.03655  -0.00044
  18        6D 0        0.01317   0.00328  -0.00009  -0.00089   0.00032
  19        6D+1       -0.00017   0.01275  -0.00118  -0.01679   0.00097
  20        6D-1        0.00340   0.01455  -0.00942   0.02353  -0.00168
  21        6D+2       -0.01603  -0.00456  -0.00626   0.01479   0.00204
  22        6D-2        0.00137   0.00646   0.01551   0.00934  -0.00184
  23 2   C  1S          0.00918   0.00533   0.00719  -0.00792  -0.01384
  24        2S          0.01465   0.00851   0.01143  -0.01268  -0.02213
  25        2PX         0.01549  -0.03142  -0.14450  -0.02932   0.05050
  26        2PY         0.16484   0.02213   0.02991  -0.02047  -0.02514
  27        2PZ        -0.01308   0.14367  -0.03653   0.00768  -0.00555
  28        3S         -0.04779  -0.02577  -0.03318   0.03792   0.06290
  29        3PX         0.02395  -0.04498  -0.21175  -0.04710   0.07860
  30        3PY         0.23970   0.03255   0.04476  -0.02845  -0.03449
  31        3PZ        -0.01927   0.20315  -0.05048   0.00973  -0.00836
  32        4S         -0.01632  -0.02692  -0.03389   0.06834   0.18010
  33        4PX         0.00044  -0.04409  -0.14416  -0.00858   0.05275
  34        4PY         0.17361   0.02988   0.03768  -0.04613  -0.07931
  35        4PZ        -0.01696   0.16319  -0.03642  -0.02406  -0.00474
  36        5S          0.11980  -0.03186   0.00708   0.10978   0.51336
  37        5PX         0.00344  -0.03837  -0.07333  -0.00429  -0.00816
  38        5PY         0.00007   0.00750   0.00149  -0.02535  -0.11441
  39        5PZ        -0.00470   0.03123  -0.00363  -0.00372  -0.00128
  40        6D 0        0.01726   0.00468  -0.00054  -0.00100  -0.00001
  41        6D+1        0.00693  -0.00413   0.00046   0.00315  -0.00073
  42        6D-1       -0.00253   0.02817  -0.01209   0.00557  -0.00008
  43        6D+2       -0.01622  -0.00013   0.00398   0.00539   0.00519
  44        6D-2       -0.00400   0.00801   0.01572   0.00249  -0.00313
  45 3   C  1S          0.00268  -0.00122  -0.00427  -0.00155  -0.01464
  46        2S          0.00429  -0.00200  -0.00700  -0.00258  -0.02361
  47        2PX         0.05245   0.04950   0.15760   0.01374   0.02839
  48        2PY        -0.09006  -0.00862  -0.01571   0.00220   0.07950
  49        2PZ         0.01935  -0.11360   0.01942   0.00650  -0.00253
  50        3S         -0.01655   0.00534   0.02177   0.01082   0.07564
  51        3PX         0.07689   0.07410   0.23352   0.01992   0.04484
  52        3PY        -0.12796  -0.01166  -0.02097   0.00303   0.11707
  53        3PZ         0.02772  -0.16046   0.02593   0.01051  -0.00407
  54        4S         -0.00064   0.02443   0.03406  -0.02754   0.06749
  55        4PX         0.05571   0.04694   0.16254   0.04021   0.10285
  56        4PY        -0.09583  -0.00511  -0.01906  -0.00352   0.08276
  57        4PZ         0.02143  -0.12495   0.01983   0.01893  -0.01009
  58        5S         -0.04016   0.06464   0.07526  -0.07242  -0.34752
  59        5PX         0.02722   0.00085   0.01658   0.02328   0.14916
  60        5PY        -0.01752   0.00883   0.01111  -0.00274   0.00019
  61        5PZ         0.00266  -0.02268   0.00624   0.01005  -0.01472
  62        6D 0        0.00977   0.00239  -0.00098  -0.00109  -0.01162
  63        6D+1        0.00393  -0.00826   0.00340   0.00016  -0.00483
  64        6D-1       -0.00293   0.01930  -0.00905   0.00066   0.00098
  65        6D+2       -0.01223  -0.00235  -0.00139   0.00402   0.02744
  66        6D-2       -0.00403   0.00988   0.02145   0.00131  -0.01118
  67 4   H  1S          0.07092   0.12233  -0.03466   0.00427  -0.00626
  68        2S          0.10699   0.17969  -0.05400   0.02095  -0.01651
  69        3S          0.05570   0.12417  -0.03902   0.01350  -0.01557
  70        4PX        -0.00079  -0.00446  -0.00733  -0.00280   0.00190
  71        4PY         0.00464  -0.00712   0.00400  -0.00232  -0.00149
  72        4PZ        -0.00820  -0.00337   0.00091   0.00006  -0.00028
  73 5   H  1S          0.09615  -0.10152   0.04567  -0.01755  -0.00522
  74        2S          0.13756  -0.14908   0.06803  -0.03999  -0.01274
  75        3S          0.07020  -0.09627   0.04516  -0.04709  -0.00986
  76        4PX         0.00102  -0.00129  -0.00822  -0.00002   0.00136
  77        4PY         0.00214   0.00883  -0.00212  -0.00003  -0.00174
  78        4PZ         0.00892  -0.00120   0.00235  -0.00023   0.00000
  79 6   N  1S          0.00978  -0.00019   0.00720   0.03089  -0.00392
  80        2S          0.01579  -0.00030   0.01163   0.04992  -0.00633
  81        2PX         0.00062  -0.02941  -0.06743   0.01205   0.00573
  82        2PY         0.01940   0.03483   0.00707  -0.14714   0.01253
  83        2PZ         0.04547  -0.02405  -0.00697   0.18946  -0.01321
  84        3S         -0.04874   0.00065  -0.03615  -0.14678   0.01804
  85        3PX        -0.00139  -0.04315  -0.09737   0.01754   0.00812
  86        3PY         0.02666   0.05079   0.01236  -0.21260   0.01800
  87        3PZ         0.06484  -0.03690  -0.01008   0.27263  -0.01885
  88        4S         -0.05405  -0.01039  -0.04947  -0.21705   0.04099
  89        4PX         0.00314  -0.03685  -0.07993   0.02415   0.01293
  90        4PY         0.01502   0.04698   0.01788  -0.22767   0.01408
  91        4PZ         0.05308  -0.04055  -0.00419   0.28630  -0.02096
  92        5S          0.00208  -0.06480  -0.00081   0.10299   0.06349
  93        5PX         0.00306  -0.02038  -0.02719   0.02568  -0.00302
  94        5PY         0.00408   0.01148  -0.00843  -0.11068   0.00606
  95        5PZ         0.01516  -0.01561  -0.00096   0.13531  -0.00958
  96        6D 0        0.00549  -0.00006  -0.00274   0.00681  -0.00000
  97        6D+1       -0.00014  -0.00271  -0.00231  -0.00175   0.00047
  98        6D-1        0.00252   0.00501  -0.00292  -0.00886   0.00125
  99        6D+2       -0.00738   0.00165   0.00617  -0.00275  -0.00084
 100        6D-2       -0.00205   0.00295   0.00771   0.00058  -0.00145
 101 7   H  1S          0.03606  -0.03494   0.02042  -0.09224   0.00801
 102        2S          0.05559  -0.05895   0.03478  -0.15569   0.01438
 103        3S          0.02695  -0.04093   0.03062  -0.15890   0.00947
 104        4PX        -0.00449   0.00071   0.00484  -0.00156  -0.00175
 105        4PY        -0.00340  -0.00310   0.00371  -0.00257   0.00085
 106        4PZ        -0.00456  -0.00015   0.00015   0.00308  -0.00092
 107 8   H  1S          0.07081   0.05652  -0.03465   0.04055  -0.00029
 108        2S          0.10765   0.08793  -0.05694   0.07766  -0.00124
 109        3S          0.05520   0.07280  -0.03747   0.04501  -0.00751
 110        4PX        -0.00332   0.00222   0.00417   0.00082  -0.00161
 111        4PY        -0.00153   0.00247  -0.00035   0.00584   0.00010
 112        4PZ         0.00642   0.00162  -0.00264   0.00058   0.00109
 113 9   H  1S          0.03972   0.00284  -0.01650   0.04303   0.00017
 114        2S          0.06269   0.01573  -0.02850   0.06197  -0.00080
 115        3S          0.03055   0.03343  -0.01535  -0.01045  -0.00168
 116        4PX        -0.00002  -0.00056  -0.00494  -0.00074   0.00002
 117        4PY        -0.00169   0.00321   0.00171  -0.01979   0.00150
 118        4PZ        -0.00182  -0.00246   0.00201   0.00969  -0.00119
 119 10  H  1S         -0.02081   0.00555   0.04585   0.04229  -0.00975
 120        2S         -0.03347   0.01352   0.07567   0.06123  -0.01862
 121        3S         -0.02167   0.01488   0.03255  -0.00657  -0.02097
 122        4PX        -0.00213  -0.00192   0.00006   0.00939  -0.00113
 123        4PY        -0.00165   0.00350   0.00548  -0.00761   0.00021
 124        4PZ         0.00388  -0.00248  -0.00036   0.01832  -0.00146
 125 11  N  1S          0.01558   0.00140   0.00157   0.00194   0.04176
 126        2S          0.02492   0.00219   0.00241   0.00308   0.06689
 127        2PX         0.03770  -0.04926  -0.12553  -0.00759   0.01041
 128        2PY        -0.02999  -0.01568  -0.04068  -0.01702  -0.21534
 129        2PZ         0.00556  -0.03596   0.02439   0.00920  -0.00333
 130        3S         -0.07287  -0.00486  -0.00335  -0.00802  -0.18609
 131        3PX         0.05500  -0.07054  -0.17938  -0.01130   0.01339
 132        3PY        -0.04301  -0.02345  -0.06091  -0.02448  -0.30424
 133        3PZ         0.00837  -0.05405   0.03565   0.01334  -0.00459
 134        4S         -0.08454  -0.01297  -0.01500  -0.01609  -0.33709
 135        4PX         0.03260  -0.04952  -0.12637  -0.00795   0.00895
 136        4PY        -0.03097  -0.01496  -0.04147  -0.01993  -0.26265
 137        4PZ         0.00689  -0.03972   0.02607   0.01093  -0.00396
 138        5S         -0.04203  -0.02326  -0.04494  -0.01157  -0.26861
 139        5PX         0.00656  -0.01559  -0.03688  -0.00439  -0.01861
 140        5PY        -0.00230   0.00433   0.00459  -0.00773  -0.11709
 141        5PZ         0.00121  -0.00735   0.00627   0.00356   0.00036
 142        6D 0       -0.00114  -0.00090  -0.00087  -0.00063  -0.01045
 143        6D+1       -0.00051   0.00387  -0.00050  -0.00040  -0.00085
 144        6D-1       -0.00114   0.00616  -0.00395  -0.00079   0.00032
 145        6D+2       -0.00687  -0.00248  -0.00709  -0.00128  -0.00906
 146        6D-2       -0.00284   0.00751   0.01853   0.00143  -0.00099
 147 12  H  1S          0.02913   0.08882  -0.01989  -0.00587  -0.04481
 148        2S          0.04382   0.13163  -0.03043  -0.00180  -0.07460
 149        3S          0.02661   0.09478  -0.02296   0.00534  -0.06396
 150        4PX         0.00287   0.00287   0.00802  -0.00012   0.00057
 151        4PY        -0.00329   0.00519  -0.00306   0.00040   0.00419
 152        4PZ         0.00402   0.00236  -0.00103   0.00032  -0.00279
 153 13  H  1S          0.06478  -0.07821   0.03524  -0.00018  -0.04533
 154        2S          0.09437  -0.11598   0.05377  -0.00131  -0.07534
 155        3S          0.05593  -0.08140   0.03901  -0.01625  -0.06323
 156        4PX         0.00235   0.00334   0.00751   0.00200   0.00097
 157        4PY        -0.00036  -0.00639   0.00085   0.00081   0.00403
 158        4PZ        -0.00562   0.00148  -0.00205  -0.00069   0.00277
 159 14  H  1S          0.02660  -0.02879  -0.08008  -0.00018   0.08730
[...]
     7          0.41578717          0.28513889         -3.12384488
     1         -2.12864438         -1.80008413         -0.68660736
     1         -1.90994071          1.43281447          0.04366844
     1          1.92057766         -0.06882255         -1.96316771

 Electric dipole moment (dipole orientation):
 (Debye = 10**-18 statcoulomb cm , SI units = C m)
                  (au)            (Debye)         (10**-30 SI)
   Tot        0.430940D+01      0.109534D+02      0.365366D+02
   x          0.000000D+00      0.000000D+00      0.000000D+00
   y          0.000000D+00      0.000000D+00      0.000000D+00
   z          0.430940D+01      0.109534D+02      0.365366D+02

 Dipole polarizability, Alpha (dipole orientation).
 (esu units = cm**3 , SI units = C**2 m**2 J**-1)
 Alpha(0;0):
               (au)            (10**-24 esu)      (10**-40 SI)
   iso        0.922115D+02      0.136643D+02      0.152036D+02
   aniso      0.989370D+01      0.146609D+01      0.163125D+01
   xx         0.933323D+02      0.138304D+02      0.153884D+02
   yx         0.129734D+01      0.192245D+00      0.213902D+00
   yy         0.932919D+02      0.138244D+02      0.153817D+02
   zx        -0.486584D+01     -0.721044D+00     -0.802269D+00
   zy         0.190644D+01      0.282505D+00      0.314330D+00
   zz         0.900103D+02      0.133381D+02      0.148407D+02

 First dipole hyperpolarizability, Beta (dipole orientation).
 ||, _|_  parallel and perpendicular components, (z) with respect to z axis,
 vector components x,y,z.  Values do not include the 1/n! factor of 1/2.
 (esu units = statvolt**-1 cm**4 , SI units = C**3 m**3 J**-2)
 Beta(0;0,0):
               (au)            (10**-30 esu)      (10**-50 SI)
   || (z)    -0.577198D+02     -0.498654D+00     -0.185071D+00
   _|_(z)    -0.192399D+02     -0.166218D+00     -0.616902D-01
   x         -0.922100D+03     -0.796623D+01     -0.295659D+01
   y          0.131163D+03      0.113315D+01      0.420556D+00
   z         -0.288599D+03     -0.249327D+01     -0.925353D+00
   ||         0.195014D+03      0.168477D+01      0.625285D+00
   xxx       -0.328443D+03     -0.283749D+01     -0.105311D+01
   xxy        0.266910D+02      0.230590D+00      0.855811D-01
   yxy        0.241313D+03      0.208476D+01      0.773737D+00
   yyy        0.937674D+02      0.810077D+00      0.300652D+00
   xxz        0.142556D+03      0.123157D+01      0.457085D+00
   yxz        0.922439D+02      0.796915D+00      0.295767D+00
   yyz       -0.215086D+03     -0.185817D+01     -0.689643D+00
   zxz       -0.220237D+03     -0.190268D+01     -0.706160D+00
   zyz       -0.767375D+02     -0.662952D+00     -0.246048D+00
   zzz       -0.236696D+02     -0.204487D+00     -0.758932D-01

 ----------------------------------------------------------------------
 Unable to Open any file for archive entry.
 1\1\GINC-NODE1699\Freq\RB3LYP\6-311+G(d,p)\C3H9N2(1-)\SVICCHI\02-Jun-2
 023\0\\#p freq=raman scale=0.967 pop=(nbo,full,hirshfeld) guess=read g
 eom=allcheck b3lyp/6-311+G(d,p) int=grid=ultrafine EmpiricalDispersion
 =GD3BJ SCRF=(Solvent=ethanol) scf=(xqc,intrep,maxconventionalcycle=350
 ) nosymm\\TDA-H_dissociation-site_index-10.gjf\\-1,1\C,-3.5631777761,0
 .8064974473,0.1108702631\C,-2.2840189196,1.6347719599,0.0387049683\C,-
 1.0045981885,0.8016557052,-0.0947639436\H,-2.2044025769,2.2570237751,0
 .941026238\H,-2.3502312485,2.3248474722,-0.8110934102\N,-4.7530470159,
 1.6691878672,0.251911953\H,-3.4766073704,0.0773260843,0.9311467399\H,-
 3.6808680298,0.2297820793,-0.8126570225\H,-4.6903161595,2.193311896,1.
 1209890939\H,-5.5912955617,1.099970597,0.3271341084\N,0.1703908308,1.6
 535261076,-0.2015667296\H,-1.1621195187,0.1279047724,-0.9702341621\H,-
 0.9892354052,0.1084774647,0.778829356\H,0.9809399402,1.0348627718,-0.2
 833694526\\Version=ES64L-G16RevC.01\HF=-229.383408\RMSD=1.355e-09\RMSF
 =2.154e-05\ZeroPoint=0.118856\Thermal=0.1257355\ETot=-229.2576726\HTot
 =-229.2567284\GTot=-229.2946037\Dipole=-4.3018278,-1.8092966,0.9792868
 \DipoleDeriv=0.5671455,-0.2468014,0.0105355,-0.1655936,0.4291668,-0.05
 78995,-0.1007695,0.0060897,0.4088125,-0.1484895,0.0706594,0.0535526,-0
 .0135931,0.1771708,-0.0028894,0.035509,0.0130724,0.2666802,0.9471185,0
 .5508098,-0.0485053,0.3646011,0.6381599,-0.0386063,-0.0456551,-0.04957
 46,0.4614972,0.0250837,-0.0147319,-0.0050683,-0.0102917,-0.0897285,-0.
 1433124,0.0151117,-0.1878001,-0.1816993,0.0348101,0.0071311,-0.0205932
 ,0.0093947,-0.1099021,0.1414488,-0.032176,0.1807028,-0.1370492,-0.7721
 843,0.2196112,-0.0116072,0.2217387,-0.5774799,0.1301603,0.0040091,0.11
 31045,-0.47345,-0.0685265,0.090935,-0.0249907,0.0875134,-0.1896403,0.1
 537476,-0.0311735,0.2096978,-0.1258187,-0.0036618,-0.0135816,-0.013971
 2,0.0085356,-0.0557307,-0.1161248,-0.0338607,-0.1633926,-0.1378003,0.1
 696808,-0.0015165,-0.0470681,0.0318332,0.2646401,-0.0795034,0.0048388,
 -0.1592901,0.0395421,0.0402066,-0.0577327,0.0697477,-0.1292186,0.11896
 18,-0.0245338,0.1469115,-0.01381,0.2799444,-1.3414086,-0.4943941,0.009
 0285,-0.402964,-0.735392,0.045524,0.0005254,0.0489791,-1.2643727,-0.16
 89015,-0.1869141,-0.1546838,-0.1913494,-0.3512671,-0.2732612,-0.139897
 4,-0.3351011,-0.226039,-0.1161354,-0.1184263,0.1305532,-0.1353479,-0.3
 546463,0.29762,0.1204269,0.3579479,-0.2604377,-0.1647376,0.194952,0.05
 30703,0.3247416,-0.1643125,-0.0323699,0.0561998,-0.0206256,0.3501905\P
 olar=93.0858393,5.0886389,89.6427427,0.3129303,-1.2325946,93.905881\Po
 larDeriv=-1.5564034,-4.2934289,-1.9180188,-0.7199736,1.5564658,1.26600
 93,-4.4835988,-0.7034868,8.7107351,2.3538008,-1.5704059,5.6950953,-1.5
 347319,3.0815128,-4.2070761,-0.2914315,11.4420671,1.6196866,-2.8217341
 ,3.8437542,-0.4125268,0.867501,-1.9212379,0.8258789,4.0839823,1.807780
 5,-8.9124332,-0.9423374,0.1583915,-8.9986015,1.8206866,-1.8936174,1.72
 39006,0.5086552,-16.1712541,-1.2165828,8.3952615,4.0439179,8.4192859,-
 1.1004234,2.8671694,-15.8250999,2.2502205,11.382914,21.6239686,-0.8000
 942,-0.8698707,-5.4976513,2.6372832,2.4954211,-0.6377773,15.5672438,29
 .5870742,-0.6301267,1.0731138,0.4397035,0.6627963,1.4724088,1.0522228,
 0.6666923,-0.6718654,-0.4767988,4.7127674,0.0434731,3.4421085,3.221093
 5,3.1228954,0.2016555,4.530762,-0.2756522,6.1960843,8.5759651,0.001620
 5,0.4461121,-0.2845101,-1.5427609,0.0554284,-0.4363406,-0.2734774,-0.9
 545125,5.5401175,0.3556213,-3.518436,3.3059767,-3.3133536,0.7273853,-5
 .1687792,-0.8286992,6.1528125,-7.4056657,-0.2034192,6.1204723,2.668203
 9,-1.3362759,-1.1619591,0.5315207,8.1956563,0.6581005,1.6976412,-1.127
 7387,-0.5505544,-4.8829607,-3.011708,-0.0656888,-0.6449803,-0.3363105,
 -4.659944,-5.0561141,2.4805875,-1.1096199,1.1167691,1.9066271,-0.59668
 9,0.4076448,-0.3156858,1.3404881,-8.1399242,-0.72309,4.1356705,-2.6959
 748,2.6900861,-1.5523044,5.7987378,0.7759058,-5.7438307,5.9513166,-0.6
 21455,-0.7096215,-0.4433103,-1.9039656,-0.3781066,-0.9487896,0.4638336
 ,-0.7325931,-4.4540703,-0.5335606,-3.2063344,-2.7005409,-2.4549451,-0.
 7829452,-3.3105059,-0.6133708,-5.1354966,-7.7535045,0.9073447,0.722029
 4,0.0940913,0.8791254,0.2266626,0.0947154,0.9816323,-0.6985761,3.05272
 3,-0.4615407,2.0292513,5.679676,2.0029473,-0.5325073,3.0289728,-1.5318
 319,4.5831507,6.7380264,-12.7220404,-3.7695639,-2.5451458,1.7791327,0.
 8250236,-0.8765532,-6.1640706,-2.9713182,-2.1346994,0.6325149,-0.53258
 54,-0.5160152,1.1899279,0.0816759,-1.2990779,-0.9857647,0.4819614,-0.8
 815332,-3.6786207,7.0212414,-12.2666134,1.9476458,-2.0040033,10.432938
 6,4.1026975,-6.8003392,-0.6338882,-0.3662708,0.5136509,0.2827329,0.628
 5107,-1.2738246,0.5883459,4.0209558,-9.5825072,-2.1845939,-3.1538339,-
 2.634843,-2.0729058,-2.2022042,-2.5723646,2.5225485,-1.4611258,-4.9957
 46,-10.20729,-2.5022119,-6.7464796,2.9430506,-5.4556032,-5.0228632,-8.
 7798076,-5.9639907,-11.7356403,-4.4157892,-1.3808402,-1.5741256,-0.148
 2655,1.9321798,0.4408335,2.7489008,0.0323786,-3.4402895,-10.0833223,3.
 1755823,7.3796349,2.0188388,3.7755485,3.2618384,8.736315,-6.2239585,-1
 2.3765738,5.5054082,13.2804189,-8.546028,7.1301499,-1.979017,1.6105544
 ,-1.4100659,-6.7405775,6.5843773,-0.7723253,0.895852,-0.6640411,2.1452
 807,-2.0975439,1.2742619,-0.3590296,-3.8217506,6.9620966,1.1535072\Hyp
 erPolar=-311.4561799,-128.6619161,-243.8678896,-14.4641017,81.526045,2
 2.4337683,25.9468336,246.2599952,238.2327999,-74.6962843\Quadrupole=5.
 0482964,-10.9077606,5.8594641,3.4389681,-5.2332144,3.9995609\PG=C01 [X
 (C3H9N2)]\NImag=0\\0.44962294,0.01685861,0.52252004,0.01603677,0.01566
 879,0.58355009,-0.14276631,-0.04616217,0.00475816,0.45467215,-0.060811
 62,-0.12250358,0.00334576,0.00589269,0.52459290,0.00224478,0.00243043,
 -0.07824720,0.00963849,-0.00645901,0.57208288,-0.02521684,0.01095150,0
 .00256277,-0.13067936,0.05267680,0.00663068,0.42307331,-0.01106585,0.0
 1607526,0.00179707,0.04841189,-0.11708480,-0.00504793,-0.02548345,0.46
 030622,0.00160582,-0.00051966,-0.00221602,0.00679471,-0.00562280,-0.07
 167352,0.00710480,0.00074010,0.48727430,-0.00537489,-0.01636775,-0.024
 06134,-0.04564701,-0.01088872,-0.01488123,-0.00036674,0.01588586,0.023
 04124,0.05454717,-0.00170730,-0.01190160,-0.01639834,-0.01144420,-0.11
 977830,-0.10838334,0.00017325,-0.01313403,-0.01712427,0.01215946,0.134
 16752,0.00094658,0.00112773,0.00062751,-0.01508687,-0.10914780,-0.2151
 8080,-0.00093976,-0.00241589,-0.00414290,0.01617140,0.12422040,0.23318
 508,-0.00112277,-0.01841718,0.02267527,-0.04463870,0.00885582,-0.01294
 516,-0.00415550,0.01719763,-0.02138381,-0.00045764,0.00154760,-0.00181
 952,0.05159584,0.00081769,-0.01392666,0.01521289,0.00757793,-0.1393771
 9,0.11769899,0.00262246,-0.01363609,0.01577564,-0.00080963,0.01102981,
 -0.01367306,-0.00897419,0.15658618,-0.00078350,0.00069091,-0.00145413,
 -0.01167693,0.11843268,-0.20153591,0.00081229,-0.00120591,0.00072018,-
 0.00144422,0.01588120,-0.02159631,0.01274312,-0.13378244,0.21827071,-0
 .15458460,0.06010241,-0.01569843,-0.03662383,0.02413911,0.00476221,-0.
 00110804,-0.00661102,-0.00083898,0.00219031,0.00105736,-0.00038517,0.0
 0174237,0.00093988,0.00036721,0.56061864,0.04010824,-0.12966646,-0.006
 30388,-0.01400028,0.01299666,0.00074975,-0.00180005,-0.00336793,0.0000
 8183,-0.00027875,0.00105703,0.00063724,0.00034509,0.00144574,-0.000567
 65,0.11070410,0.43686047,0.01674245,-0.03128099,-0.07260112,0.00002898
 ,-0.00084134,0.00018181,-0.00003627,-0.00050088,-0.00047472,-0.0005760
 2,0.00060467,0.00078982,-0.00002199,-0.00062771,0.00012847,-0.02071545
 ,0.19866480,0.41257473,-0.04724422,0.00497550,-0.00878212,0.00051385,-
 0.01762998,0.02204334,0.00136023,-0.00108282,0.00044771,0.00112465,0.0
 0062786,-0.00063529,-0.00431694,-0.00312383,0.00015741,-0.01297184,0.0
 2755592,-0.01952303,0.05925915,0.00390055,-0.14271092,0.10982936,-0.00
 085256,-0.01259410,0.01638182,0.00111321,-0.00043813,0.00058856,0.0008
 2286,0.00046363,-0.00037238,-0.00299028,-0.00182342,0.00028667,0.01339
 630,-0.01777168,0.01280675,-0.01268696,0.16085629,-0.00799115,0.110523
 03,-0.18982248,-0.00009624,0.00133524,-0.00201743,-0.00060453,0.000609
 97,-0.00030116,0.00045162,0.00009179,0.00104402,0.00052639,0.00050958,
 0.00160952,-0.00132143,-0.00284254,0.00882590,0.01098365,-0.12628149,0
 .19991465,-0.05008279,-0.01814621,-0.02990898,-0.00424128,-0.01454822,
 -0.02436415,0.00139223,-0.00083900,-0.00096555,-0.00437533,-0.00292010
 ,0.00062071,0.00123951,0.00073270,0.00054706,-0.00079082,0.02153107,0.
 02590277,0.00086608,-0.00129194,-0.00094109,0.06069970,-0.01389009,-0.
 11156351,-0.10249720,-0.00378627,-0.01046724,-0.01622081,0.00081365,-0
 .00030470,-0.00035583,-0.00306938,-0.00149778,-0.00007131,0.00075792,0
 .00044921,0.00003115,0.00136339,-0.01476641,-0.01845693,0.00200513,0.0
 1123500,0.01722623,0.01205526,0.12648940,-0.02551129,-0.10744276,-0.23
 234644,-0.00053663,0.00112144,0.00153950,0.00023162,-0.00050664,-0.000
 36394,0.00040638,0.00004527,0.00159013,-0.00036217,-0.00018241,0.00112
 318,0.00236195,-0.00333455,-0.00062906,-0.00376533,-0.01124758,-0.0223
 0655,0.02609102,0.12031192,0.24882223,0.00134425,0.01829247,0.02924429
 ,0.00202143,0.00077797,0.00157494,-0.00040810,0.00032406,-0.00018477,-
 0.00048921,-0.00068923,-0.00095570,-0.00009886,-0.00006392,-0.00011804
 ,-0.06223221,-0.01808089,-0.02165610,0.00079538,-0.00033958,-0.0004354
 9,-0.00477096,0.00377694,0.00097629,0.06581493,0.00117733,-0.01472984,
 -0.02097068,-0.00069524,0.00125049,0.00087292,-0.00019929,-0.00004889,
 0.00008020,0.00043250,0.00036508,-0.00013498,-0.00004829,-0.00004522,0
 .00012313,-0.01456450,-0.11675639,-0.14929039,-0.00152606,0.00044114,-
 0.00010595,0.00340320,-0.00132916,0.00056127,0.01377553,0.14410973,-0.
 00336137,0.00263983,-0.00527216,-0.00007964,0.00054048,0.00035185,0.00
 014708,0.00003292,0.00029335,0.00057989,0.00024404,-0.00005584,0.00007
 837,-0.00001554,-0.00009119,-0.02393240,-0.19829809,-0.31640466,-0.000
 19494,0.00031048,0.00173775,0.00170750,-0.00091165,0.00166439,0.022904
 16,0.18913998,0.31767263,-0.02371967,-0.01953902,0.00326122,-0.0042683
 6,0.00660381,0.00085686,0.00020018,-0.00233905,0.00006143,0.00045980,0
 .00012415,-0.00014555,0.00035531,0.00003524,0.00012620,-0.29227915,-0.
 16454376,0.01966994,0.00153974,-0.00055635,-0.00114462,0.00080770,-0.0
 0012835,0.00044654,-0.00221923,-0.00166370,0.00228596,0.32028855,0.025
 29719,0.01143345,0.00063148,0.00165021,-0.00240606,-0.00030741,0.00085
 582,0.00096313,-0.00014710,0.00012450,0.00004450,0.00027770,0.00010645
 ,0.00011065,-0.00027079,-0.19180470,-0.17165025,-0.01128249,0.00005568
 ,0.00088450,-0.00008607,-0.00074937,0.00056548,-0.00015585,-0.01725739
 ,-0.01318131,0.00613128,0.18142968,0.17337704,0.00004215,0.00642290,-0
 .00260728,0.00158144,-0.00183319,-0.00012586,0.00001034,0.00061118,0.0
 0078642,0.00012668,0.00030419,0.00025791,-0.00039935,-0.00029783,0.000
 16279,0.05450482,0.01122662,-0.03367463,-0.00012040,-0.00108993,0.0004
 1456,0.00012570,0.00005301,-0.00013155,-0.03097963,-0.02045627,0.00010
 350,-0.02548620,0.00524513,0.03496635,-0.00206771,0.00324133,0.0000161
 3,-0.03745915,-0.01997863,0.00378307,-0.14947152,-0.06359353,0.0073763
 1,0.00110297,-0.00150440,0.00062227,0.00267558,-0.00200893,-0.00045258
 ,-0.00238262,-0.00091666,-0.00007948,-0.00058386,-0.00003810,0.0000640
 2,-0.00050766,0.00020062,0.00001745,0.00009937,-0.00000254,0.00002955,
 -0.00082018,0.00029343,0.00038472,0.46616936,0.00220886,-0.00290968,-0
 .00034334,0.00920001,0.01085995,-0.00106435,-0.02949819,-0.11776267,0.
 00300476,0.00028091,0.00089931,0.00046327,-0.00018856,0.00083046,0.000
 07657,0.00135453,0.00090113,0.00013065,0.00019887,0.00038737,-0.000469
 99,0.00020715,0.00025900,0.00035358,-0.00015897,0.00002567,-0.00001223
 ,0.00046003,-0.00025575,-0.00009000,-0.08192117,0.31771945,0.00022666,
 -0.00016913,-0.00033329,0.00396759,0.00201729,0.00143736,0.00768191,0.
 00648463,-0.06085166,-0.00025867,0.00075917,0.00026985,0.00018375,-0.0
 0005608,-0.00054212,0.00042426,0.00004983,0.00045868,-0.00009556,-0.00
 046401,0.00021929,0.00037115,0.00031205,0.00022993,-0.00011409,0.00004
 807,-0.00000031,0.00007247,-0.00003072,-0.00004292,-0.04064735,0.00882
 446,0.04944129,0.00084664,0.00081804,0.00069650,-0.00062460,0.01586691
 ,0.02195326,-0.04360504,-0.00730575,-0.01606330,-0.00436040,0.00347267
 ,0.00098707,0.00110191,-0.00072373,-0.00045651,0.00002300,0.00005484,0
 .00006257,-0.00005114,-0.00016042,0.00012802,-0.00009693,-0.00004234,-
 0.00011209,0.00003527,-0.00009048,-0.00019219,-0.00000629,-0.00006382,
 -0.00007188,-0.01424100,-0.02568611,-0.01963972,0.05736120,-0.00124800
 ,-0.00023228,-0.00081564,0.00078012,-0.01223511,-0.01814739,-0.0001484
 3,-0.10533371,-0.08410837,0.00307865,-0.00241727,-0.00116198,-0.001009
 84,0.00045768,0.00032688,0.00022627,0.00029753,0.00057562,0.00025827,0
 .00000804,0.00003604,0.00036642,0.00076845,0.00056227,-0.00032884,0.00
 007369,0.00016269,0.00009944,0.00003737,0.00000755,-0.01856788,-0.0176
 9796,-0.01384536,0.01475869,0.12578879,-0.00089353,-0.00039391,-0.0002
 7736,-0.00044489,-0.00249131,-0.00590143,-0.00557138,-0.08239996,-0.17
 395637,0.00107574,-0.00101652,0.00144736,0.00025912,-0.00017481,0.0012
 9528,0.00044543,0.00036300,0.00045384,0.00005933,-0.00005473,0.0001538
 4,0.00059301,0.00043679,0.00063192,-0.00026622,0.00006506,0.00003158,0
 .00013417,-0.00001965,-0.00007954,-0.00920601,-0.00390832,0.01112526,0
 .01616172,0.10139584,0.19246003,0.00086336,0.00097889,-0.00103292,-0.0
 0443714,0.01662178,-0.02173052,-0.04436196,0.00880222,-0.00933474,0.00
 122868,-0.00073849,0.00045358,-0.00440420,0.00329241,0.00034129,-0.000
 41045,-0.00014241,0.00024653,-0.00024924,-0.00018359,0.00021194,-0.000
 12122,-0.00001844,-0.00007029,0.00004155,0.00002002,0.00003053,-0.0000
 2070,-0.00010199,0.00014212,-0.00782799,-0.02469672,0.02253759,0.00221
 891,0.00149196,-0.00116251,0.05605271,-0.00121359,-0.00064531,0.000846
 85,0.00412823,-0.01292127,0.01731348,0.01640176,-0.10958554,0.08481101
 ,-0.00108073,0.00051530,-0.00014284,0.00317240,-0.00241496,0.00039811,
 0.00002755,0.00054154,-0.00048478,0.00022190,0.00095152,-0.00055989,0.
 00010786,0.00006647,-0.00007492,-0.00003682,-0.00014555,0.00002214,0.0
 0013100,0.00006978,-0.00011246,-0.01546400,-0.01797274,0.01638837,-0.0
 0096576,0.00971626,-0.01222135,-0.00523723,0.13096384,0.00040180,0.000
 66214,-0.00034601,0.00061310,-0.00126452,-0.00121596,-0.01997988,0.084
 51861,-0.17057259,-0.00025226,0.00025854,0.00145477,0.00021538,0.00012
 670,0.00163210,-0.00002599,-0.00053194,0.00031510,-0.00042255,-0.00064
 959,0.00066627,0.00008470,0.00002779,0.00030384,0.00001474,0.00006663,
 -0.00005159,-0.00015756,0.00004760,-0.00001894,0.01258431,0.00840198,0
 .00501247,-0.00504934,0.01305411,-0.02879063,0.01077129,-0.10425331,0.
 19014912,-0.00049740,0.00241357,0.00023271,-0.00582168,-0.00757773,0.0
 0043342,-0.02665284,0.02769880,0.00233913,0.00041764,-0.00015864,0.000
 16625,0.00048410,-0.00031408,-0.00016280,-0.00119075,-0.00053646,-0.00
 004490,-0.00004183,-0.00013315,0.00016889,-0.00001823,-0.00003804,-0.0
 0017346,0.00006640,-0.00001847,-0.00000249,-0.00031769,0.00016431,0.00
 013948,-0.25468562,0.14823935,0.02529000,0.00139848,0.00024317,-0.0011
 8399,0.00142767,-0.00019256,0.00120226,0.28543175,-0.00043202,0.000761
 09,-0.00000314,-0.00070036,-0.00033234,0.00018285,-0.02847903,0.003351
 88,0.00279593,-0.00028977,0.00018679,0.00039391,-0.00035457,0.00031381
 ,-0.00042050,-0.00033069,-0.00012098,-0.00001697,0.00015053,0.00011076
 ,0.00001405,0.00009117,0.00009579,-0.00001106,0.00000865,-0.00002942,0
 .00001367,-0.00011311,0.00000747,0.00000913,0.20026047,-0.17528354,-0.
 02031858,0.00006726,0.00076850,0.00041987,-0.00008845,0.00086064,-0.00
 046475,-0.16979008,0.16930955,0.00029382,-0.00035930,0.00134591,0.0005
 3874,0.00086709,0.00030469,0.00195032,-0.00271728,-0.00452136,-0.00037
 923,0.00051318,0.00030941,0.00025061,-0.00051392,0.00027742,0.00005197
 ,0.00010558,0.00005584,-0.00015222,-0.00004394,-0.00013818,0.00013615,
 0.00011479,-0.00012758,-0.00000438,0.00000100,0.00002070,0.00001914,-0
 .00003311,-0.00001081,0.02550759,-0.01536704,-0.00642383,0.00159589,0.
 00195775,0.00140621,-0.00140389,-0.00193042,0.00146205,-0.02840452,0.0
 1740560,0.00603953\\-0.00001196,0.00002177,-0.00003598,0.00001176,0.00
 000385,0.00001019,-0.00000811,0.00001370,0.00002884,-0.00000040,-0.000
 00690,0.00001066,0.00001371,0.00000704,0.00000704,-0.00001741,0.000014
 30,-0.00006681,-0.00001293,-0.00001232,-0.00000434,-0.00000048,0.00000
 282,-0.00003095,0.00000583,0.00000478,0.00001807,0.00001053,0.00001397
 ,-0.00002307,0.00002185,-0.00001729,0.00006924,-0.00000341,-0.00001012
 ,-0.00002620,-0.00000960,-0.00002794,0.00001709,0.00000060,-0.00000768
 ,0.00002623\\\@
 The archive entry for this job was punched.


 YOU SHOULDN'T LET PEOPLE DRIVE YOU CRAZY
 WHEN YOU KNOW IT'S WITHIN WALKING DISTANCE.
 Job cpu time:       0 days  0 hours 16 minutes 46.6 seconds.
 Elapsed time:       0 days  0 hours  9 minutes 13.9 seconds.
 File lengths (MBytes):  RWF=     73 Int=      0 D2E=      0 Chk=     11 Scr=      1
 Normal termination of Gaussian 16 at Fri Jun  2 11:41:00 2023.
