 Entering Gaussian System, Link 0=g16
 Input=EG-H_dissociation-site_index-0-freq.gjf
 Output=EG-H_dissociation-site_index-0-freq.log
 Initial command:
 /software/commercial/gaussian/g16/AVX/g16/l1.exe "/scratch1/svicchi/G09-659914.pbs02/Gau-1797665.inp" -scrdir="/scratch1/svicchi/G09-659914.pbs02/"
 Entering Link 1 = /software/commercial/gaussian/g16/AVX/g16/l1.exe PID=   1797666.
  
 Copyright (c) 1988-2019, Gaussian, Inc.  All Rights Reserved.
  
 This is part of the Gaussian(R) 16 program.  It is based on
 the Gaussian(R) 09 system (copyright 2009, Gaussian, Inc.),
 the Gaussian(R) 03 system (copyright 2003, Gaussian, Inc.),
 the Gaussian(R) 98 system (copyright 1998, Gaussian, Inc.),
 the Gaussian(R) 94 system (copyright 1995, Gaussian, Inc.),
 the Gaussian 92(TM) system (copyright 1992, Gaussian, Inc.),
 the Gaussian 90(TM) system (copyright 1990, Gaussian, Inc.),
 the Gaussian 88(TM) system (copyright 1988, Gaussian, Inc.),
 the Gaussian 86(TM) system (copyright 1986, Carnegie Mellon
 University), and the Gaussian 82(TM) system (copyright 1983,
 Carnegie Mellon University). Gaussian is a federally registered
 trademark of Gaussian, Inc.
  
 This software contains proprietary and confidential information,
 including trade secrets, belonging to Gaussian, Inc.
  
 This software is provided under written license and may be
 used, copied, transmitted, or stored only in accord with that
 written license.
  
 The following legend is applicable only to US Government
 contracts under FAR:
  
                    RESTRICTED RIGHTS LEGEND
  
 Use, reproduction and disclosure by the US Government is
 subject to restrictions as set forth in subparagraphs (a)
 and (c) of the Commercial Computer Software - Restricted
 Rights clause in FAR 52.227-19.
  
 Gaussian, Inc.
 340 Quinnipiac St., Bldg. 40, Wallingford CT 06492
  
  
 ---------------------------------------------------------------
 Warning -- This program may not be used in any manner that
 competes with the business of Gaussian, Inc. or will provide
 assistance to any competitor of Gaussian, Inc.  The licensee
 of this program is prohibited from giving any competitor of
 Gaussian, Inc. access to this program.  By using this program,
 the user acknowledges that Gaussian, Inc. is engaged in the
 business of creating and licensing software in the field of
 computational chemistry and represents and warrants to the
 licensee that it is not a competitor of Gaussian, Inc. and that
 it will not use this program in any manner prohibited above.
 ---------------------------------------------------------------
  

 Cite this work as:
 Gaussian 16, Revision C.01,
 M. J. Frisch, G. W. Trucks, H. B. Schlegel, G. E. Scuseria, 
 M. A. Robb, J. R. Cheeseman, G. Scalmani, V. Barone, 
 G. A. Petersson, H. Nakatsuji, X. Li, M. Caricato, A. V. Marenich, 
 J. Bloino, B. G. Janesko, R. Gomperts, B. Mennucci, H. P. Hratchian, 
 J. V. Ortiz, A. F. Izmaylov, J. L. Sonnenberg, D. Williams-Young, 
 F. Ding, F. Lipparini, F. Egidi, J. Goings, B. Peng, A. Petrone, 
 T. Henderson, D. Ranasinghe, V. G. Zakrzewski, J. Gao, N. Rega, 
 G. Zheng, W. Liang, M. Hada, M. Ehara, K. Toyota, R. Fukuda, 
 J. Hasegawa, M. Ishida, T. Nakajima, Y. Honda, O. Kitao, H. Nakai, 
 T. Vreven, K. Throssell, J. A. Montgomery, Jr., J. E. Peralta, 
 F. Ogliaro, M. J. Bearpark, J. J. Heyd, E. N. Brothers, K. N. Kudin, 
 V. N. Staroverov, T. A. Keith, R. Kobayashi, J. Normand, 
 K. Raghavachari, A. P. Rendell, J. C. Burant, S. S. Iyengar, 
 J. Tomasi, M. Cossi, J. M. Millam, M. Klene, C. Adamo, R. Cammi, 
 J. W. Ochterski, R. L. Martin, K. Morokuma, O. Farkas, 
 J. B. Foresman, and D. J. Fox, Gaussian, Inc., Wallingford CT, 2019.
 
 ******************************************
 Gaussian 16:  ES64L-G16RevC.01  3-Jul-2019
                 2-Jun-2023 
 ******************************************
 %NProcShared=2
 Will use up to    2 processors via shared memory.
 %mem=55gb
 %chk=/scratch1/svicchi/G09-659914.pbs02/02-freq/EG-H_dissociation-site_index-0-f
 req.chk
 ----------------------------------------------------------------------
 #p freq=raman scale=0.967 pop=(nbo,full,hirshfeld) guess=read geom=all
 check b3lyp/6-311+G(d,p) int=grid=ultrafine EmpiricalDispersion=GD3BJ 
 SCRF=(Solvent=ethanol) scf=(xqc,intrep,maxconventionalcycle=350) nosym
 m
 ----------------------------------------------------------------------
 1/10=4,29=7,30=1,38=1,114=967000/1,3;
 2/12=2,15=1,40=1/2;
 3/5=4,6=6,7=111,11=2,14=-4,25=1,30=1,70=2201,71=2,72=4,74=-5,75=-5,116=-2,124=41,140=1/1,2,3;
 4/5=1/1;
 5/5=2,8=3,13=1,17=20,38=6,53=4,85=350,98=1/2,8;
 8/6=4,10=90,11=11/1;
 10/13=10,15=4,31=1/2;
 11/6=3,8=1,9=11,15=111,16=1,31=1/1,2,10;
 10/6=1,31=1/2;
 6/7=3,28=1,40=1,79=1/1,7;
 7/8=1,10=1,25=1,30=1/1,2,3,16;
 1/10=4,30=1/3;
 99//99;
 Leave Link    1 at Fri Jun  2 11:10:22 2023, MaxMem=  7381975040 cpu:               0.6 elap:               0.8
 (Enter /software/commercial/gaussian/g16/AVX/g16/l101.exe)
 Structure from the checkpoint file:  "/scratch1/svicchi/G09-659914.pbs02/02-freq/EG-H_dissociation-site_index-0-freq.chk"
 ----------------------------------
 EG-H_dissociation-site_index-0.gjf
 ----------------------------------
 Charge = -1 Multiplicity = 1
 No Z-Matrix found in chk file; cartesian coordinates used.
  O                                                 2.102109696751     -0.751744558128      0.124586579231
  C                                                 3.076780521483      0.211286054644      0.064546004537
  C                                                 4.491600466853     -0.378131271507     -0.039919449720
  H                                                 3.094488860008      0.888590513153      0.954478462856
  H                                                 2.972298301288      0.903643043784     -0.807787338673
  O                                                 5.465560542072      0.687576978662     -0.111003671012
  H                                                 4.555968138301     -1.007409711066     -0.937259610132
  H                                                 4.687329520791     -1.009137659264      0.836894320767
  H                                                 6.342812952453      0.295947609722     -0.165737297853
 Recover connectivity data from disk.
 ITRead=  0  0  0  0  0  0  0  0  0
 MicOpt= -1 -1 -1 -1 -1 -1 -1 -1 -1
 NAtoms=      9 NQM=        9 NQMF=       0 NMMI=      0 NMMIF=      0
                NMic=       0 NMicF=      0.
                    Isotopes and Nuclear Properties:
 (Nuclear quadrupole moments (NQMom) in fm**2, nuclear magnetic moments (NMagM)
  in nuclear magnetons)

  Atom         1           2           3           4           5           6           7           8           9
 IAtWgt=          16          12          12           1           1          16           1           1           1
 AtmWgt=  15.9949146  12.0000000  12.0000000   1.0078250   1.0078250  15.9949146   1.0078250   1.0078250   1.0078250
 NucSpn=           0           0           0           1           1           0           1           1           1
 AtZEff=   5.6000000   3.6000000   3.6000000   1.0000000   1.0000000   5.6000000   1.0000000   1.0000000   1.0000000
 NQMom=    0.0000000   0.0000000   0.0000000   0.0000000   0.0000000   0.0000000   0.0000000   0.0000000   0.0000000
 NMagM=    0.0000000   0.0000000   0.0000000   2.7928460   2.7928460   0.0000000   2.7928460   2.7928460   2.7928460
 AtZNuc=   8.0000000   6.0000000   6.0000000   1.0000000   1.0000000   8.0000000   1.0000000   1.0000000   1.0000000
 Leave Link  101 at Fri Jun  2 11:10:25 2023, MaxMem=  7381975040 cpu:               0.4 elap:               1.7
 (Enter /software/commercial/gaussian/g16/AVX/g16/l103.exe)

 GradGradGradGradGradGradGradGradGradGradGradGradGradGradGradGradGradGrad
 Berny optimization.
 Initialization pass.
 Trust Radius=3.00D-01 FncErr=1.00D-07 GrdErr=1.00D-07 EigMax=2.50D+02 EigMin=1.00D-04
 Number of steps in this run=      2 maximum allowed number of steps=      2.
 GradGradGradGradGradGradGradGradGradGradGradGradGradGradGradGradGradGrad

 Leave Link  103 at Fri Jun  2 11:10:27 2023, MaxMem=  7381975040 cpu:               0.1 elap:               0.8
 (Enter /software/commercial/gaussian/g16/AVX/g16/l202.exe)
                          Input orientation:                          
 ---------------------------------------------------------------------
 Center     Atomic      Atomic             Coordinates (Angstroms)
 Number     Number       Type             X           Y           Z
 ---------------------------------------------------------------------
      1          8           0        2.102110   -0.751745    0.124587
      2          6           0        3.076781    0.211286    0.064546
      3          6           0        4.491600   -0.378131   -0.039919
      4          1           0        3.094489    0.888591    0.954478
      5          1           0        2.972298    0.903643   -0.807787
      6          8           0        5.465561    0.687577   -0.111004
      7          1           0        4.555968   -1.007410   -0.937260
      8          1           0        4.687330   -1.009138    0.836894
      9          1           0        6.342813    0.295948   -0.165737
 ---------------------------------------------------------------------
                    Distance matrix (angstroms):
                    1          2          3          4          5
     1  O    0.000000
     2  C    1.371501   0.000000
     3  C    2.424111   1.536243   0.000000
     4  H    2.089075   1.118497   2.131978   0.000000
     5  H    2.089703   1.118588   2.130926   1.766561   0.000000
     6  O    3.666054   2.442118   1.445471   2.607228   2.597797
     7  H    2.685946   2.162598   1.097886   3.051133   2.485336
     8  H    2.693881   2.163290   1.097853   2.480391   3.050416
     9  H    4.377843   3.275235   1.974133   3.486792   3.484522
                    6          7          8          9
     6  O    0.000000
     7  H    2.093570   0.000000
     8  H    2.093560   1.779011   0.000000
     9  H    0.962258   2.342392   2.334340   0.000000
 Symmetry turned off by external request.
 Stoichiometry    C2H5O2(1-)
 Framework group  C1[X(C2H5O2)]
 Deg. of freedom    21
 Full point group                 C1      NOp   1
 Rotational constants (GHZ):          32.4063036           4.0343380           3.7566674
 Leave Link  202 at Fri Jun  2 11:10:29 2023, MaxMem=  7381975040 cpu:               0.5 elap:               1.4
 (Enter /software/commercial/gaussian/g16/AVX/g16/l301.exe)
 Standard basis: 6-311+G(d,p) (5D, 7F)
 Ernie: Thresh=  0.10000D-02 Tol=  0.10000D-05 Strict=F.
   118 basis functions,   184 primitive gaussians,   122 cartesian basis functions
    17 alpha electrons       17 beta electrons
       nuclear repulsion energy       120.5551589061 Hartrees.
 IExCor=  402 DFT=T Ex+Corr=B3LYP ExCW=0 ScaHFX=  0.200000
 ScaDFX=  0.800000  0.720000  1.000000  0.810000 ScalE2=  1.000000  1.000000
 IRadAn=      5 IRanWt=     -1 IRanGd=            0 ICorTp=0 IEmpDi=141
 NAtoms=    9 NActive=    9 NUniq=    9 SFac= 1.00D+00 NAtFMM=   60 NAOKFM=F Big=F
 Integral buffers will be    131072 words long.
 Raffenetti 2 integral format.
 Two-electron integral symmetry is turned off.
 R6Disp:  Grimme-D3(BJ) Dispersion energy=       -0.0077832599 Hartrees.
 Nuclear repulsion after empirical dispersion term =      120.5473756462 Hartrees.
 Force inversion solution in PCM.
 ------------------------------------------------------------------------------
 Polarizable Continuum Model (PCM)
 =================================
 Model                : PCM.
 Atomic radii         : UFF (Universal Force Field).
 Polarization charges : Total charges.
 Charge compensation  : None.
 Solution method      : Matrix inversion.
 Cavity type          : Scaled VdW (van der Waals Surface) (Alpha=1.100).
 Cavity algorithm     : GePol (No added spheres)
                        Default sphere list used, NSphG=    9.
                        Lebedev-Laikov grids with approx.  5.0 points / Ang**2.
                        Smoothing algorithm: York/Karplus (Gamma=1.0000).
                        Polarization charges: spherical gaussians, with
                                              point-specific exponents (IZeta= 3).
                        Self-potential: point-specific (ISelfS= 7).
                        Self-field    : sphere-specific E.n sum rule (ISelfD= 2).
 1st derivatives      : Analytical E(r).r(x)/FMM algorithm (CHGder, D1EAlg=3).
                        Cavity 1st derivative terms included.
 2nd derivatives      : Analytical E(r).r(xy)/FMM algorithm (CHGder, D2EAlg=3).
                        Cavity 2nd derivative terms included.
 Solvent              : Ethanol, Eps=  24.852000 Eps(inf)=   1.852593
 ------------------------------------------------------------------------------
 Spheres list:
 ISph  on   Nord     Re0    Alpha      Xe            Ye            Ze
    1   O      1    1.7500  1.100      2.102110     -0.751745      0.124587
    2   C      2    1.9255  1.100      3.076781      0.211286      0.064546
    3   C      3    1.9255  1.100      4.491600     -0.378131     -0.039919
    4   H      4    1.4430  1.100      3.094489      0.888591      0.954478
    5   H      5    1.4430  1.100      2.972298      0.903643     -0.807787
    6   O      6    1.7500  1.100      5.465561      0.687577     -0.111004
    7   H      7    1.4430  1.100      4.555968     -1.007410     -0.937260
    8   H      8    1.4430  1.100      4.687330     -1.009138      0.836894
    9   H      9    1.4430  1.100      6.342813      0.295948     -0.165737
 ------------------------------------------------------------------------------
 GePol: Number of generator spheres                  =       9
 GePol: Total number of spheres                      =       9
 GePol: Number of exposed spheres                    =       9 (100.00%)
 GePol: Number of points                             =     882
 GePol: Average weight of points                     =       0.13
 GePol: Minimum weight of points                     =   0.56D-09
 GePol: Maximum weight of points                     =    0.20577
 GePol: Number of points with low weight             =      40
 GePol: Fraction of low-weight points (<1% of avg)   =       4.54%
 GePol: Cavity surface area                          =    118.361 Ang**2
 GePol: Cavity volume                                =    100.630 Ang**3
 Leave Link  301 at Fri Jun  2 11:10:32 2023, MaxMem=  7381975040 cpu:               0.9 elap:               1.3
 (Enter /software/commercial/gaussian/g16/AVX/g16/l302.exe)
 NPDir=0 NMtPBC=     1 NCelOv=     1 NCel=       1 NClECP=     1 NCelD=      1
         NCelK=      1 NCelE2=     1 NClLst=     1 CellRange=     0.0.
 One-electron integrals computed using PRISM.
 NBasis=   118 RedAO= T EigKep=  1.27D-04  NBF=   118
 NBsUse=   118 1.00D-06 EigRej= -1.00D+00 NBFU=   118
 Precomputing XC quadrature grid using
 IXCGrd= 4 IRadAn=           5 IRanWt=          -1 IRanGd=           0 AccXCQ= 0.00D+00.
 Generated NRdTot=       0 NPtTot=           0 NUsed=           0 NTot=          32
 NSgBfM=   122   122   122   122   122 MxSgAt=     9 MxSgA2=     9.
 Leave Link  302 at Fri Jun  2 11:10:35 2023, MaxMem=  7381975040 cpu:               0.9 elap:               2.4
 (Enter /software/commercial/gaussian/g16/AVX/g16/l303.exe)
 DipDrv:  MaxL=1.
 Leave Link  303 at Fri Jun  2 11:10:37 2023, MaxMem=  7381975040 cpu:               0.1 elap:               0.7
 (Enter /software/commercial/gaussian/g16/AVX/g16/l401.exe)
 Initial guess from the checkpoint file:  "/scratch1/svicchi/G09-659914.pbs02/02-freq/EG-H_dissociation-site_index-0-freq.chk"
 B after Tr=     0.000000    0.000000    0.000000
         Rot=    1.000000    0.000000    0.000000    0.000000 Ang=   0.00 deg.
 Guess basis will be translated and rotated to current coordinates.
 JPrj=2 DoOrth=T DoCkMO=T.
 Leave Link  401 at Fri Jun  2 11:10:39 2023, MaxMem=  7381975040 cpu:               0.4 elap:               1.2
 (Enter /software/commercial/gaussian/g16/AVX/g16/l502.exe)
 Keep R1 ints in memory in canonical form, NReq=26546471.
 FoFCou: FMM=F IPFlag=           0 FMFlag=           0 FMFlg1=           0
         NFxFlg=           0 DoJE=F BraDBF=F KetDBF=F FulRan=T
         wScrn=  0.000000 ICntrl=       600 IOpCl=  0 I1Cent=           0 NGrid=           0
         NMat0=    1 NMatS0=   7021 NMatT0=    0 NMatD0=    1 NMtDS0=    0 NMtDT0=    0
 Symmetry not used in FoFCou.
 Two-electron integral symmetry not used.
 Closed shell SCF:
 Using DIIS extrapolation, IDIIS=  1040.
 NGot=  7381975040 LenX=  7357292547 LenY=  7357277222
 Requested convergence on RMS density matrix=1.00D-08 within 350 cycles.
 Requested convergence on MAX density matrix=1.00D-06.
 Requested convergence on             energy=1.00D-06.
 No special actions if energy rises.

 Cycle   1  Pass 1  IDiag  1:
 Inv3:  Mode=1 IEnd=     2333772.
 Iteration    1 A*A^-1 deviation from unit magnitude is 2.44D-15 for    853.
 Iteration    1 A*A^-1 deviation from orthogonality  is 1.89D-15 for    849    282.
 Iteration    1 A^-1*A deviation from unit magnitude is 2.55D-15 for    881.
 Iteration    1 A^-1*A deviation from orthogonality  is 1.15D-15 for    875    167.
 E= -229.839282147514    
 DIIS: error= 1.52D-08 at cycle   1 NSaved=   1.
 NSaved= 1 IEnMin= 1 EnMin= -229.839282147514     IErMin= 1 ErrMin= 1.52D-08
 ErrMax= 1.52D-08  0.00D+00 EMaxC= 1.00D-01 BMatC= 2.43D-14 BMatP= 2.43D-14
 IDIUse=1 WtCom= 1.00D+00 WtEn= 0.00D+00
 Coeff-Com:  0.100D+01
 Coeff:      0.100D+01
 Gap=     0.184 Goal=   None    Shift=    0.000
 RMSDP=1.99D-09 MaxDP=5.33D-08              OVMax= 7.60D-08

 Error on total polarization charges =  0.02169
 SCF Done:  E(RB3LYP) =  -229.839282148     A.U. after    1 cycles
            NFock=  1  Conv=0.20D-08     -V/T= 2.0041
 KE= 2.289007106144D+02 PE=-7.888622368433D+02 EE= 2.095748684352D+02
 Leave Link  502 at Fri Jun  2 11:10:48 2023, MaxMem=  7381975040 cpu:              10.5 elap:               7.7
 (Enter /software/commercial/gaussian/g16/AVX/g16/l508.exe)
 QCSCF skips out because SCF is already converged.
 Leave Link  508 at Fri Jun  2 11:10:51 2023, MaxMem=  7381975040 cpu:               0.1 elap:               0.9
 (Enter /software/commercial/gaussian/g16/AVX/g16/l801.exe)
 DoSCS=F DFT=T ScalE2(SS,OS)=  1.000000  1.000000
 Range of M.O.s used for correlation:     1   118
 NBasis=   118 NAE=    17 NBE=    17 NFC=     0 NFV=     0
 NROrb=    118 NOA=    17 NOB=    17 NVA=   101 NVB=   101

 **** Warning!!: The largest alpha MO coefficient is  0.36407735D+02

 Leave Link  801 at Fri Jun  2 11:10:55 2023, MaxMem=  7381975040 cpu:               0.5 elap:               2.2
 (Enter /software/commercial/gaussian/g16/AVX/g16/l1002.exe)
 Minotr:  Closed shell wavefunction.
 NEqPCM:  Using equilibrium solvation (IEInf=0, Eps=  24.8520, EpsInf=   1.8526)
          Direct CPHF calculation.
          Differentiating once with respect to electric field.
                with respect to dipole field.
          Electric field/nuclear overlap derivatives assumed to be zero.
          Requested convergence is 1.0D-08 RMS, and 1.0D-07 maximum.
          Secondary convergence is 1.0D-12 RMS, and 1.0D-12 maximum.
          NewPWx=F KeepS1=T KeepF1=T KeepIn=T MapXYZ=F SortEE=F KeepMc=T.
         2746 words used for storage of precomputed grid.
 Keep R1 ints in memory in canonical form, NReq=27900799.
 FoFCou: FMM=F IPFlag=           0 FMFlag=           0 FMFlg1=           0
         NFxFlg=           0 DoJE=F BraDBF=F KetDBF=F FulRan=T
         wScrn=  0.000000 ICntrl=       600 IOpCl=  0 I1Cent=           0 NGrid=           0
         NMat0=    1 NMatS0=   7021 NMatT0=    0 NMatD0=    1 NMtDS0=    0 NMtDT0=    0
 Symmetry not used in FoFCou.
 Two-electron integral symmetry not used.
          MDV=    7381975040 using IRadAn=       1.
          Solving linear equations simultaneously, MaxMat=       0.
          There are     3 degrees of freedom in the 1st order CPHF.  IDoFFX=0 NUNeed=     3.
      3 vectors produced by pass  0 Test12= 5.72D-14 3.33D-08 XBig12= 3.36D+01 2.49D+00.
 AX will form     3 AO Fock derivatives at one time.
      3 vectors produced by pass  1 Test12= 5.72D-14 3.33D-08 XBig12= 5.00D+00 7.52D-01.
      3 vectors produced by pass  2 Test12= 5.72D-14 3.33D-08 XBig12= 1.24D+00 3.89D-01.
      3 vectors produced by pass  3 Test12= 5.72D-14 3.33D-08 XBig12= 2.05D-01 1.74D-01.
      3 vectors produced by pass  4 Test12= 5.72D-14 3.33D-08 XBig12= 5.06D-02 8.95D-02.
      3 vectors produced by pass  5 Test12= 5.72D-14 3.33D-08 XBig12= 3.37D-03 1.90D-02.
      3 vectors produced by pass  6 Test12= 5.72D-14 3.33D-08 XBig12= 1.22D-04 2.42D-03.
      3 vectors produced by pass  7 Test12= 5.72D-14 3.33D-08 XBig12= 3.54D-06 4.21D-04.
      3 vectors produced by pass  8 Test12= 5.72D-14 3.33D-08 XBig12= 8.27D-08 6.60D-05.
      3 vectors produced by pass  9 Test12= 5.72D-14 3.33D-08 XBig12= 1.33D-09 7.14D-06.
      2 vectors produced by pass 10 Test12= 5.72D-14 3.33D-08 XBig12= 1.83D-11 8.35D-07.
      2 vectors produced by pass 11 Test12= 5.72D-14 3.33D-08 XBig12= 6.19D-13 1.62D-07.
 InvSVY:  IOpt=1 It=  1 EMax= 1.78D-15
 Solved reduced A of dimension    34 with     3 vectors.
 End of Minotr F.D. properties file   721 does not exist.
 End of Minotr F.D. properties file   722 does not exist.
 End of Minotr F.D. properties file   788 does not exist.
 Leave Link 1002 at Fri Jun  2 11:11:20 2023, MaxMem=  7381975040 cpu:              39.4 elap:              23.9
 (Enter /software/commercial/gaussian/g16/AVX/g16/l1101.exe)
 Using compressed storage, NAtomX=     9.
 Will process     10 centers per pass.
 R6Disp: Adding Grimme-D3(BJ) dispersion energy 1st derivatives to the gradient.
 Leave Link 1101 at Fri Jun  2 11:11:22 2023, MaxMem=  7381975040 cpu:               0.5 elap:               0.8
 (Enter /software/commercial/gaussian/g16/AVX/g16/l1102.exe)
 Symmetrizing basis deriv contribution to polar:
 IMax=3 JMax=2 DiffMx= 0.00D+00
 Leave Link 1102 at Fri Jun  2 11:11:24 2023, MaxMem=  7381975040 cpu:               0.2 elap:               1.4
 (Enter /software/commercial/gaussian/g16/AVX/g16/l1110.exe)
 Forming Gx(P) for the SCF density, NAtomX=     9.
 Integral derivatives from FoFJK, PRISM(SPDF).
 Do as many integral derivatives as possible in FoFJK.
 G2DrvN: MDV=    7381973977.
 G2DrvN: will do    10 centers at a time, making    1 passes.
 PxScal for G2LodP:  IOpCl= 0 ISclPx=1 IMOff=     1 NMtTot=     4 NTT=    7021 ScalPx= 2.35D+01
 Calling FoFCou, ICntrl=  3107 FMM=F I1Cent=   0 AccDes= 0.00D+00.
 FoFJK:  IHMeth= 1 ICntrl=    3107 DoSepK=F KAlg= 0 I1Cent=           0 FoldK=F
 IRaf=         0 NMat=       1 IRICut=       1 DoRegI=T DoRafI=F ISym2E= 0 IDoP0=0 IntGTp=1.
 FoFCou: FMM=F IPFlag=           0 FMFlag=      100000 FMFlg1=           0
         NFxFlg=           0 DoJE=F BraDBF=F KetDBF=F FulRan=T
         wScrn=  0.000000 ICntrl=      3107 IOpCl=  0 I1Cent=           0 NGrid=           0
         NMat0=    1 NMatS0=      1 NMatT0=    0 NMatD0=    4 NMtDS0=    3 NMtDT0=    0
 Symmetry not used in FoFCou.
 PxScal for G2LodP:  IOpCl= 0 ISclPx=0 IMOff=     1 NMtTot=     4 NTT=    7021 ScalPx= 1.00D+00
 NEqPCM:  Using equilibrium solvation (IEInf=0, Eps=  24.8520, EpsInf=   1.8526)
 G2PCM: DoFxE=T DoFxN=T DoGrad=T DoDP/DQ/DG/TGxP=TFFF NFrqRd=   0 IEInf=0 SqF1=F DoCFld=F IF1Alg=4.
 GePol: Maximum number of non-zero 1st derivatives   =     229
 End of G2Drv F.D. properties file   721 does not exist.
 End of G2Drv F.D. properties file   722 does not exist.
 End of G2Drv F.D. properties file   788 does not exist.
 Leave Link 1110 at Fri Jun  2 11:12:16 2023, MaxMem=  7381975040 cpu:              96.0 elap:              49.9
 (Enter /software/commercial/gaussian/g16/AVX/g16/l1002.exe)
 Minotr:  Closed shell wavefunction.
          IDoAtm=111111111
 NEqPCM:  Using equilibrium solvation (IEInf=0, Eps=  24.8520, EpsInf=   1.8526)
          Direct CPHF calculation.
          Differentiating once with respect to electric field.
                with respect to dipole field.
          Differentiating once with respect to nuclear coordinates.
          Requested convergence is 1.0D-08 RMS, and 1.0D-07 maximum.
          Secondary convergence is 1.0D-12 RMS, and 1.0D-12 maximum.
          NewPWx=T KeepS1=F KeepF1=F KeepIn=T MapXYZ=F SortEE=F KeepMc=T.
         2746 words used for storage of precomputed grid.
 Keep R1 ints in memory in canonical form, NReq=27901006.
 FoFCou: FMM=F IPFlag=           0 FMFlag=           0 FMFlg1=           0
         NFxFlg=           0 DoJE=F BraDBF=F KetDBF=F FulRan=T
         wScrn=  0.000000 ICntrl=       600 IOpCl=  0 I1Cent=           0 NGrid=           0
         NMat0=    1 NMatS0=   7021 NMatT0=    0 NMatD0=    1 NMtDS0=    0 NMtDT0=    0
 Symmetry not used in FoFCou.
 Two-electron integral symmetry not used.
          MDV=    7381975040 using IRadAn=       1.
          Solving linear equations simultaneously, MaxMat=       0.
          There are    30 degrees of freedom in the 1st order CPHF.  IDoFFX=5 NUNeed=    30.
 Will reuse    3 saved solutions.
     24 vectors produced by pass  0 Test12= 5.72D-15 3.33D-09 XBig12= 9.13D-02 8.48D-02.
 AX will form    24 AO Fock derivatives at one time.
     24 vectors produced by pass  1 Test12= 5.72D-15 3.33D-09 XBig12= 7.68D-03 1.89D-02.
     24 vectors produced by pass  2 Test12= 5.72D-15 3.33D-09 XBig12= 1.81D-04 3.30D-03.
     24 vectors produced by pass  3 Test12= 5.72D-15 3.33D-09 XBig12= 9.82D-07 2.44D-04.
     24 vectors produced by pass  4 Test12= 5.72D-15 3.33D-09 XBig12= 3.08D-09 1.06D-05.
     22 vectors produced by pass  5 Test12= 5.72D-15 3.33D-09 XBig12= 5.46D-12 4.32D-07.
      9 vectors produced by pass  6 Test12= 5.72D-15 3.33D-09 XBig12= 6.04D-15 1.52D-08.
 InvSVY:  IOpt=1 It=  1 EMax= 1.55D-15
 Solved reduced A of dimension   151 with    24 vectors.
 FullF1:  Do perturbations      1 to       3.
 Isotropic polarizability for W=    0.000000       55.41 Bohr**3.
 FullF1:  Do perturbations      1 to       6.
 End of Minotr F.D. properties file   721 does not exist.
 End of Minotr F.D. properties file   722 does not exist.
 End of Minotr F.D. properties file   788 does not exist.
 Leave Link 1002 at Fri Jun  2 11:13:06 2023, MaxMem=  7381975040 cpu:              84.0 elap:              49.0
 (Enter /software/commercial/gaussian/g16/AVX/g16/l601.exe)
 Copying SCF densities to generalized density rwf, IOpCl= 0 IROHF=0.

 **********************************************************************

            Population analysis using the SCF Density.

 **********************************************************************

 Alpha  occ. eigenvalues --  -19.11389 -18.99217 -10.18683 -10.16477  -1.00755
 Alpha  occ. eigenvalues --   -0.87964  -0.68351  -0.55425  -0.49212  -0.44679
 Alpha  occ. eigenvalues --   -0.39241  -0.35303  -0.32809  -0.31902  -0.26896
 Alpha  occ. eigenvalues --   -0.17532  -0.17085
 Alpha virt. eigenvalues --    0.01339   0.02923   0.03846   0.04947   0.07819
 Alpha virt. eigenvalues --    0.08282   0.08526   0.13531   0.14734   0.17660
 Alpha virt. eigenvalues --    0.17743   0.18988   0.19763   0.21023   0.23523
 Alpha virt. eigenvalues --    0.24283   0.24484   0.25918   0.26741   0.29087
 Alpha virt. eigenvalues --    0.31159   0.33123   0.35946   0.38177   0.44075
 Alpha virt. eigenvalues --    0.46237   0.52565   0.53455   0.59481   0.62846
 Alpha virt. eigenvalues --    0.64820   0.67660   0.68137   0.68778   0.71612
 Alpha virt. eigenvalues --    0.90932   0.96626   0.98736   1.01809   1.05979
 Alpha virt. eigenvalues --    1.11899   1.15142   1.19985   1.20121   1.27570
 Alpha virt. eigenvalues --    1.30300   1.38192   1.43172   1.48670   1.56239
 Alpha virt. eigenvalues --    1.58160   1.59252   1.60399   1.65613   1.65859
 Alpha virt. eigenvalues --    1.67458   1.71133   1.82876   1.83320   1.87340
 Alpha virt. eigenvalues --    2.03328   2.06256   2.09224   2.14523   2.23431
 Alpha virt. eigenvalues --    2.33260   2.43821   2.45532   2.49138   2.50652
 Alpha virt. eigenvalues --    2.55165   2.58412   2.64811   2.78140   2.85371
 Alpha virt. eigenvalues --    2.89165   2.96688   3.00153   3.05344   3.11210
 Alpha virt. eigenvalues --    3.18566   3.25453   3.26369   3.35246   3.42870
 Alpha virt. eigenvalues --    3.77689   3.84964   3.87308   3.96344   4.06856
 Alpha virt. eigenvalues --    4.23984   5.00484   5.12868   5.17444   5.34213
 Alpha virt. eigenvalues --    5.61477   5.72013  23.83571  23.86107  49.90482
 Alpha virt. eigenvalues --   50.00043
     Molecular Orbital Coefficients:
                           1         2         3         4         5
                           O         O         O         O         O
     Eigenvalues --   -19.11389 -18.99217 -10.18683 -10.16477  -1.00755
   1 1   O  1S         -0.00001   0.55136   0.00000  -0.00003  -0.00350
   2        2S          0.00001   0.46979   0.00000  -0.00007  -0.00558
   3        2PX         0.00002   0.00073   0.00003   0.00017   0.00211
   4        2PY         0.00000   0.00071   0.00004   0.00016   0.00150
   5        2PZ        -0.00000  -0.00004  -0.00000  -0.00001  -0.00014
   6        3S         -0.00008   0.01317   0.00005   0.00060   0.01600
   7        3PX        -0.00006   0.00012  -0.00012  -0.00020   0.00370
   8        3PY        -0.00001   0.00009  -0.00014  -0.00017   0.00256
   9        3PZ         0.00000  -0.00001   0.00001   0.00001  -0.00024
  10        4S          0.00037  -0.00948  -0.00061  -0.00069   0.00996
  11        4PX         0.00027  -0.00112  -0.00022  -0.00001   0.00031
  12        4PY         0.00006  -0.00090  -0.00006  -0.00027   0.00095
  13        4PZ        -0.00002   0.00007   0.00001  -0.00000  -0.00000
  14        5S          0.00015   0.00575   0.00067   0.00554  -0.00058
  15        5PX         0.00024   0.00049   0.00045   0.00186  -0.00131
  16        5PY         0.00021   0.00031   0.00014   0.00137  -0.00152
  17        5PZ        -0.00002  -0.00003  -0.00002  -0.00012   0.00009
  18        6D 0        0.00000  -0.00004   0.00001   0.00021  -0.00038
  19        6D+1       -0.00000  -0.00000  -0.00000   0.00002  -0.00006
  20        6D-1       -0.00000  -0.00000   0.00001   0.00002  -0.00004
  21        6D+2        0.00001   0.00000   0.00001   0.00001   0.00022
  22        6D-2        0.00000   0.00004  -0.00011  -0.00037   0.00058
  23 2   C  1S          0.00000   0.00001   0.00268   0.56308  -0.00842
  24        2S         -0.00001  -0.00005   0.00222   0.46335  -0.01297
  25        2PX         0.00005  -0.00017   0.00046  -0.00015   0.00628
  26        2PY        -0.00002  -0.00022  -0.00024  -0.00042  -0.00122
  27        2PZ        -0.00000   0.00001  -0.00003   0.00001  -0.00047
  28        3S          0.00014   0.00018   0.00022   0.01797   0.03235
  29        3PX        -0.00026   0.00002  -0.00110   0.00019   0.01450
  30        3PY         0.00012   0.00042   0.00072   0.00179  -0.00474
  31        3PZ         0.00002   0.00000   0.00008   0.00000  -0.00109
  32        4S         -0.00218   0.00458   0.00283  -0.01349   0.03111
  33        4PX        -0.00063  -0.00021   0.00159  -0.00086   0.00979
  34        4PY         0.00065  -0.00177  -0.00026   0.00136  -0.00364
  35        4PZ         0.00006  -0.00000  -0.00012   0.00008  -0.00077
  36        5S          0.00998  -0.01092   0.00627  -0.00883  -0.07894
  37        5PX         0.00254  -0.00116   0.00129  -0.00158  -0.02162
  38        5PY        -0.00066   0.00239  -0.00083  -0.00027   0.00539
  39        5PZ        -0.00019   0.00010  -0.00011   0.00012   0.00159
  40        6D 0        0.00004   0.00023   0.00041   0.00060  -0.00249
  41        6D+1        0.00001   0.00003   0.00009   0.00011  -0.00060
  42        6D-1       -0.00000   0.00002  -0.00004  -0.00000   0.00008
  43        6D+2       -0.00012  -0.00003  -0.00053  -0.00051   0.00393
  44        6D-2        0.00006  -0.00035   0.00062  -0.00004  -0.00094
  45 3   C  1S          0.00002   0.00000   0.56303  -0.00270  -0.03825
  46        2S         -0.00007   0.00000   0.46335  -0.00223  -0.05887
  47        2PX         0.00006  -0.00006   0.00092  -0.00044   0.02979
  48        2PY         0.00015   0.00002   0.00076   0.00025   0.02912
  49        2PZ        -0.00000   0.00000  -0.00007   0.00003  -0.00215
  50        3S          0.00006   0.00017   0.01837  -0.00000   0.15210
  51        3PX         0.00033   0.00030  -0.00041   0.00099   0.04864
  52        3PY        -0.00017  -0.00016  -0.00238  -0.00081   0.05377
  53        3PZ        -0.00003  -0.00002   0.00003  -0.00007  -0.00347
  54        4S          0.00423  -0.00237  -0.01318   0.00430   0.02960
  55        4PX        -0.00005   0.00106   0.00024  -0.00116   0.01342
  56        4PY         0.00145  -0.00031  -0.00174   0.00098  -0.00215
  57        4PZ        -0.00000  -0.00007  -0.00002   0.00008  -0.00092
  58        5S         -0.01212   0.00859  -0.01041   0.00490   0.10481
  59        5PX         0.00177  -0.00224   0.00140  -0.00044  -0.01166
  60        5PY        -0.00255   0.00046  -0.00030   0.00112   0.01949
  61        5PZ        -0.00013   0.00016  -0.00010   0.00003   0.00088
  62        6D 0        0.00012   0.00005   0.00101   0.00048  -0.01283
  63        6D+1        0.00001   0.00002   0.00016   0.00010  -0.00173
  64        6D-1        0.00001  -0.00000   0.00004  -0.00004  -0.00139
  65        6D+2        0.00003  -0.00018  -0.00041  -0.00045   0.00180
  66        6D-2       -0.00013   0.00007  -0.00059   0.00055   0.01913
  67 4   H  1S          0.00004   0.00003  -0.00008   0.00015   0.00407
  68        2S         -0.00011  -0.00101  -0.00060  -0.00258   0.00446
  69        3S         -0.00056   0.00035   0.00007   0.00343   0.00253
  70        4PX        -0.00012   0.00012   0.00012   0.00002   0.00079
  71        4PY         0.00002   0.00031   0.00009   0.00107  -0.00079
  72        4PZ         0.00009   0.00018   0.00025   0.00165  -0.00155
  73 5   H  1S          0.00003   0.00003  -0.00008   0.00015   0.00411
  74        2S         -0.00010  -0.00101  -0.00060  -0.00258   0.00448
  75        3S         -0.00055   0.00034   0.00006   0.00343   0.00252
  76        4PX        -0.00013   0.00009   0.00008  -0.00021   0.00101
  77        4PY         0.00002   0.00031   0.00009   0.00109  -0.00081
  78        4PZ        -0.00007  -0.00019  -0.00026  -0.00162   0.00141
  79 6   O  1S          0.55134   0.00001  -0.00002   0.00000  -0.11249
  80        2S          0.46975   0.00001  -0.00007  -0.00000  -0.17999
  81        2PX         0.00031  -0.00002  -0.00006  -0.00000   0.01139
  82        2PY        -0.00118   0.00000  -0.00010  -0.00003  -0.04546
  83        2PZ        -0.00001   0.00000   0.00000   0.00000  -0.00043
  84        3S          0.01345  -0.00007   0.00052   0.00014   0.52115
  85        3PX         0.00012   0.00009  -0.00016  -0.00001   0.01531
  86        3PY        -0.00004   0.00000  -0.00001   0.00008  -0.07305
  87        3PZ        -0.00001  -0.00001   0.00001   0.00000  -0.00050
  88        4S         -0.00898   0.00022  -0.00035  -0.00126   0.38247
  89        4PX         0.00126  -0.00027  -0.00051   0.00013  -0.00228
  90        4PY         0.00096  -0.00006   0.00005   0.00046  -0.03269
  91        4PZ        -0.00009   0.00002   0.00003  -0.00001   0.00037
  92        5S          0.00709  -0.00029   0.00709  -0.00115  -0.04284
  93        5PX         0.00003  -0.00034  -0.00055  -0.00076   0.00451
  94        5PY        -0.00078  -0.00006  -0.00194   0.00046   0.00889
  95        5PZ         0.00000   0.00002   0.00005   0.00005  -0.00036
  96        6D 0       -0.00011   0.00000   0.00014   0.00005  -0.00894
  97        6D+1       -0.00002   0.00000   0.00002   0.00000  -0.00116
  98        6D-1        0.00001   0.00000   0.00001   0.00000  -0.00012
  99        6D+2        0.00018  -0.00000   0.00001   0.00001   0.00207
 100        6D-2       -0.00019  -0.00001  -0.00010  -0.00003   0.00049
 101 7   H  1S          0.00005   0.00002   0.00007  -0.00007   0.01485
 102        2S         -0.00101   0.00004  -0.00306  -0.00083   0.02481
 103        3S          0.00025  -0.00050   0.00359   0.00041  -0.00844
 104        4PX        -0.00007   0.00008   0.00014  -0.00004   0.00030
 105        4PY        -0.00027  -0.00003  -0.00112  -0.00016   0.00484
 106        4PZ        -0.00015  -0.00008  -0.00190  -0.00026   0.00542
 107 8   H  1S          0.00005   0.00002   0.00007  -0.00007   0.01488
 108        2S         -0.00101   0.00004  -0.00306  -0.00083   0.02479
 109        3S          0.00026  -0.00050   0.00358   0.00042  -0.00848
 110        4PX        -0.00005   0.00009   0.00042  -0.00000  -0.00049
 111        4PY        -0.00026  -0.00003  -0.00112  -0.00016   0.00485
 112        4PZ         0.00016   0.00007   0.00186   0.00026  -0.00538
 113 9   H  1S         -0.00001   0.00001  -0.00001  -0.00004   0.09426
 114        2S         -0.00010  -0.00004   0.00045   0.00057   0.07569
 115        3S         -0.00176   0.00036  -0.00181   0.00079   0.00542
 116        4PX         0.00073   0.00004  -0.00026  -0.00017  -0.02312
 117        4PY        -0.00045   0.00006   0.00001   0.00002   0.00691
 118        4PZ        -0.00004  -0.00000   0.00002   0.00001   0.00147
                           6         7         8         9        10
                           O         O         O         O         O
     Eigenvalues --    -0.87964  -0.68351  -0.55425  -0.49212  -0.44679
   1 1   O  1S         -0.10374   0.04271   0.03476   0.02041  -0.00038
   2        2S         -0.16580   0.06863   0.05607   0.03294  -0.00061
   3        2PX         0.04021   0.00663   0.01251   0.02558   0.00190
   4        2PY         0.03819  -0.00374   0.03169   0.01322  -0.00052
   5        2PZ        -0.00248  -0.00051  -0.00061  -0.00132   0.03865
   6        3S          0.47744  -0.20141  -0.16605  -0.09774   0.00184
   7        3PX         0.06179   0.00895   0.01695   0.03626   0.00282
   8        3PY         0.05899  -0.00595   0.04506   0.01874  -0.00075
   9        3PZ        -0.00380  -0.00069  -0.00080  -0.00186   0.05667
  10        4S          0.36332  -0.17760  -0.15962  -0.10919   0.00190
  11        4PX         0.02859   0.00456   0.01123   0.02168   0.00212
  12        4PY         0.02509  -0.00403   0.03016   0.00843  -0.00051
  13        4PZ        -0.00177  -0.00037  -0.00056  -0.00108   0.04234
  14        5S         -0.01641  -0.02411  -0.02747  -0.03970   0.00075
  15        5PX        -0.00682  -0.00593   0.00146   0.00263   0.00018
  16        5PY        -0.00327   0.00068   0.00087  -0.00072  -0.00008
  17        5PZ         0.00045   0.00043  -0.00005  -0.00024   0.00208
  18        6D 0       -0.00589   0.00017  -0.00105  -0.00139  -0.00046
  19        6D+1       -0.00066  -0.00010   0.00007  -0.00018   0.00461
  20        6D-1       -0.00061   0.00003  -0.00015  -0.00007   0.00411
  21        6D+2        0.00044   0.00166  -0.00248   0.00104   0.00031
  22        6D-2        0.00992  -0.00068   0.00260   0.00176   0.00020
  23 2   C  1S         -0.06079  -0.04342  -0.07183  -0.02380   0.00035
  24        2S         -0.09380  -0.06737  -0.11228  -0.03735   0.00055
  25        2PX        -0.03868   0.06810   0.01055   0.00374   0.00716
  26        2PY        -0.04274   0.01554   0.07477  -0.00704  -0.00024
  27        2PZ         0.00235  -0.00465  -0.00013   0.00090   0.10462
  28        3S          0.24917   0.18050   0.31015   0.10381  -0.00155
  29        3PX        -0.05806   0.10314   0.00931   0.00318   0.01070
  30        3PY        -0.07156   0.01582   0.10235  -0.01286  -0.00029
  31        3PZ         0.00348  -0.00711   0.00017   0.00147   0.15484
  32        4S          0.06698   0.12245   0.19413   0.09793  -0.00144
  33        4PX        -0.01175   0.03241   0.00522   0.00057   0.00487
  34        4PY        -0.00219   0.00228   0.06104  -0.01111  -0.00047
  35        4PZ         0.00089  -0.00227   0.00027   0.00064   0.07550
  36        5S          0.09912  -0.00819   0.08185   0.03611  -0.00304
  37        5PX         0.01688   0.00405   0.02270   0.00103  -0.00073
  38        5PY        -0.01296   0.00923   0.00223  -0.00808   0.00014
  39        5PZ        -0.00131  -0.00025  -0.00159  -0.00006   0.00352
  40        6D 0       -0.01429  -0.00024   0.00867   0.00227  -0.00084
  41        6D+1       -0.00160  -0.00054   0.00123   0.00082   0.00718
  42        6D-1       -0.00127   0.00107  -0.00014   0.00049   0.00224
  43        6D+2        0.00043   0.00539  -0.00274  -0.00652   0.00070
  44        6D-2        0.02116  -0.01598   0.00037  -0.00622   0.00024
  45 3   C  1S         -0.01455  -0.08697   0.04659  -0.00915   0.00003
  46        2S         -0.02253  -0.13559   0.07312  -0.01376   0.00005
  47        2PX        -0.01960  -0.02727  -0.05707  -0.04873   0.01303
  48        2PY        -0.00157  -0.00082   0.06545  -0.11288   0.00128
  49        2PZ         0.00139   0.00200   0.00442   0.00519   0.16200
  50        3S          0.05807   0.36821  -0.20236   0.03361  -0.00011
  51        3PX        -0.03431  -0.03689  -0.09074  -0.07675   0.01924
  52        3PY         0.00175   0.01320   0.09070  -0.17313   0.00200
  53        3PZ         0.00247   0.00273   0.00700   0.00803   0.23832
  54        4S          0.04803   0.21700  -0.13407   0.04501  -0.00005
  55        4PX        -0.01551  -0.00292  -0.05254  -0.01273   0.01252
  56        4PY         0.00190  -0.00020   0.05506  -0.08032   0.00115
  57        4PZ         0.00105   0.00027   0.00384   0.00251   0.15866
  58        5S         -0.07726   0.02916  -0.07984  -0.02455   0.00290
  59        5PX         0.01763  -0.00988   0.01366   0.01341   0.00073
  60        5PY        -0.00944  -0.00658  -0.00521  -0.00470   0.00057
  61        5PZ        -0.00131   0.00069  -0.00104  -0.00079   0.01782
  62        6D 0       -0.00213  -0.00245  -0.00757   0.01584  -0.00096
  63        6D+1       -0.00064  -0.00019  -0.00116   0.00107   0.00578
  64        6D-1        0.00031   0.00033   0.00084   0.00178  -0.00638
  65        6D+2        0.00507  -0.00212   0.00186   0.01467   0.00029
  66        6D-2       -0.00441  -0.00487  -0.01101  -0.02467  -0.00007
  67 4   H  1S          0.02418   0.03516   0.09036   0.01918   0.06230
  68        2S          0.03555   0.04085   0.11402   0.02245   0.08551
  69        3S         -0.00955   0.00047   0.01756   0.00822   0.02990
  70        4PX        -0.00125   0.00322   0.00072  -0.00118   0.00191
  71        4PY        -0.00638  -0.00373  -0.00563  -0.00221  -0.00627
  72        4PZ        -0.00637  -0.00596  -0.01276  -0.00172  -0.00243
  73 5   H  1S          0.02415   0.03520   0.09038   0.01772  -0.06239
  74        2S          0.03557   0.04087   0.11410   0.02042  -0.08545
  75        3S         -0.00951   0.00048   0.01775   0.00767  -0.02966
  76        4PX        -0.00037   0.00401   0.00249  -0.00103  -0.00217
  77        4PY        -0.00649  -0.00383  -0.00586  -0.00209   0.00639
  78        4PZ         0.00637   0.00539   0.01243   0.00179  -0.00199
  79 6   O  1S          0.01078   0.02888  -0.01476   0.02040  -0.00002
  80        2S          0.01731   0.04659  -0.02390   0.03332  -0.00003
  81        2PX        -0.00794  -0.08710   0.02187   0.21433   0.00424
  82        2PY         0.00249  -0.02019   0.05172  -0.00932  -0.00067
  83        2PZ         0.00052   0.00590  -0.00135  -0.01339   0.09851
  84        3S         -0.05087  -0.13979   0.07213  -0.10357   0.00013
  85        3PX        -0.01210  -0.12795   0.03259   0.30955   0.00628
  86        3PY         0.00376  -0.03015   0.07546  -0.00989  -0.00099
  87        3PZ         0.00078   0.00868  -0.00202  -0.01935   0.14474
  88        4S         -0.04049  -0.12091   0.07051  -0.13673   0.00022
  89        4PX        -0.00472  -0.06865   0.01425   0.20765   0.00564
  90        4PY         0.00232  -0.01870   0.05706  -0.00780  -0.00071
  91        4PZ         0.00031   0.00469  -0.00082  -0.01289   0.11794
  92        5S          0.00391  -0.02782   0.02746  -0.01211  -0.00141
  93        5PX         0.00392   0.00723   0.01775   0.01395  -0.00043
  94        5PY        -0.00097   0.00212  -0.00462  -0.00279   0.00033
  95        5PZ        -0.00025  -0.00054  -0.00119  -0.00087   0.00739
  96        6D 0        0.00052   0.00001   0.00144  -0.00248   0.00047
  97        6D+1        0.00006   0.00019  -0.00033  -0.00045  -0.00323
  98        6D-1       -0.00007  -0.00070   0.00023   0.00108  -0.00973
  99        6D+2       -0.00015  -0.00404   0.00731   0.00395  -0.00035
 100        6D-2        0.00113   0.01008  -0.00318  -0.01750  -0.00049
 101 7   H  1S          0.00859   0.06543  -0.07175   0.05199  -0.10234
 102        2S          0.00825   0.07991  -0.09066   0.06188  -0.12822
 103        3S          0.00027  -0.00265  -0.01091   0.02027  -0.03851
 104        4PX        -0.00126  -0.00237  -0.00154  -0.00240   0.00171
 105        4PY         0.00109   0.00749  -0.00348  -0.00184  -0.00837
 106        4PZ         0.00215   0.01115  -0.01016   0.00557  -0.00386
 107 8   H  1S          0.00853   0.06544  -0.07162   0.05400   0.10117
 108        2S          0.00823   0.07994  -0.09042   0.06431   0.12689
 109        3S          0.00030  -0.00267  -0.01076   0.02076   0.03807
 110        4PX        -0.00155  -0.00399  -0.00005  -0.00323  -0.00216
 111        4PY         0.00109   0.00751  -0.00347  -0.00166   0.00846
 112        4PZ        -0.00193  -0.01066   0.01026  -0.00523  -0.00347
 113 9   H  1S         -0.01313  -0.07391   0.01478   0.14146  -0.00126
 114        2S         -0.01045  -0.07872   0.02296   0.18985  -0.00182
 115        3S         -0.00412  -0.01185  -0.01575   0.05206   0.00049
 116        4PX         0.00246   0.01141  -0.00038  -0.01826   0.00073
 117        4PY        -0.00127  -0.00909   0.00766   0.01114  -0.00021
 118        4PZ        -0.00015  -0.00067  -0.00000   0.00118   0.00997
                          11        12        13        14        15
                           O         O         O         O         O
     Eigenvalues --    -0.39241  -0.35303  -0.32809  -0.31902  -0.26896
   1 1   O  1S          0.00059   0.00024  -0.01793   0.03059   0.00007
   2        2S          0.00100   0.00039  -0.02893   0.04946   0.00012
   3        2PX         0.04550   0.00647  -0.12291   0.11358   0.00088
   4        2PY        -0.04465   0.00029  -0.04157   0.16193   0.00063
   5        2PZ        -0.00318   0.08845   0.00765  -0.00739   0.01581
   6        3S         -0.00380  -0.00116   0.08242  -0.14373  -0.00037
   7        3PX         0.06561   0.00945  -0.17670   0.16052   0.00124
   8        3PY        -0.06600   0.00040  -0.05817   0.23138   0.00089
   9        3PZ        -0.00458   0.12962   0.01100  -0.01045   0.02276
  10        4S          0.00365  -0.00141   0.13596  -0.21092  -0.00037
  11        4PX         0.05440   0.00729  -0.12737   0.11454   0.00138
  12        4PY        -0.04704   0.00030  -0.03099   0.17156   0.00079
  13        4PZ        -0.00381   0.10007   0.00792  -0.00754   0.02238
  14        5S          0.00905  -0.00056   0.08734  -0.12845   0.00005
  15        5PX        -0.00128   0.00079  -0.02889   0.02686   0.00021
  16        5PY        -0.00368   0.00033  -0.01022   0.04154   0.00004
  17        5PZ         0.00013   0.01118   0.00189  -0.00166   0.00316
  18        6D 0       -0.00034  -0.00080   0.00421  -0.00680  -0.00008
  19        6D+1       -0.00061   0.00724   0.00090  -0.00051   0.00077
  20        6D-1       -0.00001   0.00805   0.00046  -0.00076   0.00189
  21        6D+2        0.00858   0.00050  -0.00714  -0.00388  -0.00000
  22        6D-2       -0.00034   0.00056  -0.00740   0.01183   0.00014
  23 2   C  1S          0.00392  -0.00005   0.01968  -0.00944   0.00015
  24        2S          0.00627  -0.00008   0.03170  -0.01568   0.00024
  25        2PX         0.08989   0.00991  -0.02421  -0.14845   0.00093
  26        2PY        -0.10092  -0.00099   0.12631  -0.05972   0.00023
  27        2PZ        -0.00631   0.16324   0.00174   0.00861   0.02922
  28        3S         -0.01422   0.00017  -0.09902   0.05253  -0.00061
  29        3PX         0.12917   0.01411  -0.03403  -0.22658   0.00119
  30        3PY        -0.14873  -0.00147   0.18962  -0.09786   0.00031
  31        3PZ        -0.00906   0.23472   0.00254   0.01324   0.03974
  32        4S         -0.06340   0.00058  -0.10461   0.03509  -0.00180
  33        4PX         0.07302   0.01182  -0.01693  -0.14345  -0.00089
  34        4PY        -0.07244  -0.00083   0.14431  -0.05179   0.00067
  35        4PZ        -0.00483   0.18177   0.00146   0.00826   0.01145
  36        5S         -0.00165   0.00391  -0.05520  -0.04434  -0.00661
  37        5PX         0.02741   0.00368  -0.01740  -0.01708  -0.00178
  38        5PY         0.00297  -0.00052   0.02304   0.00632   0.00085
  39        5PZ        -0.00185   0.03599   0.00120   0.00090   0.00311
  40        6D 0       -0.01047   0.00180   0.01464  -0.00916   0.00106
  41        6D+1       -0.00125  -0.01231   0.00212  -0.00062  -0.00797
  42        6D-1        0.00071   0.01470   0.00047  -0.00147   0.00837
  43        6D+2       -0.00065  -0.00086  -0.00405  -0.00176  -0.00053
  44        6D-2       -0.00777   0.00117  -0.01116   0.02072   0.00069
  45 3   C  1S         -0.00393   0.00015   0.00092   0.00823  -0.00002
  46        2S         -0.00576   0.00024   0.00200   0.01309  -0.00003
  47        2PX        -0.13985  -0.00514   0.03504   0.06228  -0.00704
  48        2PY        -0.00466  -0.00118  -0.10759  -0.07159  -0.00057
  49        2PZ         0.01084  -0.08194  -0.00172  -0.00308  -0.10503
  50        3S          0.01672  -0.00069  -0.01272  -0.03977   0.00002
  51        3PX        -0.21108  -0.00753   0.04698   0.08753  -0.00957
  52        3PY        -0.01039  -0.00177  -0.16026  -0.10579  -0.00083
  53        3PZ         0.01632  -0.11942  -0.00230  -0.00433  -0.14295
  54        4S          0.02385  -0.00112   0.01631  -0.02740   0.00072
  55        4PX        -0.15703  -0.00617   0.02938   0.05319  -0.00688
  56        4PY         0.01199  -0.00136  -0.10151  -0.07186  -0.00038
  57        4PZ         0.01187  -0.09429  -0.00164  -0.00250  -0.09818
  58        5S         -0.01192  -0.00360   0.08783   0.03984   0.00655
  59        5PX        -0.02304  -0.00079  -0.01635  -0.00863  -0.00236
  60        5PY        -0.00920  -0.00065  -0.00075  -0.00288   0.00080
  61        5PZ         0.00164  -0.02170   0.00126   0.00086  -0.01186
  62        6D 0        0.00376   0.00320   0.01882   0.00692  -0.00113
  63        6D+1        0.00092  -0.02375   0.00416   0.00170   0.01031
  64        6D-1        0.00112   0.00892   0.00080  -0.00091   0.03596
  65        6D+2       -0.00649  -0.00179  -0.02408  -0.00822   0.00044
  66        6D-2       -0.01529   0.00079  -0.01375   0.00796   0.00270
  67 4   H  1S         -0.05551   0.11049   0.04991  -0.01554   0.02844
  68        2S         -0.07512   0.14959   0.07059  -0.01645   0.05507
  69        3S         -0.03718   0.07713   0.04481  -0.01091   0.04721
  70        4PX         0.00538   0.00068  -0.00114  -0.00681   0.00161
  71        4PY        -0.00122  -0.00851   0.00365  -0.00201  -0.00204
  72        4PZ         0.00660  -0.00358  -0.00441   0.00050  -0.00113
  73 5   H  1S         -0.05644  -0.10971   0.05141  -0.01372  -0.02815
  74        2S         -0.07629  -0.14870   0.07292  -0.01369  -0.05433
  75        3S         -0.03731  -0.07682   0.04629  -0.00917  -0.04636
  76        4PX         0.00442  -0.00133  -0.00046  -0.00677  -0.00182
  77        4PY        -0.00101   0.00857   0.00346  -0.00214   0.00211
  78        4PZ        -0.00734  -0.00327   0.00463   0.00046  -0.00073
  79 6   O  1S         -0.02422  -0.00037  -0.01477  -0.01806   0.00000
  80        2S         -0.03940  -0.00060  -0.02397  -0.02947   0.00000
  81        2PX         0.01037  -0.00874  -0.00956  -0.05630   0.01673
  82        2PY         0.18212   0.00089   0.15999   0.08128   0.00165
  83        2PZ        -0.00050  -0.11904  -0.00028   0.00378   0.25464
  84        3S          0.11831   0.00183   0.06905   0.08948  -0.00001
  85        3PX         0.01654  -0.01270  -0.01120  -0.07959   0.02419
  86        3PY         0.26399   0.00124   0.23073   0.11512   0.00238
  87        3PZ        -0.00080  -0.17362  -0.00058   0.00536   0.36821
  88        4S          0.16009   0.00282   0.11801   0.14133   0.00011
  89        4PX         0.00895  -0.01107  -0.00889  -0.06053   0.02363
  90        4PY         0.21329   0.00087   0.19712   0.09781   0.00228
  91        4PZ        -0.00025  -0.15471  -0.00047   0.00421   0.35812
  92        5S          0.09519   0.00243   0.05214   0.05726  -0.00092
  93        5PX         0.03053  -0.00154   0.00747  -0.01252   0.00797
  94        5PY         0.02090  -0.00024   0.04822   0.02545   0.00103
  95        5PZ        -0.00194  -0.03035  -0.00076   0.00081   0.12594
  96        6D 0        0.00614  -0.00000   0.00565   0.00416  -0.00049
  97        6D+1       -0.00018  -0.00002   0.00042   0.00062   0.00533
  98        6D-1        0.00002   0.00906  -0.00003  -0.00033  -0.00850
  99        6D+2        0.01294  -0.00004   0.00340  -0.00238   0.00041
 100        6D-2        0.00027   0.00068   0.00163   0.00460  -0.00051
 101 7   H  1S         -0.00623   0.05990   0.06472   0.03332   0.09751
 102        2S         -0.00708   0.08135   0.09492   0.04932   0.16081
 103        3S         -0.00271   0.04519   0.05641   0.03029   0.12893
 104        4PX        -0.00672   0.00082   0.00341   0.00394  -0.00116
 105        4PY        -0.00109   0.00368  -0.00251  -0.00179   0.00622
 106        4PZ        -0.00099   0.00128   0.00536   0.00400   0.00305
 107 8   H  1S         -0.00560  -0.05883   0.06626   0.03589  -0.09643
 108        2S         -0.00609  -0.07975   0.09748   0.05326  -0.15912
 109        3S         -0.00234  -0.04474   0.05801   0.03296  -0.12751
 110        4PX        -0.00652  -0.00055   0.00254   0.00328   0.00170
 111        4PY        -0.00102  -0.00374  -0.00236  -0.00161  -0.00626
 112        4PZ         0.00193   0.00124  -0.00587  -0.00462   0.00271
 113 9   H  1S         -0.02536  -0.00104  -0.04598  -0.05946   0.00003
 114        2S         -0.03655  -0.00180  -0.07272  -0.09849  -0.00018
 115        3S         -0.04648  -0.00194  -0.04458  -0.05123   0.00063
 116        4PX         0.01141  -0.00065   0.01276   0.00936   0.00180
 117        4PY         0.01701  -0.00001   0.00968   0.00087   0.00021
 118        4PZ        -0.00072  -0.01341  -0.00086  -0.00052   0.02712
                          16        17        18        19        20
                           O         O         V         V         V
     Eigenvalues --    -0.17532  -0.17085   0.01339   0.02923   0.03846
   1 1   O  1S          0.00074   0.00001  -0.00273   0.02181  -0.00780
   2        2S          0.00129   0.00002  -0.00430   0.03632  -0.01299
   3        2PX         0.18818   0.01955   0.01284   0.00306   0.02089
   4        2PY        -0.18786  -0.00312   0.02278   0.01601  -0.01263
   5        2PZ        -0.01612   0.26597  -0.00067  -0.00023  -0.00145
   6        3S         -0.00578  -0.00008   0.01050  -0.12734   0.04566
   7        3PX         0.26881   0.02809   0.01908   0.00484   0.03241
   8        3PY        -0.26961  -0.00449   0.03069   0.02064  -0.02323
   9        3PZ        -0.02305   0.38200  -0.00104  -0.00040  -0.00224
  10        4S          0.01209  -0.00014   0.05600  -0.12489   0.03708
  11        4PX         0.27601   0.02740   0.01636  -0.02528   0.02932
  12        4PY        -0.26229  -0.00436   0.04485   0.01153   0.01404
  13        4PZ        -0.02341   0.37271  -0.00068   0.00169  -0.00194
  14        5S         -0.00559   0.00020  -0.23785  -1.63209   0.57960
  15        5PX         0.11761   0.01583  -0.00255  -0.32046   0.22854
  16        5PY        -0.13966  -0.00240  -0.02058  -0.28810  -0.06235
  17        5PZ        -0.01045   0.21371  -0.00032   0.01926  -0.01545
  18        6D 0        0.00031  -0.00079   0.00070   0.00016   0.00022
  19        6D+1       -0.00069   0.00725   0.00004  -0.00007  -0.00017
  20        6D-1       -0.00012   0.00587  -0.00005  -0.00000   0.00003
  21        6D+2        0.00998   0.00061   0.00064   0.00103   0.00267
  22        6D-2       -0.00009   0.00035   0.00062  -0.00041  -0.00075
  23 2   C  1S          0.00050   0.00001   0.00885   0.01238   0.02120
  24        2S          0.00090   0.00001   0.01466   0.02144   0.03458
  25        2PX        -0.03432  -0.00410   0.01260  -0.01212   0.00370
  26        2PY         0.03488   0.00064  -0.02635  -0.05612  -0.03334
  27        2PZ         0.00294  -0.05579  -0.00112   0.00003  -0.00053
  28        3S         -0.00802  -0.00004  -0.04519  -0.09586  -0.10380
  29        3PX        -0.04704  -0.00552   0.01401  -0.00107  -0.00021
  30        3PY         0.04619   0.00091  -0.04208  -0.07124  -0.06227
  31        3PZ         0.00399  -0.07577  -0.00138  -0.00113  -0.00050
  32        4S          0.01540   0.00002  -0.09058   0.17242  -0.29620
  33        4PX         0.00358  -0.00131   0.02596  -0.19703   0.09721
  34        4PY         0.05421   0.00022  -0.03705  -0.27784  -0.02781
  35        4PZ         0.00002  -0.01651  -0.00197   0.01088  -0.00664
  36        5S          0.34238  -0.00116   2.31049   0.10660  -2.55279
  37        5PX         0.13594  -0.00015   0.44601  -1.19704  -0.76441
  38        5PY         0.02257   0.00012  -0.28584  -0.04677   1.19814
  39        5PZ        -0.00968   0.00597  -0.03194   0.08747   0.06368
  40        6D 0        0.01059   0.00251  -0.00075   0.00403  -0.00840
  41        6D+1        0.00484  -0.02532  -0.00034   0.00024  -0.00084
  42        6D-1       -0.00011  -0.04298  -0.00080   0.00081   0.00026
  43        6D+2       -0.04752  -0.00238   0.00402   0.00239  -0.00268
  44        6D-2        0.00750  -0.00272   0.01227  -0.01333  -0.00132
  45 3   C  1S          0.02451   0.00010   0.01147   0.01155  -0.02106
  46        2S          0.03943   0.00016   0.01998   0.01896  -0.03445
  47        2PX         0.07818   0.00022   0.01064  -0.03780   0.01348
  48        2PY        -0.03820  -0.00027   0.06616   0.00896  -0.02071
  49        2PZ        -0.00558  -0.00327  -0.00105   0.00269  -0.00119
  50        3S         -0.11945  -0.00052  -0.09177  -0.05375   0.10344
  51        3PX         0.11601   0.00020   0.00348  -0.05356   0.02105
  52        3PY        -0.05359  -0.00038   0.08848   0.01856  -0.04387
  53        3PZ        -0.00823  -0.00554  -0.00076   0.00381  -0.00189
  54        4S         -0.22630  -0.00057   0.13120  -0.18777   0.30419
  55        4PX         0.09675  -0.00301   0.12918  -0.10684   0.10314
  56        4PY        -0.11494  -0.00076   0.25613  -0.00321  -0.00116
  57        4PZ        -0.00677  -0.05574  -0.01025   0.00764  -0.00862
  58        5S         -0.28615   0.00130   0.01613   2.37956   2.75616
  59        5PX         0.03856  -0.00090   1.29191  -0.87886  -0.93211
  60        5PY        -0.10876  -0.00033   0.16512   0.05977   1.22356
  61        5PZ        -0.00312  -0.01147  -0.09084   0.06551   0.07148
  62        6D 0       -0.00316  -0.00081   0.00380  -0.00020   0.01121
  63        6D+1       -0.00023   0.00579   0.00053  -0.00005   0.00114
  64        6D-1       -0.00044  -0.00527   0.00076  -0.00135  -0.00008
  65        6D+2       -0.00184   0.00034  -0.00087   0.00113   0.00412
  66        6D-2        0.00683  -0.00039  -0.01032   0.01740   0.00132
  67 4   H  1S          0.04422  -0.07910  -0.01313  -0.01046  -0.00639
  68        2S          0.07640  -0.14576   0.01091   0.03661   0.05642
  69        3S          0.06777  -0.21535  -0.21821  -0.22482  -0.24647
  70        4PX        -0.00203  -0.00209   0.00544  -0.00490  -0.00162
  71        4PY         0.00222   0.00267   0.00128   0.00349   0.00712
  72        4PZ        -0.00127  -0.00044   0.00474   0.01104   0.00416
  73 5   H  1S          0.04356   0.07955  -0.01343  -0.01022  -0.00641
  74        2S          0.07498   0.14662   0.01021   0.03643   0.05638
  75        3S          0.06604   0.21647  -0.21788  -0.22138  -0.24502
  76        4PX        -0.00185   0.00200   0.00480  -0.00638  -0.00217
  77        4PY         0.00224  -0.00263   0.00133   0.00364   0.00715
  78        4PZ         0.00157  -0.00074  -0.00541  -0.01014  -0.00378
  79 6   O  1S         -0.00538   0.00005   0.02766  -0.01200   0.01088
  80        2S         -0.00876   0.00009   0.04609  -0.01977   0.01830
  81        2PX        -0.02775   0.00138  -0.04951   0.00296   0.01787
  82        2PY        -0.01007  -0.00004   0.01998  -0.03834  -0.00916
  83        2PZ         0.00213   0.02094   0.00312   0.00001  -0.00147
  84        3S          0.02566  -0.00029  -0.15930   0.06389  -0.06716
  85        3PX        -0.03775   0.00196  -0.07072   0.00442   0.02891
  86        3PY        -0.01459  -0.00003   0.03401  -0.05660  -0.01771
  87        3PZ         0.00292   0.02941   0.00443  -0.00001  -0.00243
  88        4S          0.07047  -0.00045  -0.24275   0.14273  -0.04825
  89        4PX        -0.04489   0.00221  -0.09403   0.00792   0.01856
  90        4PY        -0.02832  -0.00002   0.05502  -0.07753   0.01727
  91        4PZ         0.00351   0.03759   0.00578  -0.00007  -0.00134
  92        5S          0.10773  -0.00158  -1.43379   0.15344  -0.62233
  93        5PX         0.00376  -0.00060   0.16026   0.01123   0.36395
  94        5PY        -0.02249   0.00087   0.31630  -0.10091  -0.02765
  95        5PZ         0.00018   0.00684  -0.01300  -0.00068  -0.02737
  96        6D 0        0.00071  -0.00016   0.00083   0.00157  -0.00053
  97        6D+1        0.00042   0.00128  -0.00011   0.00025   0.00010
  98        6D-1        0.00000  -0.00139  -0.00003   0.00011  -0.00007
  99        6D+2       -0.00489   0.00008   0.00297  -0.00057  -0.00235
 100        6D-2       -0.00015  -0.00012   0.00081  -0.00192   0.00120
 101 7   H  1S          0.00591  -0.00585  -0.01070  -0.00920   0.00582
 102        2S          0.01424  -0.02651   0.02770   0.03169  -0.05211
 103        3S         -0.01281  -0.05071  -0.18340  -0.28461   0.17587
 104        4PX         0.00252   0.00172   0.00678  -0.00872  -0.00165
 105        4PY        -0.00242  -0.00032  -0.00183  -0.00288   0.00797
 106        4PZ         0.00040  -0.00016  -0.01207  -0.00394   0.00200
 107 8   H  1S          0.00607   0.00599  -0.01077  -0.00903   0.00575
 108        2S          0.01417   0.02655   0.02860   0.03240  -0.05156
 109        3S         -0.01304   0.05055  -0.18562  -0.28477   0.17521
 110        4PX         0.00256  -0.00165   0.00854  -0.00806  -0.00192
 111        4PY        -0.00238   0.00024  -0.00185  -0.00294   0.00802
 112        4PZ        -0.00080   0.00004   0.01097   0.00520  -0.00171
 113 9   H  1S         -0.01898   0.00011   0.02243  -0.00799   0.00289
 114        2S         -0.04021   0.00040   0.12428  -0.02691   0.01056
 115        3S         -0.06154   0.00197   0.33432  -0.19452  -0.11674
 116        4PX         0.00060   0.00015   0.02170  -0.00810   0.00040
 117        4PY        -0.00505  -0.00001  -0.01167   0.00102   0.00202
 118        4PZ         0.00003   0.00301  -0.00133   0.00058  -0.00003
                          21        22        23        24        25
                           V         V         V         V         V
     Eigenvalues --     0.04947   0.07819   0.08282   0.08526   0.13531
   1 1   O  1S         -0.00009  -0.01294   0.00095  -0.00004   0.00560
   2        2S         -0.00015  -0.02167   0.00175  -0.00006   0.00974
   3        2PX        -0.00140  -0.03913  -0.02115  -0.00002  -0.01494
   4        2PY        -0.00001   0.03593   0.02446  -0.00055   0.02030
   5        2PZ        -0.01877   0.00307   0.00174  -0.01107   0.00063
   6        3S          0.00059   0.07872  -0.00984   0.00026  -0.04322
   7        3PX        -0.00237  -0.05960  -0.03265  -0.00067  -0.02217
   8        3PY         0.00009   0.05486   0.04369  -0.00092   0.03091
   9        3PZ        -0.03306   0.00466   0.00253  -0.02536   0.00110
  10        4S         -0.00008   0.04486   0.02279   0.00012   0.05394
  11        4PX        -0.00046  -0.04035  -0.02951   0.00353  -0.02238
  12        4PY        -0.00059   0.05502  -0.00419  -0.00003   0.02024
  13        4PZ         0.00048   0.00343   0.00314   0.02943   0.00008
  14        5S          0.00613   1.05167  -0.83310   0.02085  -1.96841
  15        5PX        -0.00926  -0.13266  -0.41204  -0.01227  -0.44045
  16        5PY         0.00290   0.30513   0.16275  -0.00036  -0.18409
  17        5PZ        -0.16905   0.01128   0.02345  -0.32577   0.03199
  18        6D 0        0.00031   0.00051   0.00246   0.00038   0.00250
  19        6D+1       -0.00290   0.00011   0.00036  -0.00370   0.00028
  20        6D-1       -0.00300   0.00017  -0.00016  -0.00139  -0.00024
  21        6D+2       -0.00023  -0.00096  -0.00196  -0.00023   0.00072
  22        6D-2       -0.00020  -0.00266   0.00158  -0.00009   0.00261
  23 2   C  1S         -0.00001   0.01157   0.00564  -0.00016   0.01145
  24        2S         -0.00003   0.01867   0.00883  -0.00025   0.01903
  25        2PX        -0.00458   0.02863  -0.01842  -0.00359  -0.00296
  26        2PY         0.00075  -0.01466   0.00191   0.00058  -0.04420
  27        2PZ        -0.06559  -0.00228  -0.00019  -0.05710   0.00021
  28        3S          0.00033  -0.04919  -0.02329   0.00073  -0.05759
  29        3PX        -0.00756   0.04122  -0.01661  -0.00704   0.00498
  30        3PY         0.00115  -0.03776   0.00249   0.00104  -0.06477
  31        3PZ        -0.10820  -0.00351  -0.00148  -0.10382  -0.00045
  32        4S         -0.00186  -0.25826  -0.12031   0.00180  -0.03208
  33        4PX        -0.01341   0.12117  -0.14994  -0.00367  -0.10376
  34        4PY         0.00141   0.05799  -0.06241   0.00375  -0.17935
  35        4PZ        -0.18397  -0.00786   0.00760  -0.11822   0.00640
  36        5S         -0.01919   2.56791   2.12330  -0.05907  36.40774
  37        5PX         0.05132   2.63336   1.74695   0.13983   9.80457
  38        5PY        -0.00744   1.83220  -1.47039   0.01047  -4.34140
  39        5PZ         0.78718  -0.16755  -0.07805   2.63152  -0.72519
  40        6D 0        0.00009  -0.00895   0.01581  -0.00079   0.00499
  41        6D+1       -0.00172  -0.00147   0.00180   0.00298   0.00053
  42        6D-1       -0.00524  -0.00038  -0.00085  -0.00622  -0.00006
  43        6D+2       -0.00023   0.00751   0.00395   0.00009   0.00090
  44        6D-2       -0.00031   0.00511   0.00695  -0.00058  -0.00192
  45 3   C  1S          0.00001   0.01330   0.00856  -0.00032  -0.01044
  46        2S          0.00001   0.02163   0.01375  -0.00051  -0.01769
  47        2PX        -0.00503  -0.04039   0.01937   0.00402  -0.00635
  48        2PY        -0.00008   0.01521   0.01255  -0.00018  -0.04976
  49        2PZ        -0.06856   0.00335  -0.00042   0.05549   0.00009
  50        3S          0.00002  -0.05851  -0.03968   0.00140   0.05826
  51        3PX        -0.00888  -0.06611   0.01855   0.00799   0.00510
  52        3PY        -0.00003   0.02898   0.01203  -0.00021  -0.06858
  53        3PZ        -0.12008   0.00559   0.00069   0.10559  -0.00076
  54        4S         -0.00003  -0.31626  -0.16122   0.00664  -0.00810
  55        4PX        -0.01408  -0.10134   0.09241   0.00801  -0.15296
  56        4PY         0.00057  -0.00329   0.17596  -0.00293  -0.28396
  57        4PZ        -0.19843   0.00793  -0.00554   0.12441   0.01023
  58        5S          0.00294  -2.47155  -0.81884   0.03287 -36.33156
  59        5PX         0.06252  -0.62847  -0.60537  -0.16373   9.29534
  60        5PY         0.00032  -2.27325   1.08826  -0.00242  -4.36199
  61        5PZ         0.87877   0.02608  -0.00566  -2.53425  -0.68907
  62        6D 0        0.00010  -0.00669   0.01717  -0.00107  -0.00322
  63        6D+1       -0.00111  -0.00110   0.00205   0.00600  -0.00063
  64        6D-1        0.00540  -0.00034  -0.00059  -0.00614  -0.00019
  65        6D+2       -0.00018   0.00260   0.00379   0.00037   0.00275
  66        6D-2        0.00040   0.00582   0.00607  -0.00073   0.00023
  67 4   H  1S         -0.00845  -0.00926   0.01029  -0.01817   0.00119
  68        2S          0.07802   0.04303   0.02960   0.05162   0.10741
  69        3S         -0.26712  -0.47577  -0.13373  -0.42678  -0.73309
  70        4PX        -0.00095   0.00458   0.00792  -0.00385   0.00193
  71        4PY         0.00155   0.00604  -0.00501   0.00321   0.00204
  72        4PZ         0.00491   0.00010   0.00744   0.00465   0.00822
  73 5   H  1S          0.00862  -0.00886   0.01118   0.01768   0.00126
  74        2S         -0.07774   0.04327   0.02739  -0.05367   0.10660
  75        3S          0.27107  -0.47032  -0.11196   0.43415  -0.72760
  76        4PX         0.00170   0.00447   0.00692   0.00409   0.00082
  77        4PY        -0.00162   0.00603  -0.00512  -0.00313   0.00237
  78        4PZ         0.00484  -0.00060  -0.00829   0.00438  -0.00847
  79 6   O  1S         -0.00009  -0.00956   0.00275   0.00004  -0.00510
  80        2S         -0.00016  -0.01604   0.00482   0.00007  -0.00906
  81        2PX        -0.00159   0.03314   0.03423   0.00049  -0.02212
  82        2PY         0.00024  -0.04141  -0.02790   0.00090   0.01920
  83        2PZ        -0.02133  -0.00227  -0.00191   0.01354   0.00211
  84        3S          0.00059   0.05983  -0.02126  -0.00021   0.04485
  85        3PX        -0.00285   0.04931   0.05079   0.00131  -0.03044
  86        3PY         0.00029  -0.06234  -0.04627   0.00142   0.02782
  87        3PZ        -0.03749  -0.00336  -0.00271   0.02897   0.00282
  88        4S          0.00047   0.04528   0.00569  -0.00038  -0.08082
  89        4PX         0.00025   0.02286   0.06135  -0.00155  -0.08533
  90        4PY         0.00064  -0.05890  -0.01414   0.00086   0.03713
  91        4PZ        -0.00629  -0.00166  -0.00409  -0.01793   0.00745
  92        5S         -0.00559   1.29725  -0.12600  -0.00004   2.04892
  93        5PX        -0.01788   0.49260   0.82169   0.00483  -0.28149
  94        5PY         0.00233  -0.44412  -0.28645   0.00606  -0.43811
  95        5PZ        -0.13512  -0.03138  -0.05070   0.25402   0.01765
  96        6D 0       -0.00029   0.00118   0.00383   0.00032  -0.00186
  97        6D+1        0.00204   0.00014   0.00059  -0.00312  -0.00016
  98        6D-1        0.00357   0.00030  -0.00015  -0.00165   0.00018
  99        6D+2        0.00019  -0.00089  -0.00267  -0.00017  -0.00070
 100        6D-2        0.00024  -0.00403   0.00163  -0.00010  -0.00253
 101 7   H  1S          0.00872  -0.00655   0.01143  -0.01608  -0.00217
 102        2S         -0.09058   0.05696   0.05916   0.05712  -0.11307
 103        3S          0.27978  -0.36832  -0.13339  -0.38494   0.59505
 104        4PX        -0.00125  -0.00432  -0.00603   0.00425   0.00043
 105        4PY         0.00113  -0.00763   0.00461  -0.00266   0.00214
 106        4PZ         0.00475  -0.00106  -0.00905  -0.00387   0.00789
 107 8   H  1S         -0.00855  -0.00666   0.01202   0.01568  -0.00200
 108        2S          0.09058   0.05572   0.05710  -0.05992  -0.11384
 109        3S         -0.27555  -0.36486  -0.11682   0.39223   0.60217
 110        4PX         0.00188  -0.00430  -0.00492  -0.00444  -0.00075
 111        4PY        -0.00121  -0.00756   0.00470   0.00260   0.00195
 112        4PZ         0.00442   0.00162   0.00974  -0.00359  -0.00776
 113 9   H  1S          0.00010  -0.00183  -0.01537   0.00005   0.01327
 114        2S         -0.00051   0.02826   0.00029  -0.00087   0.06481
 115        3S          0.01203  -0.95996  -1.04445   0.01503  -0.04716
 116        4PX         0.00021  -0.02131  -0.00796  -0.00027  -0.00248
 117        4PY        -0.00004   0.00234   0.00757  -0.00011  -0.00628
 118        4PZ         0.00211   0.00121   0.00048  -0.00765  -0.00003
                          26        27        28        29        30
                           V         V         V         V         V
     Eigenvalues --     0.14734   0.17660   0.17743   0.18988   0.19763
   1 1   O  1S          0.00939   0.00526  -0.00051   0.01047  -0.00017
   2        2S          0.01536   0.00846  -0.00082   0.01693  -0.00027
   3        2PX        -0.00100   0.02043   0.00668  -0.06131  -0.00287
   4        2PY         0.04422  -0.00851   0.00174  -0.05358   0.00172
   5        2PZ        -0.00031   0.00621   0.09625   0.00585  -0.05185
   6        3S         -0.04800  -0.02199   0.00205  -0.04765   0.00069
   7        3PX        -0.01600   0.01227   0.00846  -0.07911  -0.00332
   8        3PY         0.03940  -0.01653   0.00261  -0.06965   0.00221
   9        3PZ         0.00057   0.00758   0.10687   0.00711  -0.06175
  10        4S         -0.09172  -0.11511   0.01276  -0.19980   0.00421
  11        4PX         0.08149   0.08133   0.01995  -0.13056  -0.00985
  12        4PY         0.18469  -0.02549   0.00449  -0.11989   0.00468
  13        4PZ        -0.00639   0.01969   0.31978   0.01490  -0.16833
  14        5S          0.06147  -0.67919   0.01153   1.27989  -0.01126
  15        5PX        -0.42005  -0.75588  -0.00991   0.92375  -0.01569
  16        5PY        -0.64668  -0.46120   0.01341   0.66447  -0.00724
  17        5PZ         0.02626   0.00142  -0.59382  -0.07836  -0.07531
  18        6D 0       -0.00429  -0.00295   0.00018   0.00224  -0.00050
  19        6D+1       -0.00018  -0.00060  -0.00008   0.00037   0.00378
  20        6D-1       -0.00018  -0.00027   0.00226   0.00046   0.00055
  21        6D+2       -0.00420   0.00426  -0.00035  -0.00124   0.00031
  22        6D-2        0.00371   0.00632  -0.00014  -0.00623   0.00004
  23 2   C  1S         -0.01167  -0.02699   0.00206   0.00203   0.00016
  24        2S         -0.01718  -0.04209   0.00327   0.00107   0.00027
  25        2PX        -0.03234   0.02725  -0.00641  -0.03390   0.00899
  26        2PY         0.02285  -0.02407   0.00232   0.01032  -0.00111
  27        2PZ         0.00303  -0.00698  -0.06302   0.00220   0.11968
  28        3S          0.01061   0.07650  -0.00757   0.06682  -0.00152
  29        3PX        -0.01925   0.05803  -0.00785  -0.08935   0.00978
  30        3PY         0.03006  -0.01372   0.00241  -0.02832  -0.00059
  31        3PZ         0.00219  -0.00978  -0.07129   0.00537   0.11799
  32        4S          0.74971   1.31822  -0.07730  -1.17814   0.00710
  33        4PX        -0.13572   0.06064  -0.02408  -0.10534   0.05777
  34        4PY         0.36966  -0.28254   0.01980   0.36155  -0.00972
  35        4PZ         0.01564  -0.02103  -0.18097   0.01850   0.78922
  36        5S         -0.70475   5.89624  -0.34171   3.09229  -0.16920
  37        5PX         0.50168   1.19178  -0.06498   0.78676   0.00274
  38        5PY         0.82628  -0.78733   0.06286  -0.71581   0.00439
  39        5PZ        -0.02485  -0.10220  -0.08816  -0.05340   0.74874
  40        6D 0       -0.00620  -0.00043  -0.00096   0.01036  -0.00351
  41        6D+1       -0.00065   0.00101   0.00636   0.00222   0.02314
  42        6D-1       -0.00019   0.00042   0.01288   0.00252  -0.03361
  43        6D+2       -0.00006  -0.00495   0.00123  -0.00791   0.00139
  44        6D-2        0.00095   0.00730   0.00122  -0.03999  -0.00189
  45 3   C  1S         -0.02520  -0.00229   0.00023  -0.00124   0.00064
  46        2S         -0.03884  -0.00327   0.00028   0.00016   0.00100
  47        2PX         0.03105   0.03598   0.00438  -0.08201   0.00853
  48        2PY        -0.00380  -0.04073   0.00448  -0.06232  -0.00022
  49        2PZ        -0.00172   0.00435   0.08149   0.01007   0.11926
  50        3S          0.05581  -0.00529   0.00225  -0.06788  -0.00121
  51        3PX         0.01611   0.05752   0.00476  -0.13315   0.00851
  52        3PY        -0.00718  -0.04412   0.00644  -0.13262   0.00023
  53        3PZ        -0.00057   0.00314   0.08899   0.01391   0.11766
  54        4S          1.38280   0.19428  -0.04565   1.16297  -0.04098
  55        4PX         0.20307   0.35479  -0.00873  -0.42853   0.06616
  56        4PY        -0.21502  -0.36935   0.03003  -0.04471  -0.00624
  57        4PZ        -0.01253   0.00490   0.29817   0.05235   0.95468
  58        5S          0.95333  -4.26984   0.19596  -2.19479   0.14723
  59        5PX        -1.24339   2.86473  -0.22209   2.10453   0.02614
  60        5PY        -0.89026  -0.37596   0.00799   0.10218   0.03385
  61        5PZ         0.08750  -0.18124   0.09922  -0.12769   1.14453
  62        6D 0       -0.00856  -0.00430   0.00015  -0.01237   0.00338
  63        6D+1       -0.00081  -0.00177   0.00549  -0.00228  -0.02498
  64        6D-1       -0.00014   0.00338   0.02490  -0.00142   0.03494
  65        6D+2       -0.00518   0.02048  -0.00142   0.00783  -0.00201
  66        6D-2        0.00514  -0.01400   0.00206   0.03722   0.00237
  67 4   H  1S         -0.01509  -0.00600  -0.00200   0.01325  -0.05380
  68        2S         -0.07813   0.00381  -0.12002   0.05160  -0.04547
  69        3S         -0.36124  -0.22876   0.62042  -0.01536  -1.84759
  70        4PX         0.00078   0.00559   0.00394  -0.01665   0.00841
  71        4PY         0.00308   0.00286   0.01579  -0.01074  -0.01884
  72        4PZ        -0.00291  -0.00087   0.01038  -0.00094  -0.01173
  73 5   H  1S         -0.01467  -0.00510   0.00160   0.01529   0.05363
  74        2S         -0.07837   0.02290   0.11502   0.06213   0.04313
  75        3S         -0.34219  -0.31834  -0.59334   0.01060   1.85700
  76        4PX         0.00126   0.00495  -0.00247  -0.01683  -0.00934
  77        4PY         0.00326   0.00047  -0.01564  -0.01128   0.01942
  78        4PZ         0.00270   0.00174   0.01042   0.00350  -0.01026
  79 6   O  1S          0.01652  -0.01206   0.00145  -0.02957   0.00024
  80        2S          0.02694  -0.01956   0.00236  -0.04809   0.00039
  81        2PX        -0.02214   0.10006  -0.01495  -0.03903  -0.00210
  82        2PY        -0.03508  -0.03330   0.00542  -0.09646   0.00069
  83        2PZ         0.00077  -0.01516  -0.10878   0.00024  -0.01791
  84        3S         -0.07757   0.05458  -0.00648   0.13495  -0.00132
  85        3PX        -0.01673   0.12823  -0.01773  -0.04750  -0.00287
  86        3PY        -0.02511  -0.04085   0.00701  -0.13996   0.00084
  87        3PZ         0.00019  -0.01775  -0.11885   0.00079  -0.02310
  88        4S         -0.27487   0.25340  -0.03385   0.68705  -0.00367
  89        4PX        -0.15216   0.30654  -0.05084  -0.11061  -0.00642
  90        4PY        -0.14917  -0.10522   0.01572  -0.23755   0.00128
  91        4PZ         0.00821  -0.05135  -0.39199  -0.00199  -0.06038
  92        5S         -0.44790   0.88011  -0.02496  -0.65073  -0.00342
  93        5PX         0.51546   0.02709   0.04091   1.30049  -0.05434
  94        5PY         1.11578   0.03267  -0.03393   0.39863  -0.01767
  95        5PZ        -0.03518   0.07544   0.96404  -0.06803  -0.28880
  96        6D 0       -0.00705   0.00346   0.00034   0.00241   0.00071
  97        6D+1       -0.00069   0.00087  -0.00488   0.00045  -0.00543
  98        6D-1       -0.00048   0.00036   0.00473  -0.00022  -0.00197
  99        6D+2       -0.00340  -0.01363   0.00092  -0.00641  -0.00022
 100        6D-2        0.00702   0.00059   0.00020   0.00405  -0.00052
 101 7   H  1S         -0.01883  -0.01046   0.01443  -0.01218   0.05649
 102        2S         -0.08770  -0.08917  -0.08420  -0.06638   0.11463
 103        3S         -0.48706  -0.31795   1.02026  -0.24451   1.96019
 104        4PX        -0.00327   0.00767  -0.00146  -0.01540   0.01113
 105        4PY        -0.00486  -0.00039  -0.01999  -0.01321  -0.01557
[...]
     16  0.592700D+00
     17 -0.939561D-01  0.316068D+00
     18 -0.353942D-01  0.426799D-02  0.441131D-01
     19 -0.641657D-02 -0.248943D-01 -0.188166D-01  0.558664D-01
     20 -0.112075D-01 -0.241642D-01 -0.187695D-01 -0.531387D-02  0.137133D+00
     21 -0.321435D-02  0.856368D-03  0.930552D-02 -0.155655D-01  0.121908D+00
     22 -0.293005D-02 -0.248171D-01  0.206347D-01  0.264327D-02  0.174169D-04
     23 -0.819294D-02 -0.241773D-01  0.202119D-01 -0.200828D-02  0.104219D-01
     24  0.497667D-02  0.269992D-02  0.573315D-02 -0.650347D-02  0.138281D-01
     25 -0.429458D+00  0.163850D+00  0.269386D-01  0.139215D-02  0.119507D-02
     26  0.211506D+00 -0.129538D+00 -0.128969D-01 -0.198488D-03  0.176034D-03
     27  0.264954D-01 -0.979527D-02 -0.214235D-02 -0.623670D-03  0.635585D-03
               21            22            23            24            25 
     21  0.234915D+00
     22  0.283714D-02  0.640930D-01
     23 -0.136038D-01 -0.234232D-01  0.137373D+00
     24 -0.220544D-01  0.411496D-01 -0.120013D+00  0.226002D+00
     25 -0.707795D-03  0.160195D-02  0.109991D-02  0.580769D-03  0.450821D+00
     26 -0.432208D-03 -0.162467D-03  0.201260D-03  0.458533D-03 -0.173467D+00
     27  0.477330D-03  0.487370D-03 -0.790498D-03  0.347322D-03 -0.282261D-01
               26            27 
     26  0.124222D+00
     27  0.104223D-01  0.292798D-02
 Leave Link  716 at Fri Jun  2 11:14:28 2023, MaxMem=  7381975040 cpu:               0.1 elap:               1.3
 (Enter /software/commercial/gaussian/g16/AVX/g16/l103.exe)

 GradGradGradGradGradGradGradGradGradGradGradGradGradGradGradGradGradGrad
 Berny optimization.
 Search for a local minimum.
 Step number   1 out of a maximum of    2
 All quantities printed in internal units (Hartrees-Bohrs-Radians)
 Second derivative matrix not updated -- analytic derivatives used.
 ITU=  0
     Eigenvalues ---    0.00164   0.00279   0.01511   0.03058   0.04869
     Eigenvalues ---    0.06179   0.07475   0.07719   0.11385   0.11512
     Eigenvalues ---    0.14914   0.16383   0.20613   0.29198   0.42499
     Eigenvalues ---    0.56633   0.63126   0.63572   0.75355   0.77282
     Eigenvalues ---    1.02036
 Angle between quadratic step and forces=  87.30 degrees.
 Linear search not attempted -- first point.
 B after Tr=     0.000014   -0.000014    0.000435
         Rot=    1.000000    0.000012   -0.000022   -0.000001 Ang=   0.00 deg.
 Variable       Old X    -DE/DX   Delta X   Delta X   Delta X     New X
                                 (Linear)    (Quad)   (Total)
    X1        3.97241  -0.00003   0.00000   0.00006   0.00008   3.97249
    Y1       -1.42059   0.00006   0.00000  -0.00002  -0.00003  -1.42062
    Z1        0.23543  -0.00003   0.00000   0.00063   0.00092   0.23636
    X2        5.81427   0.00001   0.00000  -0.00000   0.00002   5.81429
    Y2        0.39927   0.00003   0.00000   0.00002   0.00002   0.39929
    Z2        0.12197   0.00001   0.00000  -0.00019  -0.00002   0.12195
    X3        8.48789  -0.00001   0.00000  -0.00003  -0.00002   8.48787
    Y3       -0.71456  -0.00002   0.00000  -0.00001  -0.00002  -0.71458
    Z3       -0.07544  -0.00001   0.00000  -0.00034  -0.00025  -0.07569
    X4        5.84774   0.00001   0.00000   0.00031   0.00040   5.84814
    Y4        1.67919  -0.00000   0.00000   0.00045   0.00049   1.67968
    Z4        1.80370   0.00001   0.00000  -0.00053  -0.00039   1.80331
    X5        5.61683   0.00001   0.00000  -0.00037  -0.00043   5.61640
    Y5        1.70764   0.00003   0.00000  -0.00041  -0.00046   1.70718
    Z5       -1.52650   0.00001   0.00000  -0.00049  -0.00034  -1.52684
    X6       10.32841   0.00006   0.00000   0.00004   0.00004  10.32845
    Y6        1.29933  -0.00007   0.00000  -0.00002  -0.00003   1.29930
    Z6       -0.20977   0.00003   0.00000   0.00029   0.00024  -0.20953
    X7        8.60953  -0.00001   0.00000   0.00008   0.00002   8.60955
    Y7       -1.90373   0.00001   0.00000   0.00040   0.00035  -1.90338
    Z7       -1.77116  -0.00002   0.00000  -0.00062  -0.00051  -1.77168
    X8        8.85777  -0.00002   0.00000  -0.00025  -0.00016   8.85761
    Y8       -1.90699  -0.00003   0.00000  -0.00043  -0.00039  -1.90739
    Z8        1.58150  -0.00002   0.00000  -0.00059  -0.00050   1.58100
    X9       11.98618  -0.00003   0.00000   0.00005   0.00005  11.98623
    Y9        0.55926  -0.00001   0.00000   0.00009   0.00008   0.55934
    Z9       -0.31320   0.00001   0.00000   0.00095   0.00085  -0.31234
         Item               Value     Threshold  Converged?
 Maximum Force            0.000071     0.000450     YES
 RMS     Force            0.000028     0.000300     YES
 Maximum Displacement     0.000924     0.001800     YES
 RMS     Displacement     0.000365     0.001200     YES
 Predicted change in Energy=-4.253065D-09
 Optimization completed.
    -- Stationary point found.
 GradGradGradGradGradGradGradGradGradGradGradGradGradGradGradGradGradGrad

 Leave Link  103 at Fri Jun  2 11:14:32 2023, MaxMem=  7381975040 cpu:               2.1 elap:               3.1
 (Enter /software/commercial/gaussian/g16/AVX/g16/l9999.exe)

 ----------------------------------------------------------------------

 Electric dipole moment (input orientation):
 (Debye = 10**-18 statcoulomb cm , SI units = C m)
                  (au)            (Debye)         (10**-30 SI)
   Tot        0.399257D+01      0.101481D+02      0.338504D+02
   x         -0.393745D+01     -0.100080D+02     -0.333831D+02
   y          0.619427D+00      0.157443D+01      0.525172D+01
   z         -0.231100D+00     -0.587399D+00     -0.195935D+01

 Dipole polarizability, Alpha (input orientation).
 (esu units = cm**3 , SI units = C**2 m**2 J**-1)
 Alpha(0;0):
               (au)            (10**-24 esu)      (10**-40 SI)
   iso        0.554080D+02      0.821062D+01      0.913555D+01
   aniso      0.106042D+02      0.157138D+01      0.174840D+01
   xx         0.572943D+02      0.849014D+01      0.944656D+01
   yx         0.343054D+01      0.508354D+00      0.565620D+00
   yy         0.592358D+02      0.877784D+01      0.976666D+01
   zx        -0.505185D+00     -0.748607D-01     -0.832938D-01
   zy        -0.170473D+00     -0.252615D-01     -0.281072D-01
   zz         0.496940D+02      0.736389D+01      0.819343D+01

 First dipole hyperpolarizability, Beta (input orientation).
 ||, _|_  parallel and perpendicular components, (z) with respect to z axis,
 vector components x,y,z.  Values do not include the 1/n! factor of 1/2.
 (esu units = statvolt**-1 cm**4 , SI units = C**3 m**3 J**-2)
 Beta(0;0,0):
               (au)            (10**-30 esu)      (10**-50 SI)
   || (z)    -0.174606D+02     -0.150846D+00     -0.559849D-01
   _|_(z)    -0.582019D+01     -0.502819D-01     -0.186616D-01
   x          0.144869D+04      0.125156D+02      0.464504D+01
   y         -0.151654D+02     -0.131018D+00     -0.486259D-01
   z         -0.873029D+02     -0.754229D+00     -0.279925D+00
   ||         0.290280D+03      0.250780D+01      0.930744D+00
   xxx        0.183929D+03      0.158900D+01      0.589741D+00
   xxy       -0.250512D+02     -0.216423D+00     -0.803231D-01
   yxy        0.220278D+03      0.190303D+01      0.706290D+00
   yyy        0.522514D+02      0.451411D+00      0.167537D+00
   xxz       -0.536952D+00     -0.463884D-02     -0.172166D-02
   yxz        0.234749D+00      0.202805D-02      0.752691D-03
   yyz       -0.131853D+02     -0.113911D+00     -0.422768D-01
   zxz        0.786918D+02      0.679836D+00      0.252314D+00
   zyz       -0.322554D+02     -0.278661D+00     -0.103422D+00
   zzz       -0.153787D+02     -0.132860D+00     -0.493097D-01

 ----------------------------------------------------------------------

 Dipole orientation:
     8         -0.12696829         -0.77568956         -4.15159583
     6         -0.00286420          1.31440674         -5.67911862
     6         -0.46488963          0.69385981         -8.47720983
     1          1.86242887          2.30614897         -5.61089025
     1         -1.40971010          2.81303139         -5.18599730
     8         -0.32981188          2.97605109         -9.97209686
     1         -2.33426389         -0.18208432         -8.68350751
     1          0.96355918         -0.66510111         -9.12288538
     1         -0.60560789          2.54016096        -11.71580903

 Electric dipole moment (dipole orientation):
 (Debye = 10**-18 statcoulomb cm , SI units = C m)
                  (au)            (Debye)         (10**-30 SI)
   Tot        0.399257D+01      0.101481D+02      0.338504D+02
   x          0.000000D+00      0.000000D+00      0.000000D+00
   y          0.000000D+00      0.000000D+00      0.000000D+00
   z          0.399257D+01      0.101481D+02      0.338504D+02

 Dipole polarizability, Alpha (dipole orientation).
 (esu units = cm**3 , SI units = C**2 m**2 J**-1)
 Alpha(0;0):
               (au)            (10**-24 esu)      (10**-40 SI)
   iso        0.554080D+02      0.821062D+01      0.913555D+01
   aniso      0.106042D+02      0.157138D+01      0.174840D+01
   xx         0.498952D+02      0.739370D+01      0.822660D+01
   yx         0.120954D+01      0.179235D+00      0.199426D+00
   yy         0.601177D+02      0.890853D+01      0.991207D+01
   zx         0.382030D+00      0.566110D-01      0.629882D-01
   zy        -0.304388D+01     -0.451057D+00     -0.501868D+00
   zz         0.562112D+02      0.832964D+01      0.926798D+01

 First dipole hyperpolarizability, Beta (dipole orientation).
 ||, _|_  parallel and perpendicular components, (z) with respect to z axis,
 vector components x,y,z.  Values do not include the 1/n! factor of 1/2.
 (esu units = statvolt**-1 cm**4 , SI units = C**3 m**3 J**-2)
 Beta(0;0,0):
               (au)            (10**-30 esu)      (10**-50 SI)
   || (z)    -0.285199D+03     -0.246390D+01     -0.914450D+00
   _|_(z)    -0.950663D+02     -0.821299D+00     -0.304817D+00
   x         -0.135402D+03     -0.116977D+01     -0.434149D+00
   y          0.234040D+03      0.202192D+01      0.750416D+00
   z         -0.142599D+04     -0.123195D+02     -0.457225D+01
   ||         0.290280D+03      0.250780D+01      0.930744D+00
   xxx       -0.388553D+02     -0.335679D+00     -0.124584D+00
   xxy       -0.174154D+02     -0.150456D+00     -0.558401D-01
   yxy        0.612361D+01      0.529032D-01      0.196345D-01
   yyy        0.153622D+03      0.132718D+01      0.492568D+00
   xxz       -0.856633D+02     -0.740064D+00     -0.274668D+00
   yxz       -0.208437D+02     -0.180073D+00     -0.668324D-01
   yyz       -0.185752D+03     -0.160475D+01     -0.595588D+00
   zxz       -0.124025D+02     -0.107148D+00     -0.397668D-01
   zyz       -0.581934D+02     -0.502746D+00     -0.186589D+00
   zzz       -0.203916D+03     -0.176168D+01     -0.653829D+00

 ----------------------------------------------------------------------
 Unable to Open any file for archive entry.
 1\1\GINC-NODE1713\Freq\RB3LYP\6-311+G(d,p)\C2H5O2(1-)\SVICCHI\02-Jun-2
 023\0\\#p freq=raman scale=0.967 pop=(nbo,full,hirshfeld) guess=read g
 eom=allcheck b3lyp/6-311+G(d,p) int=grid=ultrafine EmpiricalDispersion
 =GD3BJ SCRF=(Solvent=ethanol) scf=(xqc,intrep,maxconventionalcycle=350
 ) nosymm\\EG-H_dissociation-site_index-0.gjf\\-1,1\O,2.1021096968,-0.7
 517445581,0.1245865792\C,3.0767805215,0.2112860546,0.0645460045\C,4.49
 16004669,-0.3781312715,-0.0399194497\H,3.09448886,0.8885905132,0.95447
 84629\H,2.9722983013,0.9036430438,-0.8077873387\O,5.4655605421,0.68757
 69787,-0.111003671\H,4.5559681383,-1.0074097111,-0.9372596101\H,4.6873
 295208,-1.0091376593,0.8368943208\H,6.3428129525,0.2959476097,-0.16573
 72979\\Version=ES64L-G16RevC.01\HF=-229.8392821\RMSD=1.990e-09\RMSF=2.
 826e-05\ZeroPoint=0.0679926\Thermal=0.0731158\ETot=-229.7661663\HTot=-
 229.7652222\GTot=-229.798817\Dipole=3.369754,0.5368072,-0.2232546\Dipo
 leDeriv=-1.5363994,-0.4843034,0.039416,-0.4520732,-1.3979961,0.0308926
 ,0.0358047,0.0322618,-0.946621,0.9898814,0.5542892,-0.0191003,0.584155
 5,1.1825172,-0.039911,-0.0144167,-0.0362358,0.7150583,0.5859723,0.4530
 014,-0.0067819,0.4101327,0.7095696,-0.0270532,-0.0047491,-0.0309602,0.
 5021193,-0.0696977,-0.0712713,-0.0512981,-0.0671415,-0.3443632,-0.2669
 928,-0.0778698,-0.3564728,-0.3263455,-0.0571942,-0.0252783,0.0175838,-
 0.0291544,-0.3570189,0.2744362,0.0401896,0.3609614,-0.3286601,-1.07587
 95,-0.4412615,0.0284079,-0.4549469,-0.7336322,0.0289612,0.031661,0.030
 8409,-0.6821368,-0.0132718,-0.0235221,0.0268638,-0.0355146,-0.1400577,
 -0.1374951,0.0351763,-0.1933074,-0.185376,-0.0264828,0.0058234,-0.0500
 266,-0.014604,-0.1415555,0.1396627,-0.059496,0.1939245,-0.1714652,0.20
 30717,0.0325226,0.0149354,0.0591464,0.2225368,-0.0025006,0.0137,-0.001
 0125,0.4234269\Polar=57.2943371,3.4305446,59.2357883,-0.5051851,-0.170
 4733,49.6939697\PolarDeriv=-9.2975055,-1.2483925,7.9302488,0.4498902,0
 .0704312,0.5856571,-5.7189147,-1.8584133,3.7929092,0.6643248,0.1911,2.
 7752015,0.0562657,0.0034753,-0.4513595,-3.6531887,-1.5335587,0.4421154
 ,-3.2350792,1.1526017,-7.9739549,0.0452839,-1.8556109,0.0102065,10.186
 6682,-3.2264482,-21.7976605,-1.6305656,0.3242659,-11.7012147,0.1341784
 ,-1.77554,0.7006821,-2.2889475,-23.5073773,-0.0875279,-1.2196124,-6.24
 57202,3.6856473,-0.0593506,1.565058,0.2623996,-6.9034722,-4.2112478,7.
 5736224,1.2116794,0.2219984,9.7808067,-0.2176513,1.5079668,-0.3628804,
 -1.6306481,14.107981,0.2560008,0.7303167,1.6025231,0.6452419,2.2237811
 ,1.3796583,0.1119503,-1.3255007,1.7177644,8.9938374,1.1886598,6.700783
 3,3.3118973,1.3595153,2.1113584,8.717993,1.7530684,11.0677247,9.668303
 4,0.0094639,1.3728196,-0.5192591,-2.1035157,-0.0818346,-0.5859993,-1.5
 147418,0.7919865,9.4284336,-0.4761971,-6.9744594,3.4493039,-1.1011523,
 -0.7198482,-8.8811296,0.8215971,11.2332247,-9.608026,-1.6417572,5.6731
 314,-2.7134335,0.0768805,-0.347567,-0.7704067,9.2583232,2.5086482,3.90
 90011,-0.668084,-0.2035671,-0.2175217,0.017244,-0.4056866,0.09935,0.87
 24663,0.397776,-0.1337696,-0.3081209,-1.0517278,-1.5054207,-1.6957438,
 -1.0850551,-0.1968334,-0.3932042,1.0322477,-5.5000508,0.056706,-3.8640
 159,-3.5832709,-2.1484766,0.1484993,-4.5204851,1.2822476,-6.2150792,-8
 .2494225,0.6170777,-1.0429525,-0.8252393,1.9611575,0.3142815,0.475842,
 -0.502883,1.6306809,-5.5487724,-0.5266229,3.6990122,-3.4551774,2.60702
 18,-0.9400966,4.7367727,1.8892401,-6.2339584,7.803176,14.3452168,-0.21
 22828,1.2761695,-0.8983832,0.0406386,0.107184,-3.0862748,1.6147816,-0.
 85132,0.1800997,-0.0951174,-0.3600247,-0.706945,0.0698716,-0.0389433,0
 .9541647,0.6832672,-0.0908496\HyperPolar=183.9285411,-25.0511641,220.2
 777713,52.2514088,-0.5369516,0.2347493,-13.1852939,78.6918333,-32.2553
 943,-15.3787159\Quadrupole=-7.2756547,1.5112265,5.7644283,-2.9880913,-
 1.0267602,0.5223521\PG=C01 [X(C2H5O2)]\NImag=0\\0.20660138,0.15162430,
 0.19853726,-0.01174377,-0.00940835,0.04729897,-0.15498098,-0.08540016,
 0.00616000,0.41046691,-0.07350399,-0.15417249,0.00422436,-0.00998087,0
 .46939278,0.00688156,0.00577773,-0.07531668,0.00418558,0.00027836,0.49
 805697,-0.03070521,-0.01530143,0.00246365,-0.12711615,0.07061086,0.004
 18098,0.42234560,-0.03331425,0.00644534,0.00219738,0.04803119,-0.10214
 917,-0.00367844,-0.04867860,0.49090519,0.00225137,0.00116807,0.0027757
 5,0.00414590,-0.00536456,-0.07334408,0.01183456,0.00318488,0.58032964,
 -0.00603899,-0.02695909,-0.01959671,-0.04679131,0.00688293,0.00521824,
 -0.00534530,0.01827866,0.02542149,0.05671438,-0.02200351,-0.02875853,-
 0.01708063,0.01469752,-0.09751620,-0.07993252,0.00367814,-0.01045129,-
 0.01701544,0.00131546,0.12598562,-0.01360506,-0.01092260,0.01242056,0.
 01513192,-0.07537024,-0.17720356,-0.00155331,-0.00332337,-0.00620954,-
 0.00450920,0.10087721,0.19379211,-0.00096194,-0.02596396,0.02177274,-0
 .05175536,0.01839856,-0.02252661,-0.00873902,0.01909026,-0.02480440,0.
 00287388,0.00028219,0.00217397,0.06013795,-0.01963664,-0.02951503,0.01
 965800,0.02627913,-0.09980120,0.07818441,0.00608960,-0.01085137,0.0164
 0533,-0.00131562,0.00979954,-0.01167022,-0.01317388,0.12975580,0.01526
 210,0.01382188,0.00832274,-0.03162326,0.07516146,-0.16888627,0.0019117
 9,0.00083661,-0.00272438,-0.00630521,0.01236751,-0.02689182,0.02232014
 ,-0.10138947,0.18592796,-0.01833154,0.00167990,0.00137134,-0.01922888,
 -0.03904821,0.00152073,-0.12013435,-0.06088352,0.00446412,0.00189828,0
 .00019201,0.00070003,0.00190119,-0.00008959,-0.00091966,0.59270007,0.0
 0128804,0.00310253,-0.00007274,0.00104658,0.00597930,-0.00013960,-0.02
 185580,-0.15042218,0.00221567,-0.00010081,0.00173512,0.00100312,-0.000
 56011,0.00141673,-0.00103545,-0.09395615,0.31606839,0.00142562,-0.0000
 6953,0.00168390,0.00144524,0.00268049,0.00040637,0.00396510,0.00458718
 ,-0.06058790,-0.00061363,0.00083229,0.00073774,0.00041518,-0.00084399,
 0.00075050,-0.03539423,0.00426799,0.04411307,0.00298953,-0.00021596,-0
 .00199761,-0.00344404,0.01674064,0.02519706,-0.04905665,0.01417233,0.0
 1780787,-0.00567444,0.00256013,0.00101270,0.00170035,-0.00084220,-0.00
 051078,-0.00641657,-0.02489430,-0.01881660,0.05586639,-0.00046461,0.00
 227314,0.00205811,0.00130331,-0.00846620,-0.01337610,0.01258081,-0.116
 29431,-0.10555272,0.00243465,-0.00158198,-0.00085410,-0.00054525,0.000
 50231,0.00012282,-0.01120752,-0.02416424,-0.01876945,-0.00531387,0.137
 13337,0.00038331,0.00187848,0.00096564,-0.00227493,-0.00186179,-0.0029
 0369,0.01709312,-0.10779271,-0.22384462,0.00104153,-0.00072654,0.00158
 171,0.00040748,-0.00022557,0.00155798,-0.00321435,0.00085637,0.0093055
 2,-0.01556550,0.12190773,0.23491453,0.00317287,-0.00034781,0.00137320,
 -0.00667728,0.01700968,-0.02459538,-0.05782287,0.02988430,-0.04245231,
 0.00172851,-0.00082478,0.00050101,-0.00580945,0.00266394,0.00006469,-0
 .00293005,-0.02481713,0.02063470,0.00264327,0.00001742,0.00283714,0.06
 409304,-0.00108758,0.00227611,-0.00177375,0.00338205,-0.00851680,0.012
 91654,0.02828791,-0.11647454,0.10265104,-0.00056153,0.00050137,-0.0000
 6921,0.00250361,-0.00160541,0.00047072,-0.00819294,-0.02417731,0.02021
 189,-0.00200828,0.01042187,-0.01360376,-0.02342315,0.13737344,-0.00105
 161,-0.00216398,0.00108342,0.00283686,-0.00033892,0.00014365,-0.041629
 55,0.10493324,-0.21454475,-0.00043809,0.00031290,0.00155998,0.00007883
 ,0.00028318,0.00172926,0.00497667,0.00269992,0.00573315,-0.00650347,0.
 01382812,-0.02205440,0.04114958,-0.12001299,0.22600236,-0.00174513,0.0
 0088420,0.00019715,-0.00047290,-0.00710959,-0.00006216,-0.02342604,0.0
 1341963,0.00133141,0.00063499,0.00010284,0.00014795,0.00065239,0.00002
 526,-0.00019982,-0.42945816,0.16384967,0.02693862,0.00139215,0.0011950
 7,-0.00070779,0.00160195,0.00109991,0.00058077,0.45082076,-0.00290175,
 -0.00018834,0.00019761,0.00064125,-0.00475002,-0.00003037,-0.03541149,
 0.00929231,0.00230771,0.00002536,0.00028635,0.00032941,-0.00003144,0.0
 0029862,-0.00035607,0.21150603,-0.12953834,-0.01289688,-0.00019849,0.0
 0017603,-0.00043221,-0.00016247,0.00020126,0.00045853,-0.17346699,0.12
 422212,0.00019646,-0.00008170,0.00076571,-0.00000731,0.00059084,-0.000
 95271,0.00173365,-0.00094478,-0.00185013,-0.00021841,0.00036523,0.0002
 1282,0.00016267,-0.00040167,0.00021402,0.02649536,-0.00979527,-0.00214
 235,-0.00062367,0.00063558,0.00047733,0.00048737,-0.00079050,0.0003473
 2,-0.02822612,0.01042227,0.00292798\\0.00003330,-0.00006119,0.00002621
 ,-0.00001352,-0.00003375,-0.00000916,0.00001500,0.00001827,0.00001356,
 -0.00001484,0.00000110,-0.00001323,-0.00001257,-0.00002588,-0.00001395
 ,-0.00006323,0.00007104,-0.00002838,0.00001475,-0.00000760,0.00001711,
 0.00001516,0.00002603,0.00001593,0.00002595,0.00001198,-0.00000808\\\@
 The archive entry for this job was punched.


 ... IT IS NO ONE DREAME THAT
     CAN PLEASE THESE ALL ...

                -- BEN JONSON
 Job cpu time:       0 days  0 hours  6 minutes 10.0 seconds.
 Elapsed time:       0 days  0 hours  3 minutes 45.3 seconds.
 File lengths (MBytes):  RWF=     69 Int=      0 D2E=      0 Chk=      7 Scr=      1
 Normal termination of Gaussian 16 at Fri Jun  2 11:14:36 2023.
