 Entering Gaussian System, Link 0=g16
 Input=3ethyl45dimethylthiazolium-H_dissociation-site_index-1-freq.gjf
 Output=3ethyl45dimethylthiazolium-H_dissociation-site_index-1-freq.log
 Initial command:
 /software/commercial/gaussian/g16/AVX/g16/l1.exe "/scratch1/svicchi/G09-659722.pbs02/Gau-608255.inp" -scrdir="/scratch1/svicchi/G09-659722.pbs02/"
 Entering Link 1 = /software/commercial/gaussian/g16/AVX/g16/l1.exe PID=    608256.
  
 Copyright (c) 1988-2019, Gaussian, Inc.  All Rights Reserved.
  
 This is part of the Gaussian(R) 16 program.  It is based on
 the Gaussian(R) 09 system (copyright 2009, Gaussian, Inc.),
 the Gaussian(R) 03 system (copyright 2003, Gaussian, Inc.),
 the Gaussian(R) 98 system (copyright 1998, Gaussian, Inc.),
 the Gaussian(R) 94 system (copyright 1995, Gaussian, Inc.),
 the Gaussian 92(TM) system (copyright 1992, Gaussian, Inc.),
 the Gaussian 90(TM) system (copyright 1990, Gaussian, Inc.),
 the Gaussian 88(TM) system (copyright 1988, Gaussian, Inc.),
 the Gaussian 86(TM) system (copyright 1986, Carnegie Mellon
 University), and the Gaussian 82(TM) system (copyright 1983,
 Carnegie Mellon University). Gaussian is a federally registered
 trademark of Gaussian, Inc.
  
 This software contains proprietary and confidential information,
 including trade secrets, belonging to Gaussian, Inc.
  
 This software is provided under written license and may be
 used, copied, transmitted, or stored only in accord with that
 written license.
  
 The following legend is applicable only to US Government
 contracts under FAR:
  
                    RESTRICTED RIGHTS LEGEND
  
 Use, reproduction and disclosure by the US Government is
 subject to restrictions as set forth in subparagraphs (a)
 and (c) of the Commercial Computer Software - Restricted
 Rights clause in FAR 52.227-19.
  
 Gaussian, Inc.
 340 Quinnipiac St., Bldg. 40, Wallingford CT 06492
  
  
 ---------------------------------------------------------------
 Warning -- This program may not be used in any manner that
 competes with the business of Gaussian, Inc. or will provide
 assistance to any competitor of Gaussian, Inc.  The licensee
 of this program is prohibited from giving any competitor of
 Gaussian, Inc. access to this program.  By using this program,
 the user acknowledges that Gaussian, Inc. is engaged in the
 business of creating and licensing software in the field of
 computational chemistry and represents and warrants to the
 licensee that it is not a competitor of Gaussian, Inc. and that
 it will not use this program in any manner prohibited above.
 ---------------------------------------------------------------
  

 Cite this work as:
 Gaussian 16, Revision C.01,
 M. J. Frisch, G. W. Trucks, H. B. Schlegel, G. E. Scuseria, 
 M. A. Robb, J. R. Cheeseman, G. Scalmani, V. Barone, 
 G. A. Petersson, H. Nakatsuji, X. Li, M. Caricato, A. V. Marenich, 
 J. Bloino, B. G. Janesko, R. Gomperts, B. Mennucci, H. P. Hratchian, 
 J. V. Ortiz, A. F. Izmaylov, J. L. Sonnenberg, D. Williams-Young, 
 F. Ding, F. Lipparini, F. Egidi, J. Goings, B. Peng, A. Petrone, 
 T. Henderson, D. Ranasinghe, V. G. Zakrzewski, J. Gao, N. Rega, 
 G. Zheng, W. Liang, M. Hada, M. Ehara, K. Toyota, R. Fukuda, 
 J. Hasegawa, M. Ishida, T. Nakajima, Y. Honda, O. Kitao, H. Nakai, 
 T. Vreven, K. Throssell, J. A. Montgomery, Jr., J. E. Peralta, 
 F. Ogliaro, M. J. Bearpark, J. J. Heyd, E. N. Brothers, K. N. Kudin, 
 V. N. Staroverov, T. A. Keith, R. Kobayashi, J. Normand, 
 K. Raghavachari, A. P. Rendell, J. C. Burant, S. S. Iyengar, 
 J. Tomasi, M. Cossi, J. M. Millam, M. Klene, C. Adamo, R. Cammi, 
 J. W. Ochterski, R. L. Martin, K. Morokuma, O. Farkas, 
 J. B. Foresman, and D. J. Fox, Gaussian, Inc., Wallingford CT, 2019.
 
 ******************************************
 Gaussian 16:  ES64L-G16RevC.01  3-Jul-2019
                 2-Jun-2023 
 ******************************************
 %NProcShared=2
 Will use up to    2 processors via shared memory.
 %mem=55gb
 %chk=/scratch1/svicchi/G09-659722.pbs02/02-freq/3ethyl45dimethylthiazolium-H_dis
 sociation-site_index-1-freq.chk
 ----------------------------------------------------------------------
 #p freq=raman scale=0.967 pop=(nbo,full,hirshfeld) guess=read geom=all
 check b3lyp/6-311+G(d,p) int=grid=ultrafine EmpiricalDispersion=GD3BJ 
 SCRF=(Solvent=ethanol) scf=(xqc,intrep,maxconventionalcycle=350) nosym
 m
 ----------------------------------------------------------------------
 1/10=4,29=7,30=1,38=1,114=967000/1,3;
 2/12=2,15=1,40=1/2;
 3/5=4,6=6,7=111,11=2,14=-4,25=1,30=1,70=2201,71=2,72=4,74=-5,75=-5,116=-2,124=41,140=1/1,2,3;
 4/5=1/1;
 5/5=2,8=3,13=1,17=20,38=6,53=4,85=350,98=1/2,8;
 8/6=4,10=90,11=11/1;
 10/13=10,15=4,31=1/2;
 11/6=3,8=1,9=11,15=111,16=1,31=1/1,2,10;
 10/6=1,31=1/2;
 6/7=3,28=1,40=1,79=1/1,7;
 7/8=1,10=1,25=1,30=1/1,2,3,16;
 1/10=4,30=1/3;
 99//99;
 Leave Link    1 at Fri Jun  2 11:22:54 2023, MaxMem=  7381975040 cpu:               2.6 elap:               2.7
 (Enter /software/commercial/gaussian/g16/AVX/g16/l101.exe)
 Structure from the checkpoint file:  "/scratch1/svicchi/G09-659722.pbs02/02-freq/3ethyl45dimethylthiazolium-H_dissociation-site_index-1-freq.chk"
 ----------------------------------------------------------
 3ethyl45dimethylthiazolium-H_dissociation-site_index-1.gjf
 ----------------------------------------------------------
 Charge =  0 Multiplicity = 1
 No Z-Matrix found in chk file; cartesian coordinates used.
  N                                                -0.066017387460      0.103896067082      0.008484388711
  C                                                 1.269706644666      0.093785169836      0.142681749137
  C                                                -0.630609339419      0.082908575494     -1.290779533549
  C                                                 0.324531016331      0.054895563501     -2.252206691479
  S                                                 1.900754433086      0.057982553248     -1.466907499804
  C                                                -0.914247244417      0.056128231058      1.217061282132
  C                                                -1.267193565529     -1.374210154745      1.611156480280
  H                                                -1.883685554690     -1.368608720344      2.513059963015
  H                                                -1.823386899998     -1.885059773188      0.822384369057
  H                                                -0.358187148294     -1.944151189031      1.815347915935
  H                                                -1.810689290846      0.649248370130      1.036215571194
  H                                                -0.345066899992      0.541959916745      2.007075257992
  C                                                 0.181216802079      0.043603207382     -3.740219544901
  H                                                 0.711805023111     -0.804834319536     -4.180272856874
  H                                                 0.591997220249      0.954925610944     -4.183963173531
  C                                                -2.113048165970      0.131189375054     -1.481240505018
  H                                                -2.358648767433      0.074328063293     -2.540415955312
  H                                                -2.533424425797      1.063165885567     -1.092734429157
  H                                                -2.616713583872     -0.696904526140     -0.977335824171
  H                                                -0.866638865802     -0.028900906348     -4.033969963657
 Recover connectivity data from disk.
 ITRead=  0  0  0  0  0  0  0  0  0  0  0  0  0  0  0  0  0  0  0  0
 MicOpt= -1 -1 -1 -1 -1 -1 -1 -1 -1 -1 -1 -1 -1 -1 -1 -1 -1 -1 -1 -1
 NAtoms=     20 NQM=       20 NQMF=       0 NMMI=      0 NMMIF=      0
                NMic=       0 NMicF=      0.
                    Isotopes and Nuclear Properties:
 (Nuclear quadrupole moments (NQMom) in fm**2, nuclear magnetic moments (NMagM)
  in nuclear magnetons)

  Atom         1           2           3           4           5           6           7           8           9          10
 IAtWgt=          14          12          12          12          32          12          12           1           1           1
 AtmWgt=  14.0030740  12.0000000  12.0000000  12.0000000  31.9720718  12.0000000  12.0000000   1.0078250   1.0078250   1.0078250
 NucSpn=           2           0           0           0           0           0           0           1           1           1
 AtZEff=   4.5500000   3.6000000   3.6000000   3.6000000  13.6000000   3.6000000   3.6000000   1.0000000   1.0000000   1.0000000
 NQMom=    2.0440000   0.0000000   0.0000000   0.0000000   0.0000000   0.0000000   0.0000000   0.0000000   0.0000000   0.0000000
 NMagM=    0.4037610   0.0000000   0.0000000   0.0000000   0.0000000   0.0000000   0.0000000   2.7928460   2.7928460   2.7928460
 AtZNuc=   7.0000000   6.0000000   6.0000000   6.0000000  16.0000000   6.0000000   6.0000000   1.0000000   1.0000000   1.0000000

  Atom        11          12          13          14          15          16          17          18          19          20
 IAtWgt=           1           1          12           1           1          12           1           1           1           1
 AtmWgt=   1.0078250   1.0078250  12.0000000   1.0078250   1.0078250  12.0000000   1.0078250   1.0078250   1.0078250   1.0078250
 NucSpn=           1           1           0           1           1           0           1           1           1           1
 AtZEff=   1.0000000   1.0000000   3.6000000   1.0000000   1.0000000   3.6000000   1.0000000   1.0000000   1.0000000   1.0000000
 NQMom=    0.0000000   0.0000000   0.0000000   0.0000000   0.0000000   0.0000000   0.0000000   0.0000000   0.0000000   0.0000000
 NMagM=    2.7928460   2.7928460   0.0000000   2.7928460   2.7928460   0.0000000   2.7928460   2.7928460   2.7928460   2.7928460
 AtZNuc=   1.0000000   1.0000000   6.0000000   1.0000000   1.0000000   6.0000000   1.0000000   1.0000000   1.0000000   1.0000000
 Leave Link  101 at Fri Jun  2 11:22:56 2023, MaxMem=  7381975040 cpu:               0.2 elap:               1.1
 (Enter /software/commercial/gaussian/g16/AVX/g16/l103.exe)

 GradGradGradGradGradGradGradGradGradGradGradGradGradGradGradGradGradGrad
 Berny optimization.
 Initialization pass.
 Trust Radius=3.00D-01 FncErr=1.00D-07 GrdErr=1.00D-07 EigMax=2.50D+02 EigMin=1.00D-04
 Number of steps in this run=      2 maximum allowed number of steps=      2.
 GradGradGradGradGradGradGradGradGradGradGradGradGradGradGradGradGradGrad

 Leave Link  103 at Fri Jun  2 11:22:59 2023, MaxMem=  7381975040 cpu:               0.1 elap:               1.4
 (Enter /software/commercial/gaussian/g16/AVX/g16/l202.exe)
                          Input orientation:                          
 ---------------------------------------------------------------------
 Center     Atomic      Atomic             Coordinates (Angstroms)
 Number     Number       Type             X           Y           Z
 ---------------------------------------------------------------------
      1          7           0       -0.066017    0.103896    0.008484
      2          6           0        1.269707    0.093785    0.142682
      3          6           0       -0.630609    0.082909   -1.290780
      4          6           0        0.324531    0.054896   -2.252207
      5         16           0        1.900754    0.057983   -1.466907
      6          6           0       -0.914247    0.056128    1.217061
      7          6           0       -1.267194   -1.374210    1.611156
      8          1           0       -1.883686   -1.368609    2.513060
      9          1           0       -1.823387   -1.885060    0.822384
     10          1           0       -0.358187   -1.944151    1.815348
     11          1           0       -1.810689    0.649248    1.036216
     12          1           0       -0.345067    0.541960    2.007075
     13          6           0        0.181217    0.043603   -3.740220
     14          1           0        0.711805   -0.804834   -4.180273
     15          1           0        0.591997    0.954926   -4.183963
     16          6           0       -2.113048    0.131189   -1.481241
     17          1           0       -2.358649    0.074328   -2.540416
     18          1           0       -2.533424    1.063166   -1.092734
     19          1           0       -2.616714   -0.696905   -0.977336
     20          1           0       -0.866639   -0.028901   -4.033970
 ---------------------------------------------------------------------
                    Distance matrix (angstroms):
                    1          2          3          4          5
     1  N    0.000000
     2  C    1.342486   0.000000
     3  C    1.416789   2.380363   0.000000
     4  C    2.294701   2.574949   1.355515   0.000000
     5  S    2.459081   1.729243   2.537606   1.761018   0.000000
     6  C    1.477306   2.434207   2.523972   3.683801   3.889463
     7  C    2.489213   3.278306   3.309028   4.416051   4.643441
     8  H    3.427111   4.207276   4.259847   5.441539   5.674266
     9  H    2.776099   3.734307   3.124273   4.222569   4.783879
    10  H    2.746747   3.098554   3.719034   4.583371   4.459210
    11  H    2.097027   3.255116   2.669876   3.965620   4.515533
    12  H    2.064978   2.506854   3.341872   4.339018   4.164913
    13  C    3.757332   4.032896   2.580768   1.494941   2.850432
    14  H    4.356201   4.450473   3.307467   2.146289   3.085515
    15  H    4.328262   4.463262   3.259707   2.147854   3.146386
    16  C    2.531869   3.752539   1.495403   2.557734   4.014496
    17  H    3.428400   4.512688   2.132554   2.698684   4.392631
    18  H    2.867225   4.114579   2.149612   3.244826   4.562054
    19  H    2.849416   4.121152   2.156610   3.292631   4.606197
    20  H    4.123114   4.692914   2.755595   2.144898   3.775689
                    6          7          8          9         10
     6  C    0.000000
     7  C    1.525041   0.000000
     8  H    2.156223   1.092485   0.000000
     9  H    2.179568   1.092007   1.768825   0.000000
    10  H    2.160617   1.092163   1.773470   1.770954   0.000000
    11  H    1.090002   2.172632   2.501628   2.543345   3.072870
    12  H    1.088173   2.163048   2.504724   3.078855   2.493528
    13  C    5.076892   5.722352   6.735107   5.343738   5.925070
    14  H    5.702326   6.146648   7.201050   5.711450   6.195998
    15  H    5.678704   6.516508   7.508524   6.242044   6.730470
    16  C    2.953572   3.541838   4.272755   3.075037   4.272478
    17  H    4.025576   4.530463   5.276862   3.928630   5.200845
    18  H    2.995165   3.854240   4.397436   3.586623   4.715141
    19  H    2.877643   2.996705   3.629240   2.297841   3.802058
    20  H    5.251935   5.817023   6.759645   5.286291   6.175858
                   11         12         13         14         15
    11  H    0.000000
    12  H    1.761286   0.000000
    13  C    5.210454   5.792817   0.000000
    14  H    5.974034   6.419822   1.093168   0.000000
    15  H    5.754703   6.275156   1.093690   1.763837   0.000000
    16  C    2.587932   3.932281   3.220917   4.017550   3.911588
    17  H    3.663753   4.995285   2.809162   3.590229   3.490417
    18  H    2.286067   3.830063   3.926571   4.853229   4.397235
    19  H    2.552683   3.949921   4.001286   4.620551   4.827714
    20  H    5.201721   6.090332   1.090664   1.764926   1.765795
                   16         17         18         19         20
    16  C    0.000000
    17  H    1.088763   0.000000
    18  H    1.093725   1.761854   0.000000
    19  H    1.092400   1.761992   1.765815   0.000000
    20  H    2.845276   2.113635   3.552696   3.584969   0.000000
 Symmetry turned off by external request.
 Stoichiometry    C7H11NS
 Framework group  C1[X(C7H11NS)]
 Deg. of freedom    54
 Full point group                 C1      NOp   1
 Rotational constants (GHZ):           2.1801378           1.1410718           0.8126977
 Leave Link  202 at Fri Jun  2 11:23:01 2023, MaxMem=  7381975040 cpu:               0.0 elap:               1.1
 (Enter /software/commercial/gaussian/g16/AVX/g16/l301.exe)
 Standard basis: 6-311+G(d,p) (5D, 7F)
 Ernie: Thresh=  0.10000D-02 Tol=  0.10000D-05 Strict=F.
   272 basis functions,   426 primitive gaussians,   281 cartesian basis functions
    38 alpha electrons       38 beta electrons
       nuclear repulsion energy       529.1699648800 Hartrees.
 IExCor=  402 DFT=T Ex+Corr=B3LYP ExCW=0 ScaHFX=  0.200000
 ScaDFX=  0.800000  0.720000  1.000000  0.810000 ScalE2=  1.000000  1.000000
 IRadAn=      5 IRanWt=     -1 IRanGd=            0 ICorTp=0 IEmpDi=141
 NAtoms=   20 NActive=   20 NUniq=   20 SFac= 1.00D+00 NAtFMM=   60 NAOKFM=F Big=F
 Integral buffers will be    131072 words long.
 Raffenetti 2 integral format.
 Two-electron integral symmetry is turned off.
 R6Disp:  Grimme-D3(BJ) Dispersion energy=       -0.0365019956 Hartrees.
 Nuclear repulsion after empirical dispersion term =      529.1334628844 Hartrees.
 Force inversion solution in PCM.
 ------------------------------------------------------------------------------
 Polarizable Continuum Model (PCM)
 =================================
 Model                : PCM.
 Atomic radii         : UFF (Universal Force Field).
 Polarization charges : Total charges.
 Charge compensation  : None.
 Solution method      : Matrix inversion.
 Cavity type          : Scaled VdW (van der Waals Surface) (Alpha=1.100).
 Cavity algorithm     : GePol (No added spheres)
                        Default sphere list used, NSphG=   20.
                        Lebedev-Laikov grids with approx.  5.0 points / Ang**2.
                        Smoothing algorithm: York/Karplus (Gamma=1.0000).
                        Polarization charges: spherical gaussians, with
                                              point-specific exponents (IZeta= 3).
                        Self-potential: point-specific (ISelfS= 7).
                        Self-field    : sphere-specific E.n sum rule (ISelfD= 2).
 1st derivatives      : Analytical E(r).r(x)/FMM algorithm (CHGder, D1EAlg=3).
                        Cavity 1st derivative terms included.
 2nd derivatives      : Analytical E(r).r(xy)/FMM algorithm (CHGder, D2EAlg=3).
                        Cavity 2nd derivative terms included.
 Solvent              : Ethanol, Eps=  24.852000 Eps(inf)=   1.852593
 ------------------------------------------------------------------------------
 Spheres list:
 ISph  on   Nord     Re0    Alpha      Xe            Ye            Ze
    1   N      1    1.8300  1.100     -0.066017      0.103896      0.008484
    2   C      2    1.9255  1.100      1.269707      0.093785      0.142682
    3   C      3    1.9255  1.100     -0.630609      0.082909     -1.290780
    4   C      4    1.9255  1.100      0.324531      0.054896     -2.252207
    5   S      5    2.0175  1.100      1.900754      0.057983     -1.466907
    6   C      6    1.9255  1.100     -0.914247      0.056128      1.217061
    7   C      7    1.9255  1.100     -1.267194     -1.374210      1.611156
    8   H      8    1.4430  1.100     -1.883686     -1.368609      2.513060
    9   H      9    1.4430  1.100     -1.823387     -1.885060      0.822384
   10   H     10    1.4430  1.100     -0.358187     -1.944151      1.815348
   11   H     11    1.4430  1.100     -1.810689      0.649248      1.036216
   12   H     12    1.4430  1.100     -0.345067      0.541960      2.007075
   13   C     13    1.9255  1.100      0.181217      0.043603     -3.740220
   14   H     14    1.4430  1.100      0.711805     -0.804834     -4.180273
   15   H     15    1.4430  1.100      0.591997      0.954926     -4.183963
   16   C     16    1.9255  1.100     -2.113048      0.131189     -1.481241
   17   H     17    1.4430  1.100     -2.358649      0.074328     -2.540416
   18   H     18    1.4430  1.100     -2.533424      1.063166     -1.092734
   19   H     19    1.4430  1.100     -2.616714     -0.696905     -0.977336
   20   H     20    1.4430  1.100     -0.866639     -0.028901     -4.033970
 ------------------------------------------------------------------------------
 GePol: Number of generator spheres                  =      20
 GePol: Total number of spheres                      =      20
 GePol: Number of exposed spheres                    =      20 (100.00%)
 GePol: Number of points                             =    1637
 GePol: Average weight of points                     =       0.13
 GePol: Minimum weight of points                     =   0.75D-08
 GePol: Maximum weight of points                     =    0.20577
 GePol: Number of points with low weight             =     109
 GePol: Fraction of low-weight points (<1% of avg)   =       6.66%
 GePol: Cavity surface area                          =    210.622 Ang**2
 GePol: Cavity volume                                =    215.026 Ang**3
 Leave Link  301 at Fri Jun  2 11:23:03 2023, MaxMem=  7381975040 cpu:               1.0 elap:               1.6
 (Enter /software/commercial/gaussian/g16/AVX/g16/l302.exe)
 NPDir=0 NMtPBC=     1 NCelOv=     1 NCel=       1 NClECP=     1 NCelD=      1
         NCelK=      1 NCelE2=     1 NClLst=     1 CellRange=     0.0.
 One-electron integrals computed using PRISM.
 NBasis=   272 RedAO= T EigKep=  3.69D-06  NBF=   272
 NBsUse=   272 1.00D-06 EigRej= -1.00D+00 NBFU=   272
 Precomputing XC quadrature grid using
 IXCGrd= 4 IRadAn=           5 IRanWt=          -1 IRanGd=           0 AccXCQ= 0.00D+00.
 Generated NRdTot=       0 NPtTot=           0 NUsed=           0 NTot=          32
 NSgBfM=   281   281   281   281   281 MxSgAt=    20 MxSgA2=    20.
 Leave Link  302 at Fri Jun  2 11:23:06 2023, MaxMem=  7381975040 cpu:               1.7 elap:               2.3
 (Enter /software/commercial/gaussian/g16/AVX/g16/l303.exe)
 DipDrv:  MaxL=1.
 Leave Link  303 at Fri Jun  2 11:23:08 2023, MaxMem=  7381975040 cpu:               0.2 elap:               1.3
 (Enter /software/commercial/gaussian/g16/AVX/g16/l401.exe)
 Initial guess from the checkpoint file:  "/scratch1/svicchi/G09-659722.pbs02/02-freq/3ethyl45dimethylthiazolium-H_dissociation-site_index-1-freq.chk"
 B after Tr=     0.000000    0.000000    0.000000
         Rot=    1.000000    0.000000    0.000000    0.000000 Ang=   0.00 deg.
 Guess basis will be translated and rotated to current coordinates.
 JPrj=2 DoOrth=T DoCkMO=T.
 Leave Link  401 at Fri Jun  2 11:23:11 2023, MaxMem=  7381975040 cpu:               1.5 elap:               2.2
 (Enter /software/commercial/gaussian/g16/AVX/g16/l502.exe)
 Keep R1 ints in memory in canonical form, NReq=700476922.
 FoFCou: FMM=F IPFlag=           0 FMFlag=           0 FMFlg1=           0
         NFxFlg=           0 DoJE=F BraDBF=F KetDBF=F FulRan=T
         wScrn=  0.000000 ICntrl=       600 IOpCl=  0 I1Cent=           0 NGrid=           0
         NMat0=    1 NMatS0=  37128 NMatT0=    0 NMatD0=    1 NMtDS0=    0 NMtDT0=    0
 Symmetry not used in FoFCou.
 Two-electron integral symmetry not used.
 Closed shell SCF:
 Using DIIS extrapolation, IDIIS=  1040.
 NGot=  7381975040 LenX=  6692550025 LenY=  6692470623
 Requested convergence on RMS density matrix=1.00D-08 within 350 cycles.
 Requested convergence on MAX density matrix=1.00D-06.
 Requested convergence on             energy=1.00D-06.
 No special actions if energy rises.

 Cycle   1  Pass 1  IDiag  1:
 Inv3:  Mode=1 IEnd=     8039307.
 Iteration    1 A*A^-1 deviation from unit magnitude is 4.77D-15 for   1636.
 Iteration    1 A*A^-1 deviation from orthogonality  is 2.49D-15 for   1449   1207.
 Iteration    1 A^-1*A deviation from unit magnitude is 4.55D-15 for   1636.
 Iteration    1 A^-1*A deviation from orthogonality  is 2.04D-15 for   1631   1515.
 E= -726.424135509210    
 DIIS: error= 1.53D-08 at cycle   1 NSaved=   1.
 NSaved= 1 IEnMin= 1 EnMin= -726.424135509210     IErMin= 1 ErrMin= 1.53D-08
 ErrMax= 1.53D-08  0.00D+00 EMaxC= 1.00D-01 BMatC= 7.88D-14 BMatP= 7.88D-14
 IDIUse=1 WtCom= 1.00D+00 WtEn= 0.00D+00
 Coeff-Com:  0.100D+01
 Coeff:      0.100D+01
 Gap=     0.214 Goal=   None    Shift=    0.000
 RMSDP=8.93D-09 MaxDP=4.90D-07              OVMax= 2.62D-07

 Error on total polarization charges =  0.01894
 SCF Done:  E(RB3LYP) =  -726.424135509     A.U. after    1 cycles
            NFock=  1  Conv=0.89D-08     -V/T= 2.0029
 KE= 7.243097893254D+02 PE=-2.766210751446D+03 EE= 7.863433637269D+02
 Leave Link  502 at Fri Jun  2 11:23:51 2023, MaxMem=  7381975040 cpu:              66.0 elap:              38.7
 (Enter /software/commercial/gaussian/g16/AVX/g16/l508.exe)
 QCSCF skips out because SCF is already converged.
 Leave Link  508 at Fri Jun  2 11:23:53 2023, MaxMem=  7381975040 cpu:               0.0 elap:               1.1
 (Enter /software/commercial/gaussian/g16/AVX/g16/l801.exe)
 DoSCS=F DFT=T ScalE2(SS,OS)=  1.000000  1.000000
 Range of M.O.s used for correlation:     1   272
 NBasis=   272 NAE=    38 NBE=    38 NFC=     0 NFV=     0
 NROrb=    272 NOA=    38 NOB=    38 NVA=   234 NVB=   234

 **** Warning!!: The largest alpha MO coefficient is  0.15398919D+03

 Leave Link  801 at Fri Jun  2 11:23:56 2023, MaxMem=  7381975040 cpu:               0.7 elap:               2.0
 (Enter /software/commercial/gaussian/g16/AVX/g16/l1002.exe)
 Minotr:  Closed shell wavefunction.
 NEqPCM:  Using equilibrium solvation (IEInf=0, Eps=  24.8520, EpsInf=   1.8526)
          Direct CPHF calculation.
          Differentiating once with respect to electric field.
                with respect to dipole field.
          Electric field/nuclear overlap derivatives assumed to be zero.
          Requested convergence is 1.0D-08 RMS, and 1.0D-07 maximum.
          Secondary convergence is 1.0D-12 RMS, and 1.0D-12 maximum.
          NewPWx=F KeepS1=T KeepF1=T KeepIn=T MapXYZ=F SortEE=F KeepMc=T.
         6171 words used for storage of precomputed grid.
 Keep R1 ints in memory in canonical form, NReq=700485333.
 FoFCou: FMM=F IPFlag=           0 FMFlag=           0 FMFlg1=           0
         NFxFlg=           0 DoJE=F BraDBF=F KetDBF=F FulRan=T
         wScrn=  0.000000 ICntrl=       600 IOpCl=  0 I1Cent=           0 NGrid=           0
         NMat0=    1 NMatS0=  37128 NMatT0=    0 NMatD0=    1 NMtDS0=    0 NMtDT0=    0
 Symmetry not used in FoFCou.
 Two-electron integral symmetry not used.
          MDV=    7381975040 using IRadAn=       1.
          Solving linear equations simultaneously, MaxMat=       0.
          There are     3 degrees of freedom in the 1st order CPHF.  IDoFFX=0 NUNeed=     3.
      3 vectors produced by pass  0 Test12= 2.96D-13 3.33D-08 XBig12= 1.24D+02 6.00D+00.
 AX will form     3 AO Fock derivatives at one time.
      3 vectors produced by pass  1 Test12= 2.96D-13 3.33D-08 XBig12= 6.16D+01 2.52D+00.
      3 vectors produced by pass  2 Test12= 2.96D-13 3.33D-08 XBig12= 1.15D+01 6.97D-01.
      3 vectors produced by pass  3 Test12= 2.96D-13 3.33D-08 XBig12= 2.58D+00 3.14D-01.
      3 vectors produced by pass  4 Test12= 2.96D-13 3.33D-08 XBig12= 4.72D-01 1.17D-01.
      3 vectors produced by pass  5 Test12= 2.96D-13 3.33D-08 XBig12= 9.04D-02 4.76D-02.
      3 vectors produced by pass  6 Test12= 2.96D-13 3.33D-08 XBig12= 1.05D-02 1.41D-02.
      3 vectors produced by pass  7 Test12= 2.96D-13 3.33D-08 XBig12= 1.40D-03 5.61D-03.
      3 vectors produced by pass  8 Test12= 2.96D-13 3.33D-08 XBig12= 1.07D-04 1.44D-03.
      3 vectors produced by pass  9 Test12= 2.96D-13 3.33D-08 XBig12= 9.51D-06 2.97D-04.
      3 vectors produced by pass 10 Test12= 2.96D-13 3.33D-08 XBig12= 5.16D-07 1.19D-04.
      3 vectors produced by pass 11 Test12= 2.96D-13 3.33D-08 XBig12= 2.06D-08 3.53D-05.
      3 vectors produced by pass 12 Test12= 2.96D-13 3.33D-08 XBig12= 5.38D-10 4.64D-06.
      3 vectors produced by pass 13 Test12= 2.96D-13 3.33D-08 XBig12= 2.85D-11 9.17D-07.
      1 vectors produced by pass 14 Test12= 2.96D-13 3.33D-08 XBig12= 7.09D-13 2.06D-07.
 InvSVY:  IOpt=1 It=  1 EMax= 3.55D-15
 Solved reduced A of dimension    43 with     3 vectors.
 End of Minotr F.D. properties file   721 does not exist.
 End of Minotr F.D. properties file   722 does not exist.
 End of Minotr F.D. properties file   788 does not exist.
 Leave Link 1002 at Fri Jun  2 11:27:11 2023, MaxMem=  7381975040 cpu:             356.8 elap:             194.5
 (Enter /software/commercial/gaussian/g16/AVX/g16/l1101.exe)
 Using compressed storage, NAtomX=    20.
 Will process     21 centers per pass.
 R6Disp: Adding Grimme-D3(BJ) dispersion energy 1st derivatives to the gradient.
 Leave Link 1101 at Fri Jun  2 11:27:15 2023, MaxMem=  7381975040 cpu:               1.7 elap:               2.6
 (Enter /software/commercial/gaussian/g16/AVX/g16/l1102.exe)
 Symmetrizing basis deriv contribution to polar:
 IMax=3 JMax=2 DiffMx= 0.00D+00
 Leave Link 1102 at Fri Jun  2 11:27:18 2023, MaxMem=  7381975040 cpu:               0.5 elap:               1.5
 (Enter /software/commercial/gaussian/g16/AVX/g16/l1110.exe)
 Forming Gx(P) for the SCF density, NAtomX=    20.
 Integral derivatives from FoFJK, PRISM(SPDF).
 Do as many integral derivatives as possible in FoFJK.
 G2DrvN: MDV=    7381972844.
 G2DrvN: will do    21 centers at a time, making    1 passes.
 PxScal for G2LodP:  IOpCl= 0 ISclPx=1 IMOff=     1 NMtTot=     4 NTT=   37128 ScalPx= 9.14D+01
 Calling FoFCou, ICntrl=  3107 FMM=F I1Cent=   0 AccDes= 0.00D+00.
 FoFJK:  IHMeth= 1 ICntrl=    3107 DoSepK=F KAlg= 0 I1Cent=           0 FoldK=F
 IRaf=         0 NMat=       1 IRICut=       1 DoRegI=T DoRafI=F ISym2E= 0 IDoP0=0 IntGTp=1.
 FoFCou: FMM=F IPFlag=           0 FMFlag=      100000 FMFlg1=           0
         NFxFlg=           0 DoJE=F BraDBF=F KetDBF=F FulRan=T
         wScrn=  0.000000 ICntrl=      3107 IOpCl=  0 I1Cent=           0 NGrid=           0
         NMat0=    1 NMatS0=      1 NMatT0=    0 NMatD0=    4 NMtDS0=    3 NMtDT0=    0
 Symmetry not used in FoFCou.
 PxScal for G2LodP:  IOpCl= 0 ISclPx=0 IMOff=     1 NMtTot=     4 NTT=   37128 ScalPx= 1.00D+00
 NEqPCM:  Using equilibrium solvation (IEInf=0, Eps=  24.8520, EpsInf=   1.8526)
 G2PCM: DoFxE=T DoFxN=T DoGrad=T DoDP/DQ/DG/TGxP=TFFF NFrqRd=   0 IEInf=0 SqF1=F DoCFld=F IF1Alg=4.
 GePol: Maximum number of non-zero 1st derivatives   =     283
 End of G2Drv F.D. properties file   721 does not exist.
 End of G2Drv F.D. properties file   722 does not exist.
 End of G2Drv F.D. properties file   788 does not exist.
 Leave Link 1110 at Fri Jun  2 11:35:18 2023, MaxMem=  7381975040 cpu:             943.4 elap:             478.3
 (Enter /software/commercial/gaussian/g16/AVX/g16/l1002.exe)
 Minotr:  Closed shell wavefunction.
          IDoAtm=11111111111111111111
 NEqPCM:  Using equilibrium solvation (IEInf=0, Eps=  24.8520, EpsInf=   1.8526)
          Direct CPHF calculation.
          Differentiating once with respect to electric field.
                with respect to dipole field.
          Differentiating once with respect to nuclear coordinates.
          Requested convergence is 1.0D-08 RMS, and 1.0D-07 maximum.
          Secondary convergence is 1.0D-12 RMS, and 1.0D-12 maximum.
          NewPWx=T KeepS1=F KeepF1=F KeepIn=T MapXYZ=F SortEE=F KeepMc=T.
         6171 words used for storage of precomputed grid.
 Keep R1 ints in memory in canonical form, NReq=700485793.
 FoFCou: FMM=F IPFlag=           0 FMFlag=           0 FMFlg1=           0
         NFxFlg=           0 DoJE=F BraDBF=F KetDBF=F FulRan=T
         wScrn=  0.000000 ICntrl=       600 IOpCl=  0 I1Cent=           0 NGrid=           0
         NMat0=    1 NMatS0=  37128 NMatT0=    0 NMatD0=    1 NMtDS0=    0 NMtDT0=    0
 Symmetry not used in FoFCou.
 Two-electron integral symmetry not used.
          MDV=    7381975040 using IRadAn=       1.
          Solving linear equations simultaneously, MaxMat=       0.
          There are    63 degrees of freedom in the 1st order CPHF.  IDoFFX=5 NUNeed=    63.
 Will reuse    3 saved solutions.
     57 vectors produced by pass  0 Test12= 1.41D-14 1.59D-09 XBig12= 1.93D-01 1.30D-01.
 AX will form    57 AO Fock derivatives at one time.
     57 vectors produced by pass  1 Test12= 1.41D-14 1.59D-09 XBig12= 4.10D-02 6.60D-02.
     57 vectors produced by pass  2 Test12= 1.41D-14 1.59D-09 XBig12= 4.70D-04 4.90D-03.
     57 vectors produced by pass  3 Test12= 1.41D-14 1.59D-09 XBig12= 2.58D-06 2.63D-04.
     57 vectors produced by pass  4 Test12= 1.41D-14 1.59D-09 XBig12= 7.75D-09 7.32D-06.
     48 vectors produced by pass  5 Test12= 1.41D-14 1.59D-09 XBig12= 1.06D-11 3.17D-07.
     12 vectors produced by pass  6 Test12= 1.41D-14 1.59D-09 XBig12= 1.07D-14 1.25D-08.
 InvSVY:  IOpt=1 It=  1 EMax= 4.44D-16
 Solved reduced A of dimension   345 with    63 vectors.
 FullF1:  Do perturbations      1 to       3.
 Isotropic polarizability for W=    0.000000      145.66 Bohr**3.
 FullF1:  Do perturbations      1 to       6.
 End of Minotr F.D. properties file   721 does not exist.
 End of Minotr F.D. properties file   722 does not exist.
 End of Minotr F.D. properties file   788 does not exist.
 Leave Link 1002 at Fri Jun  2 11:43:42 2023, MaxMem=  7381975040 cpu:             963.6 elap:             502.7
 (Enter /software/commercial/gaussian/g16/AVX/g16/l601.exe)
 Copying SCF densities to generalized density rwf, IOpCl= 0 IROHF=0.

 **********************************************************************

            Population analysis using the SCF Density.

 **********************************************************************

 Alpha  occ. eigenvalues --  -88.87198 -14.38168 -10.22299 -10.21382 -10.20858
 Alpha  occ. eigenvalues --  -10.20264 -10.18177 -10.18017 -10.16832  -7.95885
 Alpha  occ. eigenvalues --   -5.92174  -5.91729  -5.91537  -0.99767  -0.84139
 Alpha  occ. eigenvalues --   -0.79223  -0.76278  -0.72305  -0.67968  -0.64524
 Alpha  occ. eigenvalues --   -0.59175  -0.53452  -0.49670  -0.46560  -0.45794
 Alpha  occ. eigenvalues --   -0.44151  -0.42778  -0.42006  -0.41179  -0.40894
 Alpha  occ. eigenvalues --   -0.39104  -0.37939  -0.36815  -0.36029  -0.34088
 Alpha  occ. eigenvalues --   -0.28174  -0.24279  -0.23851
 Alpha virt. eigenvalues --   -0.02480  -0.00021   0.01071   0.01609   0.01934
 Alpha virt. eigenvalues --    0.02433   0.02635   0.04042   0.04399   0.05104
 Alpha virt. eigenvalues --    0.05444   0.06503   0.06679   0.07691   0.07936
 Alpha virt. eigenvalues --    0.08479   0.08607   0.09233   0.09664   0.10264
 Alpha virt. eigenvalues --    0.10688   0.11804   0.12031   0.12659   0.13465
 Alpha virt. eigenvalues --    0.13805   0.14733   0.15863   0.16083   0.16651
 Alpha virt. eigenvalues --    0.16852   0.17568   0.17978   0.18947   0.19573
 Alpha virt. eigenvalues --    0.19901   0.20601   0.20827   0.21642   0.21845
 Alpha virt. eigenvalues --    0.22758   0.23113   0.24016   0.24276   0.24831
 Alpha virt. eigenvalues --    0.26086   0.26636   0.27401   0.28110   0.29268
 Alpha virt. eigenvalues --    0.29664   0.30266   0.31158   0.32378   0.33380
 Alpha virt. eigenvalues --    0.34410   0.35422   0.39424   0.40886   0.41340
 Alpha virt. eigenvalues --    0.41979   0.42357   0.44746   0.45901   0.46727
 Alpha virt. eigenvalues --    0.48734   0.49910   0.50575   0.51732   0.54747
 Alpha virt. eigenvalues --    0.55392   0.57401   0.57764   0.58754   0.59865
 Alpha virt. eigenvalues --    0.60012   0.61096   0.62307   0.63961   0.64611
 Alpha virt. eigenvalues --    0.65559   0.65955   0.66873   0.67647   0.69099
 Alpha virt. eigenvalues --    0.69467   0.71529   0.73232   0.73703   0.75577
 Alpha virt. eigenvalues --    0.76030   0.77411   0.78217   0.79450   0.80520
 Alpha virt. eigenvalues --    0.83934   0.86856   0.89372   0.91380   0.92905
 Alpha virt. eigenvalues --    0.93396   0.94755   0.96536   0.99397   1.00887
 Alpha virt. eigenvalues --    1.01684   1.05397   1.08204   1.10711   1.12198
 Alpha virt. eigenvalues --    1.14940   1.20748   1.22358   1.24964   1.26817
 Alpha virt. eigenvalues --    1.33836   1.34675   1.37348   1.37844   1.43859
 Alpha virt. eigenvalues --    1.44927   1.45012   1.45389   1.47222   1.48132
 Alpha virt. eigenvalues --    1.50620   1.53001   1.54071   1.55210   1.56093
 Alpha virt. eigenvalues --    1.56656   1.57794   1.59793   1.60658   1.61768
 Alpha virt. eigenvalues --    1.63230   1.65629   1.67952   1.69088   1.71446
 Alpha virt. eigenvalues --    1.72059   1.73307   1.75654   1.77387   1.78597
 Alpha virt. eigenvalues --    1.80997   1.82086   1.84745   1.85318   1.90977
 Alpha virt. eigenvalues --    1.91898   1.97112   1.97874   2.00409   2.01339
 Alpha virt. eigenvalues --    2.02975   2.04539   2.05397   2.07637   2.10762
 Alpha virt. eigenvalues --    2.14555   2.16342   2.22579   2.23210   2.25776
 Alpha virt. eigenvalues --    2.29673   2.34629   2.36168   2.37389   2.38076
 Alpha virt. eigenvalues --    2.44179   2.45245   2.46187   2.47711   2.48859
 Alpha virt. eigenvalues --    2.49256   2.50467   2.53980   2.55040   2.55942
 Alpha virt. eigenvalues --    2.56807   2.57632   2.59269   2.61697   2.62244
 Alpha virt. eigenvalues --    2.63326   2.65779   2.69450   2.72602   2.75188
 Alpha virt. eigenvalues --    2.76950   2.80697   2.83899   2.86031   2.88647
 Alpha virt. eigenvalues --    2.89438   2.90686   2.97144   3.00094   3.04240
 Alpha virt. eigenvalues --    3.16792   3.18708   3.22564   3.27264   3.32761
 Alpha virt. eigenvalues --    3.52494   3.59821   3.66596   3.77279   3.78370
 Alpha virt. eigenvalues --    3.79544   3.81268   3.82420   3.84691   3.89581
 Alpha virt. eigenvalues --    3.90889   3.99579   4.23116   4.39887   4.82777
 Alpha virt. eigenvalues --    4.93672   7.99308  17.29757  17.45080  17.50912
 Alpha virt. eigenvalues --   23.58840  23.73317  23.87695  23.94669  23.96602
 Alpha virt. eigenvalues --   23.97765  24.14710  35.50752 189.16544
     Molecular Orbital Coefficients:
                           1         2         3         4         5
                           O         O         O         O         O
     Eigenvalues --   -88.87198 -14.38168 -10.22299 -10.21382 -10.20858
   1 1   N  1S         -0.00000   0.55737  -0.00004  -0.00003   0.00000
   2        2S          0.00001   0.46572  -0.00007  -0.00006   0.00005
   3        2PX         0.00001  -0.00018  -0.00009  -0.00008  -0.00008
   4        2PY         0.00000  -0.00003  -0.00001   0.00002  -0.00000
   5        2PZ         0.00000   0.00002  -0.00030   0.00019  -0.00010
   6        3S         -0.00002   0.01626   0.00077   0.00042  -0.00027
   7        3PX        -0.00003   0.00051   0.00002  -0.00014   0.00031
   8        3PY        -0.00000  -0.00008   0.00002  -0.00006   0.00001
   9        3PZ         0.00001  -0.00033   0.00044  -0.00015   0.00064
  10        4S         -0.00016  -0.01736  -0.00193   0.00100   0.00053
  11        4PX         0.00001   0.00152   0.00115  -0.00037   0.00033
  12        4PY         0.00001   0.00028   0.00010  -0.00023   0.00005
  13        4PZ        -0.00008   0.00211  -0.00001   0.00109  -0.00233
  14        5S          0.00108   0.00918   0.01920   0.01495   0.00691
  15        5PX         0.00049   0.00129  -0.00473  -0.01305  -0.00232
  16        5PY         0.00002  -0.00029  -0.00102  -0.00103  -0.00018
  17        5PZ        -0.00022  -0.00045  -0.01315   0.01416  -0.00918
  18        6D 0        0.00001   0.00000  -0.00053  -0.00018  -0.00018
  19        6D+1       -0.00002   0.00015  -0.00032   0.00028  -0.00027
  20        6D-1        0.00000  -0.00001  -0.00001  -0.00004   0.00000
  21        6D+2       -0.00001   0.00046  -0.00016  -0.00010   0.00006
  22        6D-2        0.00000   0.00000  -0.00001   0.00003  -0.00001
  23 2   C  1S          0.00000  -0.00001  -0.00013  -0.00030  -0.00040
  24        2S         -0.00000   0.00015  -0.00010  -0.00019  -0.00031
  25        2PX         0.00003  -0.00040   0.00005   0.00001   0.00000
  26        2PY        -0.00000   0.00001   0.00001  -0.00000   0.00000
  27        2PZ        -0.00005  -0.00001   0.00008   0.00001   0.00005
  28        3S          0.00006   0.00006  -0.00001  -0.00056  -0.00010
  29        3PX        -0.00007   0.00111  -0.00012   0.00010   0.00014
  30        3PY         0.00001  -0.00004  -0.00003   0.00002  -0.00000
  31        3PZ         0.00011   0.00006  -0.00025  -0.00008  -0.00012
  32        4S         -0.00001   0.00011  -0.00145   0.00217  -0.00048
  33        4PX         0.00006  -0.00091   0.00071  -0.00073  -0.00034
  34        4PY        -0.00002   0.00000   0.00016   0.00003  -0.00000
  35        4PZ        -0.00014  -0.00069   0.00141  -0.00052   0.00136
  36        5S          0.00179  -0.00523   0.00974   0.01503   0.01850
  37        5PX        -0.00002   0.00233  -0.00597   0.00032  -0.00288
  38        5PY         0.00001   0.00021   0.00017   0.00005  -0.00003
  39        5PZ        -0.00037   0.00044   0.00140  -0.00215  -0.00265
  40        6D 0       -0.00008   0.00052   0.00005   0.00003   0.00009
  41        6D+1        0.00004  -0.00017   0.00014  -0.00007  -0.00003
  42        6D-1       -0.00000   0.00002   0.00000  -0.00004   0.00001
  43        6D+2        0.00001  -0.00084   0.00003   0.00013  -0.00002
  44        6D-2        0.00000   0.00002  -0.00001  -0.00001   0.00000
  45 3   C  1S         -0.00000   0.00001   0.56275   0.00022  -0.01405
  46        2S          0.00001   0.00000   0.46312   0.00019  -0.01119
  47        2PX         0.00000   0.00018  -0.00003  -0.00004   0.00069
  48        2PY        -0.00000   0.00001   0.00002  -0.00000  -0.00003
  49        2PZ        -0.00000   0.00041   0.00085   0.00006  -0.00075
  50        3S         -0.00005   0.00029   0.01927  -0.00005  -0.00145
  51        3PX        -0.00004  -0.00041   0.00158   0.00017  -0.00367
  52        3PY         0.00001  -0.00002  -0.00004   0.00002   0.00014
  53        3PZ         0.00002  -0.00100  -0.00208  -0.00033   0.00379
  54        4S          0.00027   0.00486  -0.01811  -0.00336  -0.00076
  55        4PX         0.00034   0.00611  -0.00074  -0.00100  -0.00011
  56        4PY        -0.00004   0.00002   0.00016   0.00000  -0.00013
  57        4PZ        -0.00012   0.00615   0.00118   0.00256  -0.00565
  58        5S         -0.01418  -0.01822   0.00772  -0.00144  -0.05436
  59        5PX        -0.01035   0.00546  -0.01118   0.00429  -0.02019
  60        5PY         0.00026   0.00059   0.00068   0.00141   0.00084
  61        5PZ         0.00072   0.00558  -0.01248  -0.02003   0.00128
  62        6D 0       -0.00000  -0.00038   0.00036   0.00000  -0.00048
  63        6D+1        0.00002  -0.00063  -0.00118   0.00002   0.00243
  64        6D-1       -0.00000  -0.00000   0.00006  -0.00000  -0.00007
  65        6D+2        0.00002   0.00022   0.00147   0.00005  -0.00101
  66        6D-2        0.00000  -0.00004  -0.00009   0.00003   0.00005
  67 4   C  1S          0.00000  -0.00001   0.01385  -0.00029   0.56274
  68        2S         -0.00001   0.00007   0.01176  -0.00020   0.46316
  69        2PX         0.00004  -0.00003  -0.00051  -0.00000   0.00086
  70        2PY        -0.00000  -0.00001   0.00002   0.00001  -0.00001
  71        2PZ         0.00001   0.00003   0.00064   0.00002  -0.00011
  72        3S          0.00007  -0.00047  -0.00050  -0.00041   0.01898
  73        3PX        -0.00009   0.00041   0.00263   0.00008  -0.00341
  74        3PY         0.00000   0.00001  -0.00008  -0.00003   0.00010
  75        3PZ         0.00000  -0.00043  -0.00316  -0.00012   0.00192
  76        4S         -0.00030  -0.00030   0.00064   0.00393  -0.01599
  77        4PX         0.00025  -0.00226  -0.00291  -0.00208   0.00319
  78        4PY        -0.00000  -0.00011   0.00002   0.00019  -0.00008
  79        4PZ        -0.00029  -0.00440   0.00093   0.00214  -0.00034
  80        5S          0.01265   0.02027   0.01648  -0.02996   0.08051
  81        5PX         0.00014  -0.00894   0.00300   0.01381  -0.00441
  82        5PY         0.00012  -0.00030  -0.00047  -0.00080  -0.00009
  83        5PZ         0.01225  -0.01402  -0.01871   0.02996   0.00687
  84        6D 0        0.00002   0.00009  -0.00032   0.00002   0.00144
  85        6D+1       -0.00007   0.00029   0.00193  -0.00002  -0.00192
  86        6D-1        0.00000   0.00000  -0.00005   0.00000   0.00007
  87        6D+2       -0.00004   0.00000  -0.00092   0.00003   0.00082
  88        6D-2       -0.00000   0.00000   0.00006   0.00000  -0.00005
  89 5   S  1S          0.41089  -0.00000  -0.00000  -0.00000  -0.00000
  90        2S          0.65436   0.00001   0.00000   0.00000  -0.00001
  91        3S          0.01537  -0.00005  -0.00003  -0.00003   0.00005
  92        4S         -0.00460   0.00011   0.00008   0.00007  -0.00015
  93        5S          0.00195  -0.00023  -0.00028  -0.00019   0.00057
  94        6S         -0.00198   0.00161   0.00169   0.00045  -0.00025
  95        7S         -0.00488   0.01061   0.00560  -0.02462  -0.01966
  96        7PX         0.00083  -0.00310  -0.00020   0.00494   0.00575
  97        7PY        -0.00000  -0.00000   0.00005   0.00009   0.00002
  98        7PZ        -0.00019  -0.00101   0.00346  -0.00261  -0.00100
  99        8PX        -0.00008   0.00001   0.00001   0.00000  -0.00001
 100        8PY         0.00000  -0.00000   0.00000   0.00000  -0.00000
 101        8PZ         0.00002   0.00000   0.00000   0.00000  -0.00001
 102        9PX         0.00003  -0.00006  -0.00005  -0.00001   0.00010
 103        9PY         0.00000   0.00000  -0.00000  -0.00000   0.00000
 104        9PZ        -0.00001   0.00000  -0.00000  -0.00001   0.00006
 105       10PX        -0.00002   0.00023   0.00018   0.00004  -0.00044
 106       10PY        -0.00000  -0.00001   0.00001   0.00000  -0.00001
 107       10PZ        -0.00001   0.00006  -0.00004   0.00005  -0.00026
 108       11PX        -0.00005  -0.00062  -0.00047  -0.00002   0.00016
 109       11PY         0.00001   0.00001  -0.00002  -0.00002   0.00002
 110       11PZ         0.00006  -0.00064   0.00014  -0.00025   0.00026
 111       12PX         0.00055  -0.00003  -0.00041  -0.00051  -0.00051
 112       12PY        -0.00002  -0.00006   0.00004   0.00012  -0.00003
 113       12PZ        -0.00021   0.00028  -0.00006   0.00072   0.00021
 114       13D 0        0.00001  -0.00013   0.00005   0.00001   0.00002
 115       13D+1       -0.00000   0.00012  -0.00015   0.00004   0.00006
 116       13D-1        0.00000  -0.00001  -0.00000   0.00000  -0.00000
 117       13D+2        0.00002   0.00006   0.00004  -0.00002  -0.00004
 118       13D-2       -0.00000   0.00000  -0.00001  -0.00001   0.00000
 119 6   C  1S         -0.00000   0.00001  -0.00021   0.56301   0.00029
 120        2S          0.00000  -0.00003  -0.00016   0.46320   0.00027
 121        2PX        -0.00000   0.00019   0.00002   0.00043   0.00001
 122        2PY        -0.00000  -0.00002  -0.00002  -0.00024  -0.00001
 123        2PZ        -0.00000  -0.00024   0.00003  -0.00070  -0.00002
 124        3S         -0.00004   0.00005  -0.00029   0.01985  -0.00049
 125        3PX         0.00000  -0.00039  -0.00009  -0.00076  -0.00002
 126        3PY         0.00001   0.00028   0.00012   0.00164   0.00012
 127        3PZ         0.00001   0.00033  -0.00004   0.00108   0.00011
 128        4S          0.00032   0.00417   0.00228  -0.01987   0.00418
 129        4PX         0.00007   0.00027   0.00034  -0.00080   0.00065
 130        4PY         0.00002  -0.00020  -0.00121   0.00158  -0.00046
 131        4PZ        -0.00004  -0.00155  -0.00013   0.00334  -0.00134
 132        5S         -0.00105  -0.00688  -0.00091  -0.03944  -0.00107
 133        5PX         0.00018  -0.00010  -0.00089  -0.00178   0.00062
 134        5PY         0.00046   0.00139   0.00121   0.00684   0.00161
 135        5PZ        -0.00016   0.00100  -0.00167   0.00405  -0.00187
 136        6D 0        0.00000  -0.00023   0.00007  -0.00037   0.00001
 137        6D+1        0.00001   0.00042   0.00006   0.00106   0.00004
 138        6D-1        0.00000   0.00000  -0.00002   0.00036   0.00000
 139        6D+2        0.00001  -0.00019  -0.00002   0.00017   0.00003
 140        6D-2        0.00000  -0.00010  -0.00003  -0.00031  -0.00002
 141 7   C  1S         -0.00000  -0.00000   0.00001   0.00143  -0.00001
 142        2S          0.00000   0.00001  -0.00000   0.00114   0.00000
 143        2PX         0.00000   0.00002   0.00002   0.00010   0.00002
 144        2PY         0.00000   0.00008   0.00001   0.00046   0.00002
 145        2PZ        -0.00000  -0.00002   0.00001  -0.00006  -0.00002
 146        3S         -0.00001  -0.00002   0.00028   0.00032   0.00006
 147        3PX        -0.00000  -0.00013  -0.00011  -0.00030  -0.00009
 148        3PY        -0.00000  -0.00044  -0.00000  -0.00117  -0.00008
 149        3PZ         0.00002   0.00014  -0.00008   0.00008   0.00008
 150        4S          0.00000  -0.00065  -0.00239   0.00481  -0.00148
 151        4PX         0.00001   0.00031  -0.00048   0.00006   0.00017
 152        4PY        -0.00002  -0.00047  -0.00059   0.00168  -0.00019
 153        4PZ        -0.00007   0.00013   0.00109  -0.00062   0.00036
 154        5S          0.00154   0.00560   0.00391   0.02192   0.00570
 155        5PX         0.00015   0.00081   0.00041   0.00193   0.00050
 156        5PY         0.00033   0.00110   0.00076   0.00429   0.00135
 157        5PZ        -0.00019  -0.00108  -0.00054  -0.00229  -0.00074
 158        6D 0       -0.00000   0.00008   0.00001   0.00047  -0.00001
 159        6D+1       -0.00000  -0.00004  -0.00003   0.00001  -0.00003
 160        6D-1       -0.00000   0.00012   0.00003   0.00028   0.00001
 161        6D+2       -0.00000   0.00012  -0.00001   0.00067  -0.00001
 162        6D-2       -0.00000  -0.00008   0.00001  -0.00026  -0.00001
 163 8   H  1S         -0.00000  -0.00004  -0.00000  -0.00001  -0.00003
 164        2S          0.00003   0.00000   0.00001  -0.00116   0.00019
 165        3S          0.00002   0.00027  -0.00028  -0.00016   0.00005
 166        4PX         0.00000  -0.00005  -0.00001  -0.00020  -0.00001
 167        4PY         0.00000   0.00004   0.00002   0.00001   0.00003
 168        4PZ        -0.00000   0.00003  -0.00002   0.00035  -0.00003
 169 9   H  1S         -0.00000   0.00005   0.00001  -0.00001  -0.00003
 170        2S          0.00002  -0.00022   0.00026  -0.00125   0.00035
 171        3S         -0.00013  -0.00029  -0.00016   0.00031  -0.00004
 172        4PX         0.00000  -0.00013   0.00001  -0.00019   0.00003
 173        4PY         0.00000  -0.00009  -0.00006  -0.00014   0.00000
 174        4PZ         0.00000  -0.00001   0.00008  -0.00028   0.00005
 175 10  H  1S         -0.00000   0.00005  -0.00007  -0.00007  -0.00004
 176        2S          0.00001  -0.00036   0.00065  -0.00071   0.00028
 177        3S         -0.00005  -0.00065  -0.00016  -0.00050  -0.00009
 178        4PX        -0.00000   0.00006  -0.00005   0.00025  -0.00001
 179        4PY        -0.00000  -0.00011   0.00008  -0.00008   0.00003
 180        4PZ         0.00000   0.00009  -0.00007   0.00007  -0.00004
 181 11  H  1S          0.00000   0.00002  -0.00001   0.00008   0.00001
 182        2S         -0.00002  -0.00139  -0.00032  -0.00258  -0.00056
 183        3S          0.00000   0.00035  -0.00034   0.00401   0.00004
 184        4PX        -0.00001  -0.00030  -0.00004  -0.00180  -0.00008
 185        4PY         0.00000   0.00018   0.00007   0.00104   0.00006
 186        4PZ        -0.00000  -0.00001   0.00012  -0.00048   0.00001
 187 12  H  1S          0.00000   0.00000   0.00004   0.00005   0.00002
 188        2S         -0.00008  -0.00085  -0.00037  -0.00282  -0.00046
 189        3S          0.00006   0.00025   0.00219   0.00210   0.00172
 190        4PX         0.00001   0.00012   0.00003   0.00127   0.00007
 191        4PY         0.00000   0.00008   0.00007   0.00087   0.00004
 192        4PZ         0.00001   0.00021  -0.00001   0.00152   0.00005
 193 13  C  1S         -0.00000  -0.00000  -0.00003  -0.00002   0.00270
 194        2S          0.00000   0.00002   0.00002  -0.00001   0.00222
 195        2PX         0.00001  -0.00001  -0.00001  -0.00002   0.00011
 196        2PY         0.00000  -0.00000   0.00000  -0.00001  -0.00000
 197        2PZ         0.00001   0.00009   0.00017   0.00003   0.00060
 198        3S         -0.00003  -0.00006  -0.00010  -0.00011   0.00049
 199        3PX        -0.00002   0.00003   0.00000   0.00008  -0.00037
 200        3PY         0.00000   0.00002  -0.00002   0.00005   0.00001
 201        3PZ        -0.00004  -0.00048  -0.00090  -0.00015  -0.00190
 202        4S          0.00002  -0.00317  -0.00011   0.00081   0.00282
 203        4PX        -0.00005   0.00032   0.00065   0.00053  -0.00041
 204        4PY        -0.00000   0.00005  -0.00002  -0.00027  -0.00000
 205        4PZ         0.00000  -0.00089  -0.00011   0.00044   0.00107
 206        5S          0.01280  -0.02551  -0.03298   0.03968  -0.01941
 207        5PX         0.00040   0.00027  -0.00046  -0.00009   0.00058
 208        5PY         0.00001  -0.00006  -0.00006  -0.00012  -0.00005
 209        5PZ         0.00252  -0.00542  -0.00744   0.00760  -0.00558
 210        6D 0       -0.00001  -0.00014  -0.00050  -0.00002  -0.00127
 211        6D+1       -0.00002   0.00002   0.00011   0.00002  -0.00044
 212        6D-1       -0.00000  -0.00000   0.00000   0.00000  -0.00002
 213        6D+2        0.00001   0.00003   0.00018   0.00001  -0.00015
 214        6D-2       -0.00000   0.00000  -0.00001  -0.00001   0.00001
 215 14  H  1S          0.00000   0.00001   0.00000   0.00001  -0.00012
 216        2S         -0.00001  -0.00005  -0.00030  -0.00015  -0.00086
 217        3S         -0.00011   0.00011  -0.00001  -0.00007   0.00049
 218        4PX        -0.00000   0.00001   0.00002  -0.00000   0.00026
 219        4PY        -0.00001  -0.00003  -0.00012  -0.00004  -0.00030
 220        4PZ        -0.00001  -0.00004  -0.00001  -0.00000  -0.00006
 221 15  H  1S          0.00000   0.00002   0.00002   0.00002  -0.00013
 222        2S         -0.00001  -0.00015  -0.00029  -0.00014  -0.00091
 223        3S         -0.00010   0.00023   0.00010   0.00069   0.00063
 224        4PX        -0.00000   0.00002  -0.00000  -0.00003   0.00022
 225        4PY         0.00001   0.00004   0.00011   0.00004   0.00035
 226        4PZ        -0.00001  -0.00005  -0.00001  -0.00000  -0.00006
 227 16  C  1S         -0.00000  -0.00000   0.00188  -0.00004  -0.00017
 228        2S          0.00000   0.00002   0.00153  -0.00002  -0.00010
 229        2PX         0.00000   0.00006   0.00056   0.00004   0.00012
 230        2PY        -0.00000   0.00000  -0.00002  -0.00001  -0.00000
 231        2PZ        -0.00000   0.00006   0.00005   0.00006  -0.00005
 232        3S         -0.00002  -0.00018   0.00059  -0.00028  -0.00004
 233        3PX        -0.00002  -0.00039  -0.00171  -0.00032  -0.00069
 234        3PY         0.00000  -0.00003   0.00004   0.00006   0.00001
 235        3PZ        -0.00000  -0.00023  -0.00007  -0.00018   0.00016
 236        4S          0.00024   0.00466   0.00224   0.00159  -0.00127
 237        4PX         0.00008   0.00168   0.00045   0.00039  -0.00068
 238        4PY         0.00001  -0.00025  -0.00019  -0.00006  -0.00005
 239        4PZ         0.00006  -0.00158  -0.00109   0.00094   0.00026
 240        5S         -0.00859   0.01206  -0.01989   0.00936  -0.01171
 241        5PX        -0.00151   0.00247  -0.00471   0.00161  -0.00209
 242        5PY         0.00007  -0.00029   0.00008  -0.00004  -0.00001
 243        5PZ        -0.00040   0.00029  -0.00007   0.00353  -0.00120
 244        6D 0        0.00001   0.00015   0.00043  -0.00009   0.00039
 245        6D+1        0.00000  -0.00026  -0.00040  -0.00016   0.00016
 246        6D-1        0.00000  -0.00000  -0.00001  -0.00001  -0.00001
 247        6D+2       -0.00001  -0.00013  -0.00113  -0.00009  -0.00026
 248        6D-2        0.00000   0.00002   0.00009   0.00002   0.00003
 249 17  H  1S          0.00000   0.00001  -0.00003  -0.00002  -0.00011
 250        2S         -0.00003  -0.00080  -0.00096   0.00014  -0.00009
 251        3S          0.00009  -0.00077  -0.00093   0.00007  -0.00025
 252        4PX         0.00000   0.00002   0.00003   0.00004   0.00000
 253        4PY        -0.00000  -0.00001  -0.00001   0.00001  -0.00001
 254        4PZ        -0.00001  -0.00016  -0.00030   0.00001  -0.00012
 255 18  H  1S          0.00000   0.00003  -0.00012   0.00010  -0.00000
 256        2S         -0.00004  -0.00027  -0.00083  -0.00088   0.00001
 257        3S         -0.00004   0.00043   0.00043  -0.00067   0.00001
 258        4PX        -0.00000  -0.00008  -0.00008  -0.00019   0.00003
 259        4PY         0.00001   0.00005   0.00033   0.00022   0.00004
 260        4PZ         0.00000   0.00007   0.00020  -0.00011  -0.00001
 261 19  H  1S          0.00000   0.00005  -0.00008   0.00012  -0.00002
 262        2S         -0.00003  -0.00040  -0.00104  -0.00112   0.00001
 263        3S         -0.00004   0.00021   0.00034   0.00038  -0.00032
 264        4PX        -0.00000  -0.00013  -0.00016  -0.00016   0.00000
 265        4PY        -0.00001  -0.00008  -0.00032  -0.00016  -0.00008
 266        4PZ         0.00000   0.00009   0.00025  -0.00003  -0.00001
 267 20  H  1S         -0.00001  -0.00002  -0.00009  -0.00003  -0.00002
 268        2S         -0.00001   0.00003  -0.00026   0.00015  -0.00112
 269        3S         -0.00006   0.00080   0.00066   0.00019   0.00059
 270        4PX        -0.00001  -0.00002  -0.00017   0.00001  -0.00037
 271        4PY        -0.00000  -0.00000  -0.00001   0.00002  -0.00002
 272        4PZ        -0.00000   0.00003   0.00000  -0.00000  -0.00004
                           6         7         8         9        10
                           O         O         O         O         O
     Eigenvalues --   -10.20264 -10.18177 -10.18017 -10.16832  -7.95885
   1 1   N  1S         -0.00007   0.00000   0.00000   0.00000   0.00000
   2        2S          0.00001   0.00002   0.00002   0.00001   0.00003
   3        2PX         0.00059  -0.00004  -0.00001  -0.00003   0.00001
   4        2PY        -0.00000   0.00000  -0.00000  -0.00001   0.00000
   5        2PZ         0.00010  -0.00006  -0.00006   0.00005   0.00004
   6        3S          0.00039  -0.00003  -0.00013  -0.00003  -0.00010
   7        3PX        -0.00180   0.00014   0.00001   0.00015  -0.00019
   8        3PY         0.00001  -0.00001   0.00001   0.00007  -0.00001
   9        3PZ        -0.00032   0.00031   0.00028  -0.00025  -0.00001
  10        4S         -0.00248  -0.00022   0.00032  -0.00004  -0.00207
  11        4PX        -0.00087   0.00057   0.00028  -0.00054  -0.00001
  12        4PY         0.00011   0.00019   0.00002  -0.00007   0.00006
  13        4PZ        -0.00012  -0.00188  -0.00202   0.00073  -0.00047
  14        5S          0.02580   0.00846   0.00238   0.00583   0.01987
  15        5PX         0.02467  -0.00517   0.00060  -0.01132   0.00846
  16        5PY        -0.00100  -0.00083  -0.00014  -0.00140   0.00035
  17        5PZ        -0.00391   0.00039  -0.00521   0.00899  -0.00454
  18        6D 0        0.00070  -0.00002  -0.00003  -0.00003   0.00011
  19        6D+1       -0.00026  -0.00011  -0.00000   0.00004  -0.00023
  20        6D-1        0.00000   0.00002   0.00001   0.00000  -0.00000
  21        6D+2       -0.00118  -0.00002   0.00002  -0.00004  -0.00004
  22        6D-2        0.00002  -0.00001  -0.00001  -0.00000  -0.00000
  23 2   C  1S          0.56295   0.00005   0.00002   0.00003  -0.00005
  24        2S          0.46367   0.00007   0.00003   0.00004   0.00001
  25        2PX        -0.00092   0.00000   0.00001   0.00000   0.00024
  26        2PY        -0.00002   0.00001   0.00000   0.00001  -0.00003
  27        2PZ        -0.00196  -0.00001  -0.00004  -0.00000  -0.00051
  28        3S          0.01808  -0.00031  -0.00010  -0.00014   0.00081
  29        3PX        -0.00223   0.00005   0.00002  -0.00005  -0.00083
  30        3PY         0.00001  -0.00004  -0.00001  -0.00005   0.00012
  31        3PZ         0.00037   0.00010   0.00018   0.00004   0.00150
  32        4S         -0.02148   0.00102  -0.00026   0.00178  -0.00067
  33        4PX         0.00316  -0.00040  -0.00034   0.00045   0.00098
  34        4PY         0.00007   0.00015   0.00006   0.00047  -0.00039
  35        4PZ         0.00143  -0.00019   0.00034  -0.00132  -0.00205
  36        5S         -0.02846   0.01474   0.00662   0.00543   0.03090
  37        5PX         0.00593  -0.00377   0.00066   0.00288  -0.00015
  38        5PY         0.00028   0.00023  -0.00001   0.00051   0.00012
  39        5PZ         0.00285  -0.00140  -0.00271  -0.00315  -0.00668
  40        6D 0       -0.00066   0.00003  -0.00002   0.00005  -0.00112
  41        6D+1        0.00015  -0.00004  -0.00001   0.00006   0.00056
  42        6D-1       -0.00000   0.00002   0.00001   0.00003  -0.00004
  43        6D+2        0.00103   0.00005   0.00002  -0.00002  -0.00000
  44        6D-2       -0.00002  -0.00001  -0.00000  -0.00007   0.00003
  45 3   C  1S          0.00012  -0.00191   0.00008  -0.00001  -0.00001
  46        2S          0.00012  -0.00161   0.00012  -0.00002   0.00003
  47        2PX        -0.00001  -0.00054   0.00003   0.00001  -0.00004
  48        2PY        -0.00000   0.00002  -0.00000   0.00000  -0.00002
  49        2PZ         0.00008  -0.00008  -0.00012  -0.00002  -0.00003
  50        3S         -0.00017   0.00068  -0.00021   0.00025  -0.00046
  51        3PX        -0.00011   0.00137  -0.00027  -0.00007  -0.00025
  52        3PY         0.00001  -0.00006   0.00000  -0.00004   0.00009
  53        3PZ        -0.00044   0.00014   0.00066   0.00018   0.00025
  54        4S         -0.00039  -0.00088  -0.00007  -0.00137   0.00367
  55        4PX         0.00481  -0.00585  -0.00155   0.00047   0.00527
  56        4PY        -0.00019   0.00030   0.00005   0.00056  -0.00053
  57        4PZ         0.00033  -0.00167  -0.00223  -0.00114  -0.00123
  58        5S          0.00918   0.05573  -0.03109  -0.02361  -0.24686
  59        5PX        -0.04099  -0.03533   0.01037   0.01865  -0.17482
  60        5PY         0.00200   0.00124  -0.00001   0.00035   0.00432
  61        5PZ         0.02515  -0.02302   0.01330  -0.01093   0.01275
  62        6D 0       -0.00012   0.00052  -0.00021  -0.00005  -0.00006
  63        6D+1       -0.00012  -0.00031   0.00027   0.00002   0.00027
  64        6D-1        0.00000   0.00002  -0.00001   0.00005  -0.00001
  65        6D+2        0.00021  -0.00065   0.00005  -0.00003   0.00024
  66        6D-2        0.00001   0.00002  -0.00001  -0.00002   0.00001
  67 4   C  1S          0.00040   0.00012  -0.00273   0.00001  -0.00004
  68        2S          0.00035   0.00015  -0.00226   0.00001  -0.00002
  69        2PX         0.00000  -0.00006   0.00002   0.00001   0.00047
  70        2PY         0.00000  -0.00000  -0.00001   0.00001  -0.00000
  71        2PZ        -0.00000   0.00002  -0.00056   0.00002   0.00014
  72        3S         -0.00009  -0.00024   0.00051  -0.00011   0.00098
  73        3PX         0.00009   0.00041  -0.00033  -0.00006  -0.00123
  74        3PY        -0.00001  -0.00000   0.00002  -0.00002   0.00002
  75        3PZ        -0.00021  -0.00021   0.00154  -0.00013  -0.00004
  76        4S         -0.00335   0.00199   0.00115  -0.00020  -0.00462
  77        4PX        -0.00072   0.00003   0.00077   0.00023   0.00303
  78        4PY         0.00003  -0.00002  -0.00007  -0.00004  -0.00003
  79        4PZ        -0.00253   0.00200  -0.00286   0.00186  -0.00463
  80        5S          0.07118  -0.02224   0.06638  -0.02251   0.22223
  81        5PX        -0.01843   0.01582  -0.01919   0.00149   0.00178
  82        5PY        -0.00038  -0.00004  -0.00027   0.00015   0.00201
  83        5PZ        -0.02087   0.01896  -0.03907   0.01269   0.20553
  84        6D 0        0.00010   0.00019  -0.00076   0.00001   0.00018
  85        6D+1        0.00011   0.00021  -0.00033  -0.00004  -0.00090
  86        6D-1        0.00000  -0.00001  -0.00001  -0.00001  -0.00000
  87        6D+2       -0.00001  -0.00011   0.00011   0.00003  -0.00074
  88        6D-2        0.00000   0.00001  -0.00001   0.00002  -0.00002
  89 5   S  1S         -0.00000  -0.00000  -0.00000  -0.00000  -0.11961
  90        2S         -0.00000   0.00000   0.00000   0.00000  -0.32016
  91        3S          0.00002  -0.00002  -0.00004  -0.00002   0.51754
  92        4S         -0.00009   0.00006   0.00010   0.00005   0.59215
  93        5S          0.00030  -0.00013  -0.00028  -0.00013   0.05782
  94        6S          0.00244  -0.00050   0.00108  -0.00051  -0.03629
  95        7S          0.03329  -0.01016   0.01170  -0.00966  -0.08351
  96        7PX        -0.00837   0.00206  -0.00289   0.00112   0.01421
  97        7PY        -0.00001  -0.00002  -0.00001  -0.00043  -0.00001
  98        7PZ         0.00001   0.00108  -0.00284  -0.00315  -0.00332
  99        8PX         0.00000   0.00000   0.00000   0.00000  -0.00207
 100        8PY         0.00000   0.00000   0.00000   0.00000   0.00003
 101        8PZ         0.00001   0.00000  -0.00000   0.00000   0.00046
 102        9PX         0.00001  -0.00001  -0.00001  -0.00000  -0.00449
 103        9PY        -0.00000  -0.00000  -0.00000  -0.00001   0.00007
 104        9PZ        -0.00008  -0.00000   0.00002  -0.00000   0.00101
 105       10PX        -0.00000   0.00000   0.00004   0.00000  -0.00034
 106       10PY         0.00001   0.00000   0.00000   0.00003  -0.00003
 107       10PZ         0.00040   0.00001  -0.00014   0.00003  -0.00012
 108       11PX        -0.00068   0.00018  -0.00011   0.00015  -0.00165
 109       11PY         0.00001  -0.00000   0.00000  -0.00010   0.00010
 110       11PZ         0.00006  -0.00001   0.00055  -0.00021   0.00092
 111       12PX        -0.00099  -0.00065  -0.00010  -0.00029   0.00953
 112       12PY        -0.00004  -0.00003  -0.00002   0.00017  -0.00029
 113       12PZ         0.00121   0.00037  -0.00043  -0.00026  -0.00361
 114       13D 0       -0.00005   0.00000  -0.00002  -0.00002   0.00041
 115       13D+1        0.00002  -0.00002  -0.00011   0.00001   0.00008
 116       13D-1       -0.00000  -0.00001  -0.00001  -0.00002   0.00003
 117       13D+2        0.00005  -0.00001   0.00001  -0.00002   0.00052
 118       13D-2        0.00000  -0.00000  -0.00000  -0.00000  -0.00000
 119 6   C  1S          0.00029   0.00004   0.00002  -0.00145  -0.00000
 120        2S          0.00029   0.00006   0.00003  -0.00123   0.00003
 121        2PX        -0.00003  -0.00004  -0.00002  -0.00011  -0.00000
 122        2PY        -0.00002  -0.00002  -0.00001  -0.00046  -0.00000
 123        2PZ        -0.00005  -0.00004  -0.00001   0.00010   0.00000
 124        3S         -0.00064  -0.00025  -0.00022   0.00049  -0.00051
 125        3PX        -0.00000   0.00019   0.00009   0.00013   0.00001
 126        3PY         0.00018   0.00009   0.00004   0.00107   0.00007
 127        3PZ         0.00028   0.00014   0.00003  -0.00008   0.00005
 128        4S          0.00384   0.00203   0.00263  -0.00015   0.00387
 129        4PX         0.00064  -0.00050   0.00050  -0.00153   0.00070
 130        4PY        -0.00048  -0.00154  -0.00041  -0.00258   0.00041
 131        4PZ        -0.00063  -0.00090  -0.00081   0.00183  -0.00032
 132        5S         -0.01724  -0.00876   0.00373   0.02349  -0.01727
 133        5PX         0.00074  -0.00092   0.00066  -0.00031   0.00336
 134        5PY         0.00394   0.00284  -0.00097  -0.00533   0.00796
 135        5PZ         0.00168  -0.00094  -0.00026   0.00001  -0.00301
 136        6D 0       -0.00015  -0.00006  -0.00002   0.00017   0.00002
 137        6D+1        0.00014  -0.00009  -0.00004   0.00018   0.00007
 138        6D-1        0.00009  -0.00006  -0.00000   0.00030   0.00005
 139        6D+2        0.00017  -0.00001   0.00003   0.00049   0.00008
 140        6D-2        0.00003  -0.00004   0.00000  -0.00031   0.00003
 141 7   C  1S         -0.00003   0.00000  -0.00000   0.56295  -0.00000
 142        2S         -0.00001  -0.00000   0.00000   0.46315   0.00002
 143        2PX        -0.00000  -0.00000   0.00001   0.00002   0.00002
 144        2PY         0.00002   0.00001   0.00001   0.00026   0.00000
 145        2PZ        -0.00003  -0.00001  -0.00000  -0.00005  -0.00005
 146        3S         -0.00007   0.00022   0.00007   0.01982  -0.00016
 147        3PX         0.00005   0.00000  -0.00003  -0.00033  -0.00006
 148        3PY        -0.00008   0.00002  -0.00002  -0.00148   0.00000
 149        3PZ         0.00019   0.00002   0.00001   0.00030   0.00023
 150        4S          0.00011  -0.00248  -0.00099  -0.01417   0.00041
 151        4PX        -0.00081  -0.00022  -0.00009  -0.00117   0.00027
 152        4PY        -0.00008  -0.00129  -0.00029  -0.00244  -0.00021
 153        4PZ         0.00014   0.00109   0.00038   0.00181  -0.00114
 154        5S          0.01373   0.01133  -0.00164  -0.02152   0.02655
 155        5PX         0.00151   0.00084  -0.00015  -0.00091   0.00258
 156        5PY         0.00297   0.00231  -0.00026  -0.00413   0.00577
 157        5PZ        -0.00160  -0.00152   0.00010   0.00148  -0.00318
 158        6D 0        0.00002  -0.00000  -0.00000   0.00032  -0.00001
 159        6D+1       -0.00005  -0.00003  -0.00002   0.00006   0.00000
 160        6D-1       -0.00002   0.00006   0.00001   0.00039  -0.00003
 161        6D+2       -0.00001   0.00004   0.00000   0.00057  -0.00001
 162        6D-2       -0.00006  -0.00001  -0.00001  -0.00025  -0.00003
 163 8   H  1S          0.00001  -0.00004  -0.00002   0.00022  -0.00005
 164        2S         -0.00019   0.00020   0.00009  -0.00323   0.00036
 165        3S         -0.00021  -0.00079  -0.00015   0.00338   0.00023
 166        4PX         0.00001  -0.00002   0.00000  -0.00116   0.00003
 167        4PY         0.00002   0.00005   0.00002   0.00017   0.00003
 168        4PZ         0.00007  -0.00005  -0.00002   0.00171  -0.00001
 169 9   H  1S         -0.00008  -0.00002  -0.00001   0.00021  -0.00007
 170        2S          0.00056   0.00041   0.00018  -0.00300   0.00037
 171        3S         -0.00087  -0.00121  -0.00003   0.00419  -0.00206
 172        4PX         0.00009   0.00001   0.00002  -0.00100   0.00005
 173        4PY         0.00008  -0.00004   0.00001  -0.00085   0.00003
 174        4PZ        -0.00003   0.00010   0.00001  -0.00157  -0.00000
 175 10  H  1S          0.00001  -0.00005  -0.00002   0.00015  -0.00004
 176        2S          0.00016   0.00036   0.00020  -0.00261   0.00020
 177        3S         -0.00064  -0.00117  -0.00027   0.00303  -0.00081
 178        4PX        -0.00005  -0.00001  -0.00002   0.00173   0.00000
 179        4PY        -0.00010   0.00002   0.00001  -0.00094  -0.00001
 180        4PZ         0.00006  -0.00005  -0.00001   0.00030   0.00002
 181 11  H  1S          0.00003   0.00004   0.00001  -0.00009   0.00000
 182        2S         -0.00039  -0.00070  -0.00022  -0.00049  -0.00023
 183        3S          0.00331   0.00018   0.00008  -0.00312  -0.00001
 184        4PX        -0.00008   0.00001  -0.00002  -0.00022  -0.00006
 185        4PY         0.00009   0.00005   0.00001   0.00018   0.00002
 186        4PZ        -0.00005   0.00004   0.00000  -0.00002  -0.00004
 187 12  H  1S         -0.00002  -0.00004  -0.00000  -0.00012   0.00005
 188        2S         -0.00084   0.00018  -0.00018  -0.00017  -0.00091
 189        3S          0.00072   0.00036   0.00057  -0.00293   0.00107
 190        4PX        -0.00001  -0.00002   0.00002   0.00011   0.00009
 191        4PY         0.00010   0.00002   0.00002   0.00012   0.00004
 192        4PZ         0.00015  -0.00004   0.00001   0.00014   0.00009
 193 13  C  1S         -0.00002  -0.00095   0.56296   0.00000   0.00000
 194        2S         -0.00000  -0.00076   0.46313   0.00000   0.00004
 195        2PX         0.00001  -0.00004   0.00008  -0.00000   0.00003
 196        2PY        -0.00000  -0.00000   0.00001  -0.00001   0.00000
 197        2PZ         0.00003   0.00003   0.00042  -0.00000   0.00007
 198        3S         -0.00010  -0.00014   0.01962  -0.00004  -0.00047
 199        3PX        -0.00002   0.00019  -0.00029   0.00001  -0.00018
 200        3PY         0.00000   0.00002  -0.00003   0.00002   0.00001
 201        3PZ        -0.00022  -0.00015  -0.00153   0.00001  -0.00052
 202        4S         -0.00052   0.00130  -0.01256   0.00143   0.00015
 203        4PX         0.00051  -0.00021   0.00018   0.00017  -0.00042
 204        4PY        -0.00007  -0.00015   0.00004  -0.00018   0.00001
 205        4PZ        -0.00031   0.00016  -0.00191   0.00063  -0.00000
 206        5S         -0.04322   0.02781  -0.08225   0.01653   0.21145
 207        5PX        -0.00051  -0.00108   0.00011   0.00058   0.00657
 208        5PY        -0.00003  -0.00013  -0.00012  -0.00013   0.00024
 209        5PZ        -0.00901   0.00544  -0.01727   0.00300   0.04141
 210        6D 0       -0.00008  -0.00007  -0.00059  -0.00000  -0.00010
 211        6D+1        0.00000   0.00001  -0.00012  -0.00000  -0.00012
 212        6D-1        0.00000   0.00000  -0.00001   0.00001  -0.00000
 213        6D+2       -0.00003  -0.00001  -0.00002  -0.00002   0.00011
 214        6D-2       -0.00001  -0.00000   0.00000  -0.00001  -0.00000
 215 14  H  1S          0.00004  -0.00002   0.00022   0.00001  -0.00001
 216        2S         -0.00037  -0.00002  -0.00317  -0.00018  -0.00004
 217        3S          0.00008  -0.00016   0.00478   0.00027  -0.00190
 218        4PX         0.00002   0.00001   0.00103   0.00001  -0.00004
 219        4PY        -0.00006  -0.00004  -0.00162  -0.00002  -0.00009
 220        4PZ        -0.00003   0.00001  -0.00067  -0.00001  -0.00016
 221 15  H  1S          0.00003  -0.00002   0.00022   0.00000   0.00002
 222        2S         -0.00031   0.00003  -0.00318  -0.00009  -0.00010
 223        3S          0.00018   0.00010   0.00477   0.00055  -0.00175
 224        4PX        -0.00000   0.00000   0.00080  -0.00001  -0.00005
 225        4PY         0.00006   0.00004   0.00174   0.00001   0.00009
 226        4PZ        -0.00002   0.00002  -0.00068   0.00001  -0.00016
 227 16  C  1S         -0.00005   0.56295   0.00095  -0.00000  -0.00000
 228        2S         -0.00002   0.46311   0.00081  -0.00001   0.00002
 229        2PX         0.00002   0.00039   0.00004  -0.00002   0.00002
 230        2PY        -0.00000  -0.00001  -0.00000  -0.00001  -0.00001
 231        2PZ         0.00004   0.00006  -0.00006  -0.00001   0.00000
 232        3S         -0.00039   0.02002   0.00000   0.00007  -0.00033
 233        3PX        -0.00018  -0.00142  -0.00019   0.00013  -0.00018
 234        3PY         0.00001  -0.00001   0.00000   0.00002   0.00003
 235        3PZ        -0.00017  -0.00020   0.00028   0.00003  -0.00003
 236        4S          0.00510  -0.01591  -0.00130   0.00049   0.00385
 237        4PX         0.00237  -0.00312  -0.00088  -0.00029   0.00124
 238        4PY         0.00004  -0.00003  -0.00001  -0.00050   0.00011
 239        4PZ         0.00150  -0.00096  -0.00041  -0.00083   0.00093
 240        5S         -0.05811  -0.07483   0.02090   0.03156  -0.14237
 241        5PX        -0.01183  -0.01560   0.00433   0.00625  -0.02479
 242        5PY         0.00039   0.00062  -0.00015  -0.00068   0.00117
 243        5PZ        -0.00431  -0.00082  -0.00121   0.00283  -0.00681
 244        6D 0       -0.00001   0.00029   0.00004   0.00002   0.00007
 245        6D+1       -0.00002  -0.00012   0.00004   0.00003   0.00002
 246        6D-1        0.00000  -0.00002  -0.00000  -0.00000   0.00000
 247        6D+2       -0.00005  -0.00049  -0.00007   0.00002  -0.00007
 248        6D-2        0.00000   0.00007   0.00001   0.00000   0.00001
 249 17  H  1S          0.00003   0.00022  -0.00006   0.00002   0.00002
 250        2S         -0.00033  -0.00311   0.00023  -0.00026  -0.00041
 251        3S          0.00146   0.00443  -0.00165  -0.00096   0.00121
 252        4PX        -0.00005  -0.00030  -0.00003  -0.00001   0.00003
 253        4PY         0.00000  -0.00011   0.00001   0.00003  -0.00002
 254        4PZ        -0.00006  -0.00201   0.00006  -0.00004  -0.00009
 255 18  H  1S          0.00005   0.00017  -0.00004  -0.00005   0.00005
 256        2S         -0.00070  -0.00258   0.00023   0.00039  -0.00058
 257        3S          0.00115   0.00494  -0.00020  -0.00067  -0.00079
 258        4PX        -0.00001  -0.00058   0.00003   0.00003  -0.00003
 259        4PY         0.00010   0.00167   0.00002  -0.00003   0.00009
 260        4PZ         0.00001   0.00076   0.00001  -0.00000   0.00003
 261 19  H  1S          0.00005   0.00021  -0.00004   0.00001   0.00003
 262        2S         -0.00067  -0.00288   0.00020  -0.00001  -0.00044
 263        3S          0.00167   0.00505  -0.00022  -0.00150  -0.00080
 264        4PX         0.00002  -0.00077   0.00002  -0.00004  -0.00001
 265        4PY        -0.00008  -0.00155  -0.00003   0.00005  -0.00009
 266        4PZ         0.00007   0.00099   0.00000  -0.00005   0.00004
 267 20  H  1S          0.00001  -0.00004   0.00023   0.00000  -0.00008
 268        2S         -0.00004   0.00010  -0.00318  -0.00001  -0.00001
 269        3S          0.00003  -0.00137   0.00530   0.00005  -0.00079
 270        4PX        -0.00002   0.00004  -0.00201  -0.00000  -0.00009
 271        4PY         0.00001   0.00001  -0.00014   0.00002  -0.00002
 272        4PZ        -0.00002  -0.00002  -0.00037  -0.00000  -0.00002
                          11        12        13        14        15
                           O         O         O         O         O
     Eigenvalues --    -5.92174  -5.91729  -5.91537  -0.99767  -0.84139
   1 1   N  1S         -0.00000  -0.00000   0.00000   0.09649  -0.03530
   2        2S         -0.00001  -0.00003   0.00000   0.15162  -0.05586
   3        2PX         0.00004  -0.00001  -0.00000  -0.01376  -0.01966
   4        2PY         0.00000  -0.00000   0.00002   0.00216  -0.00199
   5        2PZ         0.00006   0.00002   0.00000   0.01281   0.04779
   6        3S          0.00019   0.00031  -0.00001  -0.41649   0.15858
   7        3PX        -0.00020   0.00013   0.00001  -0.01684  -0.03016
   8        3PY        -0.00001   0.00002  -0.00007   0.00325  -0.00295
   9        3PZ        -0.00029  -0.00019  -0.00002   0.01758   0.07227
  10        4S         -0.00193  -0.00184   0.00001  -0.29478   0.12546
  11        4PX         0.00018   0.00082   0.00003  -0.00222  -0.03169
  12        4PY         0.00005  -0.00009   0.00018   0.00297  -0.00194
  13        4PZ         0.00199   0.00218   0.00013   0.01910   0.04089
  14        5S         -0.00180  -0.00224  -0.00048   0.21965   0.06499
  15        5PX        -0.00295   0.00179  -0.00113   0.01640   0.03069
  16        5PY        -0.00014  -0.00003  -0.00170  -0.00659   0.00356
  17        5PZ         0.00354  -0.00350   0.00098  -0.02986  -0.06306
  18        6D 0        0.00006  -0.00008   0.00000  -0.00513  -0.00008
  19        6D+1       -0.00006   0.00001  -0.00000  -0.00008  -0.00194
  20        6D-1       -0.00000  -0.00001  -0.00000   0.00011  -0.00074
  21        6D+2       -0.00007   0.00001   0.00000  -0.01057   0.00211
  22        6D-2        0.00000   0.00000  -0.00001  -0.00015   0.00046
  23 2   C  1S         -0.00006   0.00007   0.00000   0.04327   0.00659
  24        2S         -0.00011   0.00010   0.00000   0.06620   0.01021
  25        2PX         0.00010  -0.00010  -0.00000   0.04829  -0.02223
  26        2PY        -0.00001   0.00000  -0.00001   0.00008   0.00026
  27        2PZ        -0.00021   0.00019  -0.00000   0.01838   0.02794
  28        3S          0.00053  -0.00013  -0.00001  -0.16793  -0.02451
  29        3PX         0.00000   0.00006   0.00000   0.06710  -0.03519
  30        3PY        -0.00000   0.00001   0.00016   0.00030   0.00073
  31        3PZ        -0.00008   0.00036   0.00002   0.03339   0.04425
  32        4S         -0.00013  -0.00380   0.00001  -0.08225  -0.01715
[...]
 0612,-0.00025086,-0.00057864,-0.00016990,0.00002572,0.00030193,0.00011
 300,-0.00000355,0.00019362,-0.00477177,0.00171282,0.00447823,-0.130088
 95,0.00140839,0.12277756,0.13767024,-0.00303028,-0.00635735,0.00283739
 ,0.00109692,-0.00048680,0.00021799,-0.00080980,-0.00035660,-0.00072916
 ,-0.00034981,0.00007274,0.00033932,-0.00032470,0.00044363,0.00085958,-
 0.01677848,0.00267590,0.02526743,0.00304487,-0.04737999,-0.00427354,-0
 .00087009,0.04975490,0.00119368,0.00199684,0.00057742,-0.00103556,0.00
 027926,0.00003759,0.00006089,-0.00008377,0.00076569,0.00019236,-0.0000
 2943,-0.00009478,0.00014515,-0.00018170,-0.00046657,0.00335310,-0.0016
 9332,-0.00686381,0.12293413,-0.00215041,-0.22635658,-0.13595773,0.0019
 6565,0.24384075,0.00052864,0.00049422,-0.00077077,-0.00027867,-0.00001
 876,0.00008870,-0.00026165,-0.00027390,0.00035748,-0.00002322,0.000026
 46,0.00004533,0.00003746,0.00000086,0.00003190,-0.00459328,-0.00362446
 ,-0.00429205,-0.11562579,-0.06068446,-0.09788965,0.01042305,0.00931378
 ,0.01310763,0.12092039,0.00117866,0.00177265,-0.00051985,-0.00021565,0
 .00029562,0.00029495,-0.00083929,-0.00010074,0.00011595,-0.00005757,-0
 .00005553,0.00031362,0.00016112,-0.00007031,0.00010901,-0.01669299,-0.
 01617653,-0.02507053,-0.06036582,-0.10115481,-0.08592489,0.00078334,-0
 .00052751,0.00025052,0.06828894,0.11191438,-0.00036773,-0.00074009,0.0
 0153173,0.00033435,-0.00020383,-0.00000723,-0.00026107,0.00000740,-0.0
 0013143,-0.00003714,0.00000536,0.00006188,-0.00011179,0.00004009,0.000
 16833,0.00626049,0.00532312,0.00693466,-0.09826834,-0.08841118,-0.1871
 3052,-0.01412460,-0.01138379,-0.01821946,0.10831680,0.09452065,0.20130
 223,0.00121882,-0.00007939,-0.00041175,0.00031904,0.00001732,-0.000200
 76,0.00004196,0.00017730,0.00014422,0.00012429,0.00002098,-0.00007170,
 0.00003102,-0.00004139,-0.00030098,0.00668759,-0.00532916,0.00255619,-
 0.23311252,0.11443268,-0.04204935,-0.01378997,0.00792172,-0.00391080,-
 0.01277749,0.00757338,-0.00194184,0.25005252,0.00093823,0.00183540,-0.
 00159091,-0.00001337,0.00051414,-0.00012581,0.00012008,0.00003269,0.00
 005764,-0.00008604,0.00000100,-0.00010786,-0.00024126,-0.00003719,0.00
 021987,0.02763295,-0.02012123,0.00656790,0.11135111,-0.11422650,0.0246
 7730,-0.00081167,-0.00037902,-0.00070917,-0.01294485,0.00816131,-0.001
 78497,-0.12342028,0.12793311,-0.00147329,-0.00042303,0.00057730,0.0001
 9387,-0.00020022,0.00011777,-0.00032002,0.00000656,-0.00016504,0.00001
 430,-0.00000949,0.00010628,0.00004981,-0.00002652,0.00002017,-0.006331
 89,0.00542432,-0.00305970,-0.04127509,0.02395595,-0.05653303,0.0220096
 8,-0.01441488,0.00636690,-0.01953193,0.01293805,-0.00421614,0.04539655
 ,-0.02856996,0.05594453,-0.01984927,0.00780099,-0.00069176,-0.00063179
 ,0.00149773,0.00252980,-0.00102823,-0.00013710,-0.00152595,-0.00036192
 ,-0.00002225,0.00023449,-0.00090753,-0.00060997,0.00187018,-0.22640040
 ,0.11704172,-0.03684696,0.00887269,-0.00538096,0.00133928,0.00037122,0
 .00080899,-0.00033454,0.00043542,0.00048272,-0.00011574,0.00057789,-0.
 00245443,0.00044956,0.25002094,-0.00207397,0.00178665,-0.00125903,-0.0
 0082415,0.00031187,0.00000463,0.00078378,0.00042411,0.00013706,0.00002
 558,-0.00010810,-0.00009664,-0.00025422,-0.00013104,0.00044929,0.11786
 629,-0.12550281,0.02349581,0.02565578,-0.01812649,0.00718000,-0.000258
 40,0.00124617,0.00003624,0.00008790,0.00132637,-0.00085160,-0.00198441
 ,-0.00526525,0.00164428,-0.12688518,0.13516005,0.03146749,-0.01544191,
 0.00177995,-0.00057958,-0.00112923,-0.00264646,0.00035816,-0.00033364,
 0.00108723,0.00058772,-0.00012901,0.00029610,0.00133261,0.00090797,-0.
 00169345,-0.04679549,0.02753871,-0.06068061,-0.00698296,0.00418757,-0.
 00111702,-0.00002110,-0.00010362,0.00011204,0.00061508,-0.00020289,0.0
 0027777,0.00088541,0.00188530,0.00051749,0.03857942,-0.03032739,0.0677
 3780,0.00796760,0.00861990,0.02198289,0.00071066,-0.00067488,0.0017638
 9,-0.00325196,0.00086514,0.00035646,0.00002331,0.00001671,0.00145910,0
 .00044440,0.00037628,0.00010053,-0.12787252,-0.06448920,-0.11255595,-0
 .00296898,-0.00276202,-0.00410174,0.00001126,-0.00012126,0.00010390,0.
 00088561,-0.00100584,0.00067911,0.00065662,0.00010048,0.00059322,-0.01
 191100,-0.01183858,-0.01837302,0.13517967,0.00098736,0.00111973,0.0014
 0495,-0.00079331,0.00030184,0.00053035,-0.00002418,0.00042580,0.000785
 74,0.00013826,0.00013986,0.00035783,0.00030633,-0.00006290,0.00001958,
 -0.06138577,-0.10078940,-0.08816490,-0.01811126,-0.01653443,-0.0220099
 0,0.00019400,0.00124926,0.00025692,-0.00133837,-0.00529939,0.00224300,
 0.00066803,0.00149637,-0.00044495,0.00831844,0.00875697,0.01347508,0.0
 7117423,0.10923972,-0.01094069,-0.01027504,-0.03255642,-0.00386574,0.0
 0040007,0.00104069,0.00444214,-0.00152442,-0.00023012,-0.00057244,0.00
 017860,-0.00122942,0.00003307,0.00031437,0.00048184,-0.10058237,-0.084
 90196,-0.18577139,0.00520143,0.00436263,0.00851141,-0.00021676,-0.0007
 0276,0.00041576,0.00051390,0.00266296,0.00049667,-0.00009282,-0.000465
 47,0.00028562,-0.00282277,-0.00115583,-0.00234863,0.10813183,0.0909997
 5,0.21109496,-0.00169525,-0.00013857,0.00527213,-0.00648138,0.00031832
 ,-0.00383541,0.00932506,-0.00037799,0.01868354,-0.07998519,0.00058526,
 -0.01579979,-0.00195882,-0.00034347,-0.02369220,0.00132524,0.00016151,
 0.00049351,-0.00006725,0.00001287,0.00003138,-0.00001403,-0.00004178,0
 .00001426,0.00001202,0.00000404,-0.00002799,-0.00000953,-0.00002819,0.
 00001050,0.00011824,-0.00000524,-0.00003220,-0.00019347,-0.00000650,0.
 00048036,0.56705213,0.00104301,0.00680377,0.00011072,-0.00058404,0.002
 59289,0.00013365,-0.00023245,0.00081579,-0.00080997,0.00038250,-0.0622
 6299,-0.00181206,-0.00005426,-0.00138709,-0.00034761,-0.00010149,0.001
 46448,0.00018462,0.00011917,-0.00005261,-0.00031340,0.00006791,0.00007
 716,-0.00000385,-0.00002498,-0.00001787,-0.00000799,0.00000423,-0.0000
 3972,0.00001802,-0.00002351,-0.00000601,0.00010042,-0.00024199,-0.0000
 8982,0.00017251,-0.00023885,0.53411981,-0.00012880,-0.00010876,-0.0002
 9499,0.00152306,-0.00015742,0.00057168,0.00113026,-0.00007762,-0.01728
 043,-0.00673963,-0.00126441,-0.22539426,-0.00758960,0.00003626,-0.0088
 0995,-0.00027934,-0.00008794,-0.00016155,0.00002001,0.00005954,0.00002
 104,-0.00000938,-0.00001448,0.00001278,-0.00000351,0.00000183,-0.00000
 224,0.00000233,0.00000898,-0.00000596,-0.00006204,-0.00000275,0.000070
 14,0.00004231,0.00005037,-0.00004747,-0.00371904,0.00107623,0.48161089
 ,-0.00055471,-0.00007341,-0.00078093,0.00065180,0.00000617,-0.00018592
 ,0.00017526,0.00006841,0.00024268,0.00163122,-0.00438284,-0.00055733,0
 .00006881,-0.00022048,-0.00010117,-0.00008928,0.00020229,0.00005441,0.
 00004395,-0.00000229,-0.00003131,0.00000809,0.00001025,-0.00000403,0.0
 0000025,0.00000384,0.00000363,0.00000256,-0.00000392,0.00000411,0.0000
 1792,-0.00001827,0.00001622,0.00000208,-0.00000181,0.00001260,-0.10857
 337,0.10025406,0.04825562,0.11373235,-0.00054418,-0.00021206,0.0000249
 9,0.00019562,0.00011475,-0.00045147,-0.00054530,0.00002557,0.00094705,
 -0.00197032,0.00333207,-0.00024752,0.00019228,0.00026768,-0.00010025,-
 0.00005750,-0.00007960,0.00006095,-0.00000192,-0.00000242,0.00000986,0
 .00000240,-0.00000219,-0.00000422,0.00000054,-0.00000249,0.00000329,-0
 .00000123,-0.00000205,0.00000179,0.00000807,0.00000484,0.00000028,0.00
 001294,0.00001104,-0.00001120,0.10069701,-0.20445338,-0.07973582,-0.11
 033475,0.21985954,-0.00037146,0.00136208,-0.00193779,0.00128033,0.0003
 7518,-0.00089318,-0.00315829,-0.00120430,-0.00096729,0.01794010,-0.024
 51863,-0.01876407,0.00032709,-0.00036052,0.00122422,-0.00055602,0.0003
 0539,0.00013786,0.00009407,-0.00005152,-0.00011997,0.00004221,0.000060
 71,-0.00003053,0.00000017,-0.00000867,0.00002538,-0.00001099,-0.000008
 99,0.00000302,0.00001668,0.00000323,0.00002847,0.00000486,0.00000504,-
 0.00011106,0.04830139,-0.07930484,-0.08301249,-0.05391777,0.08709533,0
 .09637136,-0.00064475,0.00004757,-0.00082571,0.00074086,-0.00022856,-0
 .00024966,0.00014128,0.00019713,0.00067593,0.00100124,0.00399451,-0.00
 030697,-0.00024556,0.00033327,-0.00015976,-0.00000331,-0.00007893,0.00
 005895,0.00000023,0.00000617,0.00001254,0.00000144,-0.00000072,0.00000
 135,-0.00000006,0.00001111,-0.00000648,-0.00000124,0.00000171,0.000002
 34,0.00000204,-0.00001173,-0.00003580,0.00002087,-0.00001383,-0.000001
 98,-0.08289114,-0.08302086,0.03695862,0.00639424,0.01373861,-0.0069702
 8,0.08570023,0.00044666,-0.00032635,0.00002416,-0.00009703,0.00016320,
 0.00033207,0.00071003,0.00002466,-0.00108894,0.00177698,0.00458744,0.0
 0063893,-0.00028963,0.00018057,0.00017557,0.00006167,-0.00008442,-0.00
 003147,-0.00001954,0.00000595,0.00001814,-0.00000827,-0.00000867,0.000
 00727,0.00000271,0.00000403,-0.00000420,0.00000025,0.00000246,-0.00000
 135,-0.00000142,-0.00000472,-0.00001419,-0.00001229,-0.00000509,-0.000
 00529,-0.08348068,-0.22813717,0.08501720,-0.00996335,-0.02151937,0.009
 20043,0.09136319,0.24595087,-0.00100422,-0.00155322,-0.00199698,0.0014
 3204,-0.00058685,-0.00102019,-0.00299318,0.00138183,-0.00011753,0.0142
 0235,0.02602754,-0.01927584,0.00041479,0.00049424,0.00104182,-0.000478
 88,-0.00035001,0.00006554,0.00004132,-0.00002598,0.00002177,0.00001434
 ,0.00002662,-0.00003284,0.00000261,0.00000183,0.00002269,-0.00001105,0
 .00000208,0.00000151,0.00003313,0.00000788,-0.00001436,0.00010894,0.00
 003913,-0.00018110,0.03751788,0.08560782,-0.08290212,-0.00560667,-0.00
 996715,0.00503162,-0.04180044,-0.09376158,0.09639343,-0.01069065,0.000
 53408,-0.00821178,0.00158726,0.00001430,0.00112772,-0.21856414,0.00455
 038,-0.01364387,-0.02151371,0.00101770,0.00164693,-0.00024811,0.000212
 16,0.00110026,0.00000914,-0.00025616,-0.00035805,0.00005828,0.00060975
 ,0.00009982,-0.00003394,-0.00007625,-0.00006912,-0.00007972,-0.0002931
 6,-0.00011354,-0.00016147,-0.00008762,-0.00013252,0.00013241,0.0000945
 0,0.00007593,-0.00020773,-0.00000594,0.00037385,-0.00009928,0.00015706
 ,-0.00156871,-0.00026152,0.00001776,-0.00016358,-0.00010474,-0.0001655
 2,-0.00008183,0.48645332,-0.00160461,-0.00054636,-0.00021883,0.0006675
 2,0.00187408,-0.00043844,0.00500846,-0.06633756,0.00085615,0.00069803,
 0.00619278,-0.00020607,-0.00016642,0.00723707,0.00021842,0.00031491,-0
 .00026302,0.00020923,-0.00030023,-0.00019220,0.00000499,0.00000310,-0.
 00005666,-0.00009736,0.00019184,-0.00046749,0.00069356,-0.00007932,-0.
 00006028,-0.00004199,-0.00013569,0.00023313,-0.00088193,0.00016801,-0.
 00015937,-0.00003995,0.00009491,-0.00346694,0.00029418,0.00022914,0.00
 000929,-0.00049026,-0.00030871,0.00000466,0.00041686,0.00553391,0.5353
 0989,-0.03749801,0.00092078,-0.00571521,0.00047705,-0.00011902,-0.0061
 4384,-0.00899804,0.00017133,-0.08658646,0.01882582,-0.00078225,0.00886
 546,0.00433691,-0.00021092,-0.00003349,-0.00149496,-0.00066591,-0.0012
 3842,-0.00004153,0.00020195,-0.00005226,-0.00004358,0.00001220,-0.0001
 0271,-0.00027567,-0.00004631,-0.00057601,0.00003986,0.00000669,-0.0000
 7936,-0.00154132,0.00071309,-0.00146771,-0.00037672,0.00034924,-0.0000
 0279,-0.00075487,0.00011480,-0.00002256,-0.00008702,0.00004261,-0.0001
 6491,0.00004723,0.00001095,-0.00021519,-0.00645416,0.00007392,0.580058
 42,-0.00676357,0.00018501,0.00059837,-0.00035550,0.00001038,-0.0016762
 8,-0.00568813,-0.00187926,-0.03403069,0.00073574,0.00008745,-0.0000602
 6,0.00020990,0.00001051,0.00008299,-0.00060427,0.00018642,0.00107282,0
 .00007829,-0.00005325,-0.00008917,0.00002877,0.00004964,0.00001065,-0.
 00000693,0.00010901,-0.00000185,0.00001252,-0.00001612,0.00003573,0.00
 021655,-0.00023663,-0.00003648,0.00018187,-0.00006885,-0.00008272,-0.0
 0134863,-0.00015723,-0.00037285,0.00045222,0.00005571,0.00005901,0.000
 41018,0.00001719,0.00007397,-0.05946011,-0.00315054,-0.05522138,0.0668
 7392,0.00065366,0.00092308,-0.00024840,-0.00007641,0.00027372,0.000088
 89,0.00044732,-0.00215267,0.00161308,-0.00005057,0.00008151,-0.0000368
 1,-0.00003261,-0.00015936,0.00000999,-0.00008451,-0.00032880,-0.000250
 70,-0.00011080,-0.00015517,-0.00003382,0.00004789,0.00001999,0.0000865
 3,0.00010883,0.00026512,0.00001582,0.00005074,0.00007917,0.00008312,-0
 .00018584,0.00000498,0.00019230,-0.00005765,0.00009821,-0.00000850,0.0
 0011141,-0.00002125,0.00004162,-0.00004167,0.00001225,0.00001437,-0.00
 000974,0.00002610,-0.00000543,-0.00359978,-0.04579542,-0.01404093,0.00
 296486,0.04486971,0.00073402,-0.00007607,0.00170206,-0.00028356,-0.000
 01141,-0.00043625,-0.00190425,0.00010814,-0.00294671,0.00047549,0.0000
 7715,-0.00118867,-0.00013100,-0.00002980,0.00005940,0.00032644,-0.0003
 7181,0.00004056,0.00002310,-0.00001904,0.00007023,-0.00001471,0.000009
 00,-0.00006996,-0.00004411,-0.00014037,0.00001409,-0.00003302,0.000037
 48,-0.00004389,-0.00031193,0.00031396,-0.00003333,-0.00011560,0.000100
 12,-0.00002998,0.00207476,-0.00013976,0.00012599,0.00009841,-0.0000257
 9,0.00003893,-0.00008635,0.00004496,0.00002134,-0.05929751,-0.01394880
 ,-0.30458832,0.06157560,0.01564870,0.33063605,0.00209765,-0.00035256,0
 .00157806,-0.00140558,-0.00021345,0.00036519,-0.01835136,0.02802282,0.
 01344707,-0.00068373,0.00008652,-0.00277420,-0.00123894,-0.00158851,-0
 .00073927,-0.00041271,0.00040795,0.00005118,0.00019934,-0.00016166,-0.
 00005254,0.00000498,0.00004441,-0.00000368,-0.00000689,0.00003927,-0.0
 0000621,0.00000493,-0.00007716,0.00005766,0.00029167,0.00004085,-0.000
 71738,0.00013740,-0.00009246,0.00001449,-0.00025439,0.00048464,-0.0001
 7096,0.00004286,0.00002834,0.00020781,0.00005760,-0.00004074,0.0001690
 6,-0.07953651,0.08328628,0.03368572,0.00227657,-0.00679526,-0.00173354
 ,0.09114689,0.00034734,0.00039832,-0.00084479,0.00040328,-0.00001752,0
 .00004274,0.00182695,0.00290283,0.00110373,-0.00099706,-0.00001830,0.0
 0090112,0.00006155,-0.00034617,0.00044889,0.00018549,-0.00046433,-0.00
 048483,-0.00013670,-0.00018878,-0.00000716,0.00001943,0.00002281,0.000
 02827,0.00006220,0.00013232,-0.00002578,0.00002457,0.00011872,0.000033
 34,-0.00026658,0.00045711,0.00039399,-0.00026095,0.00018821,-0.0000370
 6,0.00001781,0.00008744,-0.00012265,-0.00002831,-0.00001251,0.00000539
 ,0.00000288,-0.00003000,-0.00004936,0.08203793,-0.23577011,-0.08026260
 ,-0.00074016,-0.00047414,-0.00023886,-0.09124131,0.25427387,0.00056429
 ,0.00025024,-0.00022750,-0.00040454,-0.00033265,0.00027986,-0.00004785
 ,0.00533911,0.00108471,-0.00006969,-0.00017947,0.00007326,-0.00007101,
 -0.00017981,-0.00024659,-0.00082701,0.00037102,-0.00020247,0.00028526,
 0.00016587,0.00005531,0.00000028,-0.00000481,0.00002072,-0.00003659,-0
 .00004527,-0.00004855,-0.00006209,-0.00009578,-0.00003627,-0.00052554,
 0.00022501,-0.00129661,0.00002586,-0.00004201,0.00007565,0.00010761,-0
 .00023301,-0.00009119,0.00034224,0.00006208,0.00005425,-0.00008615,-0.
 00000326,0.00003914,0.03275451,-0.08023348,-0.07807826,0.01192110,-0.0
 2699575,-0.01002490,-0.03742546,0.08849562,0.08266977,0.00226556,0.000
 39127,0.00121800,-0.00123910,0.00021950,0.00036198,-0.01975006,-0.0243
 2826,0.01730906,-0.00129722,-0.00019295,-0.00292022,-0.00126885,0.0014
 8710,-0.00063065,-0.00047045,-0.00058657,-0.00024933,-0.00027930,-0.00
 034886,-0.00040011,0.00011193,0.00008646,0.00021428,0.00040882,0.00082
 793,-0.00021653,0.00013045,0.00004404,0.00024339,-0.00000996,-0.000174
 83,-0.00029201,0.00015273,0.00004763,-0.00002073,-0.00024484,-0.000546
 56,-0.00019545,0.00006202,0.00005389,0.00015745,0.00003432,-0.00000919
 ,0.00021561,-0.09735683,-0.09038276,0.05362078,0.00306756,0.00648307,-
 0.00261718,0.00555486,0.00865770,-0.00634528,0.11004331,-0.00021546,0.
 00019531,0.00041282,-0.00050911,-0.00001377,0.00003948,0.00043897,0.00
 430070,-0.00282450,0.00098825,-0.00015540,-0.00053041,0.00016029,-0.00
 032717,-0.00043888,-0.00048425,0.00027400,0.00030642,0.00041990,0.0000
 1666,0.00032410,-0.00001165,-0.00000385,0.00004575,0.00033065,-0.00000
 237,0.00056006,0.00004515,-0.00004064,0.00002283,0.00012866,-0.0005675
 7,-0.00011852,0.00013598,-0.00008882,0.00004931,0.00001515,0.00007380,
 0.00001357,0.00000236,-0.00000262,0.00005288,0.00006040,-0.00001184,0.
 00001495,-0.09021278,-0.19765803,0.09361582,0.00236851,0.00218903,-0.0
 0122208,-0.01192290,-0.02128327,0.01336036,0.09827399,0.21308880,0.000
 30994,-0.00020239,0.00007892,-0.00013485,0.00019378,0.00028017,-0.0006
 9504,-0.00549787,0.00198471,-0.00021325,0.00036341,0.00013802,-0.00027
 373,0.00021189,-0.00018474,-0.00033724,-0.00032820,-0.00013793,-0.0005
 2831,-0.00001760,-0.00083054,0.00004811,0.00000775,0.00009903,-0.00024
 341,0.00072109,-0.00050933,0.00007749,0.00001147,0.00018067,-0.0003740
 9,-0.00048956,-0.00056744,0.00017453,0.00004178,0.00004176,-0.00003187
 ,0.00014436,-0.00021670,-0.00002464,-0.00000063,0.00004159,0.00031462,
 -0.00001147,0.00004569,0.05322444,0.09393052,-0.10252300,0.01418064,0.
 02403216,-0.01304183,-0.00603380,-0.00940544,0.00544308,-0.05950911,-0
 .10372273,0.10926022,0.00013853,-0.00004063,-0.00019231,-0.00039025,-0
 .00002071,-0.00044635,-0.00136770,0.00024516,0.00065263,-0.00148891,0.
 00011617,-0.00290673,0.00195640,-0.00008213,0.00075039,-0.00006460,-0.
 00002178,0.00015256,0.00003216,-0.00003584,-0.00003479,0.00001178,0.00
 002612,-0.00001591,0.00000203,0.00000696,0.00000647,-0.00000800,-0.000
 00371,0.00000404,0.00004311,0.00001093,-0.00005203,0.00003157,0.000008
 00,-0.00000463,-0.29401612,-0.01728636,-0.06709291,-0.01380674,-0.0015
 4795,-0.00328277,-0.01061374,-0.00029103,-0.00224977,0.00007805,-0.000
 06782,0.00175389,-0.00031695,0.00017707,0.00126495,0.00007535,0.000023
 95,-0.00009992,0.00008505,-0.00001211,0.00006958,0.31961898,-0.0000526
 9,-0.00020287,-0.00008984,0.00011889,0.00049761,-0.00005729,-0.0000417
 6,0.00016171,0.00005885,0.00008329,-0.00123581,0.00016179,0.00003924,0
 .00023153,0.00016207,-0.00002373,-0.00007985,0.00001909,-0.00000279,-0
 .00000580,0.00000459,0.00000206,-0.00000392,-0.00000003,0.00000086,0.0
 0000322,0.00000106,-0.00000117,-0.00000249,0.00000413,0.00001560,-0.00
 000024,0.00000071,-0.00000500,0.00000221,-0.00001270,-0.01735703,-0.04
 610029,-0.00502794,0.02429458,0.00265163,0.00746770,-0.02608343,-0.000
 82230,-0.00772119,-0.00008232,-0.00008745,-0.00010546,0.00025735,0.000
 24392,-0.00011572,0.00004494,0.00002348,0.00007598,-0.00000260,0.00001
 705,0.00001769,0.01879572,0.04470867,-0.00023751,-0.00004277,0.0001666
 2,-0.00111425,0.00009910,-0.00198409,-0.00011509,0.00009523,0.00147012
 ,-0.03273330,-0.00196777,-0.00945783,0.00091104,-0.00020291,-0.0034500
 6,-0.00001199,0.00007495,0.00026549,0.00003735,-0.00003792,-0.00004587
 ,0.00002139,0.00002339,-0.00001145,0.00000808,0.00002833,0.00000548,-0
 .00000488,-0.00001580,0.00001812,0.00010010,-0.00002767,-0.00004137,-0
 .00000438,0.00000289,0.00006402,-0.06509394,-0.00469065,-0.06417061,0.
 01226688,0.00229583,0.00304461,0.01245800,-0.00054794,0.00307162,-0.00
 030877,-0.00010072,-0.00133337,0.00196081,-0.00020625,-0.00030480,0.00
 008080,0.00002542,0.00045660,0.00005607,0.00003878,0.00041766,0.071723
 59,0.00515649,0.07181911\\0.00000040,-0.00000003,0.00000020,-0.0000003
 8,0.00000291,-0.00000172,-0.00000098,0.00000016,0.00000031,-0.00000060
 ,0.00000094,-0.00000161,-0.00000192,0.00000776,-0.00000379,0.00000191,
 -0.00000267,0.00000119,0.00000383,-0.00000306,-0.00000043,0.00000251,-
 0.00000196,-0.00000063,0.00000281,-0.00000075,0.00000132,0.00000261,-0
 .00000066,-0.00000052,-0.00000003,-0.00000152,0.00000084,0.00000021,-0
 .00000102,-0.00000022,0.00000408,-0.00000073,0.00002563,0.00001312,-0.
 00002134,-0.00000723,0.00001113,0.00002973,-0.00001052,-0.00000188,-0.
 00000303,0.00000250,-0.00000101,-0.00000034,0.00000166,-0.00000052,-0.
 00000288,0.00000081,0.00000116,-0.00000051,-0.00000035,-0.00003647,-0.
 00000099,-0.00000745\\\@
 The archive entry for this job was punched.


 We find comfort among those who agree with us -- growth among those who don't.
 -- Frank A. Clark
 Job cpu time:       0 days  0 hours 56 minutes  9.4 seconds.
 Elapsed time:       0 days  0 hours 29 minutes 24.0 seconds.
 File lengths (MBytes):  RWF=    222 Int=      0 D2E=      0 Chk=     23 Scr=      1
 Normal termination of Gaussian 16 at Fri Jun  2 11:52:41 2023.
