 Entering Gaussian System, Link 0=g16
 Input=PyrOH-CO2_binding-site_index-5-freq.gjf
 Output=PyrOH-CO2_binding-site_index-5-freq.log
 Initial command:
 /software/commercial/gaussian/g16/AVX2/g16/l1.exe "/scratch1/svicchi/G09-1911997.pbs02/Gau-1498657.inp" -scrdir="/scratch1/svicchi/G09-1911997.pbs02/"
 Entering Link 1 = /software/commercial/gaussian/g16/AVX2/g16/l1.exe PID=   1498658.
  
 Copyright (c) 1988-2021, Gaussian, Inc.  All Rights Reserved.
  
 This is part of the Gaussian(R) 16 program.  It is based on
 the Gaussian(R) 09 system (copyright 2009, Gaussian, Inc.),
 the Gaussian(R) 03 system (copyright 2003, Gaussian, Inc.),
 the Gaussian(R) 98 system (copyright 1998, Gaussian, Inc.),
 the Gaussian(R) 94 system (copyright 1995, Gaussian, Inc.),
 the Gaussian 92(TM) system (copyright 1992, Gaussian, Inc.),
 the Gaussian 90(TM) system (copyright 1990, Gaussian, Inc.),
 the Gaussian 88(TM) system (copyright 1988, Gaussian, Inc.),
 the Gaussian 86(TM) system (copyright 1986, Carnegie Mellon
 University), and the Gaussian 82(TM) system (copyright 1983,
 Carnegie Mellon University). Gaussian is a federally registered
 trademark of Gaussian, Inc.
  
 This software contains proprietary and confidential information,
 including trade secrets, belonging to Gaussian, Inc.
  
 This software is provided under written license and may be
 used, copied, transmitted, or stored only in accord with that
 written license.
  
 The following legend is applicable only to US Government
 contracts under FAR:
  
                    RESTRICTED RIGHTS LEGEND
  
 Use, reproduction and disclosure by the US Government is
 subject to restrictions as set forth in subparagraphs (a)
 and (c) of the Commercial Computer Software - Restricted
 Rights clause in FAR 52.227-19.
  
 Gaussian, Inc.
 340 Quinnipiac St., Bldg. 40, Wallingford CT 06492
  
  
 ---------------------------------------------------------------
 Warning -- This program may not be used in any manner that
 competes with the business of Gaussian, Inc. or will provide
 assistance to any competitor of Gaussian, Inc.  The licensee
 of this program is prohibited from giving any competitor of
 Gaussian, Inc. access to this program.  By using this program,
 the user acknowledges that Gaussian, Inc. is engaged in the
 business of creating and licensing software in the field of
 computational chemistry and represents and warrants to the
 licensee that it is not a competitor of Gaussian, Inc. and that
 it will not use this program in any manner prohibited above.
 ---------------------------------------------------------------
  

 Cite this work as:
 Gaussian 16, Revision C.02,
 M. J. Frisch, G. W. Trucks, H. B. Schlegel, G. E. Scuseria, 
 M. A. Robb, J. R. Cheeseman, G. Scalmani, V. Barone, 
 G. A. Petersson, H. Nakatsuji, X. Li, M. Caricato, A. V. Marenich, 
 J. Bloino, B. G. Janesko, R. Gomperts, B. Mennucci, H. P. Hratchian, 
 J. V. Ortiz, A. F. Izmaylov, J. L. Sonnenberg, D. Williams-Young, 
 F. Ding, F. Lipparini, F. Egidi, J. Goings, B. Peng, A. Petrone, 
 T. Henderson, D. Ranasinghe, V. G. Zakrzewski, J. Gao, N. Rega, 
 G. Zheng, W. Liang, M. Hada, M. Ehara, K. Toyota, R. Fukuda, 
 J. Hasegawa, M. Ishida, T. Nakajima, Y. Honda, O. Kitao, H. Nakai, 
 T. Vreven, K. Throssell, J. A. Montgomery, Jr., J. E. Peralta, 
 F. Ogliaro, M. J. Bearpark, J. J. Heyd, E. N. Brothers, K. N. Kudin, 
 V. N. Staroverov, T. A. Keith, R. Kobayashi, J. Normand, 
 K. Raghavachari, A. P. Rendell, J. C. Burant, S. S. Iyengar, 
 J. Tomasi, M. Cossi, J. M. Millam, M. Klene, C. Adamo, R. Cammi, 
 J. W. Ochterski, R. L. Martin, K. Morokuma, O. Farkas, 
 J. B. Foresman, and D. J. Fox, Gaussian, Inc., Wallingford CT, 2019.
 
 ******************************************
 Gaussian 16:  ES64L-G16RevC.02  7-Dec-2021
                23-Jan-2024 
 ******************************************
 %NProcShared=12
 Will use up to   12 processors via shared memory.
 %mem=110gb
 %chk=/scratch1/svicchi/G09-1911997.pbs02/02-freq/PyrOH-CO2_binding-site_index-5-
 freq.chk
 ----------------------------------------------------------------------
 #p freq=raman scale=0.967 guess=read geom=allcheck b3lyp/6-311+G(d,p) 
 int=grid=ultrafine EmpiricalDispersion=GD3BJ SCRF=(Solvent=ethanol) sc
 f=(xqc,intrep,maxconventionalcycle=350) nosymm
 ----------------------------------------------------------------------
 1/10=4,29=7,30=1,38=1,114=967000/1,3;
 2/12=2,15=1,40=1/2;
 3/5=4,6=6,7=111,11=2,14=-4,25=1,30=1,70=2201,71=2,72=4,74=-5,75=-5,116=-2,124=41,140=1/1,2,3;
 4/5=1/1;
 5/5=2,8=3,13=1,17=20,38=6,53=4,85=350,98=1/2,8;
 8/6=4,10=90,11=11/1;
 10/13=10,15=4,31=1/2;
 11/6=3,8=1,9=11,15=111,16=1,31=1/1,2,10;
 10/6=1,31=1/2;
 6/7=2,8=2,9=2,10=2,28=1/1;
 7/8=1,10=1,25=1,30=1/1,2,3,16;
 1/10=4,30=1/3;
 99//99;
 Leave Link    1 at Tue Jan 23 12:36:22 2024, MaxMem= 14763950080 cpu:               0.1 elap:               0.1
 (Enter /software/commercial/gaussian/g16/AVX2/g16/l101.exe)
 Structure from the checkpoint file:  "/scratch1/svicchi/G09-1911997.pbs02/02-freq/PyrOH-CO2_binding-site_index-5-freq.chk"
 ------------------------------
 PyrOH-CO2_binding-site_index-5
 ------------------------------
 Charge = -1 Multiplicity = 1
 No Z-Matrix found in chk file; cartesian coordinates used.
  C                                                -0.385300202078      0.879901288982      0.067978222695
  C                                                -1.132133637316     -0.192394382961     -0.339627606375
  C                                                -0.235698128742     -1.244645930663     -0.736071555818
  H                                                -2.210801636557     -0.235399581846     -0.358347404650
  C                                                 1.037887199819     -0.763648955511     -0.550796038733
  N                                                 0.961775790639      0.535815982678     -0.059023908567
  H                                                -0.658511099200      1.852699253721      0.435755912878
  O                                                 2.230352208509     -1.347543825614     -0.769142892433
  H                                                -0.491710350843     -2.224316302373     -1.107605234860
  H                                                 2.893305621388     -0.642542874151     -0.502071468135
  C                                                 2.096792433699      1.382028969119      0.261497544164
  O                                                 1.846384891043      2.514148530810      0.688628730880
  O                                                 3.222632034738      0.838905051208      0.057147698956
 Recover connectivity data from disk.
 ITRead=  0  0  0  0  0  0  0  0  0  0  0  0  0
 MicOpt= -1 -1 -1 -1 -1 -1 -1 -1 -1 -1 -1 -1 -1
 NAtoms=     13 NQM=       13 NQMF=       0 NMMI=      0 NMMIF=      0
                NMic=       0 NMicF=      0.
                    Isotopes and Nuclear Properties:
 (Nuclear quadrupole moments (NQMom) in fm**2, nuclear magnetic moments (NMagM)
  in nuclear magnetons)

  Atom         1           2           3           4           5           6           7           8           9          10
 IAtWgt=          12          12          12           1          12          14           1          16           1           1
 AtmWgt=  12.0000000  12.0000000  12.0000000   1.0078250  12.0000000  14.0030740   1.0078250  15.9949146   1.0078250   1.0078250
 NucSpn=           0           0           0           1           0           2           1           0           1           1
 AtZEff=   3.6000000   3.6000000   3.6000000   1.0000000   3.6000000   4.5500000   1.0000000   5.6000000   1.0000000   1.0000000
 NQMom=    0.0000000   0.0000000   0.0000000   0.0000000   0.0000000   2.0440000   0.0000000   0.0000000   0.0000000   0.0000000
 NMagM=    0.0000000   0.0000000   0.0000000   2.7928460   0.0000000   0.4037610   2.7928460   0.0000000   2.7928460   2.7928460
 AtZNuc=   6.0000000   6.0000000   6.0000000   1.0000000   6.0000000   7.0000000   1.0000000   8.0000000   1.0000000   1.0000000

  Atom        11          12          13
 IAtWgt=          12          16          16
 AtmWgt=  12.0000000  15.9949146  15.9949146
 NucSpn=           0           0           0
 AtZEff=   3.6000000   5.6000000   5.6000000
 NQMom=    0.0000000   0.0000000   0.0000000
 NMagM=    0.0000000   0.0000000   0.0000000
 AtZNuc=   6.0000000   8.0000000   8.0000000
 Leave Link  101 at Tue Jan 23 12:36:22 2024, MaxMem= 14763950080 cpu:               0.1 elap:               0.1
 (Enter /software/commercial/gaussian/g16/AVX2/g16/l103.exe)

 GradGradGradGradGradGradGradGradGradGradGradGradGradGradGradGradGradGrad
 Berny optimization.
 Initialization pass.
 Trust Radius=3.00D-01 FncErr=1.00D-07 GrdErr=1.00D-07 EigMax=2.50D+02 EigMin=1.00D-04
 Number of steps in this run=      2 maximum allowed number of steps=      2.
 GradGradGradGradGradGradGradGradGradGradGradGradGradGradGradGradGradGrad

 Leave Link  103 at Tue Jan 23 12:36:22 2024, MaxMem= 14763950080 cpu:               0.1 elap:               0.0
 (Enter /software/commercial/gaussian/g16/AVX2/g16/l202.exe)
                          Input orientation:                          
 ---------------------------------------------------------------------
 Center     Atomic      Atomic             Coordinates (Angstroms)
 Number     Number       Type             X           Y           Z
 ---------------------------------------------------------------------
      1          6           0       -0.385300    0.879901    0.067978
      2          6           0       -1.132134   -0.192394   -0.339628
      3          6           0       -0.235698   -1.244646   -0.736072
      4          1           0       -2.210802   -0.235400   -0.358347
      5          6           0        1.037887   -0.763649   -0.550796
      6          7           0        0.961776    0.535816   -0.059024
      7          1           0       -0.658511    1.852699    0.435756
      8          8           0        2.230352   -1.347544   -0.769143
      9          1           0       -0.491710   -2.224316   -1.107605
     10          1           0        2.893306   -0.642543   -0.502071
     11          6           0        2.096792    1.382029    0.261498
     12          8           0        1.846385    2.514149    0.688629
     13          8           0        3.222632    0.838905    0.057148
 ---------------------------------------------------------------------
                    Distance matrix (angstroms):
                    1          2          3          4          5
     1  C    0.000000
     2  C    1.368839   0.000000
     3  C    2.276528   1.438053   0.000000
     4  H    2.181308   1.079687   2.249953   0.000000
     5  C    2.260443   2.253867   1.373938   3.296978   0.000000
     6  N    1.396115   2.234611   2.249974   3.278661   1.391489
     7  H    1.075286   2.237844   3.338487   2.720361   3.270524
     8  O    3.536088   3.581224   2.468418   4.596680   1.345578
     9  H    3.321067   2.264650   1.078579   2.733579   2.187065
    10  H    3.659515   4.053786   3.194988   5.122337   1.860005
    11  C    2.539757   3.642269   3.651723   4.642806   2.526863
    12  O    2.834853   4.153825   4.526961   5.011680   3.596359
    13  O    3.608181   4.492771   4.114660   5.554185   2.776848
                    6          7          8          9         10
     6  N    0.000000
     7  H    2.145768   0.000000
     8  O    2.379201   4.476479   0.000000
     9  H    3.290969   4.362550   2.879742   0.000000
    10  H    2.305565   4.440851   1.003923   3.785104   0.000000
    11  C    1.451576   2.800642   2.920723   4.645483   2.305724
    12  O    2.292448   2.603068   4.145503   5.580878   3.532494
    13  O    2.284038   4.029193   2.539278   4.953414   1.617365
                   11         12         13
    11  C    0.000000
    12  O    1.235654   0.000000
    13  O    1.266593   2.258155   0.000000
 Symmetry turned off by external request.
 Stoichiometry    C5H4NO3(1-)
 Framework group  C1[X(C5H4NO3)]
 Deg. of freedom    33
 Full point group                 C1      NOp   1
 Rotational constants (GHZ):           2.9129546           1.7044986           1.0752959
 Leave Link  202 at Tue Jan 23 12:36:23 2024, MaxMem= 14763950080 cpu:               0.1 elap:               0.0
 (Enter /software/commercial/gaussian/g16/AVX2/g16/l301.exe)
 Standard basis: 6-311+G(d,p) (5D, 7F)
 Ernie: Thresh=  0.10000D-02 Tol=  0.10000D-05 Strict=F.
   222 basis functions,   356 primitive gaussians,   231 cartesian basis functions
    33 alpha electrons       33 beta electrons
       nuclear repulsion energy       433.9407617144 Hartrees.
 IExCor=  402 DFT=T Ex+Corr=B3LYP ExCW=0 ScaHFX=  0.200000
 ScaDFX=  0.800000  0.720000  1.000000  0.810000 ScalE2=  1.000000  1.000000
 IRadAn=      5 IRanWt=     -1 IRanGd=            0 ICorTp=0 IEmpDi=141
 NAtoms=   13 NActive=   13 NUniq=   13 SFac= 1.00D+00 NAtFMM=   60 NAOKFM=F Big=F
 Integral buffers will be    131072 words long.
 Raffenetti 2 integral format.
 Two-electron integral symmetry is turned off.
 R6Disp:  Grimme-D3(BJ) Dispersion energy=       -0.0220275557 Hartrees.
 Nuclear repulsion after empirical dispersion term =      433.9187341587 Hartrees.
 Force inversion solution in PCM.
 ------------------------------------------------------------------------------
 Polarizable Continuum Model (PCM)
 =================================
 Model                : PCM.
 Atomic radii         : UFF (Universal Force Field).
 Polarization charges : Total charges.
 Charge compensation  : None.
 Solution method      : Matrix inversion.
 Cavity type          : Scaled VdW (van der Waals Surface) (Alpha=1.100).
 Cavity algorithm     : GePol (No added spheres)
                        Default sphere list used, NSphG=   13.
                        Lebedev-Laikov grids with approx.  5.0 points / Ang**2.
                        Smoothing algorithm: York/Karplus (Gamma=1.0000).
                        Polarization charges: spherical gaussians, with
                                              point-specific exponents (IZeta= 3).
                        Self-potential: point-specific (ISelfS= 7).
                        Self-field    : sphere-specific E.n sum rule (ISelfD= 2).
 1st derivatives      : Analytical E(r).r(x)/FMM algorithm (CHGder, D1EAlg=3).
                        Cavity 1st derivative terms included.
 2nd derivatives      : Analytical E(r).r(xy)/FMM algorithm (CHGder, D2EAlg=3).
                        Cavity 2nd derivative terms included.
 Solvent              : Ethanol, Eps=  24.852000 Eps(inf)=   1.852593
 ------------------------------------------------------------------------------
 Spheres list:
 ISph  on   Nord     Re0    Alpha      Xe            Ye            Ze
    1   C      1    1.9255  1.100     -0.385300      0.879901      0.067978
    2   C      2    1.9255  1.100     -1.132134     -0.192394     -0.339628
    3   C      3    1.9255  1.100     -0.235698     -1.244646     -0.736072
    4   H      4    1.4430  1.100     -2.210802     -0.235400     -0.358347
    5   C      5    1.9255  1.100      1.037887     -0.763649     -0.550796
    6   N      6    1.8300  1.100      0.961776      0.535816     -0.059024
    7   H      7    1.4430  1.100     -0.658511      1.852699      0.435756
    8   O      8    1.7500  1.100      2.230352     -1.347544     -0.769143
    9   H      9    1.4430  1.100     -0.491710     -2.224316     -1.107605
   10   H     10    1.4430  1.100      2.893306     -0.642543     -0.502071
   11   C     11    1.9255  1.100      2.096792      1.382029      0.261498
   12   O     12    1.7500  1.100      1.846385      2.514149      0.688629
   13   O     13    1.7500  1.100      3.222632      0.838905      0.057148
 ------------------------------------------------------------------------------
 GePol: Number of generator spheres                  =      13
 GePol: Total number of spheres                      =      13
 GePol: Number of exposed spheres                    =      13 (100.00%)
 GePol: Number of points                             =    1253
 GePol: Average weight of points                     =       0.13
 GePol: Minimum weight of points                     =   0.21D-07
 GePol: Maximum weight of points                     =    0.20577
 GePol: Number of points with low weight             =      64
 GePol: Fraction of low-weight points (<1% of avg)   =       5.11%
 GePol: Cavity surface area                          =    164.383 Ang**2
 GePol: Cavity volume                                =    159.775 Ang**3
 Leave Link  301 at Tue Jan 23 12:36:23 2024, MaxMem= 14763950080 cpu:               0.1 elap:               0.1
 (Enter /software/commercial/gaussian/g16/AVX2/g16/l302.exe)
 NPDir=0 NMtPBC=     1 NCelOv=     1 NCel=       1 NClECP=     1 NCelD=      1
         NCelK=      1 NCelE2=     1 NClLst=     1 CellRange=     0.0.
 One-electron integrals computed using PRISM.
 NBasis=   222 RedAO= T EigKep=  6.88D-06  NBF=   222
 NBsUse=   222 1.00D-06 EigRej= -1.00D+00 NBFU=   222
 Precomputing XC quadrature grid using
 IXCGrd= 4 IRadAn=           5 IRanWt=          -1 IRanGd=           0 AccXCQ= 0.00D+00.
 Generated NRdTot=       0 NPtTot=           0 NUsed=           0 NTot=          32
 NSgBfM=   231   231   231   231   231 MxSgAt=    13 MxSgA2=    13.
 Leave Link  302 at Tue Jan 23 12:36:23 2024, MaxMem= 14763950080 cpu:               1.3 elap:               0.2
 (Enter /software/commercial/gaussian/g16/AVX2/g16/l303.exe)
 DipDrv:  MaxL=1.
 Leave Link  303 at Tue Jan 23 12:36:24 2024, MaxMem= 14763950080 cpu:               0.1 elap:               0.1
 (Enter /software/commercial/gaussian/g16/AVX2/g16/l401.exe)
 Initial guess from the checkpoint file:  "/scratch1/svicchi/G09-1911997.pbs02/02-freq/PyrOH-CO2_binding-site_index-5-freq.chk"
 B after Tr=     0.000000    0.000000    0.000000
         Rot=    1.000000    0.000000    0.000000    0.000000 Ang=   0.00 deg.
 Guess basis will be translated and rotated to current coordinates.
 JPrj=2 DoOrth=T DoCkMO=T.
 Leave Link  401 at Tue Jan 23 12:36:24 2024, MaxMem= 14763950080 cpu:               0.5 elap:               0.1
 (Enter /software/commercial/gaussian/g16/AVX2/g16/l502.exe)
 Two-electron integral symmetry not used.
 Closed shell SCF:
 Using DIIS extrapolation, IDIIS=  1040.
 NGot= 14763950080 LenX= 14763838589 LenY= 14763784787
 Requested convergence on RMS density matrix=1.00D-08 within 350 cycles.
 Requested convergence on MAX density matrix=1.00D-06.
 Requested convergence on             energy=1.00D-06.
 No special actions if energy rises.
 Fock matrices will be formed incrementally for  20 cycles.

 Cycle   1  Pass 1  IDiag  1:
 FoFJK:  IHMeth= 1 ICntrl=       0 DoSepK=F KAlg= 0 I1Cent=           0 FoldK=F
 IRaf= 960000000 NMat=       1 IRICut=       1 DoRegI=T DoRafI=F ISym2E= 0 IDoP0=0 IntGTp=1.
 FoFCou: FMM=F IPFlag=           0 FMFlag=      100000 FMFlg1=           0
         NFxFlg=           0 DoJE=F BraDBF=F KetDBF=F FulRan=T
         wScrn=  0.000000 ICntrl=         0 IOpCl=  0 I1Cent=           0 NGrid=           0
         NMat0=    1 NMatS0=      1 NMatT0=    0 NMatD0=    1 NMtDS0=    0 NMtDT0=    0
 Symmetry not used in FoFCou.
 Inv3:  Mode=1 IEnd=     4710027.
 Iteration    1 A*A^-1 deviation from unit magnitude is 3.55D-15 for    770.
 Iteration    1 A*A^-1 deviation from orthogonality  is 1.78D-15 for    990    858.
 Iteration    1 A^-1*A deviation from unit magnitude is 3.33D-15 for    770.
 Iteration    1 A^-1*A deviation from orthogonality  is 2.10D-14 for    479    442.
 E= -473.697830576279    
 DIIS: error= 5.38D-08 at cycle   1 NSaved=   1.
 NSaved= 1 IEnMin= 1 EnMin= -473.697830576279     IErMin= 1 ErrMin= 5.38D-08
 ErrMax= 5.38D-08  0.00D+00 EMaxC= 1.00D-01 BMatC= 3.91D-13 BMatP= 3.91D-13
 IDIUse=1 WtCom= 1.00D+00 WtEn= 0.00D+00
 Coeff-Com:  0.100D+01
 Coeff:      0.100D+01
 Gap=     0.200 Goal=   None    Shift=    0.000
 RMSDP=7.79D-09 MaxDP=2.21D-07              OVMax= 4.70D-07

 Error on total polarization charges =  0.01900
 SCF Done:  E(RB3LYP) =  -473.697830576     A.U. after    1 cycles
            NFock=  1  Conv=0.78D-08     -V/T= 2.0037
 KE= 4.719301613239D+02 PE=-1.990224945076D+03 EE= 6.106782190176D+02
 Leave Link  502 at Tue Jan 23 12:36:26 2024, MaxMem= 14763950080 cpu:              19.5 elap:               2.0
 (Enter /software/commercial/gaussian/g16/AVX2/g16/l508.exe)
 QCSCF skips out because SCF is already converged.
 Leave Link  508 at Tue Jan 23 12:36:26 2024, MaxMem= 14763950080 cpu:               0.0 elap:               0.0
 (Enter /software/commercial/gaussian/g16/AVX2/g16/l801.exe)
 DoSCS=F DFT=T ScalE2(SS,OS)=  1.000000  1.000000
 Range of M.O.s used for correlation:     1   222
 NBasis=   222 NAE=    33 NBE=    33 NFC=     0 NFV=     0
 NROrb=    222 NOA=    33 NOB=    33 NVA=   189 NVB=   189

 **** Warning!!: The largest alpha MO coefficient is  0.87246011D+02

 Leave Link  801 at Tue Jan 23 12:36:27 2024, MaxMem= 14763950080 cpu:               0.1 elap:               0.1
 (Enter /software/commercial/gaussian/g16/AVX2/g16/l1002.exe)
 Minotr:  Closed shell wavefunction.
 NEqPCM:  Using equilibrium solvation (IEInf=0, Eps=  24.8520, EpsInf=   1.8526)
          Direct CPHF calculation.
          Differentiating once with respect to electric field.
                with respect to dipole field.
          Electric field/nuclear overlap derivatives assumed to be zero.
          Requested convergence is 1.0D-08 RMS, and 1.0D-07 maximum.
          Secondary convergence is 1.0D-12 RMS, and 1.0D-12 maximum.
          NewPWx=F KeepS1=T KeepF1=T KeepIn=T MapXYZ=F SortEE=F KeepMc=T.
         4001 words used for storage of precomputed grid.
 Two-electron integral symmetry not used.
          MDV=   14763950080 using IRadAn=       1.
          Solving linear equations simultaneously, MaxMat=     384.
          There are     3 degrees of freedom in the 1st order CPHF.  IDoFFX=0 NUNeed=     3.
      3 vectors produced by pass  0 Test12= 2.08D-13 3.33D-08 XBig12= 9.40D+01 5.16D+00.
 AX will form     3 AO Fock derivatives at one time.
 FoFJK:  IHMeth= 1 ICntrl=       0 DoSepK=F KAlg= 0 I1Cent=           0 FoldK=F
 IRaf= 960000000 NMat=       3 IRICut=       1 DoRegI=T DoRafI=F ISym2E= 0 IDoP0=0 IntGTp=1.
 FoFCou: FMM=F IPFlag=           0 FMFlag=      100000 FMFlg1=           0
         NFxFlg=           0 DoJE=F BraDBF=F KetDBF=F FulRan=T
         wScrn=  0.000000 ICntrl=         0 IOpCl=  0 I1Cent=           0 NGrid=           0
         NMat0=    3 NMatS0=      3 NMatT0=    0 NMatD0=    3 NMtDS0=    0 NMtDT0=    0
 Symmetry not used in FoFCou.
      3 vectors produced by pass  1 Test12= 2.08D-13 3.33D-08 XBig12= 3.61D+01 1.35D+00.
      3 vectors produced by pass  2 Test12= 2.08D-13 3.33D-08 XBig12= 5.89D+00 6.56D-01.
      3 vectors produced by pass  3 Test12= 2.08D-13 3.33D-08 XBig12= 3.44D+00 6.75D-01.
      3 vectors produced by pass  4 Test12= 2.08D-13 3.33D-08 XBig12= 5.19D-01 1.63D-01.
      3 vectors produced by pass  5 Test12= 2.08D-13 3.33D-08 XBig12= 2.17D-01 1.02D-01.
      3 vectors produced by pass  6 Test12= 2.08D-13 3.33D-08 XBig12= 3.30D-02 4.91D-02.
      3 vectors produced by pass  7 Test12= 2.08D-13 3.33D-08 XBig12= 9.20D-03 1.49D-02.
      3 vectors produced by pass  8 Test12= 2.08D-13 3.33D-08 XBig12= 4.72D-04 4.12D-03.
      3 vectors produced by pass  9 Test12= 2.08D-13 3.33D-08 XBig12= 1.72D-05 9.09D-04.
      3 vectors produced by pass 10 Test12= 2.08D-13 3.33D-08 XBig12= 5.96D-07 1.20D-04.
      3 vectors produced by pass 11 Test12= 2.08D-13 3.33D-08 XBig12= 1.96D-08 2.01D-05.
      2 vectors produced by pass 12 Test12= 2.08D-13 3.33D-08 XBig12= 4.85D-10 3.40D-06.
      2 vectors produced by pass 13 Test12= 2.08D-13 3.33D-08 XBig12= 1.16D-11 4.56D-07.
      1 vectors produced by pass 14 Test12= 2.08D-13 3.33D-08 XBig12= 3.07D-13 7.70D-08.
 InvSVY:  IOpt=1 It=  1 EMax= 7.11D-15
 Solved reduced A of dimension    41 with     3 vectors.
 End of Minotr F.D. properties file   721 does not exist.
 End of Minotr F.D. properties file   722 does not exist.
 End of Minotr F.D. properties file   788 does not exist.
 Leave Link 1002 at Tue Jan 23 12:36:51 2024, MaxMem= 14763950080 cpu:             267.5 elap:              23.6
 (Enter /software/commercial/gaussian/g16/AVX2/g16/l1101.exe)
 Using compressed storage, NAtomX=    13.
 Will process     14 centers per pass.
 R6Disp: Adding Grimme-D3(BJ) dispersion energy 1st derivatives to the gradient.
 Leave Link 1101 at Tue Jan 23 12:36:51 2024, MaxMem= 14763950080 cpu:               1.3 elap:               0.2
 (Enter /software/commercial/gaussian/g16/AVX2/g16/l1102.exe)
 Symmetrizing basis deriv contribution to polar:
 IMax=3 JMax=2 DiffMx= 0.00D+00
 Leave Link 1102 at Tue Jan 23 12:36:51 2024, MaxMem= 14763950080 cpu:               0.1 elap:               0.1
 (Enter /software/commercial/gaussian/g16/AVX2/g16/l1110.exe)
 Forming Gx(P) for the SCF density, NAtomX=    13.
 Integral derivatives from FoFJK, PRISM(SPDF).
 Do as many integral derivatives as possible in FoFJK.
 G2DrvN: MDV=   14763948631.
 G2DrvN: will do    14 centers at a time, making    1 passes.
 PxScal for G2LodP:  IOpCl= 0 ISclPx=1 IMOff=     1 NMtTot=     4 NTT=   24753 ScalPx= 3.06D+01
 Calling FoFCou, ICntrl=  3107 FMM=F I1Cent=   0 AccDes= 0.00D+00.
 FoFJK:  IHMeth= 1 ICntrl=    3107 DoSepK=F KAlg= 0 I1Cent=           0 FoldK=F
 IRaf=         0 NMat=       1 IRICut=       1 DoRegI=T DoRafI=F ISym2E= 0 IDoP0=0 IntGTp=1.
 FoFCou: FMM=F IPFlag=           0 FMFlag=      100000 FMFlg1=           0
         NFxFlg=           0 DoJE=F BraDBF=F KetDBF=F FulRan=T
         wScrn=  0.000000 ICntrl=      3107 IOpCl=  0 I1Cent=           0 NGrid=           0
         NMat0=    1 NMatS0=      1 NMatT0=    0 NMatD0=    4 NMtDS0=    3 NMtDT0=    0
 Symmetry not used in FoFCou.
 PxScal for G2LodP:  IOpCl= 0 ISclPx=0 IMOff=     1 NMtTot=     4 NTT=   24753 ScalPx= 1.00D+00
 NEqPCM:  Using equilibrium solvation (IEInf=0, Eps=  24.8520, EpsInf=   1.8526)
 G2PCM: DoFxE=T DoFxN=T DoGrad=T DoDP/DQ/DG/TGxP=TFFF NFrqRd=   0 IEInf=0 SqF1=F DoCFld=F IF1Alg=4.
 GePol: Maximum number of non-zero 1st derivatives   =     209
 End of G2Drv F.D. properties file   721 does not exist.
 End of G2Drv F.D. properties file   722 does not exist.
 End of G2Drv F.D. properties file   788 does not exist.
 Leave Link 1110 at Tue Jan 23 12:37:16 2024, MaxMem= 14763950080 cpu:             290.2 elap:              24.6
 (Enter /software/commercial/gaussian/g16/AVX2/g16/l1002.exe)
 Minotr:  Closed shell wavefunction.
          IDoAtm=1111111111111
 NEqPCM:  Using equilibrium solvation (IEInf=0, Eps=  24.8520, EpsInf=   1.8526)
          Direct CPHF calculation.
          Differentiating once with respect to electric field.
                with respect to dipole field.
          Differentiating once with respect to nuclear coordinates.
          Requested convergence is 1.0D-08 RMS, and 1.0D-07 maximum.
          Secondary convergence is 1.0D-12 RMS, and 1.0D-12 maximum.
          NewPWx=T KeepS1=F KeepF1=F KeepIn=T MapXYZ=F SortEE=F KeepMc=T.
         4001 words used for storage of precomputed grid.
 Keep R1 ints in memory in canonical form, NReq=319053101.
 FoFCou: FMM=F IPFlag=           0 FMFlag=           0 FMFlg1=           0
         NFxFlg=           0 DoJE=F BraDBF=F KetDBF=F FulRan=T
         wScrn=  0.000000 ICntrl=       600 IOpCl=  0 I1Cent=           0 NGrid=           0
         NMat0=    1 NMatS0=  24753 NMatT0=    0 NMatD0=    1 NMtDS0=    0 NMtDT0=    0
 Symmetry not used in FoFCou.
 Two-electron integral symmetry not used.
          MDV=   14763950080 using IRadAn=       1.
          Solving linear equations simultaneously, MaxMat=       0.
          There are    42 degrees of freedom in the 1st order CPHF.  IDoFFX=5 NUNeed=    42.
 Will reuse    3 saved solutions.
     36 vectors produced by pass  0 Test12= 1.49D-14 2.38D-09 XBig12= 1.62D-01 9.08D-02.
 AX will form    36 AO Fock derivatives at one time.
     36 vectors produced by pass  1 Test12= 1.49D-14 2.38D-09 XBig12= 2.65D-02 5.44D-02.
     36 vectors produced by pass  2 Test12= 1.49D-14 2.38D-09 XBig12= 4.13D-04 5.77D-03.
     36 vectors produced by pass  3 Test12= 1.49D-14 2.38D-09 XBig12= 3.31D-06 2.65D-04.
     36 vectors produced by pass  4 Test12= 1.49D-14 2.38D-09 XBig12= 1.68D-08 1.67D-05.
     36 vectors produced by pass  5 Test12= 1.49D-14 2.38D-09 XBig12= 3.48D-11 8.68D-07.
     19 vectors produced by pass  6 Test12= 1.49D-14 2.38D-09 XBig12= 5.71D-14 3.81D-08.
 InvSVY:  IOpt=1 It=  1 EMax= 8.88D-16
 Solved reduced A of dimension   235 with    36 vectors.
 FullF1:  Do perturbations      1 to       3.
 Isotropic polarizability for W=    0.000000      106.12 Bohr**3.
 FullF1:  Do perturbations      1 to       6.
 End of Minotr F.D. properties file   721 does not exist.
 End of Minotr F.D. properties file   722 does not exist.
 End of Minotr F.D. properties file   788 does not exist.
 Leave Link 1002 at Tue Jan 23 12:37:40 2024, MaxMem= 14763950080 cpu:             267.3 elap:              23.5
 (Enter /software/commercial/gaussian/g16/AVX2/g16/l601.exe)
 Copying SCF densities to generalized density rwf, IOpCl= 0 IROHF=0.

 **********************************************************************

            Population analysis using the SCF Density.

 **********************************************************************

 Alpha  occ. eigenvalues --  -19.13360 -19.08291 -19.07539 -14.35068 -10.29859
 Alpha  occ. eigenvalues --  -10.24538 -10.17875 -10.15584 -10.14571  -1.07505
 Alpha  occ. eigenvalues --   -1.04281  -0.96542  -0.95157  -0.77718  -0.70527
 Alpha  occ. eigenvalues --   -0.61125  -0.58193  -0.55873  -0.48929  -0.46363
 Alpha  occ. eigenvalues --   -0.45642  -0.44274  -0.42571  -0.40834  -0.39529
 Alpha  occ. eigenvalues --   -0.38346  -0.36285  -0.33991  -0.28064  -0.27239
 Alpha  occ. eigenvalues --   -0.25859  -0.24629  -0.19102
 Alpha virt. eigenvalues --    0.00909   0.01279   0.02806   0.03375   0.04685
 Alpha virt. eigenvalues --    0.05451   0.05706   0.06704   0.06789   0.08742
 Alpha virt. eigenvalues --    0.08822   0.09387   0.10095   0.10755   0.11608
 Alpha virt. eigenvalues --    0.13179   0.13751   0.14150   0.15762   0.16138
 Alpha virt. eigenvalues --    0.17541   0.18662   0.19880   0.20323   0.21061
 Alpha virt. eigenvalues --    0.22068   0.22072   0.22924   0.23557   0.24126
 Alpha virt. eigenvalues --    0.24587   0.25319   0.25396   0.26894   0.27570
 Alpha virt. eigenvalues --    0.28266   0.29792   0.30008   0.30789   0.30939
 Alpha virt. eigenvalues --    0.31347   0.32666   0.33905   0.37221   0.37993
 Alpha virt. eigenvalues --    0.39192   0.40975   0.41300   0.44043   0.47021
 Alpha virt. eigenvalues --    0.48033   0.51464   0.53152   0.56486   0.57243
 Alpha virt. eigenvalues --    0.57324   0.58514   0.62639   0.63352   0.64399
 Alpha virt. eigenvalues --    0.66237   0.70666   0.72544   0.73617   0.75075
 Alpha virt. eigenvalues --    0.76766   0.80666   0.80948   0.82581   0.84680
 Alpha virt. eigenvalues --    0.86168   0.87328   0.89606   0.91289   0.93872
 Alpha virt. eigenvalues --    0.96428   1.00985   1.06722   1.07990   1.08429
 Alpha virt. eigenvalues --    1.10896   1.13326   1.13686   1.16081   1.16270
 Alpha virt. eigenvalues --    1.17511   1.19133   1.19510   1.19556   1.23292
 Alpha virt. eigenvalues --    1.26302   1.27615   1.31442   1.37935   1.39026
 Alpha virt. eigenvalues --    1.42389   1.46636   1.50920   1.56222   1.56607
 Alpha virt. eigenvalues --    1.57484   1.60616   1.60649   1.67054   1.69091
 Alpha virt. eigenvalues --    1.72719   1.76221   1.76770   1.78417   1.79767
 Alpha virt. eigenvalues --    1.83137   1.90653   1.93689   1.93808   1.94596
 Alpha virt. eigenvalues --    1.96287   1.99037   1.99551   2.05478   2.08714
 Alpha virt. eigenvalues --    2.14046   2.21595   2.22490   2.36135   2.38932
 Alpha virt. eigenvalues --    2.42022   2.44952   2.48955   2.52411   2.63170
 Alpha virt. eigenvalues --    2.63398   2.66719   2.71044   2.72172   2.74295
 Alpha virt. eigenvalues --    2.77753   2.77975   2.80371   2.81568   2.84435
 Alpha virt. eigenvalues --    2.88504   2.95218   2.96990   2.97831   3.01955
 Alpha virt. eigenvalues --    3.11365   3.13841   3.18876   3.20300   3.22390
 Alpha virt. eigenvalues --    3.23823   3.28663   3.29344   3.35364   3.40845
 Alpha virt. eigenvalues --    3.50231   3.51483   3.55195   3.58656   3.65518
 Alpha virt. eigenvalues --    3.71988   3.81586   3.87934   3.88380   3.94588
 Alpha virt. eigenvalues --    4.08385   4.10201   4.14548   4.29867   4.92032
 Alpha virt. eigenvalues --    5.00301   5.03724   5.07762   5.09543   5.18522
 Alpha virt. eigenvalues --    5.22099   5.48509   5.68494   5.78943   5.91500
 Alpha virt. eigenvalues --   23.70420  23.84629  23.87626  24.13878  24.20325
 Alpha virt. eigenvalues --   35.55437  49.94392  49.98130  50.07736
          Condensed to atoms (all electrons):
               1          2          3          4          5          6
     1  C    6.427457  -0.455716   0.847338  -0.043058  -1.296063   0.289619
     2  C   -0.455716   5.984346  -0.349285   0.404843   0.973716  -0.234219
     3  C    0.847338  -0.349285   6.917173  -0.018291  -1.448883  -0.089194
     4  H   -0.043058   0.404843  -0.018291   0.520340  -0.005877   0.018481
     5  C   -1.296063   0.973716  -1.448883  -0.005877   7.588327   0.092024
     6  N    0.289619  -0.234219  -0.089194   0.018481   0.092024   7.293410
     7  H    0.444645  -0.043869   0.005619  -0.003829   0.003634  -0.047987
     8  O    0.007341   0.015510  -0.248918  -0.000329   0.344779  -0.054179
     9  H   -0.006406  -0.013394   0.426977  -0.004269  -0.059886   0.015312
    10  H    0.024742  -0.024566   0.141470   0.000013  -0.106067  -0.003703
    11  C   -0.095086   0.021498  -0.145824   0.000496  -0.019690   0.130614
    12  O   -0.056300   0.054725  -0.008507   0.000083   0.039674  -0.152879
    13  O    0.034670  -0.003629   0.039716   0.000095  -0.056368  -0.124849
               7          8          9         10         11         12
     1  C    0.444645   0.007341  -0.006406   0.024742  -0.095086  -0.056300
     2  C   -0.043869   0.015510  -0.013394  -0.024566   0.021498   0.054725
     3  C    0.005619  -0.248918   0.426977   0.141470  -0.145824  -0.008507
     4  H   -0.003829  -0.000329  -0.004269   0.000013   0.000496   0.000083
     5  C    0.003634   0.344779  -0.059886  -0.106067  -0.019690   0.039674
     6  N   -0.047987  -0.054179   0.015312  -0.003703   0.130614  -0.152879
     7  H    0.499418  -0.000773  -0.000129   0.000027  -0.003166   0.001055
     8  O   -0.000773   8.164940  -0.003329   0.249636   0.005150  -0.003003
     9  H   -0.000129  -0.003329   0.521522  -0.000165  -0.000323   0.000119
    10  H    0.000027   0.249636  -0.000165   0.368592  -0.047493   0.003513
    11  C   -0.003166   0.005150  -0.000323  -0.047493   4.830132   0.442954
    12  O    0.001055  -0.003003   0.000119   0.003513   0.442954   8.339659
    13  O    0.000134  -0.082107   0.000228   0.077028   0.392364  -0.127839
              13
     1  C    0.034670
     2  C   -0.003629
     3  C    0.039716
     4  H    0.000095
     5  C   -0.056368
     6  N   -0.124849
     7  H    0.000134
     8  O   -0.082107
     9  H    0.000228
    10  H    0.077028
    11  C    0.392364
    12  O   -0.127839
    13  O    8.423900
 Mulliken charges:
               1
     1  C   -0.123185
     2  C   -0.329959
     3  C   -0.069392
     4  H    0.131302
     5  C   -0.049318
     6  N   -0.132451
     7  H    0.145222
     8  O   -0.394717
     9  H    0.123744
    10  H    0.316973
    11  C    0.488375
    12  O   -0.533253
    13  O   -0.573342
 Sum of Mulliken charges =  -1.00000
 Mulliken charges with hydrogens summed into heavy atoms:
               1
     1  C    0.022037
     2  C   -0.198657
     3  C    0.054353
     5  C   -0.049318
     6  N   -0.132451
     8  O   -0.077744
    11  C    0.488375
    12  O   -0.533253
    13  O   -0.573342
 APT charges:
               1
     1  C   -0.003772
     2  C   -0.047043
     3  C   -0.438980
     4  H    0.070450
     5  C    1.007387
     6  N   -0.961075
     7  H    0.124878
     8  O   -1.114203
     9  H    0.080988
    10  H    0.631072
    11  C    2.233591
    12  O   -1.257099
    13  O   -1.326195
 Sum of APT charges =  -1.00000
 APT charges with hydrogens summed into heavy atoms:
               1
     1  C    0.121107
     2  C    0.023407
     3  C   -0.357992
     5  C    1.007387
     6  N   -0.961075
     8  O   -0.483131
    11  C    2.233591
    12  O   -1.257099
    13  O   -1.326195
 Electronic spatial extent (au):  <R**2>=           1372.9805
 Charge=             -1.0000 electrons
 Dipole moment (field-independent basis, Debye):
    X=            -10.3490    Y=             -4.7963    Z=             -0.5583  Tot=             11.4200
 Quadrupole moment (field-independent basis, Debye-Ang):
   XX=            -82.9312   YY=            -74.2368   ZZ=            -58.3834
   XY=            -12.2100   XZ=             -1.9133   YZ=             -5.4576
 Traceless Quadrupole moment (field-independent basis, Debye-Ang):
   XX=            -11.0808   YY=             -2.3863   ZZ=             13.4671
   XY=            -12.2100   XZ=             -1.9133   YZ=             -5.4576
 Octapole moment (field-independent basis, Debye-Ang**2):
  XXX=           -264.2652  YYY=            -86.3827  ZZZ=             28.6165  XYY=           -102.7918
  XXY=            -49.6265  XXZ=              2.9307  XZZ=            -58.3261  YZZ=            -16.7867
  YYZ=             -3.1265  XYZ=            -15.6739
 Hexadecapole moment (field-independent basis, Debye-Ang**3):
 XXXX=          -1343.1536 YYYY=           -723.0120 ZZZZ=           -151.8789 XXXY=           -235.7393
 XXXZ=            -20.4215 YYYX=           -203.2723 YYYZ=           -121.2663 ZZZX=             -3.9510
 ZZZY=            -96.3715 XXYY=           -374.5337 XXZZ=           -211.6062 YYZZ=           -135.2996
 XXYZ=            -57.1141 YYXZ=            -19.8099 ZZXY=            -42.8786
 N-N= 4.339187341587D+02 E-N=-1.990224952270D+03  KE= 4.719301613239D+02
  Exact polarizability:     125.154       5.416     118.875       2.169      19.668      74.322
 Approx polarizability:     140.160       0.555     136.267       0.346      23.919      82.078
 No NMR shielding tensors so no spin-rotation constants.
 Leave Link  601 at Tue Jan 23 12:37:40 2024, MaxMem= 14763950080 cpu:               1.0 elap:               0.2
 (Enter /software/commercial/gaussian/g16/AVX2/g16/l701.exe)
 ... and contract with generalized density number  0.
 Compute integral second derivatives.
 R6Disp: Adding Grimme-D3(BJ) dispersion energy 2nd derivatives to the Hessian.
 D2PCM: PCM CHGder 2nd derivatives, FixD1E=F FixD2E=F DoIter=F DoCFld=F I1PDM=0
 GePol: Maximum number of non-zero 2nd derivatives   =     209
 Leave Link  701 at Tue Jan 23 12:37:43 2024, MaxMem= 14763950080 cpu:              31.3 elap:               2.9
 (Enter /software/commercial/gaussian/g16/AVX2/g16/l702.exe)
 L702 exits ... SP integral derivatives will be done elsewhere.
 Leave Link  702 at Tue Jan 23 12:37:44 2024, MaxMem= 14763950080 cpu:               0.1 elap:               0.0
 (Enter /software/commercial/gaussian/g16/AVX2/g16/l703.exe)
 Integral derivatives from FoFJK, PRISM(SPDF).
 Compute integral second derivatives, UseDBF=F ICtDFT=           0.
 Calling FoFJK, ICntrl=    100127 FMM=F ISym2X=0 I1Cent= 0 IOpClX= 0 NMat=1 NMatS=1 NMatT=0.
 FoFJK:  IHMeth= 1 ICntrl=  100127 DoSepK=F KAlg= 0 I1Cent=           0 FoldK=F
 IRaf=         0 NMat=       1 IRICut=       1 DoRegI=T DoRafI=F ISym2E= 0 IDoP0=0 IntGTp=1.
 FoFCou: FMM=F IPFlag=           0 FMFlag=      100000 FMFlg1=         800
         NFxFlg=           0 DoJE=F BraDBF=F KetDBF=F FulRan=T
         wScrn=  0.000000 ICntrl=    100127 IOpCl=  0 I1Cent=           0 NGrid=           0
         NMat0=    1 NMatS0=      1 NMatT0=    0 NMatD0=    1 NMtDS0=    0 NMtDT0=    0
 Symmetry not used in FoFCou.
 Leave Link  703 at Tue Jan 23 12:38:13 2024, MaxMem= 14763950080 cpu:             351.9 elap:              29.5
 (Enter /software/commercial/gaussian/g16/AVX2/g16/l716.exe)
 Dipole        =-4.07160329D+00-1.88699026D+00-2.19640486D-01
 Polarizability= 1.25153644D+02 5.41584294D+00 1.18874661D+02
                 2.16856584D+00 1.96682991D+01 7.43215474D+01
 HyperPolar    =-1.39673385D+02 2.63642739D+02-1.27556976D+02
                 5.85644569D+01 1.00311916D+02 5.08983426D+01
                 2.09452952D+01-2.40801927D+02 9.26032264D+00
                 2.10956511D+00
 Full mass-weighted force constant matrix:
 Low frequencies ---  -13.8575   -0.0014   -0.0011   -0.0008    8.4687   11.2060
 Low frequencies ---   99.4957  132.5614  275.6681
 Diagonal vibrational polarizability:
       32.0527230      39.4551862      28.6540950
 Diagonal vibrational hyperpolarizability:
      -92.9539254       1.5635884      26.5975692
 Harmonic frequencies (cm**-1), IR intensities (KM/Mole), Raman scattering
 activities (A**4/AMU), depolarization ratios for plane and unpolarized
 incident light, reduced masses (AMU), force constants (mDyne/A),
 and normal coordinates:
                      1                      2                      3
                      A                      A                      A
 Frequencies --     99.4696               132.5583               275.6667
 Red. masses --     12.5596                 5.9793                 6.9651
 Frc consts  --      0.0732                 0.0619                 0.3118
 IR Inten    --      1.2758                 2.4471                19.3857
 Raman Activ --      0.4902                 3.2444                 1.3929
 Depolar (P) --      0.7496                 0.7497                 0.3923
 Depolar (U) --      0.8569                 0.8570                 0.5635
  Atom  AN      X      Y      Z        X      Y      Z        X      Y      Z
     1   6     0.00  -0.06   0.17     0.00  -0.09   0.24    -0.22  -0.05  -0.02
     2   6    -0.00  -0.06   0.16     0.00   0.05  -0.14    -0.06  -0.16  -0.06
     3   6    -0.00   0.01  -0.03     0.00   0.11  -0.28     0.08  -0.05  -0.02
     4   1    -0.00  -0.11   0.29     0.00   0.11  -0.29    -0.05  -0.30  -0.12
     5   6     0.00   0.04  -0.10     0.00  -0.02   0.05     0.01   0.10   0.04
     6   7     0.00  -0.01   0.01    -0.00  -0.14   0.37    -0.14   0.11   0.04
     7   1     0.00  -0.11   0.29     0.00  -0.14   0.37    -0.39  -0.09  -0.04
     8   8     0.00   0.12  -0.32    -0.00  -0.04   0.11     0.07   0.27   0.10
     9   1    -0.00   0.04  -0.10     0.00   0.21  -0.55     0.23  -0.08  -0.03
    10   1     0.00  -0.02   0.05     0.00  -0.02   0.04    -0.04   0.45   0.17
    11   6    -0.00  -0.01   0.03    -0.00  -0.00  -0.00    -0.03  -0.03  -0.01
    12   8    -0.00   0.17  -0.46    -0.00   0.07  -0.18     0.34   0.03   0.01
    13   8    -0.00  -0.21   0.56     0.00   0.05  -0.13    -0.11  -0.24  -0.09
                      4                      5                      6
                      A                      A                      A
 Frequencies --    293.9828               391.3729               474.8200
 Red. masses --      6.8902                 6.6559                10.3284
 Frc consts  --      0.3509                 0.6007                 1.3720
 IR Inten    --      0.4532                25.0754                 0.4799
 Raman Activ --      3.0480                 1.5519                 6.2159
 Depolar (P) --      0.7500                 0.3920                 0.4979
 Depolar (U) --      0.8571                 0.5632                 0.6648
  Atom  AN      X      Y      Z        X      Y      Z        X      Y      Z
     1   6    -0.00  -0.08   0.20     0.11   0.11   0.04    -0.11  -0.12  -0.04
     2   6    -0.00  -0.08   0.21     0.04   0.17   0.06    -0.19  -0.10  -0.04
     3   6     0.00   0.10  -0.26    -0.04   0.07   0.03    -0.24  -0.15  -0.06
     4   1    -0.00  -0.19   0.49     0.04   0.24   0.09    -0.20  -0.01  -0.01
     5   6     0.00   0.11  -0.29     0.02  -0.03  -0.01    -0.23  -0.06  -0.02
     6   7    -0.00   0.11  -0.28     0.02  -0.08  -0.03    -0.03  -0.10  -0.04
     7   1    -0.00  -0.13   0.35     0.26   0.14   0.06    -0.15  -0.13  -0.05
     8   8    -0.00  -0.11   0.31     0.18   0.30   0.11    -0.09   0.26   0.10
     9   1     0.00   0.06  -0.16    -0.20   0.10   0.04    -0.26  -0.14  -0.06
    10   1    -0.00  -0.09   0.26    -0.02   0.58   0.22    -0.14   0.30   0.11
    11   6    -0.00   0.03  -0.07    -0.09  -0.21  -0.08     0.26  -0.04  -0.01
    12   8     0.00  -0.01   0.01    -0.23  -0.25  -0.09     0.09  -0.10  -0.04
    13   8    -0.00  -0.01   0.03    -0.01  -0.13  -0.05     0.45   0.29   0.11
                      7                      8                      9
                      A                      A                      A
 Frequencies --    583.0715               611.9400               630.1934
 Red. masses --      5.7426                 3.6306                 1.8777
 Frc consts  --      1.1503                 0.8010                 0.4394
 IR Inten    --     12.9413                 6.4373                22.9237
 Raman Activ --      6.9482                 0.8252                18.2409
 Depolar (P) --      0.4828                 0.7499                 0.7497
 Depolar (U) --      0.6512                 0.8571                 0.8569
  Atom  AN      X      Y      Z        X      Y      Z        X      Y      Z
     1   6    -0.16   0.06   0.02     0.00   0.10  -0.25     0.00   0.05  -0.12
     2   6     0.05  -0.08  -0.03    -0.00  -0.10   0.26    -0.00  -0.01   0.04
     3   6     0.21   0.10   0.04     0.00   0.05  -0.13    -0.00   0.03  -0.08
     4   1     0.06  -0.30  -0.11    -0.00  -0.13   0.34    -0.00  -0.17   0.46
     5   6     0.04   0.27   0.10     0.00   0.04  -0.10    -0.00  -0.08   0.21
     6   7    -0.02   0.16   0.06     0.00  -0.07   0.19    -0.00   0.02  -0.06
     7   1    -0.34   0.01   0.01     0.00   0.27  -0.72     0.00  -0.23   0.61
     8   8    -0.18  -0.03  -0.01     0.00  -0.01   0.02     0.00   0.01  -0.02
     9   1     0.52   0.03   0.01    -0.00   0.06  -0.16     0.00   0.18  -0.48
    10   1     0.10  -0.33  -0.12     0.00   0.04  -0.11     0.00   0.01  -0.03
    11   6     0.11  -0.11  -0.04    -0.00  -0.02   0.06    -0.00   0.01  -0.02
    12   8    -0.18  -0.19  -0.07    -0.00   0.00  -0.01     0.00  -0.00   0.01
    13   8     0.17  -0.06  -0.02     0.00   0.00  -0.01    -0.00  -0.00   0.00
                     10                     11                     12
                      A                      A                      A
 Frequencies --    691.1037               710.0079               742.1384
 Red. masses --      1.3863                 8.0260                 1.9621
 Frc consts  --      0.3901                 2.3838                 0.6367
 IR Inten    --    160.6627                60.7405                23.5052
 Raman Activ --      6.0647                18.1855                18.8415
 Depolar (P) --      0.7500                 0.4687                 0.7499
 Depolar (U) --      0.8571                 0.6382                 0.8571
  Atom  AN      X      Y      Z        X      Y      Z        X      Y      Z
     1   6    -0.00   0.03  -0.08    -0.31   0.09   0.03    -0.00  -0.02   0.06
     2   6    -0.00   0.03  -0.07    -0.28   0.08   0.03    -0.00  -0.00   0.01
     3   6    -0.00  -0.00   0.01    -0.03   0.21   0.08     0.00   0.07  -0.19
     4   1    -0.00  -0.16   0.42    -0.28  -0.15  -0.07    -0.00  -0.05   0.13
     5   6     0.00   0.04  -0.10     0.16  -0.04  -0.02    -0.00  -0.06   0.16
     6   7    -0.00  -0.03   0.08    -0.16   0.01   0.00     0.00   0.01  -0.02
     7   1    -0.00  -0.21   0.55    -0.24   0.12   0.03    -0.00   0.14  -0.37
     8   8     0.00  -0.00   0.01     0.39  -0.21  -0.08     0.00   0.01  -0.04
     9   1    -0.00  -0.23   0.60    -0.22   0.26   0.08    -0.00  -0.30   0.80
    10   1     0.00  -0.03   0.08     0.34  -0.19  -0.07     0.00  -0.03   0.07
    11   6    -0.00  -0.00   0.01    -0.04  -0.10  -0.04     0.00   0.03  -0.07
    12   8     0.00   0.00  -0.00     0.08  -0.09  -0.04    -0.00  -0.01   0.02
    13   8     0.00   0.00  -0.00     0.08   0.12   0.04     0.00  -0.01   0.02
                     13                     14                     15
                      A                      A                      A
 Frequencies --    794.9246               804.7505               817.2475
 Red. masses --      7.4461                11.6130                 1.0971
 Frc consts  --      2.7722                 4.4312                 0.4317
 IR Inten    --     28.4170               214.1910               147.3036
 Raman Activ --      0.0437                13.7024                 1.4462
 Depolar (P) --      0.7109                 0.0736                 0.7418
 Depolar (U) --      0.8310                 0.1370                 0.8518
  Atom  AN      X      Y      Z        X      Y      Z        X      Y      Z
     1   6     0.00  -0.01   0.02     0.04   0.13   0.05     0.00   0.00  -0.01
     2   6     0.00  -0.00   0.01     0.27   0.03   0.02    -0.00  -0.01   0.03
     3   6     0.00   0.03  -0.08     0.16  -0.04  -0.02    -0.00   0.00  -0.00
     4   1     0.00   0.02  -0.05     0.28  -0.08  -0.04    -0.00   0.04  -0.09
     5   6    -0.00  -0.03   0.07    -0.01   0.00   0.00    -0.00  -0.00   0.00
     6   7    -0.00   0.07  -0.18    -0.09  -0.05  -0.02     0.00   0.00  -0.01
     7   1     0.00  -0.01   0.04     0.13   0.16   0.05    -0.00  -0.00   0.01
     8   8    -0.00  -0.00   0.01    -0.18   0.01  -0.00     0.00   0.02  -0.04
     9   1     0.00  -0.15   0.41     0.19  -0.04  -0.02    -0.00   0.01  -0.04
    10   1     0.00   0.18  -0.47    -0.04  -0.12   0.02    -0.00  -0.35   0.93
    11   6    -0.00  -0.24   0.62    -0.41  -0.31  -0.12     0.00  -0.01   0.04
    12   8     0.00   0.06  -0.17     0.33  -0.23  -0.08    -0.00   0.00  -0.01
    13   8    -0.00   0.06  -0.15    -0.13   0.41   0.15     0.00   0.01  -0.04
                     16                     17                     18
                      A                      A                      A
 Frequencies --    858.5791               905.7752              1022.9027
 Red. masses --      1.2643                 4.1366                 1.4068
 Frc consts  --      0.5491                 1.9995                 0.8672
 IR Inten    --      3.1958                15.9478                17.1897
 Raman Activ --      7.1938                22.4496                 4.0271
 Depolar (P) --      0.7498                 0.1591                 0.2672
 Depolar (U) --      0.8570                 0.2745                 0.4218
  Atom  AN      X      Y      Z        X      Y      Z        X      Y      Z
     1   6    -0.00  -0.02   0.06    -0.13   0.25   0.09     0.00   0.01   0.00
     2   6     0.00   0.04  -0.12     0.27   0.02   0.01    -0.06   0.07   0.02
     3   6    -0.00  -0.02   0.04    -0.04  -0.21  -0.08     0.02  -0.13  -0.05
     4   1    -0.00  -0.29   0.78     0.28  -0.16  -0.06    -0.09   0.70   0.26
     5   6     0.00   0.00  -0.00    -0.06  -0.13  -0.05    -0.02   0.01   0.00
     6   7    -0.00   0.00  -0.00    -0.10   0.09   0.04    -0.02   0.05   0.02
     7   1    -0.00   0.16  -0.44    -0.49   0.17   0.06    -0.15  -0.02  -0.01
     8   8     0.00   0.00  -0.00     0.06  -0.04  -0.02     0.04  -0.02  -0.01
     9   1     0.00   0.09  -0.23    -0.57  -0.09  -0.04     0.54  -0.26  -0.10
    10   1     0.00  -0.04   0.10    -0.04   0.06   0.02     0.03  -0.03  -0.01
    11   6    -0.00  -0.01   0.03     0.05   0.03   0.01    -0.00  -0.01  -0.00
    12   8     0.00   0.00  -0.00    -0.05   0.04   0.01    -0.00  -0.01  -0.01
    13   8    -0.00   0.00  -0.01     0.07  -0.04  -0.02     0.00   0.00   0.00
                     19                     20                     21
                      A                      A                      A
 Frequencies --   1061.0338              1146.8925              1213.9027
 Red. masses --      1.5844                 3.0147                 2.6575
 Frc consts  --      1.0509                 2.3364                 2.3072
 IR Inten    --     78.3921               122.0039               140.7242
 Raman Activ --     21.8587                 7.2054                22.9642
 Depolar (P) --      0.1814                 0.7410                 0.1649
 Depolar (U) --      0.3071                 0.8513                 0.2831
  Atom  AN      X      Y      Z        X      Y      Z        X      Y      Z
     1   6    -0.03   0.12   0.05     0.11  -0.01  -0.00     0.04   0.08   0.03
     2   6    -0.07   0.02   0.01     0.00  -0.10  -0.04    -0.10  -0.01  -0.00
     3   6     0.07  -0.06  -0.02    -0.13  -0.12  -0.04    -0.11  -0.04  -0.02
     4   1    -0.06  -0.36  -0.13    -0.00  -0.04  -0.01    -0.08  -0.68  -0.26
     5   6    -0.01  -0.03  -0.01    -0.05   0.21   0.08    -0.07  -0.05  -0.02
     6   7    -0.06  -0.08  -0.03    -0.08   0.11   0.04     0.24   0.14   0.05
     7   1     0.69   0.31   0.12     0.67   0.13   0.05    -0.25   0.01   0.00
     8   8    -0.01   0.01   0.00     0.10  -0.02  -0.01     0.04  -0.03  -0.01
     9   1     0.43  -0.15  -0.05    -0.42  -0.06  -0.02     0.41  -0.17  -0.06
    10   1    -0.03   0.01   0.01     0.28  -0.30  -0.11    -0.14   0.18   0.07
    11   6     0.03   0.02   0.01     0.09   0.01   0.00    -0.02  -0.02  -0.01
    12   8    -0.01   0.04   0.01     0.01  -0.09  -0.03     0.01  -0.06  -0.02
    13   8     0.02  -0.02  -0.01    -0.09   0.03   0.01    -0.06   0.03   0.01
                     22                     23                     24
                      A                      A                      A
 Frequencies --   1251.5822              1278.7171              1338.0872
 Red. masses --      2.8208                 4.9704                 5.9421
 Frc consts  --      2.6034                 4.7884                 6.2685
 IR Inten    --    337.4051               240.3149               262.9596
 Raman Activ --    121.2434                 6.3786                73.2709
 Depolar (P) --      0.3017                 0.7288                 0.2845
 Depolar (U) --      0.4636                 0.8431                 0.4430
  Atom  AN      X      Y      Z        X      Y      Z        X      Y      Z
     1   6     0.06   0.03   0.01    -0.19   0.11   0.04     0.12  -0.09  -0.03
     2   6     0.12   0.00   0.00    -0.09   0.07   0.02    -0.11   0.12   0.05
     3   6    -0.10   0.12   0.04     0.09  -0.14  -0.05     0.28   0.00   0.00
     4   1     0.15  -0.17  -0.06    -0.12   0.17   0.06    -0.10  -0.17  -0.07
     5   6    -0.11   0.04   0.01     0.13   0.07   0.03     0.00  -0.24  -0.09
     6   7    -0.12  -0.15  -0.06     0.22  -0.20  -0.08    -0.18   0.19   0.07
     7   1    -0.52  -0.13  -0.05    -0.36   0.09   0.03     0.03  -0.12  -0.04
     8   8     0.07  -0.01  -0.00    -0.07   0.07   0.03    -0.06  -0.01  -0.00
     9   1     0.71  -0.06  -0.02    -0.53  -0.01  -0.00    -0.33   0.15   0.06
    10   1     0.00  -0.03  -0.01     0.28  -0.35  -0.13    -0.47   0.38   0.14
    11   6     0.17   0.07   0.03     0.20   0.06   0.02     0.24   0.14   0.05
    12   8     0.01  -0.05  -0.02     0.02  -0.08  -0.03     0.00  -0.18  -0.07
    13   8    -0.10   0.03   0.01    -0.21   0.05   0.02    -0.13   0.07   0.02
                     25                     26                     27
                      A                      A                      A
 Frequencies --   1383.9920              1502.5021              1526.8536
 Red. masses --      1.9871                 3.1363                 3.2256
 Frc consts  --      2.2426                 4.1715                 4.4305
 IR Inten    --     64.2216               695.3430               193.4908
 Raman Activ --     24.5464                76.3785                89.5645
 Depolar (P) --      0.5207                 0.1588                 0.1114
 Depolar (U) --      0.6849                 0.2741                 0.2005
  Atom  AN      X      Y      Z        X      Y      Z        X      Y      Z
     1   6     0.15  -0.03  -0.01    -0.07  -0.10  -0.04     0.22   0.20   0.08
     2   6    -0.08   0.15   0.06     0.03   0.16   0.06    -0.15  -0.19  -0.07
     3   6     0.04  -0.09  -0.03     0.12  -0.08  -0.03     0.06  -0.01  -0.00
     4   1    -0.05  -0.50  -0.19     0.06  -0.21  -0.08    -0.21   0.19   0.07
     5   6     0.02   0.04   0.01    -0.18   0.21   0.08     0.06   0.09   0.03
     6   7    -0.08  -0.02  -0.01     0.05  -0.08  -0.03    -0.05  -0.08  -0.03
     7   1    -0.45  -0.19  -0.07     0.04  -0.09  -0.03    -0.51   0.05   0.02
     8   8    -0.01   0.04   0.02     0.08  -0.10  -0.04    -0.01  -0.05  -0.02
     9   1    -0.12  -0.07  -0.03    -0.24   0.01   0.00    -0.28   0.06   0.02
    10   1     0.41  -0.42  -0.16    -0.57   0.57   0.21    -0.41   0.42   0.16
    11   6    -0.05  -0.04  -0.02    -0.04   0.02   0.01    -0.06   0.05   0.02
    12   8    -0.00   0.05   0.02     0.01   0.00   0.00     0.01  -0.01  -0.00
    13   8     0.04  -0.02  -0.01     0.03  -0.01  -0.00     0.04  -0.01  -0.00
                     28                     29                     30
                      A                      A                      A
 Frequencies --   1599.1902              1706.3436              3049.1737
 Red. masses --      6.4562                 5.0052                 1.0702
 Frc consts  --      9.7280                 8.5863                 5.8625
 IR Inten    --    526.1324               732.1406              1183.8935
 Raman Activ --     19.9851                34.5772               156.8005
 Depolar (P) --      0.1351                 0.3827                 0.1524
 Depolar (U) --      0.2380                 0.5536                 0.2644
  Atom  AN      X      Y      Z        X      Y      Z        X      Y      Z
     1   6    -0.04  -0.07  -0.03    -0.02   0.02   0.01     0.00  -0.00  -0.00
     2   6     0.07   0.14   0.05    -0.01  -0.04  -0.01     0.00  -0.00  -0.00
     3   6    -0.28  -0.10  -0.04     0.11   0.04   0.02     0.00  -0.00  -0.00
     4   1     0.10  -0.28  -0.11    -0.01   0.10   0.04    -0.01  -0.00  -0.00
     5   6     0.44   0.08   0.03    -0.23  -0.06  -0.02    -0.01   0.00   0.00
     6   7    -0.07  -0.02  -0.01     0.07  -0.02  -0.01    -0.00  -0.00  -0.00
     7   1     0.06  -0.07  -0.03     0.02   0.05   0.02     0.00  -0.01  -0.00
     8   8    -0.10  -0.03  -0.01     0.04   0.04   0.01    -0.04  -0.04  -0.02
     9   1     0.25  -0.27  -0.10    -0.05   0.10   0.04     0.00   0.01   0.00
    10   1    -0.31   0.39   0.15     0.59  -0.50  -0.19     0.77   0.60   0.23
    11   6    -0.12   0.27   0.10    -0.23   0.36   0.14     0.01  -0.00  -0.00
    12   8     0.03  -0.16  -0.06     0.05  -0.19  -0.07    -0.00   0.00   0.00
    13   8     0.08  -0.03  -0.01     0.09  -0.07  -0.02    -0.01   0.01   0.00
                     31                     32                     33
                      A                      A                      A
 Frequencies --   3223.4040              3240.8646              3284.2331
 Red. masses --      1.0917                 1.0985                 1.0992
 Frc consts  --      6.6833                 6.7981                 6.9857
 IR Inten    --     14.7900                 5.7154                 4.7062
 Raman Activ --    172.2744               268.7616               159.9343
 Depolar (P) --      0.6594                 0.1953                 0.1996
 Depolar (U) --      0.7947                 0.3267                 0.3328
  Atom  AN      X      Y      Z        X      Y      Z        X      Y      Z
     1   6     0.00  -0.01  -0.00     0.00  -0.01  -0.00     0.02  -0.08  -0.03
     2   6    -0.08  -0.01  -0.00    -0.04   0.00   0.00     0.02   0.00   0.00
     3   6     0.01   0.03   0.01    -0.02  -0.07  -0.03    -0.00   0.00   0.00
     4   1     0.90   0.04   0.02     0.39   0.01   0.01    -0.16  -0.01  -0.00
     5   6    -0.00   0.00   0.00     0.01   0.00   0.00    -0.00   0.00   0.00
     6   7     0.00  -0.00  -0.00     0.00   0.00   0.00    -0.00   0.00   0.00
     7   1    -0.04   0.12   0.05    -0.03   0.09   0.03    -0.25   0.89   0.34
     8   8    -0.00  -0.00  -0.00    -0.00  -0.00  -0.00    -0.00  -0.00  -0.00
     9   1    -0.10  -0.37  -0.14     0.22   0.83   0.31    -0.01  -0.03  -0.01
    10   1     0.01   0.01   0.00    -0.00  -0.00  -0.00     0.00   0.00   0.00
    11   6     0.00  -0.00  -0.00     0.00   0.00   0.00    -0.00  -0.00  -0.00
    12   8    -0.00   0.00   0.00    -0.00  -0.00  -0.00    -0.00   0.00   0.00
    13   8    -0.00   0.00   0.00    -0.00   0.00   0.00     0.00   0.00   0.00

 -------------------
 - Thermochemistry -
 -------------------
 Temperature   298.150 Kelvin.  Pressure   1.00000 Atm.
 Thermochemistry will use frequencies scaled by 0.9670.
 Atom     1 has atomic number  6 and mass  12.00000
 Atom     2 has atomic number  6 and mass  12.00000
 Atom     3 has atomic number  6 and mass  12.00000
 Atom     4 has atomic number  1 and mass   1.00783
 Atom     5 has atomic number  6 and mass  12.00000
 Atom     6 has atomic number  7 and mass  14.00307
 Atom     7 has atomic number  1 and mass   1.00783
 Atom     8 has atomic number  8 and mass  15.99491
 Atom     9 has atomic number  1 and mass   1.00783
 Atom    10 has atomic number  1 and mass   1.00783
 Atom    11 has atomic number  6 and mass  12.00000
 Atom    12 has atomic number  8 and mass  15.99491
 Atom    13 has atomic number  8 and mass  15.99491
 Molecular mass:   126.01912 amu.
 Principal axes and moments of inertia in atomic units:
                           1         2         3
     Eigenvalues --   619.556941058.810591678.36708
           X            0.73977  -0.67285  -0.00161
           Y            0.62900   0.69240  -0.35348
           Z            0.23895   0.26049   0.93544
 This molecule is an asymmetric top.
 Rotational symmetry number  1.
 Warning -- assumption of classical behavior for rotation
           may cause significant error
 Rotational temperatures (Kelvin)      0.13980     0.08180     0.05161
 Rotational constants (GHZ):           2.91295     1.70450     1.07530
 Zero-point vibrational energy     223533.7 (Joules/Mol)
                                   53.42584 (Kcal/Mol)
 Warning -- explicit consideration of   9 degrees of freedom as
           vibrations may cause significant error
 Vibrational temperatures:    138.39   184.43   383.53   409.02   544.52
          (Kelvin)            660.62   811.23   851.39   876.79   961.53
                              987.83  1032.54  1105.98  1119.65  1137.03
                             1194.54  1260.20  1423.16  1476.21  1595.67
                             1688.90  1741.32  1779.08  1861.68  1925.54
                             2090.43  2124.31  2224.95  2374.03  4242.31
                             4484.71  4509.01  4569.34
 
 Zero-point correction=                           0.085139 (Hartree/Particle)
 Thermal correction to Energy=                    0.092305
 Thermal correction to Enthalpy=                  0.093249
 Thermal correction to Gibbs Free Energy=         0.053253
 Sum of electronic and zero-point Energies=           -473.612691
 Sum of electronic and thermal Energies=              -473.605526
 Sum of electronic and thermal Enthalpies=            -473.604582
 Sum of electronic and thermal Free Energies=         -473.644578
 
                     E (Thermal)             CV                S
                      KCal/Mol        Cal/Mol-Kelvin    Cal/Mol-Kelvin
 Total                   57.922             27.213             84.179
 Electronic               0.000              0.000              0.000
 Translational            0.889              2.981             40.407
 Rotational               0.889              2.981             28.489
 Vibrational             56.145             21.251             15.283
 Vibration     1          0.603              1.952              3.530
 Vibration     2          0.611              1.925              2.973
 Vibration     3          0.672              1.734              1.618
 Vibration     4          0.683              1.703              1.508
 Vibration     5          0.749              1.516              1.045
 Vibration     6          0.817              1.341              0.769
 Vibration     7          0.920              1.110              0.516
 Vibration     8          0.949              1.049              0.464
 Vibration     9          0.968              1.012              0.434
                       Q            Log10(Q)             Ln(Q)
 Total Bot       0.320232D-24        -24.494535        -56.400752
 Total V=0       0.464384D+15         14.666878         33.771734
 Vib (Bot)       0.153326D-37        -37.814383        -87.070834
 Vib (Bot)    1  0.213517D+01          0.329433          0.758547
 Vib (Bot)    2  0.159113D+01          0.201706          0.464445
 Vib (Bot)    3  0.726254D+00         -0.138911         -0.319855
 Vib (Bot)    4  0.674770D+00         -0.170844         -0.393383
 Vib (Bot)    5  0.478257D+00         -0.320338         -0.737607
 Vib (Bot)    6  0.370700D+00         -0.430978         -0.992363
 Vib (Bot)    7  0.274625D+00         -0.561260         -1.292349
 Vib (Bot)    8  0.254477D+00         -0.594352         -1.368545
 Vib (Bot)    9  0.242657D+00         -0.615007         -1.416106
 Vib (V=0)       0.222347D+02          1.347030          3.101652
 Vib (V=0)    1  0.269293D+01          0.430226          0.990631
 Vib (V=0)    2  0.216784D+01          0.336028          0.773732
 Vib (V=0)    3  0.138173D+01          0.140423          0.323335
 Vib (V=0)    4  0.133983D+01          0.127050          0.292543
 Vib (V=0)    5  0.119190D+01          0.076241          0.175551
 Vib (V=0)    6  0.112243D+01          0.050159          0.115495
 Vib (V=0)    7  0.107046D+01          0.029568          0.068084
 Vib (V=0)    8  0.106103D+01          0.025729          0.059243
 Vib (V=0)    9  0.105577D+01          0.023570          0.054272
 Electronic      0.100000D+01          0.000000          0.000000
 Translational   0.556043D+08          7.745109         17.833771
 Rotational      0.375611D+06          5.574739         12.836311
 
                                                    PyrOH-CO2_binding-site_index-
 5
                                                             IR Spectrum
 
     3 33      3                                                   1   1 11    1 1 11 1 1  1 1                                       
     2 22      0                                                   7   5 55    3 3 22 2 1  0 0   9 8887 776 665   4  3   22    1     
     8 42      4                                                   0   9 20    8 3 75 1 4  6 2   0 5109 419 318   7  9   97    3 9   
     4 13      9                                                   6   9 73    4 8 92 4 7  1 3   6 9755 201 023   5  1   46    3 9   
 
     X XX      X                                                   X   X XX    X X XX X X  X X   X XXXX XXX XXX   X  X   XX    X X   
               X                                                   X   X XX      X XX X X           XX    X                          
               X                                                   X   X XX      X XX                X    X                          
               X                                                   X   X  X      X XX                X                               
               X                                                   X   X  X         X                                                
               X                                                   X   X  X         X                                                
               X                                                   X   X  X                                                          
               X                                                   X   X  X                                                          
               X                                                   X   X  X                                                          
               X                                                   X      X                                                          
               X                                                   X      X                                                          
               X                                                   X      X                                                          
               X                                                                                                                     
               X                                                                                                                     
               X                                                                                                                     
               X                                                                                                                     
               X                                                                                                                     
               X                                                                                                                     
               X                                                                                                                     
               X                                                                                                                     
 
 
                                                    PyrOH-CO2_binding-site_index-
 5
                                                            Raman Spectrum
 
     3 33      3                                                   1   1 11    1 1 11 1 1  1 1                                       
     2 22      0                                                   7   5 55    3 3 22 2 1  0 0   9 8887 776 665   4  3   22    1     
     8 42      4                                                   0   9 20    8 3 75 1 4  6 2   0 5109 419 318   7  9   97    3 9   
     4 13      9                                                   6   9 73    4 8 92 4 7  1 3   6 9755 201 023   5  1   46    3 9   
 
     X XX      X                                                   X   X XX    X X XX X X  X X   X XXX  XXX XXX   X  X   XX    X X   
     X XX      X                                                   X     XX    X X  X X    X     X                                   
     X XX      X                                                   X     XX      X  X                                                
     X XX      X                                                         XX      X  X                                                
     X XX      X                                                         XX      X  X                                                
     X XX      X                                                         XX         X                                                
     X XX      X                                                         X          X                                                
     X XX      X                                                                    X                                                
     X XX      X                                                                    X                                                
     X XX      X                                                                                                                     
     X XX      X                                                                                                                     
     X XX      X                                                                                                                     
       XX                                                                                                                            
       X                                                                                                                             
       X                                                                                                                             
       X                                                                                                                             
       X                                                                                                                             
       X                                                                                                                             
       X                                                                                                                             
       X                                                                                                                             
 
 -------------------------------------------------------------------
 Center     Atomic                   Forces (Hartrees/Bohr)
 Number     Number              X              Y              Z
 -------------------------------------------------------------------
      1        6           0.000000398   -0.000000001    0.000003488
      2        6          -0.000000660    0.000001631    0.000002927
      3        6          -0.000001665    0.000001451   -0.000000522
      4        1           0.000000071    0.000000787    0.000001870
      5        6          -0.000000991    0.000000328   -0.000002031
      6        7           0.000000822    0.000000889    0.000001064
      7        1           0.000000957   -0.000000390    0.000002177
      8        8           0.000001095    0.000003671   -0.000004090
      9        1          -0.000000918    0.000001851   -0.000000370
     10        1          -0.000003918   -0.000003575   -0.000003055
     11        6           0.000001495    0.000001732    0.000001018
     12        8           0.000003794   -0.000007954    0.000000377
     13        8          -0.000000481   -0.000000419   -0.000002854
 -------------------------------------------------------------------
 Cartesian Forces:  Max     0.000007954 RMS     0.000002336
 Force constants in Cartesian coordinates: 
                1             2             3             4             5 
      1  0.553620D+00
      2 -0.604057D-02  0.786700D+00
      3 -0.142435D-02  0.259280D+00  0.199658D+00
      4 -0.186755D+00 -0.135022D+00 -0.514090D-01  0.823398D+00
      5 -0.129678D+00 -0.275433D+00 -0.812204D-01  0.708645D-01  0.520739D+00
      6 -0.493527D-01 -0.812532D-01 -0.925229D-01  0.286143D-01  0.154207D+00
      7  0.147008D-01  0.293933D-01  0.111128D-01 -0.165891D+00  0.619604D-01
      8 -0.100799D-01 -0.599090D-01 -0.283962D-01  0.810214D-01 -0.182594D+00
      9 -0.380198D-02 -0.282954D-01  0.428075D-02  0.302189D-01 -0.492915D-01
     10 -0.777350D-02  0.451363D-02  0.169479D-02 -0.348003D+00 -0.129704D-01
     11 -0.220239D-01  0.681925D-02  0.244235D-02 -0.106202D-01 -0.539074D-01
     12 -0.836000D-02  0.249961D-02  0.116754D-02 -0.473173D-02 -0.105155D-01
     13 -0.121760D-01  0.188823D-01  0.713310D-02 -0.627994D-01  0.411639D-01
     14  0.398055D-01 -0.448610D-01 -0.222238D-01  0.529814D-02  0.305643D-01
     15  0.149526D-01 -0.222303D-01  0.569284D-02  0.185543D-02  0.800160D-02
     16 -0.234122D+00  0.372166D-01  0.136393D-01 -0.798521D-01 -0.443751D-01
     17  0.572301D-01 -0.116094D+00 -0.243876D-01 -0.182017D-01 -0.198893D-01
     18  0.213044D-01 -0.244459D-01 -0.604747D-01 -0.710052D-02 -0.124463D-01
     19 -0.734005D-01  0.627869D-01  0.236002D-01  0.120485D-01 -0.128950D-01
     20  0.723455D-01 -0.302279D+00 -0.107571D+00  0.910213D-02 -0.739443D-02
     21  0.273112D-01 -0.107595D+00 -0.581941D-01  0.347056D-02 -0.328431D-02
     22 -0.183370D-01  0.936810D-02  0.347420D-02 -0.185023D-02  0.154454D-02
     23  0.809665D-03 -0.468366D-02 -0.207308D-02 -0.241942D-02 -0.584330D-02
     24  0.265779D-03 -0.206230D-02  0.495035D-04 -0.919013D-03 -0.317869D-02
     25 -0.394562D-02  0.349086D-02  0.130641D-02  0.115668D-01  0.162505D-01
     26  0.265237D-02 -0.181330D-02 -0.160865D-02 -0.859431D-02 -0.881061D-02
     27  0.992565D-03 -0.161578D-02  0.184231D-02 -0.322520D-02 -0.224014D-02
     28  0.105970D-02 -0.277660D-02 -0.104357D-02 -0.110011D-02 -0.859728D-03
     29  0.492972D-02 -0.402392D-02 -0.118112D-02 -0.437254D-03 -0.454614D-03
     30  0.187301D-02 -0.119860D-02 -0.130941D-02 -0.174331D-03 -0.832707D-03
     31 -0.438486D-01 -0.102474D-01 -0.390771D-02  0.486768D-02  0.135283D-01
     32 -0.202533D-01  0.151176D-01  0.883798D-02  0.134605D-01  0.768574D-02
     33 -0.774707D-02  0.884627D-02 -0.505513D-02  0.507500D-02  0.262785D-02
     34  0.722323D-03 -0.990776D-03 -0.191283D-03  0.108139D-02 -0.114796D-02
     35  0.127077D-01 -0.484060D-03 -0.529761D-03 -0.344444D-02 -0.523792D-02
     36  0.489697D-02 -0.549990D-03  0.793104D-03 -0.129358D-02 -0.213046D-02
     37  0.102545D-01 -0.105744D-01 -0.398492D-02 -0.671163D-02 -0.338599D-02
     38 -0.240489D-02  0.944837D-03 -0.136791D-02 -0.100738D-02  0.576986D-03
     39 -0.910393D-03 -0.137923D-02  0.407238D-02 -0.380812D-03  0.303755D-03
                6             7             8             9            10 
      6  0.172266D+00
      7  0.230075D-01  0.604292D+00
      8 -0.492502D-01  0.986630D-01  0.704942D+00
      9 -0.706278D-01  0.386628D-01  0.229449D+00  0.186035D+00
     10 -0.563385D-02 -0.781260D-02 -0.495348D-02 -0.189199D-02  0.365337D+00
     11 -0.105156D-01  0.202046D-01  0.725902D-02  0.298431D-02  0.135172D-01
     12 -0.301548D-01  0.762386D-02  0.292464D-02  0.623108D-03  0.588784D-02
     13  0.153741D-01 -0.317119D+00 -0.103260D+00 -0.395791D-01 -0.996004D-04
     14  0.792983D-02 -0.804421D-01 -0.147312D+00 -0.302871D-01  0.216743D-02
     15  0.126710D-01 -0.309237D-01 -0.303340D-01 -0.790129D-01  0.815364D-03
     16 -0.169936D-01 -0.229303D-01 -0.191279D-01 -0.736609D-02 -0.106418D-02
     17 -0.123580D-01 -0.601162D-01 -0.428640D-01 -0.206966D-01 -0.278472D-02
     18  0.797593D-02 -0.228623D-01 -0.205788D-01  0.353011D-02 -0.106829D-02
     19 -0.485660D-02 -0.159580D-02 -0.269189D-02 -0.103344D-02  0.137207D-03
     20 -0.323736D-02 -0.299159D-02 -0.939183D-03 -0.225306D-02 -0.295873D-03
     21 -0.100400D-04 -0.114058D-02 -0.224769D-02  0.413569D-02 -0.102298D-03
     22  0.594237D-03 -0.383101D-01  0.166487D-01  0.617271D-02 -0.122415D-02
     23 -0.318425D-02 -0.833876D-02  0.226608D-01  0.579405D-02 -0.391760D-03
     24  0.133296D-02 -0.328218D-02  0.584400D-02  0.957555D-02 -0.153122D-03
     25  0.618563D-02 -0.733725D-01 -0.633924D-01 -0.241385D-01  0.295461D-03
     26 -0.229378D-02 -0.666827D-01 -0.294329D+00 -0.104091D+00  0.261245D-03
     27 -0.364166D-02 -0.253774D-01 -0.104067D+00 -0.592286D-01  0.104341D-03
     28 -0.334822D-03  0.148396D-02  0.346959D-02  0.132273D-02  0.476947D-04
     29 -0.827930D-03  0.622662D-02 -0.309771D-02 -0.165074D-02  0.251122D-03
     30  0.141528D-02  0.234294D-02 -0.165402D-02  0.704016D-03  0.939245D-04
     31  0.510828D-02  0.109457D-01  0.937993D-02  0.362016D-02  0.108199D-02
     32  0.261860D-02  0.107457D-01 -0.202223D-02 -0.110438D-02  0.157408D-02
     33  0.181044D-02  0.407770D-02 -0.116325D-02  0.622329D-03  0.586631D-03
     34 -0.424733D-03 -0.196172D-03 -0.389208D-02 -0.148216D-02 -0.167794D-03
     35 -0.214078D-02 -0.604285D-02 -0.357051D-02 -0.115451D-02 -0.623487D-03
     36 -0.398460D-03 -0.227260D-02 -0.113082D-02 -0.104286D-02 -0.236153D-03
     37 -0.128771D-02 -0.419443D-02 -0.178480D-02 -0.704016D-03 -0.754628D-03
[...]
   x         -0.152410D+04     -0.131670D+02     -0.488681D+01
   y          0.994403D+03      0.859086D+01      0.318841D+01
   z          0.370100D+03      0.319738D+01      0.118668D+01
   ||         0.371413D+03      0.320872D+01      0.119088D+01
   xxx       -0.139673D+03     -0.120667D+01     -0.447843D+00
   xxy        0.263643D+03      0.227767D+01      0.845334D+00
   yxy       -0.127557D+03     -0.110199D+01     -0.408994D+00
   yyy        0.585645D+02      0.505951D+00      0.187779D+00
   xxz        0.100312D+03      0.866617D+00      0.321636D+00
   yxz        0.508983D+02      0.439722D+00      0.163198D+00
   yyz        0.209453D+02      0.180951D+00      0.671582D-01
   zxz       -0.240802D+03     -0.208034D+01     -0.772098D+00
   zyz        0.926032D+01      0.800020D-01      0.296919D-01
   zzz        0.210957D+01      0.182250D-01      0.676403D-02

 ----------------------------------------------------------------------

 Dipole orientation:
     6         -0.64839739          1.69971623         -0.04479601
     6         -0.72830211          0.29041304          2.12284276
     6         -0.38015842         -2.32180136          1.45945301
     1         -1.00621963          1.02503709          4.00591664
     6         -0.09791625         -2.39744450         -1.12041778
     7         -0.25804391          0.05063504         -2.06683790
     1         -0.82470959          3.69560290         -0.38296789
     8          0.27744980         -4.37123832         -2.67892402
     1         -0.34166213         -3.93105435          2.70971796
     1          0.37278707         -3.57540750         -4.39842979
     6         -0.05612790          0.74928080         -4.71176116
     8         -0.24538988          3.02026896         -5.22091358
     8          0.29518285         -1.10026527         -6.18982298

 Electric dipole moment (dipole orientation):
 (Debye = 10**-18 statcoulomb cm , SI units = C m)
                  (au)            (Debye)         (10**-30 SI)
   Tot        0.449299D+01      0.114200D+02      0.380931D+02
   x          0.000000D+00      0.000000D+00      0.000000D+00
   y          0.000000D+00      0.000000D+00      0.000000D+00
   z          0.449299D+01      0.114200D+02      0.380931D+02

 Dipole polarizability, Alpha (dipole orientation).
 (esu units = cm**3 , SI units = C**2 m**2 J**-1)
 Alpha(0;0):
               (au)            (10**-24 esu)      (10**-40 SI)
   iso        0.106117D+03      0.157249D+02      0.174963D+02
   aniso      0.597225D+02      0.884997D+01      0.984692D+01
   xx         0.680840D+02      0.100890D+02      0.112255D+02
   yx        -0.527949D+01     -0.782339D+00     -0.870470D+00
   yy         0.121219D+03      0.179628D+02      0.199863D+02
   zx        -0.604636D+01     -0.895978D+00     -0.996910D+00
   zy        -0.493122D+01     -0.730731D+00     -0.813048D+00
   zz         0.129047D+03      0.191228D+02      0.212770D+02

 First dipole hyperpolarizability, Beta (dipole orientation).
 ||, _|_  parallel and perpendicular components, (z) with respect to z axis,
 vector components x,y,z.  Values do not include the 1/n! factor of 1/2.
 (esu units = statvolt**-1 cm**4 , SI units = C**3 m**3 J**-2)
 Beta(0;0,0):
               (au)            (10**-30 esu)      (10**-50 SI)
   || (z)     0.189086D+03      0.163355D+01      0.606278D+00
   _|_(z)     0.630286D+02      0.544518D+00      0.202093D+00
   x         -0.270673D+03     -0.233840D+01     -0.867875D+00
   y          0.157530D+04      0.136094D+02      0.505099D+01
   z          0.945429D+03      0.816777D+01      0.303139D+01
   ||         0.371413D+03      0.320872D+01      0.119088D+01
   xxx       -0.107879D+03     -0.931990D+00     -0.345899D+00
   xxy        0.104530D+03      0.903057D+00      0.335161D+00
   yxy       -0.324848D+02     -0.280643D+00     -0.104158D+00
   yyy        0.296440D+03      0.256101D+01      0.950493D+00
   xxz        0.226350D+03      0.195549D+01      0.725761D+00
   yxz       -0.248856D+00     -0.214992D-02     -0.797921D-03
   yyz        0.217579D+03      0.187971D+01      0.697637D+00
   zxz        0.501395D+02      0.433166D+00      0.160765D+00
   zyz        0.124132D+03      0.107240D+01      0.398011D+00
   zzz       -0.128786D+03     -0.111261D+01     -0.412935D+00

 ----------------------------------------------------------------------
 Unable to Open any file for archive entry.
 1\1\GINC-NODE0105\Freq\RB3LYP\6-311+G(d,p)\C5H4N1O3(1-)\SVICCHI\23-Jan
 -2024\0\\#p freq=raman scale=0.967 guess=read geom=allcheck b3lyp/6-31
 1+G(d,p) int=grid=ultrafine EmpiricalDispersion=GD3BJ SCRF=(Solvent=et
 hanol) scf=(xqc,intrep,maxconventionalcycle=350) nosymm\\PyrOH-CO2_bin
 ding-site_index-5\\-1,1\C,-0.3853002021,0.879901289,0.0679782227\C,-1.
 1321336373,-0.192394383,-0.3396276064\C,-0.2356981287,-1.2446459307,-0
 .7360715558\H,-2.2108016366,-0.2353995818,-0.3583474046\C,1.0378871998
 ,-0.7636489555,-0.5507960387\N,0.9617757906,0.5358159827,-0.0590239086
 \H,-0.6585110992,1.8526992537,0.4357559129\O,2.2303522085,-1.347543825
 6,-0.7691428924\H,-0.4917103508,-2.2243163024,-1.1076052349\H,2.893305
 6214,-0.6425428742,-0.5020714681\C,2.0967924337,1.3820289691,0.2614975
 442\O,1.846384891,2.5141485308,0.6886287309\O,3.2226320347,0.838905051
 2,0.057147699\\Version=ES64L-G16RevC.02\HF=-473.6978306\RMSD=7.788e-09
 \RMSF=2.336e-06\ZeroPoint=0.0851395\Thermal=0.0923048\ETot=-473.605525
 8\HTot=-473.6045816\GTot=-473.6445778\Dipole=-1.9507796,-1.3371475,-0.
 5078814\DipoleDeriv=0.6156692,0.3074178,0.1188414,0.1866835,-0.3563719
 ,-0.0359543,0.072313,-0.0351079,-0.2706122,-0.0975716,-0.258775,-0.097
 9398,-0.3483869,0.1920553,0.1882061,-0.13062,0.1897203,-0.2356126,-0.7
 112779,0.1015738,0.0379365,-0.2215632,-0.2254609,0.0681396,-0.0851262,
 0.0672597,-0.3802018,-0.1231785,-0.003399,-0.0021171,0.0035089,0.12789
 82,-0.0348019,0.0004763,-0.0348317,0.2066296,1.8936271,-0.3656034,-0.1
 342213,0.0681973,0.9036994,0.3007652,0.0303084,0.3007511,0.2248352,-1.
 540578,-0.955342,-0.3634952,-0.7586504,-1.1142889,-0.3930454,-0.289420
 8,-0.3939811,-0.2283577,0.0916704,0.0232243,0.0085312,0.0499205,0.0539
 119,-0.0774732,0.0185603,-0.0775164,0.2290522,-1.867755,0.2995818,0.11
 04288,0.3071151,-0.9770941,-0.2106165,0.1128845,-0.2105012,-0.4977597,
 0.0981142,-0.0242105,-0.009517,-0.0359729,-0.0656888,-0.1225171,-0.014
 2477,-0.123118,0.2105391,0.5644174,0.2983926,0.1126679,0.2915662,0.880
 0309,0.1903759,0.1101363,0.1903842,0.4487683,2.9703348,0.1864383,0.072
 3517,0.2862056,2.9400971,0.9479234,0.1089236,0.9473708,0.7903415,-0.92
 31279,0.1077439,0.040788,-0.046623,-2.0504383,-0.553895,-0.0171453,-0.
 5528546,-0.797731,-1.9703442,0.2829573,0.1057449,0.2179992,-1.30835,-0
 .2671067,0.0829575,-0.2675751,-0.699891\Polar=125.1536435,5.4158429,11
 8.8746608,2.1685658,19.6682991,74.3215474\PolarDeriv=1.9071265,-1.4955
 591,3.4003503,-0.5475046,-0.7804747,5.1305551,5.3868805,-5.7331146,15.
 2625806,-1.1357377,-1.2949076,6.7040304,2.062475,-1.1529145,-1.8205941
 ,-3.1310631,8.0133932,10.0313298,-4.8451093,-5.3340364,-3.3546212,-2.0
 31481,1.6607298,-7.1139518,-1.1848104,11.8255065,-16.0409865,7.2507711
 ,-2.8405693,-5.5478261,-0.403445,7.3156761,-3.4518289,-4.5663376,-4.03
 99381,-4.7303991,-4.6856472,12.3665689,-12.115991,4.7119762,-2.5510863
 ,-6.2311445,-4.429135,-7.6233607,-1.3449564,-0.6098249,4.5628957,-3.67
 48898,-1.7081586,-0.5979442,4.7714243,-6.1762253,-4.2473467,-6.791453,
 -16.690638,-1.3182709,-1.2420375,-0.5397985,-0.3199748,-0.5327945,-0.7
 084284,-1.2845756,-0.8195613,-1.0433988,-0.5810048,-0.224075,-0.319569
 5,-1.0489751,-0.7886612,1.0587755,0.3165117,0.3904447,9.9422348,-7.481
 6581,16.9472767,-2.8553626,2.2360213,11.8963335,-10.6175433,-5.885817,
 -0.0121706,-4.3427709,0.8509447,2.8504223,-4.031938,-4.333201,3.286992
 9,3.8801331,-3.2930155,-2.0554193,2.5284847,4.8468406,3.8691096,1.8348
 53,2.289249,-1.323316,11.4934571,6.3359301,1.5585639,2.0150725,0.89842
 89,-2.6111869,4.3844667,1.9950627,-0.7684353,1.8251606,1.9192733,0.458
 7336,-1.1998096,2.8253653,-2.6478486,1.0727252,-0.8162051,-0.8004324,2
 .6867781,-2.568795,9.1238886,-1.3272891,4.1095028,2.4519819,1.025628,-
 1.3216078,5.1974693,0.4223192,-0.4190001,-0.7780026,2.9876811,-5.01590
 15,-9.7015656,-1.8856406,-2.2382716,-4.6162095,-2.5082485,3.2324199,-8
 .777364,0.8191295,-3.6001187,-0.2343092,-0.944591,0.8270584,-3.116352,
 1.35364,-1.622643,-0.3179248,-2.4128745,-2.2386048,-2.603185,-0.861628
 5,-0.9255534,-0.5111892,-2.3778017,-3.1234175,-12.4543295,-1.6490542,-
 5.0707425,-2.5524676,-0.9190262,-1.6613137,-5.7992578,0.5686322,-0.815
 8169,0.0104863,5.2341303,0.5652127,6.1240878,0.240527,1.8219378,1.9634
 448,1.5491655,2.4496668,7.1931273,0.680216,2.7428784,1.5358154,0.63259
 24,0.6672681,3.1055622,0.8924082,0.6225947,0.2138405,-12.3408214,-3.19
 44324,-2.9684885,-1.2051742,-2.1605686,1.9474852,-1.9083626,-3.5746162
 ,-8.043165,-1.2939084,-4.0923905,1.7213016,-0.6937806,-1.3069544,-2.68
 66371,-0.5949363,-1.9431842,0.3074111,-1.3323726,2.2674073,-1.8196821,
 0.8529447,-0.1737759,-1.496738,8.2519412,4.0969481,19.2232924,1.597447
 ,5.1959919,1.7259254,3.1054267,1.5599484,3.4321473,0.4526881,6.3960002
 ,4.5603516,20.9076151,3.2070685,6.1125951,1.2135638,1.9579723,1.687957
 4,-5.6338926,1.8532252,-4.8689195,-0.9606521,-0.880909,-2.1447224,-2.1
 900798,-0.9421029,-1.3618296,4.0148053,-0.8868285,-1.2993987\HyperPola
 r=-139.6733854,263.6427387,-127.5569756,58.5644569,100.3119158,50.8983
 426,20.9452952,-240.8019273,9.2603226,2.1095651\Quadrupole=-8.2382678,
 -1.7741721,10.0124399,-9.0778219,-1.422501,-4.0575873\PG=C01 [X(C5H4N1
 O3)]\NImag=0\\0.55362047,-0.00604057,0.78669988,-0.00142435,0.25927960
 ,0.19965784,-0.18675463,-0.13502191,-0.05140900,0.82339777,-0.12967806
 ,-0.27543349,-0.08122041,0.07086452,0.52073853,-0.04935267,-0.08125324
 ,-0.09252289,0.02861427,0.15420681,0.17226632,0.01470081,0.02939333,0.
 01111284,-0.16589093,0.06196045,0.02300746,0.60429170,-0.01007987,-0.0
 5990899,-0.02839623,0.08102138,-0.18259440,-0.04925024,0.09866295,0.70
 494201,-0.00380198,-0.02829535,0.00428075,0.03021893,-0.04929151,-0.07
 062780,0.03866282,0.22944893,0.18603528,-0.00777350,0.00451363,0.00169
 479,-0.34800313,-0.01297043,-0.00563385,-0.00781260,-0.00495348,-0.001
 89199,0.36533722,-0.02202391,0.00681925,0.00244235,-0.01062017,-0.0539
 0741,-0.01051565,0.02020464,0.00725902,0.00298431,0.01351720,0.0454947
 0,-0.00836000,0.00249961,0.00116754,-0.00473173,-0.01051552,-0.0301548
 3,0.00762386,0.00292464,0.00062311,0.00588784,0.00923788,0.02464259,-0
 .01217604,0.01888229,0.00713310,-0.06279943,0.04116393,0.01537407,-0.3
 1711937,-0.10326019,-0.03957914,-0.00009960,0.00151741,0.00057144,0.84
 569759,0.03980551,-0.04486100,-0.02222384,0.00529814,0.03056427,0.0079
 2983,-0.08044212,-0.14731228,-0.03028714,0.00216743,-0.00436287,-0.002
 40079,-0.01367569,0.52641494,0.01495257,-0.02223033,0.00569284,0.00185
 543,0.00800160,0.01267104,-0.03092374,-0.03033401,-0.07901291,0.000815
 36,-0.00240650,0.00109944,-0.00376812,0.14585574,0.19570666,-0.2341219
 1,0.03721662,0.01363925,-0.07985207,-0.04437508,-0.01699357,-0.0229303
 1,-0.01912788,-0.00736609,-0.00106418,-0.00361463,-0.00137905,-0.13787
 727,0.01840498,0.00689776,0.67780150,0.05723007,-0.11609425,-0.0243875
 6,-0.01820175,-0.01988935,-0.01235803,-0.06011623,-0.04286400,-0.02069
 659,-0.00278472,-0.00347459,-0.00373471,0.00316331,-0.20809784,-0.0563
 0525,0.01306827,0.57018804,0.02130442,-0.02444592,-0.06047474,-0.00710
 052,-0.01244628,0.00797593,-0.02286229,-0.02057876,0.00353011,-0.00106
 829,-0.00372688,0.00493745,0.00110308,-0.05619988,-0.08074803,0.005918
 70,0.18025448,0.16172248,-0.07340050,0.06278688,0.02360024,0.01204853,
 -0.01289496,-0.00485660,-0.00159580,-0.00269189,-0.00103344,0.00013721
 ,0.00094220,0.00036625,-0.00609920,-0.00326731,-0.00124464,-0.00585586
 ,0.03042634,0.01151455,0.07225256,0.07234553,-0.30227893,-0.10757137,0
 .00910213,-0.00739443,-0.00323736,-0.00299159,-0.00093918,-0.00225306,
 -0.00029587,-0.00025835,0.00149863,0.00052408,0.00055168,0.00076707,0.
 00064583,-0.00199804,0.00030507,-0.07737587,0.31394383,0.02731116,-0.1
 0759475,-0.05819412,0.00347056,-0.00328431,-0.00001004,-0.00114058,-0.
 00224769,0.00413569,-0.00010230,0.00149944,-0.00364524,0.00018325,0.00
 075098,-0.00118544,0.00022442,0.00038547,-0.00266712,-0.02921563,0.111
 92000,0.05934355,-0.01833696,0.00936810,0.00347420,-0.00185023,0.00154
 454,0.00059424,-0.03831011,0.01664873,0.00617271,-0.00122415,0.0019649
 5,0.00073913,-0.26992756,0.09543889,0.03557357,0.01149400,0.01952037,0
 .00741801,-0.00073224,-0.00027706,-0.00010691,0.49493173,0.00080967,-0
 .00468366,-0.00207308,-0.00241942,-0.00584330,-0.00318425,-0.00833876,
 0.02266083,0.00579405,-0.00039176,0.00127293,0.00008644,0.05965241,-0.
 14252468,-0.04086550,0.04049178,-0.01894863,-0.00767224,0.00199430,0.0
 0052546,-0.00092561,0.03671802,0.37134236,0.00026578,-0.00206230,0.000
 04950,-0.00091901,-0.00317869,0.00133296,-0.00328218,0.00584400,0.0095
 7555,-0.00015312,0.00009272,0.00107130,0.02206814,-0.04077391,-0.04938
 705,0.01535213,-0.00772951,-0.00137031,0.00074644,-0.00093157,0.002631
 59,0.01465468,0.12815756,0.08030018,-0.00394562,0.00349086,0.00130641,
 0.01156679,0.01625050,0.00618563,-0.07337246,-0.06339238,-0.02413853,0
 .00029546,-0.00125744,-0.00047067,0.00124845,-0.02385499,-0.00902911,-
 0.00594408,-0.00284897,-0.00109918,0.00093174,0.00061117,0.00022869,0.
 00202979,0.00101922,0.00039455,0.06577579,0.00265237,-0.00181330,-0.00
 160865,-0.00859431,-0.00881061,-0.00229378,-0.06668266,-0.29432921,-0.
 10409098,0.00026125,0.00021480,0.00074838,0.00389705,-0.00305774,-0.00
 110917,-0.00157132,-0.00003461,-0.00186225,-0.00058692,-0.00001741,-0.
 00067302,-0.00071888,-0.00019351,0.00103157,0.07092597,0.30759157,0.00
 099257,-0.00161578,0.00184231,-0.00322520,-0.00224014,-0.00364166,-0.0
 2537742,-0.10406658,-0.05922863,0.00010434,0.00074345,-0.00147526,0.00
 148491,-0.00117640,-0.00052960,-0.00062749,-0.00186831,0.00416831,-0.0
 0022423,-0.00067082,0.00150224,-0.00027326,0.00103585,-0.00253582,0.02
 697801,0.10995737,0.05923140,0.00105970,-0.00277660,-0.00104357,-0.001
 10011,-0.00085973,-0.00033482,0.00148396,0.00346959,0.00132273,0.00004
 769,0.00008210,0.00003018,-0.05946186,-0.01679305,-0.00644491,-0.00269
 066,-0.00343652,-0.00129916,0.00067549,-0.00000063,0.00000060,-0.16296
 711,-0.11486262,-0.04357412,0.00002118,-0.00009429,-0.00003057,0.23168
 385,0.00492972,-0.00402392,-0.00118112,-0.00043725,-0.00045461,-0.0008
 2793,0.00622662,-0.00309771,-0.00165074,0.00025112,-0.00065948,-0.0003
 1745,-0.00266327,0.02906846,0.01126293,-0.00768993,-0.00706761,-0.0031
 3033,0.00036624,-0.00000604,0.00015807,-0.13585771,-0.18886241,-0.0653
 2014,-0.00031990,-0.00006690,0.00020725,0.11865742,0.15604857,0.001873
 01,-0.00119860,-0.00130941,-0.00017433,-0.00083271,0.00141528,0.002342
 94,-0.00165402,0.00070402,0.00009392,-0.00031667,0.00006141,-0.0010965
 4,0.01122921,0.00340529,-0.00291795,-0.00311721,-0.00000740,0.00013995
 ,0.00016042,-0.00036833,-0.05149487,-0.06526610,-0.04111288,-0.0001175
 7,0.00020460,-0.00053021,0.04508912,0.04995584,0.04325563,-0.04384862,
 -0.01024741,-0.00390771,0.00486768,0.01352828,0.00510828,0.01094571,0.
 00937993,0.00362016,0.00108199,0.00040069,0.00014756,0.03346877,-0.046
 32252,-0.01747133,-0.11124626,0.00542667,0.00192695,0.00085526,-0.0006
 7845,-0.00024358,-0.03983015,-0.01301169,-0.00495836,0.00220547,0.0015
 4427,0.00059528,0.01975851,0.04236109,0.01602857,0.59192527,-0.0202532
 6,0.01511764,0.00883798,0.01346046,0.00768574,0.00261860,0.01074574,-0
 .00202223,-0.00110438,0.00157408,0.00186930,-0.00036336,-0.02237180,-0
 .03855055,-0.01146572,0.00169596,-0.09622668,-0.01626668,0.00281074,-0
 .00261722,-0.00059336,-0.00233370,0.01086533,0.00413170,0.00019789,0.0
 0108620,-0.00044850,0.00627919,-0.01546929,-0.00554788,-0.19259243,0.7
 2745222,-0.00774707,0.00884627,-0.00505513,0.00507500,0.00262785,0.001
 81044,0.00407770,-0.00116325,0.00062233,0.00058663,-0.00037568,0.00271
 132,-0.00841548,-0.01152651,-0.01268536,0.00061575,-0.01622370,-0.0592
 4004,0.00106073,-0.00059156,-0.00127086,-0.00094038,0.00413435,0.00143
 550,0.00006802,-0.00045455,0.00211490,0.00239726,-0.00550710,-0.002782
 04,-0.07213072,0.18827042,0.29943371,0.00072232,-0.00099078,-0.0001912
 8,0.00108139,-0.00114796,-0.00042473,-0.00019617,-0.00389208,-0.001482
 16,-0.00016779,-0.00004067,-0.00001543,-0.00970461,0.00502548,0.001891
 51,0.00399493,-0.03931391,-0.01485981,0.00057646,-0.00195885,-0.000739
 42,0.00956017,0.00488872,0.00185726,-0.00040391,-0.00043327,-0.0001669
 1,-0.00586452,-0.01094777,-0.00414446,-0.11015795,0.08012689,0.0302071
 2,0.13269282,0.01270769,-0.00048406,-0.00052976,-0.00344444,-0.0052379
 2,-0.00214078,-0.00604285,-0.00357051,-0.00115451,-0.00062349,-0.00024
 030,-0.00002154,-0.00529213,0.01444612,0.00359128,-0.02611109,-0.07546
 435,-0.03534527,-0.00170285,0.00013319,0.00048747,-0.00344256,-0.00806
 943,-0.00271476,-0.00107966,-0.00066006,0.00003171,0.00383715,0.011402
 44,0.00369517,0.07737799,-0.45960759,-0.14176454,-0.10736025,0.5821928
 4,0.00489697,-0.00054999,0.00079310,-0.00129358,-0.00213046,-0.0003984
 6,-0.00227260,-0.00113082,-0.00104286,-0.00023615,-0.00001969,-0.00019
 471,-0.00202143,0.00358594,0.00631780,-0.00988405,-0.03532623,0.004753
 18,-0.00055098,0.00048577,-0.00035894,-0.00127397,-0.00270750,-0.00191
 381,-0.00040407,0.00003796,-0.00075245,0.00144187,0.00366620,0.0030359
 3,0.02908844,-0.14178025,-0.13750783,-0.04058750,0.20686139,0.11180900
 ,0.01025449,-0.01057444,-0.00398492,-0.00671163,-0.00338599,-0.0012877
 1,-0.00419443,-0.00178480,-0.00070402,-0.00075463,-0.00107236,-0.00040
 938,-0.00514987,0.01821526,0.00689564,-0.09170783,-0.00213295,-0.00089
 647,0.00020636,0.00034959,0.00012975,0.01516282,-0.00654987,-0.0024521
 8,-0.00040860,-0.00059928,-0.00023001,-0.02264613,-0.01487639,-0.00562
 179,-0.36002569,0.12066023,0.04514544,-0.02213313,0.06117648,0.0230970
 4,0.48810827,-0.00240489,0.00094484,-0.00136791,-0.00100738,0.00057699
 ,0.00030599,-0.00257952,0.00177666,0.00059696,-0.00026494,-0.00002699,
 0.00035779,0.01846259,-0.01227850,-0.00476213,-0.00903353,0.01997191,0
 .00111493,-0.00080689,0.00035544,0.00011731,-0.03857369,-0.03754128,-0
 .01654667,0.00025773,0.00009078,0.00011091,0.00649800,0.02318850,0.012
 68796,0.11283358,-0.14958287,-0.02627198,0.07604442,-0.05484039,-0.030
 99231,-0.15942549,0.20736493,-0.00091039,-0.00137923,0.00407238,-0.000
 38081,0.00030375,-0.00011628,-0.00096882,0.00060402,0.00040538,-0.0000
 9719,0.00036092,-0.00084410,0.00696273,-0.00476322,-0.00134467,-0.0034
 7982,0.00110714,0.01742019,-0.00030266,0.00011878,0.00008703,-0.014537
 15,-0.01651398,-0.00007670,0.00009784,0.00011253,-0.00016552,0.0024453
 8,0.01268454,-0.00576728,0.04219648,-0.02628856,-0.08958695,0.02865581
 ,-0.03099586,0.01546005,-0.05968140,0.06464914,0.06045648\\-0.00000040
 ,0.,-0.00000349,0.00000066,-0.00000163,-0.00000293,0.00000167,-0.00000
 145,0.00000052,-0.00000007,-0.00000079,-0.00000187,0.00000099,-0.00000
 033,0.00000203,-0.00000082,-0.00000089,-0.00000106,-0.00000096,0.00000
 039,-0.00000218,-0.00000109,-0.00000367,0.00000409,0.00000092,-0.00000
 185,0.00000037,0.00000392,0.00000358,0.00000305,-0.00000150,-0.0000017
 3,-0.00000102,-0.00000379,0.00000795,-0.00000038,0.00000048,0.00000042
 ,0.00000285\\\@
 The archive entry for this job was punched.


 IT IS THE GODS' CUSTOM TO BRING LOW ALL THINGS OF SURPASSING GREATNESS.
     -- HERODOTUS
 IT IS THE LOFTY PINE THAT BY THE STORM IS OFTENER TOSSED;
 TOWERS FALL WITH HEAVIER CRASH WHICH HIGHER SOAR.
     -- HORACE
 THE BIGGER THEY COME, THE HARDER THEY FALL.
     -- BOB FITZSIMONS HEAVYWEIGHT CHAMPION, 1897-1899
 Job cpu time:       0 days  0 hours 20 minutes 33.0 seconds.
 Elapsed time:       0 days  0 hours  1 minutes 47.8 seconds.
 File lengths (MBytes):  RWF=    116 Int=      0 D2E=      0 Chk=     17 Scr=      1
 Normal termination of Gaussian 16 at Tue Jan 23 12:38:14 2024.
