 Entering Gaussian System, Link 0=g16
 Input=IMIDEtOH-isolated-freq.gjf
 Output=IMIDEtOH-isolated-freq.log
 Initial command:
 /software/commercial/gaussian/g16/AVX2/g16/l1.exe "/scratch1/svicchi/G09-1868870.pbs02/Gau-376284.inp" -scrdir="/scratch1/svicchi/G09-1868870.pbs02/"
 Entering Link 1 = /software/commercial/gaussian/g16/AVX2/g16/l1.exe PID=    376285.
  
 Copyright (c) 1988-2021, Gaussian, Inc.  All Rights Reserved.
  
 This is part of the Gaussian(R) 16 program.  It is based on
 the Gaussian(R) 09 system (copyright 2009, Gaussian, Inc.),
 the Gaussian(R) 03 system (copyright 2003, Gaussian, Inc.),
 the Gaussian(R) 98 system (copyright 1998, Gaussian, Inc.),
 the Gaussian(R) 94 system (copyright 1995, Gaussian, Inc.),
 the Gaussian 92(TM) system (copyright 1992, Gaussian, Inc.),
 the Gaussian 90(TM) system (copyright 1990, Gaussian, Inc.),
 the Gaussian 88(TM) system (copyright 1988, Gaussian, Inc.),
 the Gaussian 86(TM) system (copyright 1986, Carnegie Mellon
 University), and the Gaussian 82(TM) system (copyright 1983,
 Carnegie Mellon University). Gaussian is a federally registered
 trademark of Gaussian, Inc.
  
 This software contains proprietary and confidential information,
 including trade secrets, belonging to Gaussian, Inc.
  
 This software is provided under written license and may be
 used, copied, transmitted, or stored only in accord with that
 written license.
  
 The following legend is applicable only to US Government
 contracts under FAR:
  
                    RESTRICTED RIGHTS LEGEND
  
 Use, reproduction and disclosure by the US Government is
 subject to restrictions as set forth in subparagraphs (a)
 and (c) of the Commercial Computer Software - Restricted
 Rights clause in FAR 52.227-19.
  
 Gaussian, Inc.
 340 Quinnipiac St., Bldg. 40, Wallingford CT 06492
  
  
 ---------------------------------------------------------------
 Warning -- This program may not be used in any manner that
 competes with the business of Gaussian, Inc. or will provide
 assistance to any competitor of Gaussian, Inc.  The licensee
 of this program is prohibited from giving any competitor of
 Gaussian, Inc. access to this program.  By using this program,
 the user acknowledges that Gaussian, Inc. is engaged in the
 business of creating and licensing software in the field of
 computational chemistry and represents and warrants to the
 licensee that it is not a competitor of Gaussian, Inc. and that
 it will not use this program in any manner prohibited above.
 ---------------------------------------------------------------
  

 Cite this work as:
 Gaussian 16, Revision C.02,
 M. J. Frisch, G. W. Trucks, H. B. Schlegel, G. E. Scuseria, 
 M. A. Robb, J. R. Cheeseman, G. Scalmani, V. Barone, 
 G. A. Petersson, H. Nakatsuji, X. Li, M. Caricato, A. V. Marenich, 
 J. Bloino, B. G. Janesko, R. Gomperts, B. Mennucci, H. P. Hratchian, 
 J. V. Ortiz, A. F. Izmaylov, J. L. Sonnenberg, D. Williams-Young, 
 F. Ding, F. Lipparini, F. Egidi, J. Goings, B. Peng, A. Petrone, 
 T. Henderson, D. Ranasinghe, V. G. Zakrzewski, J. Gao, N. Rega, 
 G. Zheng, W. Liang, M. Hada, M. Ehara, K. Toyota, R. Fukuda, 
 J. Hasegawa, M. Ishida, T. Nakajima, Y. Honda, O. Kitao, H. Nakai, 
 T. Vreven, K. Throssell, J. A. Montgomery, Jr., J. E. Peralta, 
 F. Ogliaro, M. J. Bearpark, J. J. Heyd, E. N. Brothers, K. N. Kudin, 
 V. N. Staroverov, T. A. Keith, R. Kobayashi, J. Normand, 
 K. Raghavachari, A. P. Rendell, J. C. Burant, S. S. Iyengar, 
 J. Tomasi, M. Cossi, J. M. Millam, M. Klene, C. Adamo, R. Cammi, 
 J. W. Ochterski, R. L. Martin, K. Morokuma, O. Farkas, 
 J. B. Foresman, and D. J. Fox, Gaussian, Inc., Wallingford CT, 2019.
 
 ******************************************
 Gaussian 16:  ES64L-G16RevC.02  7-Dec-2021
                11-Jan-2024 
 ******************************************
 %NProcShared=12
 Will use up to   12 processors via shared memory.
 %mem=110gb
 %chk=/scratch1/svicchi/G09-1868870.pbs02/02-freq/IMIDEtOH-isolated-freq.chk
 ----------------------------------------------------------------------
 #p freq=raman scale=0.967 guess=read geom=allcheck b3lyp/6-311+G(d,p) 
 int=grid=ultrafine EmpiricalDispersion=GD3BJ SCRF=(Solvent=ethanol) sc
 f=(xqc,intrep,maxconventionalcycle=350) nosymm
 ----------------------------------------------------------------------
 1/10=4,29=7,30=1,38=1,114=967000/1,3;
 2/12=2,15=1,40=1/2;
 3/5=4,6=6,7=111,11=2,14=-4,25=1,30=1,70=2201,71=2,72=4,74=-5,75=-5,116=-2,124=41,140=1/1,2,3;
 4/5=1/1;
 5/5=2,8=3,13=1,17=20,38=6,53=4,85=350,98=1/2,8;
 8/6=4,10=90,11=11/1;
 10/13=10,15=4,31=1/2;
 11/6=3,8=1,9=11,15=111,16=1,31=1/1,2,10;
 10/6=1,31=1/2;
 6/7=2,8=2,9=2,10=2,28=1/1;
 7/8=1,10=1,25=1,30=1/1,2,3,16;
 1/10=4,30=1/3;
 99//99;
 Leave Link    1 at Thu Jan 11 15:12:40 2024, MaxMem= 14763950080 cpu:               0.1 elap:               0.1
 (Enter /software/commercial/gaussian/g16/AVX2/g16/l101.exe)
 Structure from the checkpoint file:  "/scratch1/svicchi/G09-1868870.pbs02/02-freq/IMIDEtOH-isolated-freq.chk"
 -----------------
 IMIDEtOH-isolated
 -----------------
 Charge = -1 Multiplicity = 1
 No Z-Matrix found in chk file; cartesian coordinates used.
  C                                                -2.405186052004      3.350133192798      0.488998043772
  N                                                -1.887059769958      3.166927499748     -0.745309091189
  C                                                -2.211694457853      1.864086456059     -1.047298663628
  C                                                -2.907792133153      1.316432083833      0.019448229496
  H                                                -1.929237285940      1.408272325502     -1.988112867567
  N                                                -3.031929727057      2.270301434436      1.004876863011
  H                                                -3.315397583556      0.319969655519      0.133832971367
  C                                                -2.290683628564      4.654540141937      1.226556021353
  H                                                -2.710272699233      4.535385396198      2.229550795219
  H                                                -1.235132212733      4.927669805763      1.351518803996
  C                                                -2.974238532759      5.830618025716      0.539861867516
  H                                                -2.728090216837      6.762365132903      1.064894287435
  H                                                -2.619000858823      5.910375055831     -0.493091461598
  O                                                -4.397221932165      5.625243580620      0.557861689133
  H                                                -4.808462909366      6.324320213135      0.039472511685
 Recover connectivity data from disk.
 ITRead=  0  0  0  0  0  0  0  0  0  0  0  0  0  0  0
 MicOpt= -1 -1 -1 -1 -1 -1 -1 -1 -1 -1 -1 -1 -1 -1 -1
 NAtoms=     15 NQM=       15 NQMF=       0 NMMI=      0 NMMIF=      0
                NMic=       0 NMicF=      0.
                    Isotopes and Nuclear Properties:
 (Nuclear quadrupole moments (NQMom) in fm**2, nuclear magnetic moments (NMagM)
  in nuclear magnetons)

  Atom         1           2           3           4           5           6           7           8           9          10
 IAtWgt=          12          14          12          12           1          14           1          12           1           1
 AtmWgt=  12.0000000  14.0030740  12.0000000  12.0000000   1.0078250  14.0030740   1.0078250  12.0000000   1.0078250   1.0078250
 NucSpn=           0           2           0           0           1           2           1           0           1           1
 AtZEff=   3.6000000   4.5500000   3.6000000   3.6000000   1.0000000   4.5500000   1.0000000   3.6000000   1.0000000   1.0000000
 NQMom=    0.0000000   2.0440000   0.0000000   0.0000000   0.0000000   2.0440000   0.0000000   0.0000000   0.0000000   0.0000000
 NMagM=    0.0000000   0.4037610   0.0000000   0.0000000   2.7928460   0.4037610   2.7928460   0.0000000   2.7928460   2.7928460
 AtZNuc=   6.0000000   7.0000000   6.0000000   6.0000000   1.0000000   7.0000000   1.0000000   6.0000000   1.0000000   1.0000000

  Atom        11          12          13          14          15
 IAtWgt=          12           1           1          16           1
 AtmWgt=  12.0000000   1.0078250   1.0078250  15.9949146   1.0078250
 NucSpn=           0           1           1           0           1
 AtZEff=   3.6000000   1.0000000   1.0000000   5.6000000   1.0000000
 NQMom=    0.0000000   0.0000000   0.0000000   0.0000000   0.0000000
 NMagM=    0.0000000   2.7928460   2.7928460   0.0000000   2.7928460
 AtZNuc=   6.0000000   1.0000000   1.0000000   8.0000000   1.0000000
 Leave Link  101 at Thu Jan 11 15:12:41 2024, MaxMem= 14763950080 cpu:               0.1 elap:               0.1
 (Enter /software/commercial/gaussian/g16/AVX2/g16/l103.exe)

 GradGradGradGradGradGradGradGradGradGradGradGradGradGradGradGradGradGrad
 Berny optimization.
 Initialization pass.
 Trust Radius=3.00D-01 FncErr=1.00D-07 GrdErr=1.00D-07 EigMax=2.50D+02 EigMin=1.00D-04
 Number of steps in this run=      2 maximum allowed number of steps=      2.
 GradGradGradGradGradGradGradGradGradGradGradGradGradGradGradGradGradGrad

 Leave Link  103 at Thu Jan 11 15:12:41 2024, MaxMem= 14763950080 cpu:               0.1 elap:               0.1
 (Enter /software/commercial/gaussian/g16/AVX2/g16/l202.exe)
                          Input orientation:                          
 ---------------------------------------------------------------------
 Center     Atomic      Atomic             Coordinates (Angstroms)
 Number     Number       Type             X           Y           Z
 ---------------------------------------------------------------------
      1          6           0       -2.405186    3.350133    0.488998
      2          7           0       -1.887060    3.166927   -0.745309
      3          6           0       -2.211694    1.864086   -1.047299
      4          6           0       -2.907792    1.316432    0.019448
      5          1           0       -1.929237    1.408272   -1.988113
      6          7           0       -3.031930    2.270301    1.004877
      7          1           0       -3.315398    0.319970    0.133833
      8          6           0       -2.290684    4.654540    1.226556
      9          1           0       -2.710273    4.535385    2.229551
     10          1           0       -1.235132    4.927670    1.351519
     11          6           0       -2.974239    5.830618    0.539862
     12          1           0       -2.728090    6.762365    1.064894
     13          1           0       -2.619001    5.910375   -0.493091
     14          8           0       -4.397222    5.625244    0.557862
     15          1           0       -4.808463    6.324320    0.039473
 ---------------------------------------------------------------------
                    Distance matrix (angstroms):
                    1          2          3          4          5
     1  C    0.000000
     2  N    1.351123   0.000000
     3  C    2.146155   1.376220   0.000000
     4  C    2.146865   2.247461   1.386516   0.000000
     5  H    3.183305   2.153882   1.082903   2.235242   0.000000
     6  N    1.350916   2.275482   2.247047   1.377079   3.304090
     7  H    3.183790   3.304271   2.235515   1.082665   2.758350
     8  C    1.502857   2.502830   3.600456   3.602901   4.582902
     9  H    2.127775   3.376411   4.257013   3.909633   5.308252
    10  H    2.145132   2.814589   4.011676   4.196813   4.901131
    11  C    2.545430   3.151011   4.339807   4.544570   5.199983
    12  H    3.475522   4.112340   5.359212   5.548282   6.214928
    13  H    2.750464   2.850589   4.104326   4.631459   4.793724
    14  O    3.024744   3.747331   4.636742   4.590659   5.509608
    15  H    3.850143   4.372597   5.274274   5.356481   6.047195
                    6          7          8          9         10
     6  N    0.000000
     7  H    2.154731   0.000000
     8  C    2.506628   4.586129   0.000000
     9  H    2.594975   4.746361   1.093733   0.000000
    10  H    3.226492   5.200112   1.097454   1.760928   0.000000
    11  C    3.591020   5.536108   1.523796   2.145310   2.120989
    12  H    4.502728   6.535768   2.158793   2.513201   2.382684
    13  H    3.957847   5.668389   2.154554   3.051509   2.506669
    14  O    3.649587   5.431029   2.413902   2.613070   3.333963
    15  H    4.530248   6.187922   3.246005   3.521240   4.054724
                   11         12         13         14         15
    11  C    0.000000
    12  H    1.097452   0.000000
    13  H    1.095239   1.779075   0.000000
    14  O    1.437840   2.082337   2.085155   0.000000
    15  H    1.964309   2.360365   2.291008   0.962577   0.000000
 Symmetry turned off by external request.
 Stoichiometry    C5H7N2O(1-)
 Framework group  C1[X(C5H7N2O)]
 Deg. of freedom    39
 Full point group                 C1      NOp   1
 Rotational constants (GHZ):           4.7758182           1.3131657           1.2587727
 Leave Link  202 at Thu Jan 11 15:12:41 2024, MaxMem= 14763950080 cpu:               0.1 elap:               0.0
 (Enter /software/commercial/gaussian/g16/AVX2/g16/l301.exe)
 Standard basis: 6-311+G(d,p) (5D, 7F)
 Ernie: Thresh=  0.10000D-02 Tol=  0.10000D-05 Strict=F.
   218 basis functions,   344 primitive gaussians,   226 cartesian basis functions
    30 alpha electrons       30 beta electrons
       nuclear repulsion energy       352.9547486599 Hartrees.
 IExCor=  402 DFT=T Ex+Corr=B3LYP ExCW=0 ScaHFX=  0.200000
 ScaDFX=  0.800000  0.720000  1.000000  0.810000 ScalE2=  1.000000  1.000000
 IRadAn=      5 IRanWt=     -1 IRanGd=            0 ICorTp=0 IEmpDi=141
 NAtoms=   15 NActive=   15 NUniq=   15 SFac= 1.00D+00 NAtFMM=   60 NAOKFM=F Big=F
 Integral buffers will be    131072 words long.
 Raffenetti 2 integral format.
 Two-electron integral symmetry is turned off.
 R6Disp:  Grimme-D3(BJ) Dispersion energy=       -0.0214524546 Hartrees.
 Nuclear repulsion after empirical dispersion term =      352.9332962052 Hartrees.
 Force inversion solution in PCM.
 ------------------------------------------------------------------------------
 Polarizable Continuum Model (PCM)
 =================================
 Model                : PCM.
 Atomic radii         : UFF (Universal Force Field).
 Polarization charges : Total charges.
 Charge compensation  : None.
 Solution method      : Matrix inversion.
 Cavity type          : Scaled VdW (van der Waals Surface) (Alpha=1.100).
 Cavity algorithm     : GePol (No added spheres)
                        Default sphere list used, NSphG=   15.
                        Lebedev-Laikov grids with approx.  5.0 points / Ang**2.
                        Smoothing algorithm: York/Karplus (Gamma=1.0000).
                        Polarization charges: spherical gaussians, with
                                              point-specific exponents (IZeta= 3).
                        Self-potential: point-specific (ISelfS= 7).
                        Self-field    : sphere-specific E.n sum rule (ISelfD= 2).
 1st derivatives      : Analytical E(r).r(x)/FMM algorithm (CHGder, D1EAlg=3).
                        Cavity 1st derivative terms included.
 2nd derivatives      : Analytical E(r).r(xy)/FMM algorithm (CHGder, D2EAlg=3).
                        Cavity 2nd derivative terms included.
 Solvent              : Ethanol, Eps=  24.852000 Eps(inf)=   1.852593
 ------------------------------------------------------------------------------
 Spheres list:
 ISph  on   Nord     Re0    Alpha      Xe            Ye            Ze
    1   C      1    1.9255  1.100     -2.405186      3.350133      0.488998
    2   N      2    1.8300  1.100     -1.887060      3.166927     -0.745309
    3   C      3    1.9255  1.100     -2.211694      1.864086     -1.047299
    4   C      4    1.9255  1.100     -2.907792      1.316432      0.019448
    5   H      5    1.4430  1.100     -1.929237      1.408272     -1.988113
    6   N      6    1.8300  1.100     -3.031930      2.270301      1.004877
    7   H      7    1.4430  1.100     -3.315398      0.319970      0.133833
    8   C      8    1.9255  1.100     -2.290684      4.654540      1.226556
    9   H      9    1.4430  1.100     -2.710273      4.535385      2.229551
   10   H     10    1.4430  1.100     -1.235132      4.927670      1.351519
   11   C     11    1.9255  1.100     -2.974239      5.830618      0.539862
   12   H     12    1.4430  1.100     -2.728090      6.762365      1.064894
   13   H     13    1.4430  1.100     -2.619001      5.910375     -0.493091
   14   O     14    1.7500  1.100     -4.397222      5.625244      0.557862
   15   H     15    1.4430  1.100     -4.808463      6.324320      0.039473
 ------------------------------------------------------------------------------
 GePol: Number of generator spheres                  =      15
 GePol: Total number of spheres                      =      15
 GePol: Number of exposed spheres                    =      15 (100.00%)
 GePol: Number of points                             =    1325
 GePol: Average weight of points                     =       0.13
 GePol: Minimum weight of points                     =   0.20D-07
 GePol: Maximum weight of points                     =    0.20577
 GePol: Number of points with low weight             =      81
 GePol: Fraction of low-weight points (<1% of avg)   =       6.11%
 GePol: Cavity surface area                          =    176.415 Ang**2
 GePol: Cavity volume                                =    166.997 Ang**3
 Leave Link  301 at Thu Jan 11 15:12:41 2024, MaxMem= 14763950080 cpu:               0.1 elap:               0.1
 (Enter /software/commercial/gaussian/g16/AVX2/g16/l302.exe)
 NPDir=0 NMtPBC=     1 NCelOv=     1 NCel=       1 NClECP=     1 NCelD=      1
         NCelK=      1 NCelE2=     1 NClLst=     1 CellRange=     0.0.
 One-electron integrals computed using PRISM.
 NBasis=   218 RedAO= T EigKep=  1.12D-05  NBF=   218
 NBsUse=   218 1.00D-06 EigRej= -1.00D+00 NBFU=   218
 Precomputing XC quadrature grid using
 IXCGrd= 4 IRadAn=           5 IRanWt=          -1 IRanGd=           0 AccXCQ= 0.00D+00.
 Generated NRdTot=       0 NPtTot=           0 NUsed=           0 NTot=          32
 NSgBfM=   226   226   226   226   226 MxSgAt=    15 MxSgA2=    15.
 Leave Link  302 at Thu Jan 11 15:12:42 2024, MaxMem= 14763950080 cpu:               1.4 elap:               0.2
 (Enter /software/commercial/gaussian/g16/AVX2/g16/l303.exe)
 DipDrv:  MaxL=1.
 Leave Link  303 at Thu Jan 11 15:12:42 2024, MaxMem= 14763950080 cpu:               0.1 elap:               0.1
 (Enter /software/commercial/gaussian/g16/AVX2/g16/l401.exe)
 Initial guess from the checkpoint file:  "/scratch1/svicchi/G09-1868870.pbs02/02-freq/IMIDEtOH-isolated-freq.chk"
 B after Tr=     0.000000    0.000000    0.000000
         Rot=    1.000000    0.000000    0.000000    0.000000 Ang=   0.00 deg.
 Guess basis will be translated and rotated to current coordinates.
 JPrj=2 DoOrth=T DoCkMO=T.
 Leave Link  401 at Thu Jan 11 15:12:42 2024, MaxMem= 14763950080 cpu:               0.5 elap:               0.2
 (Enter /software/commercial/gaussian/g16/AVX2/g16/l502.exe)
 Two-electron integral symmetry not used.
 Closed shell SCF:
 Using DIIS extrapolation, IDIIS=  1040.
 NGot= 14763950080 LenX= 14763843110 LenY= 14763791593
 Requested convergence on RMS density matrix=1.00D-08 within 350 cycles.
 Requested convergence on MAX density matrix=1.00D-06.
 Requested convergence on             energy=1.00D-06.
 No special actions if energy rises.
 Fock matrices will be formed incrementally for  20 cycles.

 Cycle   1  Pass 1  IDiag  1:
 FoFJK:  IHMeth= 1 ICntrl=       0 DoSepK=F KAlg= 0 I1Cent=           0 FoldK=F
 IRaf= 950000000 NMat=       1 IRICut=       1 DoRegI=T DoRafI=F ISym2E= 0 IDoP0=0 IntGTp=1.
 FoFCou: FMM=F IPFlag=           0 FMFlag=      100000 FMFlg1=           0
         NFxFlg=           0 DoJE=F BraDBF=F KetDBF=F FulRan=T
         wScrn=  0.000000 ICntrl=         0 IOpCl=  0 I1Cent=           0 NGrid=           0
         NMat0=    1 NMatS0=      1 NMatT0=    0 NMatD0=    1 NMtDS0=    0 NMtDT0=    0
 Symmetry not used in FoFCou.
 Inv3:  Mode=1 IEnd=     5266875.
 Iteration    1 A*A^-1 deviation from unit magnitude is 3.00D-15 for   1149.
 Iteration    1 A*A^-1 deviation from orthogonality  is 1.56D-15 for    995    914.
 Iteration    1 A^-1*A deviation from unit magnitude is 2.78D-15 for   1149.
 Iteration    1 A^-1*A deviation from orthogonality  is 1.48D-14 for   1286   1274.
 E= -379.722483156697    
 DIIS: error= 2.81D-09 at cycle   1 NSaved=   1.
 NSaved= 1 IEnMin= 1 EnMin= -379.722483156697     IErMin= 1 ErrMin= 2.81D-09
 ErrMax= 2.81D-09  0.00D+00 EMaxC= 1.00D-01 BMatC= 3.50D-15 BMatP= 3.50D-15
 IDIUse=1 WtCom= 1.00D+00 WtEn= 0.00D+00
 Coeff-Com:  0.100D+01
 Coeff:      0.100D+01
 Gap=     0.190 Goal=   None    Shift=    0.000
 RMSDP=6.78D-10 MaxDP=1.65D-08              OVMax= 3.17D-08

 Error on total polarization charges =  0.02246
 SCF Done:  E(RB3LYP) =  -379.722483157     A.U. after    1 cycles
            NFock=  1  Conv=0.68D-09     -V/T= 2.0043
 KE= 3.781071968743D+02 PE=-1.604216705782D+03 EE= 4.934537295458D+02
 Leave Link  502 at Thu Jan 11 15:12:45 2024, MaxMem= 14763950080 cpu:              20.1 elap:               2.1
 (Enter /software/commercial/gaussian/g16/AVX2/g16/l508.exe)
 QCSCF skips out because SCF is already converged.
 Leave Link  508 at Thu Jan 11 15:12:45 2024, MaxMem= 14763950080 cpu:               0.0 elap:               0.0
 (Enter /software/commercial/gaussian/g16/AVX2/g16/l801.exe)
 DoSCS=F DFT=T ScalE2(SS,OS)=  1.000000  1.000000
 Range of M.O.s used for correlation:     1   218
 NBasis=   218 NAE=    30 NBE=    30 NFC=     0 NFV=     0
 NROrb=    218 NOA=    30 NOB=    30 NVA=   188 NVB=   188

 **** Warning!!: The largest alpha MO coefficient is  0.71845252D+02

 Leave Link  801 at Thu Jan 11 15:12:45 2024, MaxMem= 14763950080 cpu:               0.1 elap:               0.1
 (Enter /software/commercial/gaussian/g16/AVX2/g16/l1002.exe)
 Minotr:  Closed shell wavefunction.
 NEqPCM:  Using equilibrium solvation (IEInf=0, Eps=  24.8520, EpsInf=   1.8526)
          Direct CPHF calculation.
          Differentiating once with respect to electric field.
                with respect to dipole field.
          Electric field/nuclear overlap derivatives assumed to be zero.
          Requested convergence is 1.0D-08 RMS, and 1.0D-07 maximum.
          Secondary convergence is 1.0D-12 RMS, and 1.0D-12 maximum.
          NewPWx=F KeepS1=T KeepF1=T KeepIn=T MapXYZ=F SortEE=F KeepMc=T.
         4618 words used for storage of precomputed grid.
 Two-electron integral symmetry not used.
          MDV=   14763950080 using IRadAn=       1.
          Solving linear equations simultaneously, MaxMat=     384.
          There are     3 degrees of freedom in the 1st order CPHF.  IDoFFX=0 NUNeed=     3.
      3 vectors produced by pass  0 Test12= 1.88D-13 3.33D-08 XBig12= 8.24D+01 3.49D+00.
 AX will form     3 AO Fock derivatives at one time.
 FoFJK:  IHMeth= 1 ICntrl=       0 DoSepK=F KAlg= 0 I1Cent=           0 FoldK=F
 IRaf= 950000000 NMat=       3 IRICut=       1 DoRegI=T DoRafI=F ISym2E= 0 IDoP0=0 IntGTp=1.
 FoFCou: FMM=F IPFlag=           0 FMFlag=      100000 FMFlg1=           0
         NFxFlg=           0 DoJE=F BraDBF=F KetDBF=F FulRan=T
         wScrn=  0.000000 ICntrl=         0 IOpCl=  0 I1Cent=           0 NGrid=           0
         NMat0=    3 NMatS0=      3 NMatT0=    0 NMatD0=    3 NMtDS0=    0 NMtDT0=    0
 Symmetry not used in FoFCou.
      3 vectors produced by pass  1 Test12= 1.88D-13 3.33D-08 XBig12= 1.76D+01 1.00D+00.
      3 vectors produced by pass  2 Test12= 1.88D-13 3.33D-08 XBig12= 2.94D+00 4.12D-01.
      3 vectors produced by pass  3 Test12= 1.88D-13 3.33D-08 XBig12= 6.02D-01 2.28D-01.
      3 vectors produced by pass  4 Test12= 1.88D-13 3.33D-08 XBig12= 1.12D-01 7.11D-02.
      3 vectors produced by pass  5 Test12= 1.88D-13 3.33D-08 XBig12= 1.90D-02 4.21D-02.
      3 vectors produced by pass  6 Test12= 1.88D-13 3.33D-08 XBig12= 3.47D-03 7.54D-03.
      3 vectors produced by pass  7 Test12= 1.88D-13 3.33D-08 XBig12= 2.60D-04 3.19D-03.
      3 vectors produced by pass  8 Test12= 1.88D-13 3.33D-08 XBig12= 5.76D-06 4.24D-04.
      3 vectors produced by pass  9 Test12= 1.88D-13 3.33D-08 XBig12= 1.48D-07 5.07D-05.
      3 vectors produced by pass 10 Test12= 1.88D-13 3.33D-08 XBig12= 4.55D-09 1.54D-05.
      3 vectors produced by pass 11 Test12= 1.88D-13 3.33D-08 XBig12= 7.42D-11 2.03D-06.
      3 vectors produced by pass 12 Test12= 1.88D-13 3.33D-08 XBig12= 2.96D-12 3.61D-07.
      1 vectors produced by pass 13 Test12= 1.88D-13 3.33D-08 XBig12= 6.91D-14 6.52D-08.
 InvSVY:  IOpt=1 It=  1 EMax= 7.11D-15
 Solved reduced A of dimension    40 with     3 vectors.
 End of Minotr F.D. properties file   721 does not exist.
 End of Minotr F.D. properties file   722 does not exist.
 End of Minotr F.D. properties file   788 does not exist.
 Leave Link 1002 at Thu Jan 11 15:13:07 2024, MaxMem= 14763950080 cpu:             243.9 elap:              21.6
 (Enter /software/commercial/gaussian/g16/AVX2/g16/l1101.exe)
 Using compressed storage, NAtomX=    15.
 Will process     16 centers per pass.
 R6Disp: Adding Grimme-D3(BJ) dispersion energy 1st derivatives to the gradient.
 Leave Link 1101 at Thu Jan 11 15:13:08 2024, MaxMem= 14763950080 cpu:               1.4 elap:               0.2
 (Enter /software/commercial/gaussian/g16/AVX2/g16/l1102.exe)
 Symmetrizing basis deriv contribution to polar:
 IMax=3 JMax=2 DiffMx= 0.00D+00
 Leave Link 1102 at Thu Jan 11 15:13:08 2024, MaxMem= 14763950080 cpu:               0.1 elap:               0.1
 (Enter /software/commercial/gaussian/g16/AVX2/g16/l1110.exe)
 Forming Gx(P) for the SCF density, NAtomX=    15.
 Integral derivatives from FoFJK, PRISM(SPDF).
 Do as many integral derivatives as possible in FoFJK.
 G2DrvN: MDV=   14763948399.
 G2DrvN: will do    16 centers at a time, making    1 passes.
 PxScal for G2LodP:  IOpCl= 0 ISclPx=1 IMOff=     1 NMtTot=     4 NTT=   23871 ScalPx= 2.56D+01
 Calling FoFCou, ICntrl=  3107 FMM=F I1Cent=   0 AccDes= 0.00D+00.
 FoFJK:  IHMeth= 1 ICntrl=    3107 DoSepK=F KAlg= 0 I1Cent=           0 FoldK=F
 IRaf=         0 NMat=       1 IRICut=       1 DoRegI=T DoRafI=F ISym2E= 0 IDoP0=0 IntGTp=1.
 FoFCou: FMM=F IPFlag=           0 FMFlag=      100000 FMFlg1=           0
         NFxFlg=           0 DoJE=F BraDBF=F KetDBF=F FulRan=T
         wScrn=  0.000000 ICntrl=      3107 IOpCl=  0 I1Cent=           0 NGrid=           0
         NMat0=    1 NMatS0=      1 NMatT0=    0 NMatD0=    4 NMtDS0=    3 NMtDT0=    0
 Symmetry not used in FoFCou.
 PxScal for G2LodP:  IOpCl= 0 ISclPx=0 IMOff=     1 NMtTot=     4 NTT=   23871 ScalPx= 1.00D+00
 NEqPCM:  Using equilibrium solvation (IEInf=0, Eps=  24.8520, EpsInf=   1.8526)
 G2PCM: DoFxE=T DoFxN=T DoGrad=T DoDP/DQ/DG/TGxP=TFFF NFrqRd=   0 IEInf=0 SqF1=F DoCFld=F IF1Alg=4.
 GePol: Maximum number of non-zero 1st derivatives   =     200
 End of G2Drv F.D. properties file   721 does not exist.
 End of G2Drv F.D. properties file   722 does not exist.
 End of G2Drv F.D. properties file   788 does not exist.
 Leave Link 1110 at Thu Jan 11 15:13:34 2024, MaxMem= 14763950080 cpu:             301.2 elap:              25.6
 (Enter /software/commercial/gaussian/g16/AVX2/g16/l1002.exe)
 Minotr:  Closed shell wavefunction.
          IDoAtm=111111111111111
 NEqPCM:  Using equilibrium solvation (IEInf=0, Eps=  24.8520, EpsInf=   1.8526)
          Direct CPHF calculation.
          Differentiating once with respect to electric field.
                with respect to dipole field.
          Differentiating once with respect to nuclear coordinates.
          Requested convergence is 1.0D-08 RMS, and 1.0D-07 maximum.
          Secondary convergence is 1.0D-12 RMS, and 1.0D-12 maximum.
          NewPWx=T KeepS1=F KeepF1=F KeepIn=T MapXYZ=F SortEE=F KeepMc=T.
         4618 words used for storage of precomputed grid.
 Keep R1 ints in memory in canonical form, NReq=297562910.
 FoFCou: FMM=F IPFlag=           0 FMFlag=           0 FMFlg1=           0
         NFxFlg=           0 DoJE=F BraDBF=F KetDBF=F FulRan=T
         wScrn=  0.000000 ICntrl=       600 IOpCl=  0 I1Cent=           0 NGrid=           0
         NMat0=    1 NMatS0=  23871 NMatT0=    0 NMatD0=    1 NMtDS0=    0 NMtDT0=    0
 Symmetry not used in FoFCou.
 Two-electron integral symmetry not used.
          MDV=   14763950080 using IRadAn=       1.
          Solving linear equations simultaneously, MaxMat=       0.
          There are    48 degrees of freedom in the 1st order CPHF.  IDoFFX=5 NUNeed=    48.
 Will reuse    3 saved solutions.
     42 vectors produced by pass  0 Test12= 1.18D-14 2.08D-09 XBig12= 1.62D-01 1.13D-01.
 AX will form    42 AO Fock derivatives at one time.
     42 vectors produced by pass  1 Test12= 1.18D-14 2.08D-09 XBig12= 2.29D-02 4.80D-02.
     42 vectors produced by pass  2 Test12= 1.18D-14 2.08D-09 XBig12= 3.15D-04 4.35D-03.
     42 vectors produced by pass  3 Test12= 1.18D-14 2.08D-09 XBig12= 1.27D-06 1.82D-04.
     42 vectors produced by pass  4 Test12= 1.18D-14 2.08D-09 XBig12= 4.31D-09 9.30D-06.
     40 vectors produced by pass  5 Test12= 1.18D-14 2.08D-09 XBig12= 1.09D-11 4.90D-07.
     12 vectors produced by pass  6 Test12= 1.18D-14 2.08D-09 XBig12= 1.62D-14 1.70D-08.
 InvSVY:  IOpt=1 It=  1 EMax= 1.89D-15
 Solved reduced A of dimension   262 with    42 vectors.
 FullF1:  Do perturbations      1 to       3.
 Isotropic polarizability for W=    0.000000      114.01 Bohr**3.
 FullF1:  Do perturbations      1 to       6.
 End of Minotr F.D. properties file   721 does not exist.
 End of Minotr F.D. properties file   722 does not exist.
 End of Minotr F.D. properties file   788 does not exist.
 Leave Link 1002 at Thu Jan 11 15:13:59 2024, MaxMem= 14763950080 cpu:             285.7 elap:              25.1
 (Enter /software/commercial/gaussian/g16/AVX2/g16/l601.exe)
 Copying SCF densities to generalized density rwf, IOpCl= 0 IROHF=0.

 **********************************************************************

            Population analysis using the SCF Density.

 **********************************************************************

 Alpha  occ. eigenvalues --  -19.11964 -14.25348 -14.25254 -10.20671 -10.16775
 Alpha  occ. eigenvalues --  -10.15486 -10.14235 -10.14101  -1.01663  -0.94096
 Alpha  occ. eigenvalues --   -0.78914  -0.75993  -0.67562  -0.60539  -0.53879
 Alpha  occ. eigenvalues --   -0.51318  -0.49725  -0.45884  -0.43716  -0.40214
 Alpha  occ. eigenvalues --   -0.39865  -0.36816  -0.35000  -0.34137  -0.32842
 Alpha  occ. eigenvalues --   -0.27603  -0.26506  -0.22774  -0.22441  -0.18126
 Alpha virt. eigenvalues --    0.00880   0.02375   0.03133   0.03795   0.04843
 Alpha virt. eigenvalues --    0.05445   0.06037   0.06698   0.06963   0.08048
 Alpha virt. eigenvalues --    0.08673   0.09342   0.09713   0.10024   0.11296
 Alpha virt. eigenvalues --    0.12583   0.13612   0.15235   0.15820   0.16813
 Alpha virt. eigenvalues --    0.17591   0.17971   0.18306   0.19220   0.19737
 Alpha virt. eigenvalues --    0.21093   0.21499   0.22112   0.22293   0.23459
 Alpha virt. eigenvalues --    0.23893   0.24489   0.25126   0.26258   0.26632
 Alpha virt. eigenvalues --    0.27911   0.28823   0.30112   0.30490   0.31209
 Alpha virt. eigenvalues --    0.31659   0.33127   0.33945   0.34833   0.35804
 Alpha virt. eigenvalues --    0.37412   0.44811   0.45943   0.47747   0.49890
 Alpha virt. eigenvalues --    0.51068   0.52291   0.54426   0.57021   0.58595
 Alpha virt. eigenvalues --    0.58986   0.61138   0.62473   0.63728   0.65194
 Alpha virt. eigenvalues --    0.66447   0.67907   0.69792   0.70189   0.72405
 Alpha virt. eigenvalues --    0.73216   0.75588   0.77521   0.78711   0.82025
 Alpha virt. eigenvalues --    0.83318   0.84664   0.90232   0.90556   0.92369
 Alpha virt. eigenvalues --    0.94174   0.95986   0.97306   0.99146   1.00745
 Alpha virt. eigenvalues --    1.02405   1.06987   1.08015   1.10794   1.13620
 Alpha virt. eigenvalues --    1.16447   1.18142   1.23770   1.26131   1.26880
 Alpha virt. eigenvalues --    1.29730   1.32667   1.36733   1.39469   1.41914
 Alpha virt. eigenvalues --    1.45371   1.48236   1.55579   1.57812   1.58530
 Alpha virt. eigenvalues --    1.60769   1.61050   1.63095   1.64163   1.68392
 Alpha virt. eigenvalues --    1.68903   1.71188   1.72750   1.74467   1.76390
 Alpha virt. eigenvalues --    1.76771   1.80555   1.80828   1.83664   1.84303
 Alpha virt. eigenvalues --    1.92185   1.96290   2.03636   2.05350   2.06523
 Alpha virt. eigenvalues --    2.09892   2.10245   2.13102   2.18701   2.24411
 Alpha virt. eigenvalues --    2.28499   2.31754   2.32951   2.40834   2.45113
 Alpha virt. eigenvalues --    2.45910   2.48569   2.49857   2.53954   2.56094
 Alpha virt. eigenvalues --    2.58804   2.61593   2.65855   2.67209   2.67640
 Alpha virt. eigenvalues --    2.68781   2.71886   2.74526   2.78755   2.79891
 Alpha virt. eigenvalues --    2.81711   2.84388   2.85757   2.87406   2.92065
 Alpha virt. eigenvalues --    2.98076   2.99517   3.01340   3.05924   3.10569
 Alpha virt. eigenvalues --    3.16883   3.20116   3.27139   3.31604   3.34397
 Alpha virt. eigenvalues --    3.36098   3.63009   3.66211   3.69338   3.81592
 Alpha virt. eigenvalues --    3.83941   3.91727   3.96425   3.98881   4.00079
 Alpha virt. eigenvalues --    4.06923   4.14002   4.25861   4.55842   4.60922
 Alpha virt. eigenvalues --    4.84363   5.05099   5.28079   5.38175   5.64652
 Alpha virt. eigenvalues --   23.82814  23.84857  23.89986  23.94737  24.15302
 Alpha virt. eigenvalues --   35.55573  35.74631  49.91285
          Condensed to atoms (all electrons):
               1          2          3          4          5          6
     1  C    6.312571   0.243746  -0.217285  -0.255784   0.030575   0.361889
     2  N    0.243746   7.175865   0.362528  -0.070444  -0.077048   0.003141
     3  C   -0.217285   0.362528   5.506476   0.265330   0.438514  -0.096132
     4  C   -0.255784  -0.070444   0.265330   5.564965  -0.068729   0.383942
     5  H    0.030575  -0.077048   0.438514  -0.068729   0.569760   0.006156
     6  N    0.361889   0.003141  -0.096132   0.383942   0.006156   7.065200
     7  H    0.028117   0.005435  -0.063739   0.437468   0.000990  -0.072883
     8  C   -0.281750  -0.321465  -0.023389  -0.116519   0.005285  -0.299391
     9  H   -0.150408   0.010660  -0.006817   0.001614   0.000024  -0.003482
    10  H    0.017027  -0.010364  -0.000642   0.006435  -0.000005   0.001998
    11  C   -0.120249   0.029515  -0.014415   0.022263  -0.000297   0.015068
    12  H    0.065930   0.000351   0.000108   0.002205  -0.000002  -0.000951
    13  H   -0.064320  -0.003170  -0.006123  -0.003499   0.000056  -0.000564
    14  O   -0.018178  -0.003112  -0.003315   0.004437  -0.000013  -0.003221
    15  H    0.006612   0.000963   0.000328   0.001932  -0.000000   0.000494
               7          8          9         10         11         12
     1  C    0.028117  -0.281750  -0.150408   0.017027  -0.120249   0.065930
     2  N    0.005435  -0.321465   0.010660  -0.010364   0.029515   0.000351
     3  C   -0.063739  -0.023389  -0.006817  -0.000642  -0.014415   0.000108
     4  C    0.437468  -0.116519   0.001614   0.006435   0.022263   0.002205
     5  H    0.000990   0.005285   0.000024  -0.000005  -0.000297  -0.000002
     6  N   -0.072883  -0.299391  -0.003482   0.001998   0.015068  -0.000951
     7  H    0.567829   0.002096  -0.000054   0.000032  -0.000122  -0.000001
     8  C    0.002096   6.850929   0.515430   0.336827  -0.028405  -0.133098
     9  H   -0.000054   0.515430   0.535159  -0.026864  -0.024874  -0.008146
    10  H    0.000032   0.336827  -0.026864   0.564586  -0.041710  -0.001494
    11  C   -0.000122  -0.028405  -0.024874  -0.041710   5.337118   0.447525
    12  H   -0.000001  -0.133098  -0.008146  -0.001494   0.447525   0.605523
    13  H    0.000003   0.016185   0.007893  -0.003001   0.434062  -0.053562
    14  O   -0.000005  -0.076404  -0.007856   0.011345   0.175849  -0.054824
    15  H    0.000001  -0.010427   0.000564  -0.000403   0.012516  -0.004131
              13         14         15
     1  C   -0.064320  -0.018178   0.006612
     2  N   -0.003170  -0.003112   0.000963
     3  C   -0.006123  -0.003315   0.000328
     4  C   -0.003499   0.004437   0.001932
     5  H    0.000056  -0.000013  -0.000000
     6  N   -0.000564  -0.003221   0.000494
     7  H    0.000003  -0.000005   0.000001
     8  C    0.016185  -0.076404  -0.010427
     9  H    0.007893  -0.007856   0.000564
    10  H   -0.003001   0.011345  -0.000403
    11  C    0.434062   0.175849   0.012516
    12  H   -0.053562  -0.054824  -0.004131
    13  H    0.587342  -0.051048  -0.007890
    14  O   -0.051048   8.171136   0.245137
    15  H   -0.007890   0.245137   0.476375
 Mulliken charges:
               1
     1  C    0.041505
     2  N   -0.346603
     3  C   -0.141428
     4  C   -0.175619
     5  H    0.094733
     6  N   -0.361264
     7  H    0.094833
     8  C   -0.435903
     9  H    0.157156
    10  H    0.146232
    11  C   -0.243844
    12  H    0.134566
    13  H    0.147637
    14  O   -0.389928
    15  H    0.277927
 Sum of Mulliken charges =  -1.00000
 Mulliken charges with hydrogens summed into heavy atoms:
               1
     1  C    0.041505
     2  N   -0.346603
     3  C   -0.046695
     4  C   -0.080786
     6  N   -0.361264
     8  C   -0.132515
    11  C    0.038358
    14  O   -0.112001
 APT charges:
               1
     1  C    0.297339
     2  N   -0.692271
     3  C   -0.004039
     4  C   -0.021435
     5  H    0.025459
     6  N   -0.665597
     7  H    0.030107
     8  C    0.180501
     9  H   -0.032589
    10  H   -0.073861
    11  C    0.634229
    12  H   -0.119137
    13  H   -0.063213
    14  O   -0.796710
    15  H    0.301216
 Sum of APT charges =  -1.00000
 APT charges with hydrogens summed into heavy atoms:
               1
     1  C    0.297339
     2  N   -0.692271
     3  C    0.021421
     4  C    0.008672
     6  N   -0.665597
     8  C    0.074051
    11  C    0.451879
    14  O   -0.495494
 Electronic spatial extent (au):  <R**2>=           5551.4900
 Charge=             -1.0000 electrons
 Dipole moment (field-independent basis, Debye):
    X=             13.0366    Y=            -11.3243    Z=             -1.4605  Tot=             17.3299
 Quadrupole moment (field-independent basis, Debye-Ang):
   XX=            -93.3162   YY=            -69.8291   ZZ=            -59.1919
   XY=             29.4810   XZ=             10.6066   YZ=             -2.7073
 Traceless Quadrupole moment (field-independent basis, Debye-Ang):
   XX=            -19.2038   YY=              4.2833   ZZ=             14.9205
   XY=             29.4810   XZ=             10.6066   YZ=             -2.7073
 Octapole moment (field-independent basis, Debye-Ang**2):
  XXX=            570.8486  YYY=           -494.7738  ZZZ=            -45.4672  XYY=            170.6692
  XXY=           -272.4403  XXZ=            -63.2056  XZZ=            166.7816  YZZ=           -203.6545
  YYZ=            -24.3217  XYZ=             37.0972
 Hexadecapole moment (field-independent basis, Debye-Ang**3):
 XXXX=          -3104.9266 YYYY=          -3856.6618 ZZZZ=           -312.1634 XXXY=           1862.9192
 XXXZ=            365.2723 YYYX=           1230.6272 YYYZ=           -313.2185 ZZZX=            164.1503
 ZZZY=           -236.4790 XXYY=          -1250.8356 XXZZ=           -571.6071 YYZZ=           -915.6926
 XXYZ=           -281.9401 YYXZ=            217.9210 ZZXY=            595.9830
 N-N= 3.529332962052D+02 E-N=-1.604216704889D+03  KE= 3.781071968743D+02
  Exact polarizability:      98.415       8.245     128.224     -10.834       6.036     115.382
 Approx polarizability:     106.400      11.772     133.193     -14.052       3.892     127.414
 No NMR shielding tensors so no spin-rotation constants.
 Leave Link  601 at Thu Jan 11 15:13:59 2024, MaxMem= 14763950080 cpu:               1.0 elap:               0.2
 (Enter /software/commercial/gaussian/g16/AVX2/g16/l701.exe)
 ... and contract with generalized density number  0.
 Compute integral second derivatives.
 R6Disp: Adding Grimme-D3(BJ) dispersion energy 2nd derivatives to the Hessian.
 D2PCM: PCM CHGder 2nd derivatives, FixD1E=F FixD2E=F DoIter=F DoCFld=F I1PDM=0
 GePol: Maximum number of non-zero 2nd derivatives   =     200
 Leave Link  701 at Thu Jan 11 15:14:03 2024, MaxMem= 14763950080 cpu:              32.4 elap:               3.1
 (Enter /software/commercial/gaussian/g16/AVX2/g16/l702.exe)
 L702 exits ... SP integral derivatives will be done elsewhere.
 Leave Link  702 at Thu Jan 11 15:14:03 2024, MaxMem= 14763950080 cpu:               0.1 elap:               0.1
 (Enter /software/commercial/gaussian/g16/AVX2/g16/l703.exe)
 Integral derivatives from FoFJK, PRISM(SPDF).
 Compute integral second derivatives, UseDBF=F ICtDFT=           0.
 Calling FoFJK, ICntrl=    100127 FMM=F ISym2X=0 I1Cent= 0 IOpClX= 0 NMat=1 NMatS=1 NMatT=0.
 FoFJK:  IHMeth= 1 ICntrl=  100127 DoSepK=F KAlg= 0 I1Cent=           0 FoldK=F
 IRaf=         0 NMat=       1 IRICut=       1 DoRegI=T DoRafI=F ISym2E= 0 IDoP0=0 IntGTp=1.
 FoFCou: FMM=F IPFlag=           0 FMFlag=      100000 FMFlg1=         800
         NFxFlg=           0 DoJE=F BraDBF=F KetDBF=F FulRan=T
         wScrn=  0.000000 ICntrl=    100127 IOpCl=  0 I1Cent=           0 NGrid=           0
         NMat0=    1 NMatS0=      1 NMatT0=    0 NMatD0=    1 NMtDS0=    0 NMtDT0=    0
 Symmetry not used in FoFCou.
 Leave Link  703 at Thu Jan 11 15:14:33 2024, MaxMem= 14763950080 cpu:             350.4 elap:              29.4
 (Enter /software/commercial/gaussian/g16/AVX2/g16/l716.exe)
 Dipole        = 5.12898522D+00-4.45532709D+00-5.74609426D-01
 Polarizability= 9.84151458D+01 8.24499063D+00 1.28223763D+02
                -1.08343688D+01 6.03630907D+00 1.15382029D+02
 HyperPolar    = 5.64264375D+01-2.14035997D+02 1.57143714D+02
                 2.24089723D+02-1.31473863D+02 1.42899383D+01
                 2.60952926D+02-4.93356803D+01 8.40098191D+00
                -1.52312545D+02
 Full mass-weighted force constant matrix:
 Low frequencies ---  -40.9146  -12.6090   -5.8291    0.0001    0.0008    0.0009
 Low frequencies ---   43.0064   90.2866  166.3456
 Diagonal vibrational polarizability:
       66.7152103      52.2475103     114.0918957
 Diagonal vibrational hyperpolarizability:
    -1681.5701797      99.3267031    -140.0189994
 Harmonic frequencies (cm**-1), IR intensities (KM/Mole), Raman scattering
 activities (A**4/AMU), depolarization ratios for plane and unpolarized
 incident light, reduced masses (AMU), force constants (mDyne/A),
 and normal coordinates:
                      1                      2                      3
                      A                      A                      A
 Frequencies --     35.6459                90.1292               166.2375
 Red. masses --      4.9156                 5.4924                 1.8642
 Frc consts  --      0.0037                 0.0263                 0.0304
 IR Inten    --      2.2236                 1.3452                93.8039
 Raman Activ --      6.4162                 3.4788                 2.3785
 Depolar (P) --      0.7392                 0.7186                 0.7079
 Depolar (U) --      0.8500                 0.8362                 0.8290
  Atom  AN      X      Y      Z        X      Y      Z        X      Y      Z
     1   6     0.08   0.03  -0.04    -0.11  -0.04  -0.08    -0.04   0.02  -0.08
     2   7     0.26  -0.11   0.05     0.03  -0.07  -0.02    -0.02  -0.05  -0.06
     3   6     0.09  -0.07   0.05     0.18  -0.13   0.04     0.03  -0.08   0.02
     4   6    -0.18   0.09  -0.04     0.14  -0.12   0.01     0.03  -0.03   0.05
     5   1     0.18  -0.16   0.13     0.32  -0.16   0.09     0.05  -0.14   0.06
     6   7    -0.18   0.15  -0.10    -0.05  -0.07  -0.07    -0.01   0.03  -0.02
     7   1    -0.36   0.16  -0.06     0.23  -0.16   0.04     0.06  -0.04   0.12
     8   6     0.12   0.06  -0.11    -0.13  -0.03  -0.09     0.01  -0.00  -0.04
     9   1     0.30   0.08  -0.03    -0.18  -0.01  -0.10     0.10  -0.09  -0.02
    10   1     0.12   0.14  -0.32    -0.12  -0.10  -0.03     0.02  -0.02  -0.10
    11   6    -0.09  -0.01  -0.03    -0.02   0.04  -0.08    -0.02   0.10   0.16
    12   1    -0.09   0.02  -0.09     0.28   0.04  -0.21    -0.15  -0.02   0.43
    13   1    -0.24   0.01  -0.09    -0.20  -0.13  -0.15     0.11   0.41   0.22
    14   8    -0.06  -0.13   0.18    -0.06   0.35   0.24     0.00  -0.02  -0.09
    15   1    -0.21  -0.14   0.29    -0.01   0.36   0.21    -0.02   0.40   0.50
                      4                      5                      6
                      A                      A                      A
 Frequencies --    217.8452               283.2976               368.5536
 Red. masses --      1.2625                 5.8096                 2.0343
 Frc consts  --      0.0353                 0.2747                 0.1628
 IR Inten    --    109.1031                 4.7035                16.8104
 Raman Activ --      0.5896                 3.5021                 1.6181
 Depolar (P) --      0.5342                 0.6750                 0.5205
 Depolar (U) --      0.6964                 0.8060                 0.6847
  Atom  AN      X      Y      Z        X      Y      Z        X      Y      Z
     1   6     0.02  -0.02   0.05     0.31  -0.09   0.04     0.05   0.06  -0.09
     2   7     0.01   0.02   0.04     0.20  -0.14  -0.01     0.03  -0.02  -0.10
     3   6    -0.02   0.04  -0.01    -0.15  -0.05  -0.08    -0.02  -0.05   0.01
     4   6    -0.01   0.01  -0.02    -0.13   0.02  -0.03    -0.01   0.05   0.06
     5   1    -0.03   0.08  -0.03    -0.37  -0.04  -0.15    -0.06  -0.13   0.03
     6   7     0.01  -0.03   0.02     0.22  -0.03   0.06     0.03   0.12  -0.02
     7   1    -0.03   0.01  -0.06    -0.33   0.10  -0.05    -0.05   0.07   0.14
     8   6    -0.01   0.00   0.01    -0.04  -0.03   0.02    -0.13  -0.03   0.07
     9   1    -0.05   0.06   0.00    -0.08  -0.18  -0.02    -0.60  -0.19  -0.15
    10   1    -0.02   0.01   0.03    -0.12   0.24   0.14    -0.18  -0.05   0.60
    11   6     0.00  -0.05  -0.09    -0.14   0.01   0.09     0.04  -0.02  -0.02
    12   1     0.04  -0.01  -0.18    -0.10  -0.07   0.21     0.05   0.01  -0.09
    13   1    -0.02  -0.16  -0.11    -0.07   0.13   0.12     0.03  -0.11  -0.03
    14   8    -0.00  -0.02  -0.03    -0.19   0.22  -0.07     0.05  -0.06   0.05
    15   1    -0.07   0.54   0.77     0.03   0.24  -0.22    -0.02  -0.05   0.13
                      7                      8                      9
                      A                      A                      A
 Frequencies --    483.7610               657.2024               663.1372
 Red. masses --      3.1504                 3.7340                 3.7242
 Frc consts  --      0.4344                 0.9502                 0.9649
 IR Inten    --     41.6712                 8.0623                 2.2192
 Raman Activ --      2.2224                 5.8933                 1.7567
 Depolar (P) --      0.1888                 0.0806                 0.1467
 Depolar (U) --      0.3176                 0.1492                 0.2559
  Atom  AN      X      Y      Z        X      Y      Z        X      Y      Z
     1   6    -0.00  -0.05   0.06     0.07   0.03   0.05     0.04   0.01   0.02
     2   7     0.04  -0.06   0.08    -0.16  -0.04  -0.10     0.11  -0.09   0.04
     3   6    -0.04  -0.01  -0.04     0.11  -0.16   0.00    -0.21   0.02  -0.12
     4   6    -0.03  -0.07  -0.07    -0.08  -0.07  -0.09     0.22  -0.12   0.08
     5   1    -0.08   0.08  -0.09     0.28  -0.19   0.07    -0.44   0.11  -0.24
     6   7     0.04  -0.14   0.02     0.02  -0.05  -0.08    -0.18   0.05  -0.13
     7   1    -0.06  -0.06  -0.14    -0.20  -0.02  -0.08     0.51  -0.22   0.25
     8   6    -0.10   0.14  -0.09     0.11   0.20   0.25     0.05   0.09   0.12
     9   1    -0.40   0.26  -0.20     0.12   0.18   0.26     0.07   0.08   0.13
    10   1    -0.11   0.03   0.21     0.08   0.29   0.23     0.04   0.11   0.09
    11   6     0.03   0.26  -0.07    -0.02   0.09   0.02    -0.01   0.04   0.01
    12   1    -0.07   0.17   0.14    -0.11   0.32  -0.35    -0.05   0.15  -0.18
    13   1    -0.02   0.52  -0.06     0.01  -0.30  -0.00     0.01  -0.16   0.00
    14   8     0.10  -0.08   0.06    -0.03   0.00  -0.02    -0.02   0.00  -0.01
    15   1    -0.21  -0.24   0.09    -0.05   0.02   0.03    -0.02   0.01   0.01
                     10                     11                     12
                      A                      A                      A
 Frequencies --    741.0200               746.4472               808.0801
 Red. masses --      1.2011                 4.4626                 1.3567
 Frc consts  --      0.3886                 1.4650                 0.5220
 IR Inten    --    118.3912                 6.9130                 0.2977
 Raman Activ --     35.3821                 3.0781                21.9226
 Depolar (P) --      0.7499                 0.7399                 0.7500
 Depolar (U) --      0.8571                 0.8505                 0.8571
  Atom  AN      X      Y      Z        X      Y      Z        X      Y      Z
     1   6     0.03  -0.01   0.01     0.33  -0.14   0.16     0.00  -0.00   0.00
     2   7     0.01  -0.00   0.01    -0.20   0.09  -0.06     0.00  -0.00   0.00
     3   6    -0.07   0.03  -0.03     0.07   0.02   0.05    -0.11   0.04  -0.05
     4   6    -0.08   0.03  -0.04     0.07  -0.01   0.04     0.10  -0.04   0.05
     5   1     0.57  -0.20   0.27     0.05   0.05   0.03     0.64  -0.23   0.30
     6   7     0.01  -0.01   0.01    -0.22   0.04  -0.05    -0.00   0.00  -0.00
     7   1     0.64  -0.23   0.30     0.06  -0.02  -0.04    -0.56   0.20  -0.26
     8   6    -0.00  -0.00  -0.00     0.09  -0.06  -0.12     0.00   0.00  -0.00
     9   1    -0.02  -0.00  -0.01    -0.32  -0.02  -0.28    -0.00  -0.00  -0.00
    10   1    -0.01   0.01   0.01    -0.02   0.13   0.37    -0.00   0.00   0.01
    11   6    -0.00  -0.00  -0.00     0.00  -0.02  -0.06    -0.00  -0.00  -0.00
    12   1     0.00  -0.01   0.01    -0.01  -0.22   0.32     0.00  -0.00   0.00
    13   1    -0.00   0.01  -0.00    -0.08   0.44  -0.04    -0.00   0.00   0.00
    14   8     0.00   0.00   0.00    -0.04   0.02   0.01    -0.00   0.00   0.00
    15   1    -0.00  -0.00   0.00    -0.01   0.01  -0.02     0.00   0.00  -0.00
                     13                     14                     15
                      A                      A                      A
 Frequencies --    862.8703               944.5182               950.8524
 Red. masses --      2.7381                 3.7698                 3.6891
 Frc consts  --      1.2011                 1.9815                 1.9651
 IR Inten    --     37.7871                14.9615                 4.5457
 Raman Activ --      5.8770                 5.4549                 2.7587
 Depolar (P) --      0.3998                 0.5462                 0.4707
 Depolar (U) --      0.5713                 0.7065                 0.6401
  Atom  AN      X      Y      Z        X      Y      Z        X      Y      Z
     1   6    -0.12   0.03  -0.06     0.08  -0.06  -0.07     0.02  -0.12   0.03
     2   7     0.03  -0.01   0.04     0.11   0.20  -0.13    -0.00  -0.07  -0.09
     3   6    -0.01   0.02   0.00    -0.06   0.10   0.22     0.07  -0.03  -0.16
     4   6    -0.01   0.00  -0.01    -0.08  -0.15   0.07     0.09   0.23  -0.02
     5   1     0.02   0.05  -0.00    -0.16  -0.10   0.29    -0.05  -0.29  -0.08
     6   7     0.02  -0.03   0.04    -0.02  -0.09  -0.06    -0.12   0.01   0.23
     7   1     0.03  -0.02  -0.05    -0.02  -0.20  -0.11     0.17   0.17  -0.24
     8   6     0.26  -0.05   0.02    -0.02  -0.12   0.04    -0.03  -0.11   0.05
     9   1    -0.34  -0.13  -0.24     0.23  -0.28   0.12     0.20  -0.24   0.13
    10   1     0.25  -0.33   0.64     0.05  -0.27  -0.16     0.03  -0.27  -0.14
    11   6     0.10   0.06  -0.05     0.00   0.18  -0.01     0.01   0.17   0.00
    12   1    -0.09   0.08  -0.02     0.01   0.33  -0.30     0.01   0.34  -0.31
    13   1    -0.11   0.20  -0.10     0.01  -0.16  -0.04     0.02  -0.20  -0.02
    14   8    -0.19  -0.00  -0.01    -0.01  -0.01  -0.02    -0.01  -0.01  -0.02
    15   1    -0.06   0.06  -0.03    -0.32  -0.12   0.07    -0.29  -0.12   0.06
                     16                     17                     18
                      A                      A                      A
 Frequencies --    995.2501              1022.7783              1064.4763
 Red. masses --      2.4168                 2.0413                 3.1041
 Frc consts  --      1.4105                 1.2581                 2.0723
 IR Inten    --      3.0550                32.2900               110.8176
 Raman Activ --      9.4713                 6.4642                 6.9390
 Depolar (P) --      0.7493                 0.6320                 0.4978
 Depolar (U) --      0.8567                 0.7745                 0.6648
  Atom  AN      X      Y      Z        X      Y      Z        X      Y      Z
     1   6     0.05   0.01   0.05    -0.01  -0.02   0.05     0.07  -0.00  -0.01
     2   7    -0.10  -0.05   0.14     0.04   0.04  -0.07    -0.02  -0.02   0.02
     3   6     0.02  -0.02  -0.04    -0.01  -0.04  -0.01     0.00   0.02   0.02
     4   6    -0.01  -0.00   0.01     0.01   0.02  -0.00    -0.01  -0.03  -0.01
     5   1     0.22   0.38  -0.16    -0.11  -0.26   0.06     0.05   0.14  -0.02
     6   7     0.09   0.10  -0.14     0.01   0.01  -0.02    -0.02  -0.01   0.03
     7   1    -0.19   0.13   0.49    -0.01   0.03   0.04     0.04  -0.06  -0.14
     8   6    -0.05  -0.13   0.01    -0.08   0.01   0.09    -0.09   0.12  -0.18
     9   1     0.17  -0.21   0.08     0.11   0.59   0.23    -0.07  -0.04  -0.18
    10   1     0.04  -0.35  -0.20     0.00  -0.15  -0.25    -0.10   0.10  -0.07
    11   6     0.05   0.11  -0.03     0.18  -0.03  -0.08     0.23   0.02   0.19
    12   1     0.08   0.13  -0.10     0.08  -0.24   0.32     0.32   0.23  -0.28
    13   1     0.05  -0.02  -0.04     0.20   0.34  -0.03     0.12  -0.59   0.11
    14   8    -0.04  -0.01  -0.01    -0.12  -0.02   0.03    -0.15  -0.07  -0.01
    15   1    -0.28  -0.11   0.05    -0.12  -0.03  -0.01     0.27   0.14  -0.07
                     19                     20                     21
                      A                      A                      A
 Frequencies --   1110.1739              1136.8682              1177.1818
 Red. masses --      1.7806                 1.7988                 1.2752
 Frc consts  --      1.2930                 1.3698                 1.0412
 IR Inten    --      6.3852                38.3359                12.0488
 Raman Activ --     42.7085                14.3664                16.5644
 Depolar (P) --      0.0275                 0.4352                 0.3039
 Depolar (U) --      0.0535                 0.6065                 0.4662
  Atom  AN      X      Y      Z        X      Y      Z        X      Y      Z
     1   6    -0.01  -0.05  -0.02     0.02   0.03  -0.04    -0.01   0.03  -0.04
     2   7     0.06   0.06  -0.09    -0.01  -0.11  -0.05    -0.00   0.02   0.04
     3   6     0.06   0.02  -0.12     0.00   0.07   0.04     0.00  -0.01  -0.02
     4   6    -0.07  -0.07   0.08    -0.02  -0.11  -0.04     0.00   0.05   0.03
     5   1     0.30   0.47  -0.28     0.25   0.56  -0.12    -0.05  -0.10   0.01
     6   7    -0.05  -0.04   0.09    -0.01   0.10   0.10    -0.02  -0.09  -0.02
     7   1    -0.28   0.07   0.66     0.15  -0.24  -0.49    -0.03   0.08   0.14
     8   6     0.01   0.02   0.01    -0.02  -0.01   0.05     0.02   0.01  -0.01
     9   1    -0.02   0.14   0.01     0.09  -0.12   0.08     0.06  -0.34  -0.03
    10   1    -0.01   0.06   0.03    -0.04   0.17  -0.06    -0.11   0.54   0.05
    11   6    -0.00  -0.01   0.01     0.03  -0.01  -0.05     0.04  -0.02  -0.02
    12   1    -0.03   0.01  -0.01    -0.01  -0.11   0.12     0.10  -0.12   0.12
    13   1    -0.02   0.00   0.00     0.21   0.10   0.02     0.39  -0.07   0.09
    14   8     0.00  -0.00   0.00    -0.01   0.01   0.01    -0.01   0.02  -0.00
    15   1     0.07   0.03  -0.01    -0.26  -0.10   0.05    -0.51  -0.20   0.10
                     22                     23                     24
                      A                      A                      A
 Frequencies --   1197.0365              1246.2553              1286.8440
 Red. masses --      6.3021                 1.2554                 1.3736
 Frc consts  --      5.3205                 1.1488                 1.3401
 IR Inten    --     19.3201                48.3107                32.2520
 Raman Activ --     39.4942                 8.9299                14.3583
 Depolar (P) --      0.5932                 0.7317                 0.4640
 Depolar (U) --      0.7447                 0.8451                 0.6339
  Atom  AN      X      Y      Z        X      Y      Z        X      Y      Z
     1   6     0.03   0.08   0.02    -0.04  -0.02   0.04    -0.03  -0.05   0.07
     2   7     0.04   0.32   0.16     0.01  -0.01  -0.03     0.01  -0.02  -0.04
     3   6    -0.04  -0.32  -0.17     0.00   0.01   0.00     0.01   0.05   0.01
     4   6    -0.01  -0.26  -0.17     0.00  -0.02  -0.02     0.01  -0.03  -0.04
     5   1    -0.09  -0.45  -0.15    -0.02  -0.03   0.02    -0.07  -0.11   0.07
     6   7    -0.02   0.20   0.18     0.02   0.04  -0.00     0.02   0.05  -0.01
     7   1    -0.04  -0.27  -0.11    -0.01  -0.01   0.02    -0.06   0.02   0.13
     8   6     0.00  -0.00  -0.04     0.04  -0.03  -0.01     0.03   0.04  -0.06
     9   1     0.00  -0.39  -0.09    -0.12   0.36  -0.03    -0.18   0.18  -0.13
    10   1     0.03  -0.12  -0.04    -0.01   0.09   0.10     0.10  -0.33   0.04
    11   6    -0.01  -0.01  -0.01    -0.03   0.01   0.08    -0.03  -0.04   0.03
    12   1     0.05  -0.06   0.05     0.63  -0.14   0.04    -0.42   0.07  -0.02
    13   1     0.11  -0.05   0.03    -0.36  -0.15  -0.04     0.55  -0.29   0.20
    14   8     0.00   0.01  -0.00     0.02   0.01  -0.05     0.01   0.04   0.01
    15   1    -0.19  -0.07   0.04    -0.45  -0.17   0.08    -0.32  -0.12   0.06
                     25                     26                     27
                      A                      A                      A
 Frequencies --   1314.5643              1343.3185              1425.4982
 Red. masses --      1.8897                 1.5443                 1.8868
 Frc consts  --      1.9240                 1.6419                 2.2590
 IR Inten    --      3.9753                23.3056                20.2412
 Raman Activ --     60.1522                15.3790                82.8189
 Depolar (P) --      0.6776                 0.1148                 0.1336
 Depolar (U) --      0.8078                 0.2060                 0.2357
  Atom  AN      X      Y      Z        X      Y      Z        X      Y      Z
     1   6    -0.10  -0.05   0.12    -0.02  -0.10  -0.08    -0.04   0.07   0.13
     2   7     0.01  -0.05  -0.06    -0.01   0.04   0.05     0.03   0.01  -0.06
     3   6     0.04   0.11   0.01    -0.02  -0.04   0.01    -0.01  -0.06  -0.03
     4   6     0.02  -0.09  -0.10     0.00   0.02   0.00    -0.03   0.02   0.07
     5   1    -0.20  -0.34   0.15     0.03   0.07  -0.02     0.09   0.12  -0.10
     6   7     0.02   0.09   0.02     0.02   0.05  -0.01     0.02  -0.01  -0.04
     7   1    -0.15   0.04   0.36     0.05  -0.01  -0.10     0.09  -0.07  -0.24
     8   6     0.00  -0.04  -0.00     0.03  -0.14   0.00     0.04  -0.07  -0.02
     9   1     0.12  -0.41   0.01    -0.15   0.55   0.00    -0.11   0.02  -0.07
    10   1    -0.14   0.52   0.05    -0.15   0.61  -0.02     0.00   0.07  -0.03
    11   6     0.03   0.04  -0.03     0.02   0.04   0.02    -0.09   0.12  -0.06
    12   1     0.02   0.05  -0.04    -0.34   0.22  -0.15     0.36  -0.18   0.26
    13   1    -0.06   0.13  -0.06     0.12  -0.07   0.04     0.51  -0.37   0.10
    14   8    -0.02  -0.03   0.02     0.00  -0.00   0.01    -0.03  -0.04   0.03
    15   1     0.28   0.11  -0.05     0.09   0.04  -0.01     0.38   0.14  -0.07
                     28                     29                     30
                      A                      A                      A
 Frequencies --   1442.0615              1447.4974              1459.7157
 Red. masses --      2.0105                 1.7109                 2.4474
 Frc consts  --      2.4633                 2.1121                 3.0725
 IR Inten    --     74.5304                 4.3346                13.2578
 Raman Activ --      4.4884               120.4176               121.3079
 Depolar (P) --      0.6983                 0.2065                 0.1736
 Depolar (U) --      0.8223                 0.3423                 0.2959
  Atom  AN      X      Y      Z        X      Y      Z        X      Y      Z
     1   6    -0.09  -0.05   0.15    -0.01  -0.15  -0.10    -0.05  -0.06   0.06
     2   7     0.04   0.04  -0.06    -0.01   0.02   0.04     0.05   0.04  -0.07
     3   6    -0.02  -0.09  -0.03    -0.04  -0.02   0.06    -0.13  -0.15   0.16
     4   6    -0.04   0.04   0.11     0.04   0.03  -0.06     0.10   0.10  -0.15
     5   1     0.13   0.20  -0.14     0.03   0.12   0.04     0.20   0.53  -0.03
     6   7     0.05   0.03  -0.08     0.01   0.04   0.01    -0.01  -0.01   0.00
     7   1     0.14  -0.09  -0.36    -0.02   0.09   0.13    -0.02   0.23   0.22
     8   6    -0.03   0.02  -0.08    -0.02   0.07  -0.02     0.03   0.04   0.04
     9   1     0.42  -0.19   0.10     0.51   0.06   0.22    -0.38  -0.29  -0.18
    10   1    -0.10   0.08   0.45    -0.03  -0.13   0.58     0.06   0.08  -0.41
    11   6     0.06  -0.06   0.03    -0.06   0.03  -0.04     0.02  -0.01   0.01
    12   1    -0.26   0.13  -0.17     0.28  -0.17   0.16     0.03   0.02  -0.05
    13   1    -0.22   0.18  -0.04     0.25  -0.12   0.05    -0.06   0.08  -0.01
    14   8     0.01   0.02  -0.01    -0.01  -0.02   0.01    -0.00   0.00  -0.00
    15   1    -0.18  -0.06   0.04     0.14   0.05  -0.02    -0.02  -0.01   0.00
                     31                     32                     33
                      A                      A                      A
 Frequencies --   1466.6792              1507.5163              2988.3141
 Red. masses --      2.7349                 1.0949                 1.0616
 Frc consts  --      3.4663                 1.4661                 5.5854
 IR Inten    --      8.9217                 8.8118                66.6696
 Raman Activ --     10.6086                18.3308               165.9981
 Depolar (P) --      0.3863                 0.6541                 0.3073
 Depolar (U) --      0.5573                 0.7909                 0.4701
  Atom  AN      X      Y      Z        X      Y      Z        X      Y      Z
     1   6     0.06   0.26   0.06    -0.01  -0.03  -0.01     0.00   0.00   0.00
     2   7     0.01  -0.03  -0.05    -0.00   0.00   0.00    -0.00  -0.00  -0.00
     3   6    -0.05  -0.04   0.07     0.00   0.00   0.00     0.00   0.00  -0.00
     4   6     0.06  -0.00  -0.14    -0.00   0.00   0.01    -0.00  -0.00   0.00
     5   1     0.03   0.12   0.03     0.00   0.00  -0.00    -0.00   0.00   0.00
     6   7    -0.06  -0.09   0.06     0.00   0.01  -0.00     0.00  -0.00   0.00
     7   1    -0.10   0.12   0.29     0.00  -0.00  -0.01    -0.00  -0.00  -0.00
     8   6    -0.04  -0.14  -0.09    -0.00   0.02   0.01     0.02   0.01   0.01
     9   1     0.44   0.38   0.17    -0.01  -0.08  -0.01     0.05   0.01  -0.10
    10   1    -0.12   0.01   0.47     0.00   0.03  -0.04    -0.34  -0.09  -0.03
    11   6     0.02   0.01   0.01     0.05   0.05  -0.03    -0.02  -0.06  -0.00
    12   1    -0.29   0.07   0.01    -0.38  -0.20   0.56     0.17   0.71   0.42
    13   1    -0.07  -0.14  -0.03    -0.38  -0.56  -0.20     0.12   0.01  -0.37
    14   8     0.01   0.01  -0.00     0.01   0.01  -0.01    -0.00   0.00  -0.00
    15   1    -0.04  -0.01   0.01    -0.03  -0.01   0.00    -0.01  -0.00   0.00
                     34                     35                     36
                      A                      A                      A
 Frequencies --   3006.5250              3036.2597              3067.1711
 Red. masses --      1.0662                 1.1016                 1.0949
 Frc consts  --      5.6782                 5.9835                 6.0687
 IR Inten    --    145.7051                47.2431                69.1324
 Raman Activ --    689.0269               249.2048                92.3490
 Depolar (P) --      0.0964                 0.7076                 0.5393
 Depolar (U) --      0.1759                 0.8288                 0.7007
  Atom  AN      X      Y      Z        X      Y      Z        X      Y      Z
     1   6    -0.00   0.00   0.00    -0.00  -0.00  -0.00     0.00   0.00  -0.00
     2   7     0.00   0.00   0.00     0.00  -0.00   0.00    -0.00  -0.00   0.00
     3   6    -0.00  -0.00  -0.00     0.00  -0.00  -0.00     0.00   0.00   0.00
     4   6     0.00  -0.00  -0.00    -0.00  -0.00  -0.00    -0.00  -0.00  -0.00
     5   1    -0.00  -0.00   0.00    -0.00   0.00   0.00    -0.00  -0.00   0.00
     6   7    -0.00   0.00  -0.00     0.00   0.00  -0.00    -0.00  -0.00   0.00
     7   1     0.00   0.00  -0.00    -0.00   0.00  -0.00    -0.00  -0.00   0.00
     8   6    -0.06  -0.01  -0.03    -0.02  -0.01   0.02     0.05   0.01  -0.07
     9   1    -0.13  -0.04   0.28     0.10   0.03  -0.24    -0.35  -0.10   0.83
    10   1     0.84   0.21   0.09     0.14   0.04   0.02    -0.27  -0.07  -0.04
    11   6    -0.01  -0.02   0.00     0.01  -0.02  -0.08     0.01  -0.01  -0.03
    12   1     0.06   0.26   0.15     0.09   0.35   0.19     0.02   0.09   0.05
    13   1     0.07   0.01  -0.20    -0.27  -0.06   0.81    -0.08  -0.02   0.26
    14   8    -0.00   0.00  -0.00     0.00  -0.00   0.00    -0.00  -0.00   0.00
    15   1    -0.00   0.00  -0.00     0.00   0.00   0.00    -0.00   0.00   0.00
                     37                     38                     39
                      A                      A                      A
 Frequencies --   3172.7180              3195.8743              3833.0822
 Red. masses --      1.0867                 1.1028                 1.0667
 Frc consts  --      6.4453                 6.6363                 9.2343
 IR Inten    --     21.4816                73.3783                57.5785
 Raman Activ --    207.8604               282.2864               167.8835
 Depolar (P) --      0.7454                 0.2118                 0.2354
 Depolar (U) --      0.8541                 0.3496                 0.3811
  Atom  AN      X      Y      Z        X      Y      Z        X      Y      Z
     1   6    -0.00  -0.00   0.00     0.00   0.00   0.00    -0.00   0.00   0.00
     2   7     0.00   0.00  -0.00     0.00   0.00   0.00    -0.00   0.00  -0.00
     3   6     0.02  -0.03  -0.06     0.02  -0.02  -0.05     0.00   0.00  -0.00
     4   6     0.02   0.05  -0.01    -0.03  -0.06   0.01    -0.00   0.00   0.00
     5   1    -0.20   0.31   0.65    -0.18   0.27   0.57    -0.00   0.00   0.00
     6   7     0.00   0.00  -0.00    -0.00   0.00   0.00    -0.00   0.00  -0.00
     7   1    -0.25  -0.61   0.07     0.28   0.69  -0.09     0.00   0.00   0.00
     8   6    -0.00  -0.00  -0.00     0.00  -0.00  -0.00     0.00   0.00  -0.00
     9   1     0.00  -0.00  -0.00    -0.00  -0.00   0.00    -0.00   0.00  -0.00
    10   1     0.00   0.00   0.00    -0.00  -0.00  -0.00    -0.00  -0.00  -0.00
    11   6    -0.00   0.00   0.00    -0.00   0.00   0.00    -0.00  -0.00   0.00
    12   1    -0.00  -0.00  -0.00    -0.00  -0.00  -0.00    -0.00  -0.00  -0.00
    13   1     0.00   0.00  -0.00     0.00   0.00  -0.00    -0.00   0.00  -0.00
    14   8     0.00   0.00  -0.00     0.00  -0.00  -0.00     0.03  -0.04   0.03
    15   1     0.00  -0.00   0.00     0.00  -0.00   0.00    -0.43   0.72  -0.54

 -------------------
 - Thermochemistry -
 -------------------
 Temperature   298.150 Kelvin.  Pressure   1.00000 Atm.
 Thermochemistry will use frequencies scaled by 0.9670.
 Atom     1 has atomic number  6 and mass  12.00000
 Atom     2 has atomic number  7 and mass  14.00307
 Atom     3 has atomic number  6 and mass  12.00000
 Atom     4 has atomic number  6 and mass  12.00000
 Atom     5 has atomic number  1 and mass   1.00783
 Atom     6 has atomic number  7 and mass  14.00307
 Atom     7 has atomic number  1 and mass   1.00783
 Atom     8 has atomic number  6 and mass  12.00000
 Atom     9 has atomic number  1 and mass   1.00783
 Atom    10 has atomic number  1 and mass   1.00783
 Atom    11 has atomic number  6 and mass  12.00000
 Atom    12 has atomic number  1 and mass   1.00783
 Atom    13 has atomic number  1 and mass   1.00783
 Atom    14 has atomic number  8 and mass  15.99491
 Atom    15 has atomic number  1 and mass   1.00783
 Molecular mass:   111.05584 amu.
 Principal axes and moments of inertia in atomic units:
                           1         2         3
     Eigenvalues --   377.891521374.343821433.73087
           X           -0.24699   0.68644   0.68396
           Y            0.93813   0.34616  -0.00864
           Z            0.24269  -0.63951   0.72947
 This molecule is an asymmetric top.
 Rotational symmetry number  1.
 Rotational temperatures (Kelvin)      0.22920     0.06302     0.06041
 Rotational constants (GHZ):           4.77582     1.31317     1.25877
 Zero-point vibrational energy     300552.6 (Joules/Mol)
                                   71.83379 (Kcal/Mol)
 Warning -- explicit consideration of   7 degrees of freedom as
           vibrations may cause significant error
 Vibrational temperatures:     49.59   125.40   231.29   303.09   394.15
          (Kelvin)            512.77   673.06   914.36   922.62  1030.98
                             1038.53  1124.28  1200.51  1314.11  1322.92
                             1384.69  1422.99  1481.00  1544.58  1581.72
                             1637.81  1665.43  1733.91  1790.38  1828.95
                             1868.96  1983.29  2006.34  2013.90  2030.90
                             2040.59  2097.40  4157.63  4182.97  4224.34
                             4267.35  4414.19  4446.41  5332.96
 
 Zero-point correction=                           0.114474 (Hartree/Particle)
 Thermal correction to Energy=                    0.122211
 Thermal correction to Enthalpy=                  0.123155
 Thermal correction to Gibbs Free Energy=         0.081243
 Sum of electronic and zero-point Energies=           -379.608009
 Sum of electronic and thermal Energies=              -379.600273
 Sum of electronic and thermal Enthalpies=            -379.599328
 Sum of electronic and thermal Free Energies=         -379.641240
 
                     E (Thermal)             CV                S
                      KCal/Mol        Cal/Mol-Kelvin    Cal/Mol-Kelvin
 Total                   76.688             27.475             88.211
 Electronic               0.000              0.000              0.000
 Translational            0.889              2.981             40.031
 Rotational               0.889              2.981             28.101
 Vibrational             74.911             21.514             20.080
 Vibration     1          0.594              1.983              5.554
 Vibration     2          0.601              1.958              3.723
 Vibration     3          0.622              1.890              2.541
 Vibration     4          0.643              1.825              2.038
 Vibration     5          0.676              1.721              1.571
 Vibration     6          0.732              1.562              1.138
 Vibration     7          0.825              1.321              0.744
                       Q            Log10(Q)             Ln(Q)
 Total Bot       0.427553D-37        -37.369010        -86.045325
 Total V=0       0.192988D+16         15.285529         35.196232
 Vib (Bot)       0.300894D-50        -50.521587       -116.330252
 Vib (Bot)    1  0.600489D+01          0.778505          1.792573
 Vib (Bot)    2  0.236022D+01          0.372953          0.858756
 Vib (Bot)    3  0.125733D+01          0.099451          0.228994
 Vib (Bot)    4  0.942595D+00         -0.025675         -0.059118
 Vib (Bot)    5  0.704037D+00         -0.152405         -0.350925
 Vib (Bot)    6  0.515527D+00         -0.287749         -0.662566
 Vib (Bot)    7  0.361239D+00         -0.442205         -1.018215
 Vib (V=0)       0.135817D+03          2.132953          4.911305
 Vib (V=0)    1  0.652567D+01          0.814625          1.875743
 Vib (V=0)    2  0.291260D+01          0.464281          1.069047
 Vib (V=0)    3  0.185310D+01          0.267900          0.616862
 Vib (V=0)    4  0.156700D+01          0.195069          0.449162
 Vib (V=0)    5  0.136352D+01          0.134662          0.310070
 Vib (V=0)    6  0.121817D+01          0.085708          0.197350
 Vib (V=0)    7  0.111684D+01          0.047992          0.110505
 Electronic      0.100000D+01          0.000000          0.000000
 Translational   0.460009D+08          7.662766         17.644171
 Rotational      0.308895D+06          5.489811         12.640756
 
                                                          IMIDEtOH-isolated
                                                             IR Spectrum
 
     3                    33  3332                                              111111  111111 1111                                  
     8                    11  0009                                              544444  332211 1100999  8 877 66    4   3  2 2 1     
     3                    97  6308                                              066442  418497 3162954  6 044 65    8   6  8 1 6  93 
     3                    63  7678                                              870725  357677 7043515  3 861 37    4   9  3 8 6  06 
 
     X                    XX  XXXX                                              XXXXXX  XXXXXX XXXXXXX  X XXX XX    X   X  X X X  XX 
     X                    XX  XXXX                                                X XX  X XXXX X XX  X  X   X       X   X    X X     
     X                    XX  XXXX                                                  XX  X XXX  X XX     X   X       X        X X     
     X                    X   XXXX                                                  X     XX   X XX     X   X       X        X X     
     X                    X   XXXX                                                  X      X   X X      X   X       X        X X     
     X                    X   XXXX                                                  X      X     X          X       X        X X     
     X                    X   X XX                                                  X      X     X          X                X X     
     X                    X   X XX                                                  X            X          X                X X     
                          X   X XX                                                  X            X          X                X X     
                          X     X                                                   X            X          X                X X     
                                X                                                                X          X                X X     
                                X                                                                X          X                X X     
                                X                                                                X          X                X X     
                                X                                                                X          X                X       
                                X                                                                X          X                X       
                                X                                                                           X                        
                                X                                                                                                    
                                X                                                                                                    
                                X                                                                                                    
                                X                                                                                                    
 
 
                                                          IMIDEtOH-isolated
                                                            Raman Spectrum
 
     3                    33  3332                                              111111  111111 1111                                  
     8                    11  0009                                              544444  332211 1100999  8 877 66    4   3  2 2 1     
     3                    97  6308                                              066442  418497 3162954  6 044 65    8   6  8 1 6  93 
     3                    63  7678                                              870725  357677 7043515  3 861 37    4   9  3 8 6  06 
 
     X                    XX  XXXX                                              XXXXXX  XXXXXX XXXXXXX  X XXX XX    X   X  X X X  XX 
     X                    XX  XXXX                                                XX X   X                                           
     X                    XX  XXXX                                                XX                                                 
     X                    XX   XXX                                                X                                                  
     X                    XX   XXX                                                                                                   
                          XX   XX                                                                                                    
                          X    XX                                                                                                    
                          X     X                                                                                                    
                                X                                                                                                    
                                X                                                                                                    
                                X                                                                                                    
                                X                                                                                                    
                                X                                                                                                    
                                X                                                                                                    
                                X                                                                                                    
                                X                                                                                                    
                                X                                                                                                    
                                X                                                                                                    
                                X                                                                                                    
[...]
   yxy        0.128467D+03      0.110985D+01      0.411911D+00
   yyy        0.329344D+02      0.284528D+00      0.105600D+00
   xxz        0.776932D+02      0.671209D+00      0.249113D+00
   yxz       -0.662543D+02     -0.572385D+00     -0.212435D+00
   yyz       -0.308023D+03     -0.266108D+01     -0.987633D+00
   zxz        0.210843D+02      0.182152D+00      0.676040D-01
   zyz        0.113104D+03      0.977126D+00      0.362651D+00
   zzz        0.343742D+03      0.296966D+01      0.110216D+01

 ----------------------------------------------------------------------
 Unable to Open any file for archive entry.
 1\1\GINC-NODE1279\Freq\RB3LYP\6-311+G(d,p)\C5H7N2O1(1-)\SVICCHI\11-Jan
 -2024\0\\#p freq=raman scale=0.967 guess=read geom=allcheck b3lyp/6-31
 1+G(d,p) int=grid=ultrafine EmpiricalDispersion=GD3BJ SCRF=(Solvent=et
 hanol) scf=(xqc,intrep,maxconventionalcycle=350) nosymm\\IMIDEtOH-isol
 ated\\-1,1\C,-2.405186052,3.3501331928,0.4889980438\N,-1.88705977,3.16
 69274997,-0.7453090912\C,-2.2116944579,1.8640864561,-1.0472986636\C,-2
 .9077921332,1.3164320838,0.0194482295\H,-1.9292372859,1.4082723255,-1.
 9881128676\N,-3.0319297271,2.2703014344,1.004876863\H,-3.3153975836,0.
 3199696555,0.1338329714\C,-2.2906836286,4.6545401419,1.2265560214\H,-2
 .7102726992,4.5353853962,2.2295507952\H,-1.2351322127,4.9276698058,1.3
 51518804\C,-2.9742385328,5.8306180257,0.5398618675\H,-2.7280902168,6.7
 623651329,1.0648942874\H,-2.6190008588,5.9103750558,-0.4930914616\O,-4
 .3972219322,5.6252435806,0.5578616891\H,-4.8084629094,6.3243202131,0.0
 394725117\\Version=ES64L-G16RevC.02\HF=-379.7224832\RMSD=6.781e-10\RMS
 F=4.507e-06\ZeroPoint=0.1144744\Thermal=0.1222105\ETot=-379.6002726\HT
 ot=-379.5993285\GTot=-379.6412405\Dipole=-0.178066,2.4420377,-0.062675
 4\DipoleDeriv=0.1252722,0.1886205,-0.2669825,0.1353893,0.3667384,-0.02
 53635,-0.3087457,-0.0146566,0.4000054,-0.5916741,-0.1660537,0.2461385,
 -0.2312412,-0.7629677,0.2464614,0.1762592,0.0408081,-0.722172,-0.17559
 24,0.2003029,-0.1800825,0.2827732,0.2212727,-0.1405126,-0.1296447,-0.0
 008229,-0.0577969,-0.2098256,0.0800978,-0.2053397,0.0126065,-0.1019202
 ,0.2041126,-0.2516798,0.0156117,0.2474398,0.1780944,-0.0000671,0.12889
 13,-0.0154357,0.0216395,-0.1265008,0.1149508,-0.1641946,-0.1233555,-0.
 557147,-0.099441,0.2177516,-0.0054906,-0.5253875,-0.0296048,0.2924915,
 0.1442817,-0.914255,0.1643848,-0.1592831,0.0579224,-0.1372441,-0.17789
 15,-0.0200265,0.0737121,0.0114369,0.1038285,0.2169536,0.0131332,-0.017
 0182,0.0912013,0.1140352,0.022673,-0.0356988,0.1179636,0.2105146,0.049
 382,0.0128795,0.1203961,0.0077247,0.0170241,0.0367793,0.0634566,-0.014
 9253,-0.1641721,-0.1903124,-0.13649,-0.0895617,-0.0624282,-0.0907631,-
 0.0740408,-0.0151412,-0.0572367,0.0594916,1.0981415,-0.0000658,0.01195
 96,-0.0223163,0.415239,0.0561164,0.0530595,0.0166932,0.3893075,-0.0710
 54,-0.0136356,-0.028589,-0.0890542,-0.2786889,-0.1372491,-0.0568975,-0
 .1537919,-0.0076678,-0.0745338,-0.0059777,0.046998,-0.0219668,0.066915
 9,0.0211403,0.0919008,0.0676962,-0.1820221,-1.2592621,0.10541,-0.04161
 28,0.041891,-0.5475007,-0.1472551,-0.0545916,-0.1173001,-0.5833669,0.2
 97173,-0.0194299,-0.0008711,0.013591,0.2622549,0.1132702,-0.0134315,0.
 1084366,0.3442209\Polar=98.4151458,8.2449906,128.2237632,-10.8343688,6
 .0363091,115.3820286\PolarDeriv=1.731722,2.2721466,-6.1467697,1.752984
 7,4.8953933,7.4985979,5.0969162,0.548269,23.2596416,-4.5727824,8.54262
 41,14.5200474,3.9500061,9.1635888,18.6266602,1.1606229,0.3322718,2.385
 7781,5.6965541,2.0346897,3.0435196,-2.9534555,1.3715888,-0.1194182,1.5
 935073,-2.2197598,-10.1132751,-2.9333998,-4.8643752,7.1306376,0.231210
 2,-3.6466197,-16.7238769,-1.7419911,-1.1430792,-0.7343521,10.2983294,-
 3.3609302,13.2903968,-2.9387,2.97302,-5.7062141,-0.9533704,2.9523226,1
 5.7918397,7.5758362,5.7827637,-0.856722,-8.6735643,-1.784534,-10.91031
 5,-5.6863327,0.6270664,-9.2006492,-12.5275139,-4.657164,-1.7236431,-1.
 5311429,-7.7805444,-4.8397521,-5.7850605,2.6017631,-3.2483142,0.402648
 8,6.5001684,-6.4110702,2.7230245,-7.0284939,15.7585868,4.0210187,9.205
 9023,9.5551953,-0.5757396,0.9595201,-0.3879037,-0.0212212,0.9057957,5.
 31413,0.1558149,0.551289,-2.8735097,0.131908,-4.1581814,-5.3066161,-1.
 3219712,2.0610293,-3.4983946,4.41856,-5.6307851,-10.6119706,-4.8769339
 ,-0.1140051,-3.8641299,3.3404163,-4.240579,-1.8164516,2.6073212,2.6306
 754,-9.9327185,-0.6051157,-11.2550353,-8.6877356,2.0951926,1.2474557,1
 .0462637,-1.3127996,-5.2043546,5.5720979,0.6559077,-0.5985585,-6.64843
 94,0.8184476,2.0431949,-0.4799877,-2.3422226,-5.8825175,-13.9787255,0.
 3971373,0.1516779,-0.2746496,1.1211814,1.8563843,-0.3066945,-0.9196887
 ,-1.1408648,0.507545,-10.3883122,-7.1769198,-0.1181334,-4.7442273,-3.9
 196067,2.299067,-3.444814,-0.5059201,-14.5284245,-2.0667269,-2.6807834
 ,0.6264002,-1.6022215,-2.3806069,0.1674068,2.2158637,-0.8966961,-10.86
 04378,-0.7542225,0.5986004,-1.8614771,2.5059536,-0.0450716,-4.0780072,
 -0.1309367,-1.0118674,-1.8286004,0.1542471,1.1810291,-0.9141827,1.7399
 478,-0.3479755,1.4433101,-2.0033373,0.1769602,12.2380991,12.5211002,5.
 153719,8.1138233,3.9076896,3.8006507,2.740096,2.1111334,3.4164999,6.21
 71292,1.5792502,2.4279697,0.5262755,0.73647,0.9255302,-0.6303915,2.167
 3279,1.311637,2.189126,4.0058516,-1.2059127,-8.8781079,1.8174174,-0.34
 96708,-5.4805283,2.1428949,-4.8426453,-3.2674203,-0.7010653,-5.4944503
 ,-1.9732912,-0.4590742,-0.6620476,-11.5785995,-4.574808,-4.7971072,6.8
 146481,2.0141414,3.1978289,3.4359088,1.5609049,0.8651173,1.1641079,1.2
 152768,2.475009,14.7337139,0.9787408,5.0702191,1.9132136,1.9704082,0.8
 731975,7.261554,1.8546327,4.3390918,2.8218601,2.4953474,0.4031539,1.97
 62453,-3.0409381,-0.6501158,2.7980411,-0.4516856,1.8568603,0.8458228,-
 0.0945633,-1.4192503,0.571836,-2.6048607,-0.320497,-1.5221158,2.863363
 5,2.4053423,-10.0813517,-5.8311496,-0.1408221,1.6316597,1.219651,-1.34
 31754,1.914587,-5.5013983,0.8211346,-5.7129594,-1.7429554,2.6010304,-2
 .915542,3.1004295,-1.8817423,3.9933859,-0.1921346,-1.5426748,1.4717437
 ,-4.4650821,2.6346538,-1.8629494,-1.6937803,1.4740029,-1.2082678,3.686
 6233,-3.3911131,4.6358003,1.4968404,-2.3854066,2.051399,-3.0061785,1.9
 253311,-3.1267797,-2.2702974,1.9572901,-2.0673319\HyperPolar=56.426437
 5,-214.0359974,157.1437136,224.089723,-131.4738633,14.2899383,260.9529
 262,-49.3356803,8.4009819,-152.312545\Quadrupole=-14.2775433,3.1844947
 ,11.0930487,21.9184181,7.8857428,-2.012822\PG=C01 [X(C5H7N2O1)]\NImag=
 0\\0.28770885,0.11595966,0.68325610,-0.13135544,0.11976562,0.55895075,
 -0.11680925,0.00168054,0.07157731,0.20322717,0.00762710,-0.09888163,-0
 .02643670,0.10183567,0.43825661,0.07693014,-0.01694195,-0.25732828,-0.
 14055469,0.03925303,0.42784912,0.01184919,-0.00132142,0.00195887,-0.08
 567452,-0.05482827,-0.00259884,0.25674981,0.01890074,-0.04311505,-0.08
 417049,-0.04601658,-0.25086488,-0.04188101,0.07969746,0.51990801,0.017
 48001,-0.03915182,-0.05465734,0.00448088,-0.02333271,-0.09230495,-0.23
 093266,0.13440020,0.71018759,0.00453715,-0.01897699,0.00355559,-0.0017
 2302,-0.05088794,0.00575766,-0.13364296,-0.05284657,0.10916595,0.27708
 696,-0.03934705,-0.09747699,-0.00039072,-0.02453913,-0.06359770,-0.011
 77653,-0.05995405,-0.12294897,0.08249116,0.22187210,0.72828434,-0.0121
 6847,-0.04292353,0.00550811,0.02577821,0.04519203,-0.00216032,0.104083
 93,0.06737224,-0.23306068,-0.17236381,-0.01103183,0.47730009,0.0030814
 8,-0.00365469,0.00162607,-0.00148223,-0.00097978,-0.01133317,-0.052803
 13,0.02148116,0.07986216,-0.00123166,0.01019158,0.00580467,0.04886377,
 -0.00343383,-0.00609828,-0.00123384,0.01106941,-0.00993817,-0.02591361
 ,0.02014683,-0.09625681,-0.09802120,-0.00042252,0.01015269,0.01011515,
 -0.02508875,0.10191268,0.00185018,-0.00072813,0.00066329,-0.00223464,-
 0.00055617,-0.00224529,0.07865461,-0.10090306,-0.26507274,-0.00199408,
 -0.01240257,-0.00711842,-0.08070299,0.11499730,0.27692245,-0.12716010,
 -0.07496041,0.04673443,-0.00294908,-0.01393123,0.06180650,0.00442546,-
 0.00970289,0.02194210,-0.07583850,0.00346559,0.02018260,0.00401135,-0.
 00350232,0.00434772,0.20444609,-0.08050436,-0.22155536,0.06731784,-0.0
 4271677,-0.01045304,0.06090169,0.01627132,-0.00376107,-0.05230562,0.01
 164414,-0.16587363,-0.09733521,-0.00190124,0.00068053,-0.00083316,0.10
 443759,0.44401188,0.04074424,0.05470602,-0.12576645,0.03976578,-0.0026
 5975,-0.05491366,0.04230791,0.00447734,-0.06823795,0.02635102,-0.07881
 215,-0.18477745,0.00559041,0.00248947,-0.00262322,-0.13956420,0.031766
 68,0.42270546,0.00308030,-0.00061471,0.00278013,0.00368604,-0.00404955
 ,0.00391246,-0.00279120,-0.00896983,-0.00560395,-0.07278671,-0.1083802
 3,0.02642150,-0.00147185,0.00071828,-0.00032056,-0.00220042,0.00685327
 ,-0.00406598,0.07112365,-0.00067978,-0.00198681,-0.00351091,-0.0025172
 1,-0.00026347,-0.00020555,0.00160431,-0.00255514,-0.00360768,-0.106905
 87,-0.28475415,0.02874742,0.00009912,-0.00048640,0.00082668,-0.0054097
 7,-0.01626646,0.00400661,0.11466893,0.30705710,0.00266999,-0.00415293,
 -0.00415626,0.00518663,0.00320920,-0.00150476,0.00238158,0.01884902,0.
 00694590,0.02750414,0.03180810,-0.05656348,-0.00078163,-0.00048318,-0.
 00056764,-0.01317930,-0.02155376,0.00516609,-0.02362031,-0.02642632,0.
 04963685,-0.07035669,-0.01664225,0.00086987,-0.00023531,0.01454074,0.0
 0560414,0.00149532,-0.00100161,0.00414647,0.00362635,-0.00398138,0.002
 77670,0.00112658,0.00051561,0.00053754,-0.00327803,-0.01186140,-0.0096
 5563,0.00143619,-0.00087353,0.00000071,0.54318891,-0.01686931,-0.17447
 550,-0.05487149,0.00299057,-0.00479722,-0.00684716,-0.00040199,0.00385
 057,0.00039711,-0.00407379,-0.00073746,0.00312048,-0.00014293,0.000545
 69,-0.00004383,-0.00331260,-0.02757379,-0.01340945,-0.00007354,-0.0002
 2586,-0.00079940,0.03901459,0.47589415,0.00232088,-0.05955189,-0.11581
 262,-0.00413197,-0.03117381,-0.01802973,0.00456175,0.00300384,-0.00457
 358,0.00264753,0.00370243,0.00297764,0.00008275,-0.00153045,0.00011611
 ,-0.00274449,0.00890370,0.00699273,0.00064176,0.00045896,0.00123424,-0
 .04009611,0.00105245,0.54984028,-0.00007784,-0.00018832,-0.00346145,0.
 00075406,0.00002219,0.00036470,0.00033946,-0.00029141,-0.00003566,0.00
 001986,0.00037049,-0.00008772,-0.00000304,-0.00001362,-0.00005121,0.00
 010439,0.00006975,-0.00026226,-0.00003698,0.00006346,-0.00000986,-0.08
 574412,-0.01101390,0.09352226,0.08916827,0.01257955,0.00478386,-0.0260
 7651,-0.00143505,-0.00540991,-0.00267095,0.00058938,0.00003705,-0.0012
 8676,-0.00008868,-0.00008044,0.00000992,-0.00004526,-0.00057983,-0.000
 12931,0.00068365,0.00165385,0.00104640,-0.00003499,0.00001933,0.000093
 63,-0.01149470,-0.05067989,0.02560446,0.01087161,0.05735372,0.00776925
 ,0.00403479,-0.01651387,-0.00074776,-0.00366315,-0.00074459,0.00041086
 ,0.00009188,-0.00041971,-0.00015888,-0.00078277,-0.00025942,-0.0001282
 9,-0.00036345,0.00001135,0.00014959,0.00259669,0.00189880,-0.00006946,
 -0.00001004,0.00003733,0.09022790,0.02186325,-0.26108907,-0.10110729,-
 0.02794136,0.28577949,0.00059750,-0.00289808,0.00060822,0.00070349,0.0
 0128503,0.00071093,-0.00014184,-0.00169973,-0.00017329,0.00066893,-0.0
 0017423,-0.00082485,-0.00010005,0.00000226,-0.00011051,-0.00041198,0.0
 0027871,-0.00094341,-0.00002863,-0.00005553,-0.00009185,-0.27600930,-0
 .05440374,-0.02470958,-0.01111201,-0.00218780,-0.00086059,0.30325241,-
 0.02733477,-0.01117573,-0.00343647,0.00033881,0.00292966,0.00256898,-0
 .00055157,-0.00245088,0.00034904,0.00146619,-0.00203067,-0.00128513,0.
 00007653,-0.00001152,-0.00008012,-0.00120908,-0.00027481,-0.00252821,0
 .00035856,-0.00040714,-0.00007447,-0.05927012,-0.05771571,-0.00517247,
 -0.00341500,-0.00170191,-0.00058122,0.06144203,0.06956743,-0.01475642,
 -0.00587376,-0.00206005,0.00053483,0.00098654,0.00136554,-0.00065162,-
 0.00087020,0.00033380,-0.00002004,-0.00108576,-0.00102870,0.00019586,-
 0.00006159,0.00007960,-0.00010495,0.00093308,-0.00032723,0.00029239,-0
 .00020081,0.00002856,-0.02437567,-0.00508914,-0.05000488,0.02798779,0.
 00635061,0.00467436,0.02863782,0.00683444,0.04909566,0.00231849,0.0046
 3381,0.00832608,0.00072574,-0.00158734,-0.00093969,0.00009184,-0.00033
 571,-0.00036670,-0.00095049,-0.00085478,-0.00027319,0.00006760,-0.0001
 9603,-0.00012650,-0.00127774,-0.00401572,-0.00151103,-0.00010541,-0.00
 027035,-0.00019688,-0.08452253,0.03663061,-0.02313314,0.00434890,-0.01
 078791,0.00584348,-0.01606175,0.02311992,-0.01593581,0.42480907,0.0103
 0236,-0.03499590,0.00824119,-0.00029635,0.00154563,0.00232588,-0.00056
 824,-0.00035524,0.00088021,-0.00088105,-0.00037108,-0.00099790,-0.0000
 1605,0.00018654,0.00000073,0.00239460,-0.00060367,-0.00050463,-0.00041
 530,0.00005272,-0.00030858,0.02956817,-0.14686860,0.04270954,0.0030203
 4,-0.00492456,0.00352898,-0.00571069,0.00636199,-0.00413423,0.01333502
 ,0.54017979,0.00796468,-0.00691159,0.01385330,0.00032948,0.00005472,-0
 .00169999,-0.00046485,-0.00128520,-0.00018134,-0.00011166,-0.00156780,
 -0.00106484,-0.00028684,-0.00003910,-0.00018859,-0.00015260,-0.0013323
 0,-0.00071927,-0.00021233,-0.00016248,-0.00033295,-0.01388111,0.039662
 27,-0.10617894,-0.01580820,0.02605395,-0.01642002,0.00041305,0.0001844
 8,-0.00208861,-0.01790712,0.02406606,0.58074624,-0.00036279,0.00128354
 ,-0.00278468,-0.00000245,0.00010849,-0.00007619,0.00001697,0.00015475,
 0.00000402,0.00026899,0.00043306,0.00015136,0.00000005,0.00004302,0.00
 004261,-0.00021571,0.00073837,0.00033433,0.00007521,0.00008038,0.00009
 716,0.00285591,0.01290150,0.00807956,0.00022942,-0.00059331,-0.0003007
 2,0.00058405,-0.00013299,0.00042912,-0.05310042,-0.03427081,-0.0195503
 2,0.07366731,0.00233964,-0.00120846,0.00410749,-0.00010012,0.00026830,
 0.00033191,-0.00028329,-0.00089689,-0.00000554,-0.00019744,-0.00083831
 ,-0.00082762,-0.00003631,-0.00007412,-0.00009870,0.00065392,-0.0004996
 6,-0.00018853,-0.00015676,-0.00009481,-0.00016027,-0.00325204,-0.02152
 810,-0.01372943,-0.00084256,0.00092960,0.00019316,0.00034096,0.0007416
 6,-0.00023355,-0.03617948,-0.22483625,-0.10017184,0.04571309,0.2440008
 1,-0.00115162,0.00125791,-0.00206165,-0.00009548,-0.00049269,0.0003897
 1,0.00019053,0.00027700,0.00032448,0.00001508,-0.00003133,0.00016451,0
 .00003617,-0.00000179,0.00000614,0.00017160,0.00038830,0.00027824,-0.0
 0004029,0.00002535,0.00004573,0.00177907,0.01557490,0.00765426,0.00049
 656,-0.00060372,0.00088870,0.00050836,-0.00085980,0.00065241,-0.019600
 40,-0.10270637,-0.11460522,0.02663963,0.11061221,0.11480813,0.00009954
 ,-0.00070256,0.00065229,-0.00035326,-0.00009535,-0.00015693,-0.0000750
 2,-0.00001574,0.00006231,0.00001717,-0.00006965,-0.00001661,-0.0000333
 6,0.00001808,0.00000106,0.00016981,0.00015305,0.00008203,-0.00000162,0
 .00001100,-0.00000850,0.00615141,0.00130437,-0.01492900,-0.00092703,0.
 00319216,-0.00132834,0.00044483,-0.00080295,0.00056004,-0.06676925,-0.
 00450190,0.06405416,0.00453835,0.00112920,-0.00477802,0.08787408,-0.00
 107761,0.00129969,0.00106119,-0.00039922,0.00101808,0.00039510,-0.0001
 4622,-0.00025509,-0.00041576,0.00013747,0.00033746,-0.00003069,0.00003
 370,0.00002325,0.00002945,-0.00004348,-0.00021434,-0.00025029,0.000060
 05,0.00000740,-0.00001154,-0.00647914,-0.00320047,0.02560157,0.0024013
 9,-0.00340838,0.00275565,-0.00001698,0.00070739,-0.00061277,-0.0043406
 3,-0.05239685,0.00949119,0.00710426,0.00245365,-0.02625119,0.00670387,
 0.05140233,0.00041118,-0.00168981,-0.00070150,-0.00008263,-0.00033401,
 0.00079634,0.00011429,0.00040357,0.00052813,-0.00013617,-0.00022743,0.
 00010973,0.00001207,0.00003401,-0.00000117,0.00010306,0.00023615,0.000
 25911,-0.00009842,0.00002816,0.00001547,0.00367414,0.00229945,-0.01514
 999,-0.00198045,0.00208387,-0.00016825,-0.00049451,0.00012128,0.000143
 00,0.06879909,0.01427524,-0.27909758,0.00335851,0.00046702,-0.01406062
 ,-0.07776083,-0.01774670,0.29858725,0.00118036,-0.00284911,-0.00114749
 ,0.00000720,0.00098256,0.00041206,0.00020985,0.00063140,-0.00000627,-0
 .00002841,0.00091899,0.00052385,-0.00002821,0.00014001,0.00011543,-0.0
 0002531,0.00061514,0.00084799,0.00002855,0.00019284,0.00004939,-0.0319
 5673,0.00032321,-0.00281694,0.00254409,-0.00081222,0.00015906,-0.00150
 524,0.00415863,-0.00183851,-0.18940226,-0.04350767,0.01864454,-0.02965
 152,-0.00896297,-0.00356723,-0.03282752,-0.00466035,0.00335696,0.39991
 528,0.00166443,0.00139542,-0.00056583,0.00016291,0.00008325,0.00047725
 ,-0.00027839,-0.00032903,-0.00031676,0.00011751,-0.00012752,-0.0002024
 9,-0.00001278,-0.00006253,-0.00007521,0.00034086,0.00069572,-0.0000731
 7,0.00002369,-0.00009256,0.00000869,0.03098124,0.00724956,0.00023661,-
 0.00095129,0.00189813,-0.00144991,0.00401590,-0.00464316,0.00305221,-0
 .00995000,-0.08689319,0.01640113,-0.03257364,0.00115532,0.00306814,-0.
 00508239,0.00212586,-0.00006853,-0.10797771,0.36470799,0.00123038,-0.0
 0183873,-0.00006119,0.00023766,-0.00015132,0.00045894,-0.00001982,0.00
 033115,0.00020448,-0.00019861,0.00014963,0.00002267,0.00001639,0.00002
 256,0.00002417,0.00023638,0.00030551,0.00009930,-0.00001442,0.00004192
 ,0.00002435,-0.02146446,-0.00229634,0.00205219,0.00040218,-0.00227762,
 0.00185792,-0.00276686,0.00370729,-0.00140062,-0.00785258,0.01418211,-
 0.07145399,-0.01705431,-0.00096335,0.00558165,0.03281103,0.00651922,0.
 00755939,0.10677520,-0.22984475,0.21186646,0.00031381,-0.00074901,0.00
 006019,0.00012540,-0.00004230,0.00016091,-0.00004924,0.00001456,-0.000
 02537,-0.00002366,0.00004871,0.00001182,0.00000272,0.00000356,-0.00000
 866,0.00019977,-0.00006186,-0.00002119,-0.00000712,-0.00000800,-0.0000
 0127,-0.00777797,-0.00287304,0.00070472,0.00039256,-0.00043644,0.00014
 119,-0.00088041,0.00175579,-0.00095483,-0.02017178,0.03154756,-0.02303
 088,0.00109663,-0.00016585,-0.00060396,0.00169188,0.00072287,0.0007236
 8,-0.11846012,0.11951965,-0.09233818,0.14354753,-0.00012677,0.00023466
 ,0.00019962,-0.00005748,0.00010449,-0.00001709,0.00002415,-0.00000656,
 -0.00007388,0.00004344,0.00006242,0.00007717,-0.00000428,0.00000628,-0
 .00000391,0.00009558,0.00003382,-0.00006636,0.00001212,-0.00000374,0.0
 0000180,0.00023581,0.00026263,-0.00011549,-0.00010313,0.00010939,-0.00
 027250,-0.00021812,0.00010340,0.00000492,-0.00920140,0.00391866,-0.004
 44349,-0.00098972,0.00042726,-0.00025693,-0.00124120,0.00010002,0.0001
 1774,0.16080725,-0.28716324,0.21211273,-0.14927622,0.28181054,0.000061
 02,-0.00000020,0.00014377,-0.00004362,0.00010480,0.00007191,0.00000347
 ,-0.00009629,-0.00001608,-0.00001373,-0.00004243,-0.00004942,0.0000063
 7,-0.00001030,-0.00000603,0.00007156,0.00001040,-0.00003450,-0.0000025
 3,-0.00001129,-0.00000943,-0.00014358,-0.00061309,-0.00002862,0.000030
 61,-0.00025663,0.00046700,0.00009707,0.00025237,0.00053718,0.00487438,
 -0.00155824,-0.00056819,0.00062991,0.00066704,-0.00006649,0.00075529,-
 0.00053442,0.00118069,-0.12150804,0.20935261,-0.15683572,0.11518184,-0
 .20726433,0.15521393\\0.00000308,0.00000178,-0.00000259,-0.00000694,0.
 00000147,-0.00000692,-0.00000533,-0.00000069,-0.00000166,0.00000485,-0
 .00000089,0.00000453,-0.00000511,-0.00000033,-0.00000137,0.00001103,0.
 00000028,0.00000460,0.00000338,-0.00000082,0.00000389,0.00000538,0.000
 00282,-0.00000542,0.00000594,0.00000133,-0.00000095,0.00000221,0.00000
 268,-0.00000612,-0.00000333,-0.00000101,-0.00000114,-0.00000107,0.0000
 0134,-0.00000140,-0.00000454,-0.00000008,-0.00000260,-0.00000877,0.000
 00178,0.00000903,-0.00000079,-0.00000968,0.00000814\\\@
 The archive entry for this job was punched.


 WE MIGHT AS WELL ATTEMPT TO INTRODUCE A NEW PLANET 
 INTO THE SOLAR SYSTEM, OR TO ANNIHILATE ONE ALREADYIN EXISTENCE, 
 AS TO CREATE OR DESTROY A PARTICLE OF HYDROGEN.
 ALL THE CHANGES WE CAN PRODUCE CONSIST IN SEPARATING PARTICLES
 THAT ARE IN A STATE OF ... COMBINATION, AND JOINING 
 THOSE THAT WERE PREVIOUSLY AT A DISTANCE.

                                    -- JOHN DALTON, 1810
 Job cpu time:       0 days  0 hours 20 minutes 39.5 seconds.
 Elapsed time:       0 days  0 hours  1 minutes 48.8 seconds.
 File lengths (MBytes):  RWF=    141 Int=      0 D2E=      0 Chk=     17 Scr=      1
 Normal termination of Gaussian 16 at Thu Jan 11 15:14:34 2024.
