 Entering Gaussian System, Link 0=g16
 Input=EG-CO2_binding_direct-site_index-0-freq.gjf
 Output=EG-CO2_binding_direct-site_index-0-freq.log
 Initial command:
 /software/commercial/gaussian/g16/AVX/g16/l1.exe "/scratch1/svicchi/G09-709953.pbs02/Gau-2724309.inp" -scrdir="/scratch1/svicchi/G09-709953.pbs02/"
 Entering Link 1 = /software/commercial/gaussian/g16/AVX/g16/l1.exe PID=   2724310.
  
 Copyright (c) 1988-2019, Gaussian, Inc.  All Rights Reserved.
  
 This is part of the Gaussian(R) 16 program.  It is based on
 the Gaussian(R) 09 system (copyright 2009, Gaussian, Inc.),
 the Gaussian(R) 03 system (copyright 2003, Gaussian, Inc.),
 the Gaussian(R) 98 system (copyright 1998, Gaussian, Inc.),
 the Gaussian(R) 94 system (copyright 1995, Gaussian, Inc.),
 the Gaussian 92(TM) system (copyright 1992, Gaussian, Inc.),
 the Gaussian 90(TM) system (copyright 1990, Gaussian, Inc.),
 the Gaussian 88(TM) system (copyright 1988, Gaussian, Inc.),
 the Gaussian 86(TM) system (copyright 1986, Carnegie Mellon
 University), and the Gaussian 82(TM) system (copyright 1983,
 Carnegie Mellon University). Gaussian is a federally registered
 trademark of Gaussian, Inc.
  
 This software contains proprietary and confidential information,
 including trade secrets, belonging to Gaussian, Inc.
  
 This software is provided under written license and may be
 used, copied, transmitted, or stored only in accord with that
 written license.
  
 The following legend is applicable only to US Government
 contracts under FAR:
  
                    RESTRICTED RIGHTS LEGEND
  
 Use, reproduction and disclosure by the US Government is
 subject to restrictions as set forth in subparagraphs (a)
 and (c) of the Commercial Computer Software - Restricted
 Rights clause in FAR 52.227-19.
  
 Gaussian, Inc.
 340 Quinnipiac St., Bldg. 40, Wallingford CT 06492
  
  
 ---------------------------------------------------------------
 Warning -- This program may not be used in any manner that
 competes with the business of Gaussian, Inc. or will provide
 assistance to any competitor of Gaussian, Inc.  The licensee
 of this program is prohibited from giving any competitor of
 Gaussian, Inc. access to this program.  By using this program,
 the user acknowledges that Gaussian, Inc. is engaged in the
 business of creating and licensing software in the field of
 computational chemistry and represents and warrants to the
 licensee that it is not a competitor of Gaussian, Inc. and that
 it will not use this program in any manner prohibited above.
 ---------------------------------------------------------------
  

 Cite this work as:
 Gaussian 16, Revision C.01,
 M. J. Frisch, G. W. Trucks, H. B. Schlegel, G. E. Scuseria, 
 M. A. Robb, J. R. Cheeseman, G. Scalmani, V. Barone, 
 G. A. Petersson, H. Nakatsuji, X. Li, M. Caricato, A. V. Marenich, 
 J. Bloino, B. G. Janesko, R. Gomperts, B. Mennucci, H. P. Hratchian, 
 J. V. Ortiz, A. F. Izmaylov, J. L. Sonnenberg, D. Williams-Young, 
 F. Ding, F. Lipparini, F. Egidi, J. Goings, B. Peng, A. Petrone, 
 T. Henderson, D. Ranasinghe, V. G. Zakrzewski, J. Gao, N. Rega, 
 G. Zheng, W. Liang, M. Hada, M. Ehara, K. Toyota, R. Fukuda, 
 J. Hasegawa, M. Ishida, T. Nakajima, Y. Honda, O. Kitao, H. Nakai, 
 T. Vreven, K. Throssell, J. A. Montgomery, Jr., J. E. Peralta, 
 F. Ogliaro, M. J. Bearpark, J. J. Heyd, E. N. Brothers, K. N. Kudin, 
 V. N. Staroverov, T. A. Keith, R. Kobayashi, J. Normand, 
 K. Raghavachari, A. P. Rendell, J. C. Burant, S. S. Iyengar, 
 J. Tomasi, M. Cossi, J. M. Millam, M. Klene, C. Adamo, R. Cammi, 
 J. W. Ochterski, R. L. Martin, K. Morokuma, O. Farkas, 
 J. B. Foresman, and D. J. Fox, Gaussian, Inc., Wallingford CT, 2019.
 
 ******************************************
 Gaussian 16:  ES64L-G16RevC.01  3-Jul-2019
                12-Jun-2023 
 ******************************************
 %NProcShared=2
 Will use up to    2 processors via shared memory.
 %mem=55gb
 %chk=/scratch1/svicchi/G09-709953.pbs02/02-freq/EG-CO2_binding_direct-site_index
 -0-freq.chk
 ----------------------------------------------------------------------
 #p freq=raman scale=0.967 pop=(nbo,full,hirshfeld) guess=read geom=all
 check b3lyp/6-311+G(d,p) int=grid=ultrafine EmpiricalDispersion=GD3BJ 
 SCRF=(Solvent=ethanol) scf=(xqc,intrep,maxconventionalcycle=350) nosym
 m
 ----------------------------------------------------------------------
 1/10=4,29=7,30=1,38=1,114=967000/1,3;
 2/12=2,15=1,40=1/2;
 3/5=4,6=6,7=111,11=2,14=-4,25=1,30=1,70=2201,71=2,72=4,74=-5,75=-5,116=-2,124=41,140=1/1,2,3;
 4/5=1/1;
 5/5=2,8=3,13=1,17=20,38=6,53=4,85=350,98=1/2,8;
 8/6=4,10=90,11=11/1;
 10/13=10,15=4,31=1/2;
 11/6=3,8=1,9=11,15=111,16=1,31=1/1,2,10;
 10/6=1,31=1/2;
 6/7=3,28=1,40=1,79=1/1,7;
 7/8=1,10=1,25=1,30=1/1,2,3,16;
 1/10=4,30=1/3;
 99//99;
 Leave Link    1 at Mon Jun 12 10:54:56 2023, MaxMem=  7381975040 cpu:               0.2 elap:               0.1
 (Enter /software/commercial/gaussian/g16/AVX/g16/l101.exe)
 Structure from the checkpoint file:  "/scratch1/svicchi/G09-709953.pbs02/02-freq/EG-CO2_binding_direct-site_index-0-freq.chk"
 --------------------------------------
 EG-CO2_binding_direct-site_index-0.gjf
 --------------------------------------
 Charge =  0 Multiplicity = 1
 No Z-Matrix found in chk file; cartesian coordinates used.
  O                                                 2.245278576256     -0.587899200890      0.735880540025
  C                                                 3.151721638327      0.243293690524      0.002856872290
  C                                                 4.557865465081     -0.216031462611      0.340779947362
  H                                                 3.028305528659      1.294879939421      0.281316397581
  H                                                 2.981495574726      0.144531525551     -1.075089201758
  O                                                 5.459647242435      0.577919525634     -0.436018034261
  H                                                 4.662820857394     -1.278597290066      0.097774470111
  H                                                 4.741892921111     -0.082535086401      1.412800037772
  H                                                 6.358307897844      0.285617437606     -0.253389534096
  H                                                 1.369918026254     -0.188709784265      0.708087793815
  C                                                 1.930788976547     -3.093229769621     -0.480303199223
  O                                                 1.054526478259     -3.361426989701      0.232132002971
  O                                                 2.801427817108     -2.867059535182     -1.214241092589
 Recover connectivity data from disk.
 ITRead=  0  0  0  0  0  0  0  0  0  0  0  0  0
 MicOpt= -1 -1 -1 -1 -1 -1 -1 -1 -1 -1 -1 -1 -1
 NAtoms=     13 NQM=       13 NQMF=       0 NMMI=      0 NMMIF=      0
                NMic=       0 NMicF=      0.
                    Isotopes and Nuclear Properties:
 (Nuclear quadrupole moments (NQMom) in fm**2, nuclear magnetic moments (NMagM)
  in nuclear magnetons)

  Atom         1           2           3           4           5           6           7           8           9          10
 IAtWgt=          16          12          12           1           1          16           1           1           1           1
 AtmWgt=  15.9949146  12.0000000  12.0000000   1.0078250   1.0078250  15.9949146   1.0078250   1.0078250   1.0078250   1.0078250
 NucSpn=           0           0           0           1           1           0           1           1           1           1
 AtZEff=   5.6000000   3.6000000   3.6000000   1.0000000   1.0000000   5.6000000   1.0000000   1.0000000   1.0000000   1.0000000
 NQMom=    0.0000000   0.0000000   0.0000000   0.0000000   0.0000000   0.0000000   0.0000000   0.0000000   0.0000000   0.0000000
 NMagM=    0.0000000   0.0000000   0.0000000   2.7928460   2.7928460   0.0000000   2.7928460   2.7928460   2.7928460   2.7928460
 AtZNuc=   8.0000000   6.0000000   6.0000000   1.0000000   1.0000000   8.0000000   1.0000000   1.0000000   1.0000000   1.0000000

  Atom        11          12          13
 IAtWgt=          12          16          16
 AtmWgt=  12.0000000  15.9949146  15.9949146
 NucSpn=           0           0           0
 AtZEff=   3.6000000   5.6000000   5.6000000
 NQMom=    0.0000000   0.0000000   0.0000000
 NMagM=    0.0000000   0.0000000   0.0000000
 AtZNuc=   6.0000000   8.0000000   8.0000000
 Leave Link  101 at Mon Jun 12 10:54:56 2023, MaxMem=  7381975040 cpu:               0.2 elap:               0.1
 (Enter /software/commercial/gaussian/g16/AVX/g16/l103.exe)

 GradGradGradGradGradGradGradGradGradGradGradGradGradGradGradGradGradGrad
 Berny optimization.
 Initialization pass.
 Trust Radius=3.00D-01 FncErr=1.00D-07 GrdErr=1.00D-07 EigMax=2.50D+02 EigMin=1.00D-04
 Number of steps in this run=      2 maximum allowed number of steps=      2.
 GradGradGradGradGradGradGradGradGradGradGradGradGradGradGradGradGradGrad

 Leave Link  103 at Mon Jun 12 10:54:56 2023, MaxMem=  7381975040 cpu:               0.1 elap:               0.1
 (Enter /software/commercial/gaussian/g16/AVX/g16/l202.exe)
                          Input orientation:                          
 ---------------------------------------------------------------------
 Center     Atomic      Atomic             Coordinates (Angstroms)
 Number     Number       Type             X           Y           Z
 ---------------------------------------------------------------------
      1          8           0        2.245279   -0.587899    0.735881
      2          6           0        3.151722    0.243294    0.002857
      3          6           0        4.557865   -0.216031    0.340780
      4          1           0        3.028306    1.294880    0.281316
      5          1           0        2.981496    0.144532   -1.075089
      6          8           0        5.459647    0.577920   -0.436018
      7          1           0        4.662821   -1.278597    0.097774
      8          1           0        4.741893   -0.082535    1.412800
      9          1           0        6.358308    0.285617   -0.253390
     10          1           0        1.369918   -0.188710    0.708088
     11          6           0        1.930789   -3.093230   -0.480303
     12          8           0        1.054526   -3.361427    0.232132
     13          8           0        2.801428   -2.867060   -1.214241
 ---------------------------------------------------------------------
                    Distance matrix (angstroms):
                    1          2          3          4          5
     1  O    0.000000
     2  C    1.431728   0.000000
     3  C    2.375384   1.517370   0.000000
     4  H    2.089167   1.094808   2.150800   0.000000
     5  H    2.087602   1.095764   2.149333   1.779137   0.000000
     6  O    3.614505   2.372995   1.430728   2.634392   2.595664
     7  H    2.593984   2.146761   1.095040   3.054196   2.495548
     8  H    2.635659   2.150058   1.095862   2.472632   3.056166
     9  H    4.319571   3.217087   1.961194   3.520431   3.478212
    10  H    0.962487   1.964383   3.209154   2.265705   2.426510
    11  C    2.802622   3.585597   3.981705   4.586950   3.455554
    12  O    3.060083   4.176698   4.709427   5.057610   4.208774
    13  O    3.050713   3.358323   3.539931   4.428307   3.020177
                    6          7          8          9         10
     6  O    0.000000
     7  H    2.089622   0.000000
     8  H    2.090335   1.779356   0.000000
     9  H    0.962489   2.333401   2.350430   0.000000
    10  H    4.315389   3.521867   3.446463   5.102299   0.000000
    11  C    5.092361   3.330325   4.533258   5.574139   3.187959
    12  O    5.947265   4.168455   5.073636   6.454980   3.223684
    13  O    4.420367   2.776577   4.291891   4.849124   3.594179
                   11         12         13
    11  C    0.000000
    12  O    1.160745   0.000000
    13  O    1.160961   2.321219   0.000000
 Symmetry turned off by external request.
 Stoichiometry    C3H6O4
 Framework group  C1[X(C3H6O4)]
 Deg. of freedom    33
 Full point group                 C1      NOp   1
 Rotational constants (GHZ):           4.8738729           1.1177397           0.9647627
 Leave Link  202 at Mon Jun 12 10:54:56 2023, MaxMem=  7381975040 cpu:               0.0 elap:               0.0
 (Enter /software/commercial/gaussian/g16/AVX/g16/l301.exe)
 Standard basis: 6-311+G(d,p) (5D, 7F)
 Ernie: Thresh=  0.10000D-02 Tol=  0.10000D-05 Strict=F.
   190 basis functions,   300 primitive gaussians,   197 cartesian basis functions
    28 alpha electrons       28 beta electrons
       nuclear repulsion energy       291.5039137888 Hartrees.
 IExCor=  402 DFT=T Ex+Corr=B3LYP ExCW=0 ScaHFX=  0.200000
 ScaDFX=  0.800000  0.720000  1.000000  0.810000 ScalE2=  1.000000  1.000000
 IRadAn=      5 IRanWt=     -1 IRanGd=            0 ICorTp=0 IEmpDi=141
 NAtoms=   13 NActive=   13 NUniq=   13 SFac= 1.00D+00 NAtFMM=   60 NAOKFM=F Big=F
 Integral buffers will be    131072 words long.
 Raffenetti 2 integral format.
 Two-electron integral symmetry is turned off.
 R6Disp:  Grimme-D3(BJ) Dispersion energy=       -0.0135537362 Hartrees.
 Nuclear repulsion after empirical dispersion term =      291.4903600525 Hartrees.
 Force inversion solution in PCM.
 ------------------------------------------------------------------------------
 Polarizable Continuum Model (PCM)
 =================================
 Model                : PCM.
 Atomic radii         : UFF (Universal Force Field).
 Polarization charges : Total charges.
 Charge compensation  : None.
 Solution method      : Matrix inversion.
 Cavity type          : Scaled VdW (van der Waals Surface) (Alpha=1.100).
 Cavity algorithm     : GePol (No added spheres)
                        Default sphere list used, NSphG=   13.
                        Lebedev-Laikov grids with approx.  5.0 points / Ang**2.
                        Smoothing algorithm: York/Karplus (Gamma=1.0000).
                        Polarization charges: spherical gaussians, with
                                              point-specific exponents (IZeta= 3).
                        Self-potential: point-specific (ISelfS= 7).
                        Self-field    : sphere-specific E.n sum rule (ISelfD= 2).
 1st derivatives      : Analytical E(r).r(x)/FMM algorithm (CHGder, D1EAlg=3).
                        Cavity 1st derivative terms included.
 2nd derivatives      : Analytical E(r).r(xy)/FMM algorithm (CHGder, D2EAlg=3).
                        Cavity 2nd derivative terms included.
 Solvent              : Ethanol, Eps=  24.852000 Eps(inf)=   1.852593
 ------------------------------------------------------------------------------
 Spheres list:
 ISph  on   Nord     Re0    Alpha      Xe            Ye            Ze
    1   O      1    1.7500  1.100      2.245279     -0.587899      0.735881
    2   C      2    1.9255  1.100      3.151722      0.243294      0.002857
    3   C      3    1.9255  1.100      4.557865     -0.216031      0.340780
    4   H      4    1.4430  1.100      3.028306      1.294880      0.281316
    5   H      5    1.4430  1.100      2.981496      0.144532     -1.075089
    6   O      6    1.7500  1.100      5.459647      0.577920     -0.436018
    7   H      7    1.4430  1.100      4.662821     -1.278597      0.097774
    8   H      8    1.4430  1.100      4.741893     -0.082535      1.412800
    9   H      9    1.4430  1.100      6.358308      0.285617     -0.253390
   10   H     10    1.4430  1.100      1.369918     -0.188710      0.708088
   11   C     11    1.9255  1.100      1.930789     -3.093230     -0.480303
   12   O     12    1.7500  1.100      1.054526     -3.361427      0.232132
   13   O     13    1.7500  1.100      2.801428     -2.867060     -1.214241
 ------------------------------------------------------------------------------
 GePol: Number of generator spheres                  =      13
 GePol: Total number of spheres                      =      13
 GePol: Number of exposed spheres                    =      13 (100.00%)
 GePol: Number of points                             =    1277
 GePol: Average weight of points                     =       0.14
 GePol: Minimum weight of points                     =   0.17D-11
 GePol: Maximum weight of points                     =    0.20577
 GePol: Number of points with low weight             =      63
 GePol: Fraction of low-weight points (<1% of avg)   =       4.93%
 GePol: Cavity surface area                          =    172.573 Ang**2
 GePol: Cavity volume                                =    157.314 Ang**3
 Leave Link  301 at Mon Jun 12 10:54:57 2023, MaxMem=  7381975040 cpu:               0.2 elap:               0.1
 (Enter /software/commercial/gaussian/g16/AVX/g16/l302.exe)
 NPDir=0 NMtPBC=     1 NCelOv=     1 NCel=       1 NClECP=     1 NCelD=      1
         NCelK=      1 NCelE2=     1 NClLst=     1 CellRange=     0.0.
 One-electron integrals computed using PRISM.
 NBasis=   190 RedAO= T EigKep=  6.62D-05  NBF=   190
 NBsUse=   190 1.00D-06 EigRej= -1.00D+00 NBFU=   190
 Precomputing XC quadrature grid using
 IXCGrd= 4 IRadAn=           5 IRanWt=          -1 IRanGd=           0 AccXCQ= 0.00D+00.
 Generated NRdTot=       0 NPtTot=           0 NUsed=           0 NTot=          32
 NSgBfM=   197   197   197   197   197 MxSgAt=    13 MxSgA2=    13.
 Leave Link  302 at Mon Jun 12 10:54:57 2023, MaxMem=  7381975040 cpu:               0.6 elap:               0.3
 (Enter /software/commercial/gaussian/g16/AVX/g16/l303.exe)
 DipDrv:  MaxL=1.
 Leave Link  303 at Mon Jun 12 10:54:57 2023, MaxMem=  7381975040 cpu:               0.1 elap:               0.1
 (Enter /software/commercial/gaussian/g16/AVX/g16/l401.exe)
 Initial guess from the checkpoint file:  "/scratch1/svicchi/G09-709953.pbs02/02-freq/EG-CO2_binding_direct-site_index-0-freq.chk"
 B after Tr=     0.000000    0.000000    0.000000
         Rot=    1.000000    0.000000    0.000000    0.000000 Ang=   0.00 deg.
 Guess basis will be translated and rotated to current coordinates.
 JPrj=2 DoOrth=T DoCkMO=T.
 Leave Link  401 at Mon Jun 12 10:54:58 2023, MaxMem=  7381975040 cpu:               0.3 elap:               0.2
 (Enter /software/commercial/gaussian/g16/AVX/g16/l502.exe)
 Keep R1 ints in memory in canonical form, NReq=168511657.
 FoFCou: FMM=F IPFlag=           0 FMFlag=           0 FMFlg1=           0
         NFxFlg=           0 DoJE=F BraDBF=F KetDBF=F FulRan=T
         wScrn=  0.000000 ICntrl=       600 IOpCl=  0 I1Cent=           0 NGrid=           0
         NMat0=    1 NMatS0=  18145 NMatT0=    0 NMatD0=    1 NMtDS0=    0 NMtDT0=    0
 Symmetry not used in FoFCou.
 Two-electron integral symmetry not used.
 Closed shell SCF:
 Using DIIS extrapolation, IDIIS=  1040.
 NGot=  7381975040 LenX=  7217264802 LenY=  7217225552
 Requested convergence on RMS density matrix=1.00D-08 within 350 cycles.
 Requested convergence on MAX density matrix=1.00D-06.
 Requested convergence on             energy=1.00D-06.
 No special actions if energy rises.

 Cycle   1  Pass 1  IDiag  1:
 Inv3:  Mode=1 IEnd=     4892187.
 Iteration    1 A*A^-1 deviation from unit magnitude is 3.33D-15 for   1275.
 Iteration    1 A*A^-1 deviation from orthogonality  is 3.77D-15 for   1266    273.
 Iteration    1 A^-1*A deviation from unit magnitude is 3.33D-15 for   1275.
 Iteration    1 A^-1*A deviation from orthogonality  is 8.43D-14 for   1091   1022.
 E= -419.004219496317    
 DIIS: error= 3.86D-08 at cycle   1 NSaved=   1.
 NSaved= 1 IEnMin= 1 EnMin= -419.004219496317     IErMin= 1 ErrMin= 3.86D-08
 ErrMax= 3.86D-08  0.00D+00 EMaxC= 1.00D-01 BMatC= 3.67D-13 BMatP= 3.67D-13
 IDIUse=1 WtCom= 1.00D+00 WtEn= 0.00D+00
 Coeff-Com:  0.100D+01
 Coeff:      0.100D+01
 Gap=     0.280 Goal=   None    Shift=    0.000
 RMSDP=4.83D-09 MaxDP=1.54D-07              OVMax= 2.54D-07

 Error on total polarization charges =  0.00965
 SCF Done:  E(RB3LYP) =  -419.004219496     A.U. after    1 cycles
            NFock=  1  Conv=0.48D-08     -V/T= 2.0035
 KE= 4.175456699309D+02 PE=-1.568313915222D+03 EE= 4.402736657426D+02
 Leave Link  502 at Mon Jun 12 10:55:08 2023, MaxMem=  7381975040 cpu:              19.7 elap:              10.1
 (Enter /software/commercial/gaussian/g16/AVX/g16/l508.exe)
 QCSCF skips out because SCF is already converged.
 Leave Link  508 at Mon Jun 12 10:55:08 2023, MaxMem=  7381975040 cpu:               0.0 elap:               0.0
 (Enter /software/commercial/gaussian/g16/AVX/g16/l801.exe)
 DoSCS=F DFT=T ScalE2(SS,OS)=  1.000000  1.000000
 Range of M.O.s used for correlation:     1   190
 NBasis=   190 NAE=    28 NBE=    28 NFC=     0 NFV=     0
 NROrb=    190 NOA=    28 NOB=    28 NVA=   162 NVB=   162

 **** Warning!!: The largest alpha MO coefficient is  0.40279222D+02

 Leave Link  801 at Mon Jun 12 10:55:09 2023, MaxMem=  7381975040 cpu:               0.1 elap:               0.1
 (Enter /software/commercial/gaussian/g16/AVX/g16/l1002.exe)
 Minotr:  Closed shell wavefunction.
 NEqPCM:  Using equilibrium solvation (IEInf=0, Eps=  24.8520, EpsInf=   1.8526)
          Direct CPHF calculation.
          Differentiating once with respect to electric field.
                with respect to dipole field.
          Electric field/nuclear overlap derivatives assumed to be zero.
          Requested convergence is 1.0D-08 RMS, and 1.0D-07 maximum.
          Secondary convergence is 1.0D-12 RMS, and 1.0D-12 maximum.
          NewPWx=F KeepS1=T KeepF1=T KeepIn=T MapXYZ=F SortEE=F KeepMc=T.
         4015 words used for storage of precomputed grid.
 Keep R1 ints in memory in canonical form, NReq=169767640.
 FoFCou: FMM=F IPFlag=           0 FMFlag=           0 FMFlg1=           0
         NFxFlg=           0 DoJE=F BraDBF=F KetDBF=F FulRan=T
         wScrn=  0.000000 ICntrl=       600 IOpCl=  0 I1Cent=           0 NGrid=           0
         NMat0=    1 NMatS0=  18145 NMatT0=    0 NMatD0=    1 NMtDS0=    0 NMtDT0=    0
 Symmetry not used in FoFCou.
 Two-electron integral symmetry not used.
          MDV=    7381975040 using IRadAn=       1.
          Solving linear equations simultaneously, MaxMat=       0.
          There are     3 degrees of freedom in the 1st order CPHF.  IDoFFX=0 NUNeed=     3.
      3 vectors produced by pass  0 Test12= 1.51D-13 3.33D-08 XBig12= 3.57D+01 2.18D+00.
 AX will form     3 AO Fock derivatives at one time.
      3 vectors produced by pass  1 Test12= 1.51D-13 3.33D-08 XBig12= 2.18D+01 1.60D+00.
      3 vectors produced by pass  2 Test12= 1.51D-13 3.33D-08 XBig12= 2.40D+00 2.45D-01.
      3 vectors produced by pass  3 Test12= 1.51D-13 3.33D-08 XBig12= 1.29D-01 7.47D-02.
      3 vectors produced by pass  4 Test12= 1.51D-13 3.33D-08 XBig12= 3.64D-02 2.80D-02.
      3 vectors produced by pass  5 Test12= 1.51D-13 3.33D-08 XBig12= 1.39D-03 5.69D-03.
      3 vectors produced by pass  6 Test12= 1.51D-13 3.33D-08 XBig12= 4.81D-05 1.69D-03.
      3 vectors produced by pass  7 Test12= 1.51D-13 3.33D-08 XBig12= 4.89D-06 3.86D-04.
      3 vectors produced by pass  8 Test12= 1.51D-13 3.33D-08 XBig12= 1.34D-07 7.58D-05.
      3 vectors produced by pass  9 Test12= 1.51D-13 3.33D-08 XBig12= 1.86D-09 4.81D-06.
      3 vectors produced by pass 10 Test12= 1.51D-13 3.33D-08 XBig12= 4.38D-11 1.53D-06.
      3 vectors produced by pass 11 Test12= 1.51D-13 3.33D-08 XBig12= 9.44D-13 1.67D-07.
 InvSVY:  IOpt=1 It=  1 EMax= 1.78D-15
 Solved reduced A of dimension    36 with     3 vectors.
 End of Minotr F.D. properties file   721 does not exist.
 End of Minotr F.D. properties file   722 does not exist.
 End of Minotr F.D. properties file   788 does not exist.
 Leave Link 1002 at Mon Jun 12 10:55:58 2023, MaxMem=  7381975040 cpu:              97.0 elap:              48.9
 (Enter /software/commercial/gaussian/g16/AVX/g16/l1101.exe)
 Using compressed storage, NAtomX=    13.
 Will process     14 centers per pass.
 R6Disp: Adding Grimme-D3(BJ) dispersion energy 1st derivatives to the gradient.
 Leave Link 1101 at Mon Jun 12 10:55:58 2023, MaxMem=  7381975040 cpu:               0.4 elap:               0.2
 (Enter /software/commercial/gaussian/g16/AVX/g16/l1102.exe)
 Symmetrizing basis deriv contribution to polar:
 IMax=3 JMax=2 DiffMx= 0.00D+00
 Leave Link 1102 at Mon Jun 12 10:55:58 2023, MaxMem=  7381975040 cpu:               0.1 elap:               0.1
 (Enter /software/commercial/gaussian/g16/AVX/g16/l1110.exe)
 Forming Gx(P) for the SCF density, NAtomX=    13.
 Integral derivatives from FoFJK, PRISM(SPDF).
 Do as many integral derivatives as possible in FoFJK.
 G2DrvN: MDV=    7381973565.
 G2DrvN: will do    14 centers at a time, making    1 passes.
 PxScal for G2LodP:  IOpCl= 0 ISclPx=1 IMOff=     1 NMtTot=     4 NTT=   18145 ScalPx= 2.96D+00
 Calling FoFCou, ICntrl=  3107 FMM=F I1Cent=   0 AccDes= 0.00D+00.
 FoFJK:  IHMeth= 1 ICntrl=    3107 DoSepK=F KAlg= 0 I1Cent=           0 FoldK=F
 IRaf=         0 NMat=       1 IRICut=       1 DoRegI=T DoRafI=F ISym2E= 0 IDoP0=0 IntGTp=1.
 FoFCou: FMM=F IPFlag=           0 FMFlag=      100000 FMFlg1=           0
         NFxFlg=           0 DoJE=F BraDBF=F KetDBF=F FulRan=T
         wScrn=  0.000000 ICntrl=      3107 IOpCl=  0 I1Cent=           0 NGrid=           0
         NMat0=    1 NMatS0=      1 NMatT0=    0 NMatD0=    4 NMtDS0=    3 NMtDT0=    0
 Symmetry not used in FoFCou.
 PxScal for G2LodP:  IOpCl= 0 ISclPx=0 IMOff=     1 NMtTot=     4 NTT=   18145 ScalPx= 1.00D+00
 NEqPCM:  Using equilibrium solvation (IEInf=0, Eps=  24.8520, EpsInf=   1.8526)
 G2PCM: DoFxE=T DoFxN=T DoGrad=T DoDP/DQ/DG/TGxP=TFFF NFrqRd=   0 IEInf=0 SqF1=F DoCFld=F IF1Alg=4.
 GePol: Maximum number of non-zero 1st derivatives   =     216
 End of G2Drv F.D. properties file   721 does not exist.
 End of G2Drv F.D. properties file   722 does not exist.
 End of G2Drv F.D. properties file   788 does not exist.
 Leave Link 1110 at Mon Jun 12 10:58:36 2023, MaxMem=  7381975040 cpu:             313.9 elap:             157.6
 (Enter /software/commercial/gaussian/g16/AVX/g16/l1002.exe)
 Minotr:  Closed shell wavefunction.
          IDoAtm=1111111111111
 NEqPCM:  Using equilibrium solvation (IEInf=0, Eps=  24.8520, EpsInf=   1.8526)
          Direct CPHF calculation.
          Differentiating once with respect to electric field.
                with respect to dipole field.
          Differentiating once with respect to nuclear coordinates.
          Requested convergence is 1.0D-08 RMS, and 1.0D-07 maximum.
          Secondary convergence is 1.0D-12 RMS, and 1.0D-12 maximum.
          NewPWx=T KeepS1=F KeepF1=F KeepIn=T MapXYZ=F SortEE=F KeepMc=T.
         4015 words used for storage of precomputed grid.
 Keep R1 ints in memory in canonical form, NReq=169767939.
 FoFCou: FMM=F IPFlag=           0 FMFlag=           0 FMFlg1=           0
         NFxFlg=           0 DoJE=F BraDBF=F KetDBF=F FulRan=T
         wScrn=  0.000000 ICntrl=       600 IOpCl=  0 I1Cent=           0 NGrid=           0
         NMat0=    1 NMatS0=  18145 NMatT0=    0 NMatD0=    1 NMtDS0=    0 NMtDT0=    0
 Symmetry not used in FoFCou.
 Two-electron integral symmetry not used.
          MDV=    7381975040 using IRadAn=       1.
          Solving linear equations simultaneously, MaxMat=       0.
          There are    42 degrees of freedom in the 1st order CPHF.  IDoFFX=5 NUNeed=    42.
 Will reuse    3 saved solutions.
     36 vectors produced by pass  0 Test12= 1.08D-14 2.38D-09 XBig12= 2.35D-01 1.19D-01.
 AX will form    36 AO Fock derivatives at one time.
     36 vectors produced by pass  1 Test12= 1.08D-14 2.38D-09 XBig12= 1.11D-02 1.61D-02.
     36 vectors produced by pass  2 Test12= 1.08D-14 2.38D-09 XBig12= 2.16D-04 1.84D-03.
     36 vectors produced by pass  3 Test12= 1.08D-14 2.38D-09 XBig12= 9.81D-07 1.20D-04.
     36 vectors produced by pass  4 Test12= 1.08D-14 2.38D-09 XBig12= 2.05D-09 6.77D-06.
     28 vectors produced by pass  5 Test12= 1.08D-14 2.38D-09 XBig12= 2.94D-12 2.98D-07.
      8 vectors produced by pass  6 Test12= 1.08D-14 2.38D-09 XBig12= 2.90D-15 1.29D-08.
 InvSVY:  IOpt=1 It=  1 EMax= 1.55D-15
 Solved reduced A of dimension   216 with    36 vectors.
 FullF1:  Do perturbations      1 to       3.
 Isotropic polarizability for W=    0.000000       60.86 Bohr**3.
 FullF1:  Do perturbations      1 to       6.
 End of Minotr F.D. properties file   721 does not exist.
 End of Minotr F.D. properties file   722 does not exist.
 End of Minotr F.D. properties file   788 does not exist.
 Leave Link 1002 at Mon Jun 12 11:00:47 2023, MaxMem=  7381975040 cpu:             259.6 elap:             130.5
 (Enter /software/commercial/gaussian/g16/AVX/g16/l601.exe)
 Copying SCF densities to generalized density rwf, IOpCl= 0 IROHF=0.

 **********************************************************************

            Population analysis using the SCF Density.

 **********************************************************************

 Alpha  occ. eigenvalues --  -19.20309 -19.20306 -19.13707 -19.13427 -10.36095
 Alpha  occ. eigenvalues --  -10.22181 -10.22059  -1.16463  -1.12596  -1.03969
 Alpha  occ. eigenvalues --   -1.02896  -0.75015  -0.61759  -0.56726  -0.54896
 Alpha  occ. eigenvalues --   -0.52617  -0.52024  -0.51799  -0.49672  -0.48609
 Alpha  occ. eigenvalues --   -0.42928  -0.40891  -0.37723  -0.37571  -0.37225
 Alpha  occ. eigenvalues --   -0.34120  -0.29371  -0.29009
 Alpha virt. eigenvalues --   -0.01019   0.00262   0.01877   0.02771   0.03066
 Alpha virt. eigenvalues --    0.03242   0.05176   0.05449   0.06611   0.07130
 Alpha virt. eigenvalues --    0.08000   0.09799   0.10869   0.12704   0.14117
 Alpha virt. eigenvalues --    0.14622   0.15327   0.16087   0.17260   0.17957
 Alpha virt. eigenvalues --    0.18862   0.20456   0.21406   0.21569   0.22686
 Alpha virt. eigenvalues --    0.23596   0.24008   0.24520   0.25868   0.27300
 Alpha virt. eigenvalues --    0.27470   0.28716   0.28867   0.29559   0.30688
 Alpha virt. eigenvalues --    0.31839   0.32577   0.34670   0.36199   0.37131
 Alpha virt. eigenvalues --    0.42416   0.46272   0.50509   0.54059   0.55641
 Alpha virt. eigenvalues --    0.56522   0.57892   0.59830   0.61801   0.65063
 Alpha virt. eigenvalues --    0.65990   0.66873   0.68493   0.71191   0.72187
 Alpha virt. eigenvalues --    0.83843   0.85919   0.89569   0.92419   0.94843
 Alpha virt. eigenvalues --    0.99363   1.00967   1.04484   1.06346   1.07448
 Alpha virt. eigenvalues --    1.09367   1.11186   1.12057   1.13784   1.13950
 Alpha virt. eigenvalues --    1.15998   1.18250   1.22830   1.25003   1.25890
 Alpha virt. eigenvalues --    1.27716   1.35573   1.37819   1.39760   1.40620
 Alpha virt. eigenvalues --    1.42343   1.45931   1.47812   1.50817   1.54213
 Alpha virt. eigenvalues --    1.56465   1.59262   1.63471   1.64905   1.66128
 Alpha virt. eigenvalues --    1.68638   1.74741   1.79383   1.82306   1.83176
 Alpha virt. eigenvalues --    1.89082   2.02610   2.03313   2.07996   2.09233
 Alpha virt. eigenvalues --    2.13801   2.24379   2.32258   2.42264   2.44090
 Alpha virt. eigenvalues --    2.48511   2.52111   2.53011   2.56340   2.58210
 Alpha virt. eigenvalues --    2.61644   2.62096   2.64995   2.72347   2.74247
 Alpha virt. eigenvalues --    2.76145   2.79065   2.85052   2.85328   2.85996
 Alpha virt. eigenvalues --    2.87793   2.92018   3.06418   3.10659   3.11278
 Alpha virt. eigenvalues --    3.14074   3.15502   3.20386   3.20810   3.22765
 Alpha virt. eigenvalues --    3.24679   3.36099   3.67102   3.68344   3.78803
 Alpha virt. eigenvalues --    3.80612   3.81318   3.82442   3.84849   3.90157
 Alpha virt. eigenvalues --    3.96649   3.98084   4.23329   4.95771   4.99122
 Alpha virt. eigenvalues --    5.00962   5.02958   5.04914   5.06380   5.32142
 Alpha virt. eigenvalues --    5.38431   5.62492   5.63953   5.67010   5.69120
 Alpha virt. eigenvalues --   23.82499  23.83226  24.39181  49.88341  49.90664
 Alpha virt. eigenvalues --   49.91984  50.06777
     Molecular Orbital Coefficients:
                           1         2         3         4         5
                           O         O         O         O         O
     Eigenvalues --   -19.20309 -19.20306 -19.13707 -19.13427 -10.36095
   1 1   O  1S          0.00000   0.00000   0.55133   0.00030  -0.00000
   2        2S         -0.00000  -0.00000   0.46973   0.00026  -0.00001
   3        2PX        -0.00002   0.00002  -0.00031   0.00002   0.00000
   4        2PY         0.00000   0.00001   0.00107   0.00001   0.00000
   5        2PZ         0.00001  -0.00000  -0.00060  -0.00001  -0.00000
   6        3S          0.00004   0.00003   0.01360  -0.00010   0.00009
   7        3PX         0.00007  -0.00007  -0.00011  -0.00008  -0.00002
   8        3PY         0.00000  -0.00006  -0.00000  -0.00003  -0.00003
   9        3PZ        -0.00005   0.00002   0.00002   0.00004  -0.00001
  10        4S          0.00004  -0.00012  -0.00958   0.00059  -0.00024
  11        4PX        -0.00029   0.00035  -0.00122   0.00023   0.00017
  12        4PY        -0.00003   0.00023  -0.00064   0.00029   0.00017
  13        4PZ         0.00019  -0.00002   0.00075  -0.00026   0.00013
  14        5S         -0.00048  -0.00010   0.00818   0.00040  -0.00027
  15        5PX         0.00015  -0.00019   0.00005   0.00087  -0.00042
  16        5PY        -0.00005   0.00011   0.00033  -0.00027   0.00012
  17        5PZ        -0.00003   0.00019  -0.00047  -0.00024   0.00015
  18        6D 0       -0.00001   0.00001  -0.00013  -0.00001   0.00001
  19        6D+1        0.00002  -0.00002   0.00002  -0.00000  -0.00000
  20        6D-1        0.00000  -0.00001   0.00002  -0.00000  -0.00001
  21        6D+2        0.00001  -0.00001   0.00017   0.00001   0.00001
  22        6D-2       -0.00001   0.00001  -0.00017  -0.00001   0.00000
  23 2   C  1S          0.00000  -0.00000   0.00002   0.00000   0.00000
  24        2S         -0.00002   0.00001  -0.00007  -0.00000  -0.00000
  25        2PX         0.00002  -0.00001  -0.00006   0.00002   0.00001
  26        2PY         0.00003  -0.00002  -0.00012  -0.00001  -0.00000
  27        2PZ        -0.00000   0.00001   0.00012   0.00002   0.00001
  28        3S          0.00013  -0.00008   0.00008   0.00018   0.00002
  29        3PX        -0.00009   0.00007  -0.00031  -0.00020  -0.00002
  30        3PY        -0.00015   0.00010   0.00010   0.00007  -0.00001
  31        3PZ         0.00002  -0.00007  -0.00021  -0.00009  -0.00005
  32        4S         -0.00010   0.00034   0.00463  -0.00289   0.00023
  33        4PX        -0.00010   0.00002   0.00025  -0.00067  -0.00007
  34        4PY         0.00037  -0.00035  -0.00133   0.00103  -0.00001
  35        4PZ         0.00023  -0.00046   0.00127  -0.00029  -0.00012
  36        5S          0.00054  -0.00328  -0.01535   0.01214  -0.00336
  37        5PX        -0.00014  -0.00117  -0.00234   0.00300  -0.00133
  38        5PY         0.00002  -0.00004   0.00303  -0.00037  -0.00004
  39        5PZ        -0.00007  -0.00043  -0.00131   0.00066  -0.00039
  40        6D 0       -0.00002   0.00005   0.00007   0.00004   0.00002
  41        6D+1       -0.00001   0.00002   0.00010  -0.00003   0.00001
  42        6D-1       -0.00002   0.00002   0.00013  -0.00002  -0.00000
  43        6D+2       -0.00000   0.00003  -0.00000  -0.00011   0.00003
  44        6D-2        0.00003  -0.00001  -0.00010   0.00003   0.00002
  45 3   C  1S          0.00000  -0.00000   0.00000   0.00002  -0.00000
  46        2S         -0.00000   0.00000  -0.00001  -0.00007   0.00000
  47        2PX         0.00002  -0.00000  -0.00003   0.00007   0.00001
  48        2PY         0.00002  -0.00001   0.00002   0.00012   0.00000
  49        2PZ         0.00001   0.00000  -0.00002  -0.00011   0.00000
  50        3S         -0.00006   0.00002   0.00020   0.00007  -0.00003
  51        3PX        -0.00005  -0.00002   0.00022   0.00027  -0.00004
  52        3PY        -0.00009   0.00003  -0.00012  -0.00015  -0.00002
  53        3PZ        -0.00005  -0.00001   0.00008   0.00010  -0.00002
  54        4S          0.00058  -0.00009  -0.00302   0.00478   0.00043
  55        4PX        -0.00017   0.00021   0.00081  -0.00014   0.00009
  56        4PY        -0.00016   0.00009  -0.00056   0.00107  -0.00007
  57        4PZ         0.00003   0.00040   0.00045  -0.00120   0.00013
  58        5S         -0.00021   0.00501   0.01075  -0.01557   0.00602
  59        5PX         0.00001  -0.00124  -0.00249   0.00289  -0.00144
  60        5PY        -0.00023   0.00016   0.00075  -0.00210  -0.00004
  61        5PZ         0.00037  -0.00031  -0.00038   0.00214  -0.00057
  62        6D 0       -0.00001   0.00003   0.00004   0.00003   0.00000
  63        6D+1        0.00001  -0.00001  -0.00003   0.00011  -0.00000
  64        6D-1        0.00001   0.00000  -0.00003   0.00016   0.00000
  65        6D+2       -0.00002   0.00000  -0.00011  -0.00003  -0.00001
  66        6D-2        0.00002  -0.00001   0.00004  -0.00009   0.00001
  67 4   H  1S          0.00002  -0.00001   0.00003   0.00004   0.00001
  68        2S         -0.00007   0.00010  -0.00093  -0.00013  -0.00001
  69        3S         -0.00030   0.00022   0.00028  -0.00074  -0.00003
  70        4PX         0.00000   0.00001   0.00005  -0.00012   0.00001
  71        4PY        -0.00000  -0.00001   0.00029   0.00006  -0.00001
  72        4PZ        -0.00001   0.00002  -0.00007   0.00007   0.00001
  73 5   H  1S         -0.00000   0.00003   0.00009   0.00002   0.00002
  74        2S          0.00017  -0.00029  -0.00130   0.00009  -0.00010
  75        3S          0.00012  -0.00048   0.00136  -0.00023  -0.00036
  76        4PX         0.00000  -0.00001   0.00005  -0.00012  -0.00000
  77        4PY        -0.00001   0.00005   0.00012  -0.00007   0.00003
  78        4PZ         0.00002  -0.00007  -0.00035  -0.00004  -0.00005
  79 6   O  1S          0.00000  -0.00000  -0.00029   0.55134   0.00000
  80        2S          0.00000  -0.00000  -0.00024   0.46974   0.00000
  81        2PX        -0.00000  -0.00000  -0.00002   0.00033  -0.00000
  82        2PY        -0.00000  -0.00001   0.00000  -0.00092  -0.00000
  83        2PZ         0.00000  -0.00001   0.00001   0.00080  -0.00001
  84        3S          0.00002  -0.00003  -0.00011   0.01353  -0.00002
  85        3PX         0.00001   0.00001   0.00007   0.00012   0.00001
  86        3PY         0.00002   0.00002   0.00000  -0.00004   0.00001
  87        3PZ        -0.00000   0.00002  -0.00005  -0.00001   0.00003
  88        4S         -0.00009   0.00016   0.00056  -0.00933   0.00010
  89        4PX        -0.00002  -0.00003  -0.00021   0.00120   0.00000
  90        4PY        -0.00004  -0.00010  -0.00016   0.00081  -0.00005
  91        4PZ         0.00003  -0.00006   0.00028  -0.00069  -0.00009
  92        5S          0.00048  -0.00051   0.00027   0.00802  -0.00074
  93        5PX        -0.00001  -0.00007  -0.00073   0.00016   0.00005
  94        5PY         0.00002   0.00011  -0.00019  -0.00082   0.00020
  95        5PZ        -0.00002   0.00003  -0.00010   0.00040   0.00012
  96        6D 0        0.00000  -0.00001  -0.00001  -0.00012  -0.00000
  97        6D+1       -0.00000   0.00000   0.00000   0.00009   0.00000
  98        6D-1       -0.00000  -0.00000  -0.00001   0.00000   0.00000
  99        6D+2       -0.00000  -0.00000   0.00001   0.00019  -0.00000
 100        6D-2        0.00000  -0.00000  -0.00001  -0.00013  -0.00000
 101 7   H  1S          0.00004  -0.00001   0.00004   0.00004   0.00001
 102        2S         -0.00024   0.00015  -0.00011  -0.00107  -0.00002
 103        3S         -0.00008  -0.00061  -0.00005   0.00018  -0.00086
 104        4PX         0.00005   0.00002   0.00012  -0.00005   0.00005
 105        4PY        -0.00004   0.00004  -0.00006  -0.00033  -0.00000
 106        4PZ        -0.00000   0.00001  -0.00006   0.00008   0.00000
 107 8   H  1S          0.00001  -0.00001   0.00004   0.00004  -0.00001
 108        2S         -0.00004  -0.00002  -0.00000  -0.00102   0.00000
 109        3S         -0.00023  -0.00059  -0.00026   0.00040  -0.00052
 110        4PX         0.00001  -0.00002   0.00013  -0.00005  -0.00001
 111        4PY         0.00001  -0.00000   0.00006  -0.00010  -0.00000
 112        4PZ         0.00000   0.00002   0.00004   0.00032   0.00000
 113 9   H  1S          0.00001   0.00000   0.00001  -0.00001  -0.00000
 114        2S         -0.00002  -0.00005  -0.00020  -0.00003   0.00001
 115        3S         -0.00004   0.00019   0.00051  -0.00216   0.00002
 116        4PX         0.00000   0.00002   0.00007   0.00074   0.00001
 117        4PY         0.00001   0.00001   0.00004  -0.00033   0.00000
 118        4PZ        -0.00000  -0.00000  -0.00004   0.00023  -0.00000
 119 10  H  1S         -0.00001   0.00000   0.00001   0.00002   0.00001
 120        2S         -0.00012   0.00023  -0.00008  -0.00025   0.00019
 121        3S          0.00026  -0.00018  -0.00168   0.00074  -0.00044
 122        4PX         0.00000   0.00000  -0.00070  -0.00007   0.00001
 123        4PY         0.00003  -0.00005   0.00044  -0.00002  -0.00001
 124        4PZ        -0.00005   0.00002  -0.00008   0.00005  -0.00001
 125 11  C  1S         -0.00009  -0.00010   0.00000  -0.00000   0.56285
 126        2S          0.00037   0.00044  -0.00002   0.00000   0.46273
 127        2PX         0.00005  -0.00005   0.00000  -0.00000   0.00001
 128        2PY         0.00002  -0.00001   0.00002  -0.00001   0.00006
 129        2PZ        -0.00004   0.00004   0.00002  -0.00001   0.00003
 130        3S         -0.00016  -0.00017   0.00007  -0.00003   0.02097
 131        3PX         0.00043  -0.00037  -0.00001   0.00005  -0.00006
 132        3PY         0.00011  -0.00011  -0.00004   0.00004  -0.00031
 133        3PZ        -0.00034   0.00032  -0.00005   0.00000  -0.00014
 134        4S         -0.00244  -0.00302   0.00166  -0.00008  -0.00403
 135        4PX         0.01074  -0.00956  -0.00018   0.00035  -0.00055
 136        4PY         0.00310  -0.00259  -0.00009  -0.00011   0.00015
 137        4PZ        -0.00890   0.00794   0.00021  -0.00054   0.00064
 138        5S         -0.00275  -0.00356   0.00143   0.00043  -0.00565
 139        5PX        -0.00012  -0.00044   0.00023   0.00030  -0.00070
 140        5PY        -0.00044  -0.00065   0.00039   0.00020  -0.00097
 141        5PZ        -0.00024  -0.00008  -0.00011  -0.00031  -0.00008
 142        6D 0       -0.00017  -0.00021   0.00001  -0.00000   0.00062
 143        6D+1        0.00167   0.00200  -0.00012   0.00001  -0.00607
 144        6D-1        0.00048   0.00057  -0.00008   0.00000  -0.00171
 145        6D+2       -0.00094  -0.00112   0.00010   0.00000   0.00336
 146        6D-2       -0.00057  -0.00068   0.00005  -0.00001   0.00207
 147 12  O  1S         -0.04685   0.54930  -0.00000   0.00000  -0.00012
 148        2S         -0.03994   0.46795  -0.00001   0.00001   0.00013
 149        2PX        -0.00021   0.00099   0.00000   0.00001   0.00067
 150        2PY        -0.00007   0.00028  -0.00001   0.00001   0.00020
 151        2PZ         0.00017  -0.00083  -0.00001   0.00000  -0.00055
 152        3S         -0.00134   0.01461   0.00005  -0.00005  -0.00155
 153        3PX         0.00071   0.00100  -0.00002  -0.00002  -0.00324
 154        3PY         0.00025   0.00037   0.00002  -0.00002  -0.00096
 155        3PZ        -0.00055  -0.00077   0.00004  -0.00000   0.00266
 156        4S          0.00869  -0.01314  -0.00049   0.00035  -0.00717
 157        4PX         0.00198  -0.00220  -0.00027   0.00019  -0.00193
 158        4PY         0.00059  -0.00085  -0.00014   0.00011  -0.00085
 159        4PZ        -0.00163   0.00167   0.00018  -0.00008   0.00138
 160        5S          0.00981  -0.00246  -0.00107   0.00055   0.00492
 161        5PX         0.00244  -0.00107  -0.00029  -0.00005   0.00136
 162        5PY         0.00100  -0.00008  -0.00029  -0.00003   0.00081
 163        5PZ        -0.00177   0.00109   0.00010   0.00000  -0.00075
 164        6D 0        0.00001   0.00003   0.00000  -0.00000  -0.00009
 165        6D+1       -0.00032  -0.00038   0.00004  -0.00001   0.00140
 166        6D-1       -0.00011  -0.00012   0.00000  -0.00000   0.00045
 167        6D+2        0.00018   0.00021  -0.00001   0.00001  -0.00078
 168        6D-2        0.00014   0.00015  -0.00002   0.00000  -0.00056
 169 13  O  1S          0.54930   0.04685  -0.00000  -0.00000  -0.00012
 170        2S          0.46795   0.03988  -0.00001  -0.00000   0.00013
 171        2PX        -0.00102   0.00004  -0.00001  -0.00000  -0.00067
 172        2PY        -0.00028  -0.00001  -0.00003   0.00001  -0.00017
 173        2PZ         0.00084  -0.00004  -0.00000   0.00000   0.00056
 174        3S          0.01461   0.00114   0.00004   0.00003  -0.00158
 175        3PX        -0.00082  -0.00084   0.00006   0.00001   0.00325
 176        3PY        -0.00017  -0.00017   0.00012  -0.00002   0.00084
 177        3PZ         0.00072   0.00074   0.00000  -0.00000  -0.00274
 178        4S         -0.01424   0.00662  -0.00024  -0.00027  -0.00670
 179        4PX         0.00231  -0.00170   0.00015  -0.00000   0.00163
 180        4PY         0.00046  -0.00050  -0.00024   0.00005   0.00026
 181        4PZ        -0.00205   0.00141  -0.00026  -0.00004  -0.00146
 182        5S         -0.00329   0.01019  -0.00075  -0.00057   0.00721
 183        5PX         0.00153  -0.00230   0.00031   0.00048  -0.00169
 184        5PY         0.00062  -0.00039   0.00029   0.00029  -0.00026
 185        5PZ        -0.00108   0.00212  -0.00019   0.00001   0.00154
 186        6D 0        0.00004   0.00006  -0.00001   0.00000  -0.00019
 187        6D+1       -0.00033  -0.00041   0.00005  -0.00000   0.00145
 188        6D-1       -0.00008  -0.00009  -0.00001   0.00000   0.00035
 189        6D+2        0.00018   0.00022  -0.00001  -0.00000  -0.00080
 190        6D-2        0.00010   0.00010  -0.00001  -0.00000  -0.00041
                           6         7         8         9        10
                           O         O         O         O         O
     Eigenvalues --   -10.22181 -10.22059  -1.16463  -1.12596  -1.03969
   1 1   O  1S         -0.00002   0.00000  -0.00183   0.00017  -0.08782
   2        2S         -0.00008   0.00001  -0.00290   0.00026  -0.14048
   3        2PX         0.00006  -0.00001  -0.00021  -0.00028  -0.00650
   4        2PY         0.00008   0.00002  -0.00019  -0.00012   0.03161
   5        2PZ        -0.00008  -0.00000  -0.00061   0.00023  -0.01797
   6        3S          0.00060   0.00009   0.00793  -0.00066   0.40604
   7        3PX         0.00015   0.00001  -0.00029   0.00003  -0.00847
   8        3PY         0.00002  -0.00010  -0.00022  -0.00001   0.05088
   9        3PZ         0.00003   0.00003  -0.00096   0.00012  -0.02934
  10        4S         -0.00080  -0.00116   0.00695  -0.00034   0.29819
  11        4PX         0.00045  -0.00026  -0.00037  -0.00209   0.00378
  12        4PY        -0.00023  -0.00023  -0.00099  -0.00084   0.01974
  13        4PZ        -0.00014   0.00034  -0.00099   0.00101  -0.01442
  14        5S          0.00990  -0.00245  -0.00096   0.00010  -0.04629
  15        5PX         0.00120   0.00148  -0.00043   0.00080  -0.00875
  16        5PY         0.00233  -0.00073  -0.00030  -0.00066  -0.00450
  17        5PZ        -0.00144  -0.00022  -0.00000  -0.00098   0.00622
  18        6D 0        0.00006   0.00000  -0.00010  -0.00007  -0.00413
  19        6D+1        0.00011   0.00004  -0.00005   0.00008  -0.00298
  20        6D-1        0.00014   0.00004   0.00006   0.00000  -0.00466
  21        6D+2       -0.00003   0.00002  -0.00004   0.00003   0.00278
  22        6D-2       -0.00007  -0.00001   0.00002   0.00000  -0.00039
  23 2   C  1S          0.56030  -0.05550  -0.00055   0.00019  -0.03667
  24        2S          0.46104  -0.04566  -0.00082   0.00025  -0.05643
  25        2PX        -0.00049   0.00053  -0.00035   0.00010  -0.01689
  26        2PY        -0.00071  -0.00013  -0.00043   0.00027  -0.01949
  27        2PZ         0.00065   0.00008   0.00019   0.00000   0.01741
  28        3S          0.01870  -0.00174   0.00185  -0.00003   0.14505
  29        3PX         0.00006  -0.00121  -0.00052  -0.00038  -0.02499
  30        3PY         0.00180   0.00045  -0.00063  -0.00049  -0.03609
  31        3PZ        -0.00158  -0.00032   0.00050   0.00014   0.03339
  32        4S         -0.01465   0.00574  -0.00041  -0.00077   0.04763
  33        4PX        -0.00016   0.00179  -0.00028  -0.00019  -0.00497
  34        4PY         0.00140  -0.00080  -0.00072   0.00308  -0.00110
  35        4PZ        -0.00105   0.00032   0.00077   0.00238   0.00077
  36        5S         -0.01956   0.02172   0.01480   0.01378   0.05482
  37        5PX        -0.00316   0.00448   0.00581   0.00410  -0.00130
  38        5PY         0.00191  -0.00267  -0.00085   0.00108  -0.01812
  39        5PZ        -0.00063   0.00147   0.00217   0.00087   0.00634
  40        6D 0        0.00056   0.00037  -0.00019  -0.00011  -0.00478
  41        6D+1        0.00038  -0.00038  -0.00019  -0.00008  -0.01024
  42        6D-1        0.00065   0.00009  -0.00012  -0.00010  -0.00947
  43        6D+2       -0.00070  -0.00051  -0.00013   0.00001   0.00582
  44        6D-2       -0.00038   0.00050   0.00017   0.00007   0.01017
  45 3   C  1S          0.05547   0.56030  -0.00017   0.00014  -0.03066
  46        2S          0.04565   0.46104  -0.00027   0.00020  -0.04720
  47        2PX        -0.00041   0.00058  -0.00015   0.00008   0.00960
  48        2PY         0.00028   0.00068  -0.00007   0.00010   0.01424
  49        2PZ        -0.00022  -0.00064  -0.00007   0.00008  -0.01377
  50        3S          0.00195   0.01864   0.00062  -0.00070   0.12102
  51        3PX         0.00110  -0.00035   0.00000  -0.00003   0.01276
  52        3PY        -0.00084  -0.00179   0.00001  -0.00016   0.02807
  53        3PZ         0.00067   0.00155   0.00005   0.00001  -0.02646
  54        4S          0.00288  -0.01528  -0.00064   0.00155   0.04748
  55        4PX        -0.00117   0.00113  -0.00083  -0.00109  -0.00024
  56        4PY         0.00058  -0.00092   0.00051  -0.00135   0.00097
  57        4PZ        -0.00047   0.00109  -0.00143  -0.00054  -0.00178
  58        5S          0.01306  -0.02467  -0.02244  -0.01825   0.00416
  59        5PX        -0.00273   0.00505   0.00553   0.00449   0.00671
  60        5PY         0.00124  -0.00084   0.00022  -0.00226   0.00415
  61        5PZ        -0.00106   0.00090   0.00024   0.00270  -0.00739
  62        6D 0        0.00043   0.00038  -0.00012   0.00001  -0.00383
  63        6D+1       -0.00031   0.00048   0.00002   0.00007  -0.00759
  64        6D-1        0.00024   0.00063  -0.00002   0.00004  -0.00734
  65        6D+2       -0.00067  -0.00065   0.00006  -0.00003   0.00621
  66        6D-2        0.00044  -0.00041  -0.00005   0.00009   0.00705
  67 4   H  1S          0.00003  -0.00010   0.00010   0.00004   0.01459
  68        2S         -0.00283  -0.00043   0.00032  -0.00078   0.02154
  69        3S          0.00349  -0.00045   0.00058  -0.00227  -0.00521
  70        4PX        -0.00024   0.00005  -0.00003  -0.00000   0.00071
  71        4PY         0.00205   0.00008  -0.00003   0.00002  -0.00647
  72        4PZ         0.00071   0.00005  -0.00003  -0.00006  -0.00115
  73 5   H  1S          0.00007  -0.00009   0.00019  -0.00021   0.01417
  74        2S         -0.00307  -0.00058   0.00107   0.00083   0.02329
  75        3S          0.00449  -0.00111   0.00149   0.00204  -0.01300
  76        4PX        -0.00035   0.00005  -0.00002   0.00004   0.00105
  77        4PY        -0.00036  -0.00001  -0.00025   0.00001   0.00005
  78        4PZ        -0.00215  -0.00013   0.00026   0.00011   0.00691
  79 6   O  1S         -0.00000  -0.00002  -0.00007   0.00009  -0.06622
  80        2S         -0.00001  -0.00007  -0.00012   0.00014  -0.10594
  81        2PX        -0.00000  -0.00007  -0.00001   0.00001   0.00478
  82        2PY        -0.00003  -0.00008  -0.00002   0.00004  -0.02108
  83        2PZ         0.00003   0.00008   0.00003  -0.00002   0.01815
  84        3S          0.00019   0.00053   0.00037  -0.00034   0.30650
  85        3PX        -0.00003  -0.00013  -0.00009   0.00006   0.00602
  86        3PY         0.00007   0.00000  -0.00014   0.00008  -0.03386
  87        3PZ        -0.00007   0.00002   0.00000  -0.00009   0.02953
  88        4S         -0.00126  -0.00038   0.00002  -0.00067   0.22172
  89        4PX         0.00009  -0.00053   0.00015  -0.00019  -0.00303
  90        4PY         0.00036   0.00005   0.00039   0.00002  -0.01436
  91        4PZ        -0.00029  -0.00004   0.00012   0.00028   0.01215
  92        5S         -0.00085   0.00800   0.00011   0.00501  -0.03322
  93        5PX        -0.00114   0.00017   0.00030   0.00058   0.00597
  94        5PY         0.00019  -0.00164  -0.00030  -0.00076   0.00673
  95        5PZ        -0.00021   0.00142  -0.00006   0.00001  -0.00298
  96        6D 0        0.00001   0.00004   0.00001   0.00001  -0.00224
  97        6D+1        0.00004   0.00009  -0.00001  -0.00000  -0.00126
  98        6D-1        0.00007   0.00014  -0.00000   0.00000  -0.00420
  99        6D+2        0.00000  -0.00005   0.00000  -0.00000   0.00299
 100        6D-2       -0.00003  -0.00008   0.00001  -0.00000   0.00043
 101 7   H  1S         -0.00009   0.00009   0.00018  -0.00013   0.01236
 102        2S         -0.00108  -0.00297   0.00066  -0.00154   0.01841
 103        3S          0.00061   0.00461   0.00352   0.00063  -0.00669
 104        4PX        -0.00002   0.00022  -0.00038   0.00029  -0.00090
 105        4PY        -0.00051  -0.00205  -0.00016  -0.00003   0.00563
 106        4PZ        -0.00017  -0.00063  -0.00010   0.00012   0.00097
 107 8   H  1S         -0.00009   0.00007   0.00009  -0.00001   0.01221
 108        2S         -0.00105  -0.00280   0.00012  -0.00025   0.01821
 109        3S          0.00051   0.00404   0.00314   0.00096  -0.00522
 110        4PX         0.00002   0.00036   0.00001   0.00007  -0.00119
 111        4PY         0.00012   0.00040  -0.00003   0.00006  -0.00037
 112        4PZ         0.00051   0.00205  -0.00007   0.00002  -0.00560
 113 9   H  1S         -0.00002  -0.00002   0.00002  -0.00005   0.05325
 114        2S          0.00050   0.00053   0.00026   0.00002   0.04417
 115        3S          0.00111  -0.00279  -0.00024  -0.00177   0.00186
 116        4PX        -0.00019  -0.00025  -0.00007   0.00001  -0.01404
 117        4PY         0.00002   0.00000  -0.00004   0.00002   0.00279
 118        4PZ         0.00001   0.00002   0.00001  -0.00001  -0.00129
 119 10  H  1S         -0.00000  -0.00002   0.00122  -0.00005   0.07104
 120        2S          0.00047   0.00033   0.00060  -0.00080   0.05803
 121        3S         -0.00193   0.00162  -0.00008   0.00089  -0.00018
 122        4PX         0.00030   0.00012   0.00025  -0.00000   0.01788
 123        4PY        -0.00002  -0.00002  -0.00015   0.00013  -0.00565
 124        4PZ        -0.00002  -0.00002   0.00001  -0.00018  -0.00097
 125 11  C  1S         -0.00000   0.00000  -0.08699  -0.00029   0.00140
 126        2S         -0.00000   0.00000  -0.13189  -0.00044   0.00216
 127        2PX        -0.00000  -0.00001  -0.00005  -0.12674  -0.00030
 128        2PY        -0.00002  -0.00002  -0.00269  -0.03590   0.00082
 129        2PZ         0.00000  -0.00001  -0.00170   0.10489   0.00076
 130        3S          0.00007  -0.00002   0.34852   0.00121  -0.00636
 131        3PX         0.00009   0.00004  -0.00020  -0.12933  -0.00037
 132        3PY         0.00013   0.00008  -0.00388  -0.03658   0.00161
 133        3PZ        -0.00006   0.00002  -0.00243   0.10711   0.00128
 134        4S         -0.00124   0.00065   0.10885  -0.00001  -0.00758
 135        4PX         0.00061  -0.00008   0.00221   0.05339  -0.00085
 136        4PY        -0.00033  -0.00017  -0.00014   0.01474   0.00242
 137        4PZ        -0.00064  -0.00005  -0.00218  -0.04447   0.00231
 138        5S          0.00059   0.00064   0.03015   0.00079  -0.01287
 139        5PX        -0.00029   0.00031   0.00210  -0.00565  -0.00246
 140        5PY        -0.00001   0.00001   0.00373  -0.00163  -0.00364
 141        5PZ         0.00023   0.00038   0.00106   0.00441   0.00167
 142        6D 0        0.00002  -0.00001   0.00477  -0.00068  -0.00032
 143        6D+1        0.00007   0.00002  -0.04647   0.00023   0.00128
 144        6D-1        0.00000  -0.00003  -0.01343  -0.00068   0.00091
 145        6D+2       -0.00000  -0.00000   0.02606  -0.00004  -0.00127
 146        6D-2       -0.00004  -0.00001   0.01578   0.00100  -0.00030
 147 12  O  1S          0.00000   0.00000  -0.07348  -0.08067   0.00117
 148        2S          0.00001   0.00000  -0.11685  -0.12926   0.00186
 149        2PX        -0.00000   0.00000   0.04539   0.04697  -0.00066
 150        2PY        -0.00001   0.00000   0.01357   0.01442   0.00030
 151        2PZ        -0.00000   0.00001  -0.03715  -0.03821   0.00081
 152        3S         -0.00012  -0.00001   0.33017   0.37169  -0.00542
 153        3PX         0.00002  -0.00000   0.05680   0.07206  -0.00063
 154        3PY         0.00002  -0.00001   0.01650   0.02215   0.00036
 155        3PZ         0.00000  -0.00004  -0.04682  -0.05857   0.00083
 156        4S          0.00090  -0.00000   0.20162   0.28338  -0.00323
 157        4PX         0.00028   0.00003   0.01830   0.02989   0.00022
 158        4PY         0.00008   0.00003   0.00553   0.00929   0.00071
 159        4PZ        -0.00029   0.00012  -0.01496  -0.02437   0.00010
 160        5S          0.00052  -0.00040  -0.03300   0.02960   0.00320
 161        5PX         0.00026  -0.00018  -0.00674   0.01187   0.00126
 162        5PY         0.00048   0.00005  -0.00344   0.00386   0.00089
 163        5PZ         0.00010  -0.00016   0.00418  -0.00936  -0.00101
 164        6D 0        0.00000  -0.00000   0.00084   0.00107  -0.00008
 165        6D+1       -0.00003  -0.00000  -0.00816  -0.01388   0.00003
 166        6D-1       -0.00001   0.00000  -0.00237  -0.00441   0.00000
 167        6D+2        0.00001   0.00000   0.00458   0.00780  -0.00008
 168        6D-2        0.00001   0.00000   0.00276   0.00533   0.00010
 169 13  O  1S         -0.00000   0.00000  -0.07395   0.08023   0.00161
 170        2S         -0.00001   0.00000  -0.11762   0.12856   0.00259
 171        2PX        -0.00000   0.00000  -0.04541   0.04633   0.00113
 172        2PY         0.00000  -0.00001  -0.01208   0.01194   0.00096
 173        2PZ         0.00001  -0.00000   0.03812  -0.03914  -0.00056
 174        3S          0.00012  -0.00001   0.33244  -0.36959  -0.00786
 175        3PX         0.00001  -0.00001  -0.05716   0.07121   0.00124
 176        3PY        -0.00001   0.00004  -0.01570   0.01831   0.00093
 177        3PZ        -0.00003   0.00001   0.04763  -0.06015  -0.00066
 178        4S         -0.00046   0.00023   0.20139  -0.28263  -0.00259
 179        4PX        -0.00004   0.00004  -0.01736   0.02932  -0.00006
 180        4PY        -0.00003  -0.00010  -0.00435   0.00730   0.00177
 181        4PZ         0.00006  -0.00005   0.01491  -0.02511   0.00124
 182        5S          0.00047  -0.00149  -0.04017  -0.02888   0.00768
 183        5PX         0.00013   0.00015   0.00717   0.01238  -0.00417
 184        5PY         0.00036  -0.00024   0.00052   0.00383  -0.00347
 185        5PZ        -0.00009  -0.00057  -0.00733  -0.00970   0.00145
 186        6D 0        0.00001  -0.00000   0.00086  -0.00183   0.00002
 187        6D+1       -0.00001   0.00000  -0.00821   0.01423   0.00004
 188        6D-1       -0.00000  -0.00002  -0.00236   0.00365   0.00019
 189        6D+2        0.00001   0.00000   0.00461  -0.00791  -0.00011
 190        6D-2       -0.00001  -0.00001   0.00279  -0.00423  -0.00008
                          11        12        13        14        15
                           O         O         O         O         O
     Eigenvalues --    -1.02896  -0.75015  -0.61759  -0.56726  -0.54896
   1 1   O  1S          0.06968   0.02901  -0.01862   0.00006  -0.00911
   2        2S          0.11148   0.04677  -0.03010   0.00010  -0.01489
   3        2PX         0.00788   0.06440  -0.06841   0.00155   0.14610
   4        2PY        -0.02469   0.00396  -0.03166  -0.00271  -0.01888
   5        2PZ         0.01358  -0.01573   0.04161  -0.00046  -0.02446
   6        3S         -0.32240  -0.13988   0.09068  -0.00043   0.04631
   7        3PX         0.01139   0.09466  -0.10022   0.00217   0.21107
   8        3PY        -0.03932   0.00567  -0.04618  -0.00467  -0.02548
   9        3PZ         0.02177  -0.02318   0.06099  -0.00092  -0.03634
  10        4S         -0.24137  -0.11935   0.07956   0.00290   0.05822
  11        4PX        -0.00181   0.05000  -0.05460   0.00257   0.14163
  12        4PY        -0.01732   0.00407  -0.03688  -0.00138  -0.02280
  13        4PZ         0.01252  -0.01150   0.04102  -0.00070  -0.02167
  14        5S          0.03045  -0.01781   0.02707   0.00065  -0.00220
  15        5PX         0.00058  -0.01465  -0.01158   0.00199  -0.00504
  16        5PY         0.00426  -0.00146   0.00683  -0.00059  -0.00149
  17        5PZ        -0.00265   0.00236  -0.00086  -0.00000   0.00461
  18        6D 0        0.00324   0.00181  -0.00294   0.00004   0.00327
  19        6D+1        0.00200  -0.00321   0.00321   0.00005  -0.00554
  20        6D-1        0.00353  -0.00168   0.00535   0.00020  -0.00113
  21        6D+2       -0.00209  -0.00172   0.00556  -0.00016  -0.00101
  22        6D-2        0.00089   0.00694  -0.00665   0.00025   0.01092
  23 2   C  1S          0.01803  -0.07347   0.06606  -0.00062   0.00646
  24        2S          0.02772  -0.11426   0.10360  -0.00099   0.00973
  25        2PX         0.02568   0.04484   0.04404   0.00150  -0.02301
  26        2PY         0.01508  -0.00265  -0.02710   0.00174  -0.08272
  27        2PZ        -0.01426  -0.00030   0.02342   0.00169   0.05386
  28        3S         -0.07318   0.30805  -0.28704   0.00355  -0.02404
  29        3PX         0.04429   0.06687   0.07256   0.00259  -0.03580
  30        3PY         0.02505  -0.01320  -0.03241   0.00185  -0.12555
  31        3PZ        -0.02436   0.00727   0.02800   0.00204   0.08220
  32        4S          0.01248   0.18346  -0.17803  -0.00180  -0.02393
  33        4PX         0.01795   0.01710   0.03600   0.00053  -0.00884
  34        4PY        -0.00612  -0.00224  -0.02999   0.00418  -0.06604
  35        4PZ         0.00169   0.00128   0.02318  -0.00114   0.03988
  36        5S         -0.15732  -0.00517  -0.11108  -0.00714  -0.05321
  37        5PX        -0.02949   0.00419  -0.02475  -0.00366  -0.01297
  38        5PY         0.01741   0.01058   0.00490   0.00183   0.00184
  39        5PZ        -0.01094  -0.00768  -0.00386  -0.00278  -0.00142
  40        6D 0        0.00065  -0.00290  -0.00399  -0.00016   0.00069
  41        6D+1        0.00926   0.00558   0.00644   0.00035  -0.00430
  42        6D-1        0.00750  -0.00229  -0.00059  -0.00003  -0.01723
  43        6D+2        0.00067   0.00279   0.00741   0.00005  -0.00796
  44        6D-2       -0.00997  -0.00653  -0.00846   0.00020   0.00724
  45 3   C  1S         -0.02743  -0.07261  -0.06694  -0.00057  -0.00507
  46        2S         -0.04220  -0.11292  -0.10497  -0.00090  -0.00755
  47        2PX         0.02913  -0.04563   0.04157  -0.00025  -0.02158
  48        2PY         0.01919   0.00245  -0.02747   0.00445  -0.07609
  49        2PZ        -0.01919   0.00032   0.02316   0.00115   0.05723
  50        3S          0.11052   0.30451   0.29070   0.00243   0.01757
  51        3PX         0.04959  -0.06793   0.06905  -0.00090  -0.03345
  52        3PY         0.03321   0.01286  -0.03333   0.00632  -0.11578
  53        3PZ        -0.03323  -0.00783   0.02710   0.00084   0.08780
  54        4S         -0.00044   0.18015   0.17991   0.00661   0.01955
  55        4PX         0.01857  -0.01987   0.03405  -0.00174  -0.00927
  56        4PY        -0.00237   0.00085  -0.02795   0.00263  -0.05845
  57        4PZ         0.00285   0.00016   0.02553   0.00594   0.04464
  58        5S          0.15833   0.02573   0.10969   0.00322   0.04295
  59        5PX        -0.02925  -0.01236  -0.02553  -0.00218  -0.00943
  60        5PY         0.01656  -0.00788   0.00460   0.00007   0.00100
  61        5PZ        -0.01494   0.00752  -0.00154   0.00742   0.00124
  62        6D 0       -0.00109  -0.00258   0.00458   0.00028  -0.00255
  63        6D+1       -0.01195   0.00574  -0.00629  -0.00007   0.00555
  64        6D-1       -0.01002  -0.00236   0.00046  -0.00045   0.01694
  65        6D+2        0.00148   0.00309  -0.00712   0.00020   0.00693
  66        6D-2        0.01205  -0.00680   0.00791   0.00018  -0.00502
  67 4   H  1S         -0.00629   0.05009  -0.07293   0.00181  -0.05018
  68        2S         -0.01212   0.05921  -0.09106   0.00278  -0.06014
  69        3S          0.00830  -0.00557  -0.00116  -0.00094  -0.00550
  70        4PX         0.00077   0.00363   0.00022   0.00016  -0.00237
  71        4PY         0.00333  -0.01046   0.01153  -0.00044   0.00323
  72        4PZ        -0.00008  -0.00280   0.00472   0.00009   0.00471
  73 5   H  1S         -0.00570   0.05044  -0.07392  -0.00141  -0.03544
  74        2S         -0.01399   0.05949  -0.09291  -0.00201  -0.04297
  75        3S          0.01015  -0.00463  -0.00054  -0.00078  -0.00176
  76        4PX         0.00066   0.00411  -0.00061   0.00000  -0.00258
  77        4PY         0.00067   0.00096  -0.00279   0.00036  -0.00469
  78        4PZ        -0.00365   0.01067  -0.01232  -0.00005  -0.00239
  79 6   O  1S         -0.09032   0.02903   0.01915  -0.00014   0.00798
  80        2S         -0.14451   0.04681   0.03096  -0.00024   0.01306
  81        2PX         0.01003  -0.06397  -0.06900  -0.00380   0.14127
  82        2PY        -0.02815  -0.00631  -0.03346   0.00085  -0.00656
  83        2PZ         0.02403   0.01062   0.03617   0.00137  -0.01019
  84        3S          0.41828  -0.14001  -0.09346   0.00078  -0.04088
  85        3PX         0.01425  -0.09411  -0.10113  -0.00534   0.20419
  86        3PY        -0.04488  -0.00924  -0.04893   0.00145  -0.00813
  87        3PZ         0.03849   0.01557   0.05295   0.00203  -0.01618
  88        4S          0.30867  -0.11865  -0.08084   0.00081  -0.05031
  89        4PX        -0.00242  -0.04864  -0.05408  -0.00421   0.13538
  90        4PY        -0.02064  -0.00517  -0.03650  -0.00001  -0.00996
  91        4PZ         0.01822   0.00835   0.03749   0.00166  -0.00685
  92        5S         -0.03939  -0.01411  -0.02672   0.00738   0.00715
  93        5PX         0.00192   0.01075  -0.01254  -0.00128  -0.00436
  94        5PY         0.00528  -0.00059   0.00412  -0.00080  -0.00183
  95        5PZ        -0.00466  -0.00051  -0.00270  -0.00134   0.00102
  96        6D 0       -0.00302   0.00162   0.00322   0.00019  -0.00242
  97        6D+1       -0.00112  -0.00476  -0.00458  -0.00028   0.00774
  98        6D-1       -0.00553  -0.00114  -0.00495  -0.00006   0.00042
  99        6D+2        0.00394  -0.00220  -0.00575   0.00004   0.00195
 100        6D-2       -0.00008   0.00579   0.00571   0.00021  -0.00894
 101 7   H  1S          0.00976   0.04967   0.07370  -0.00381   0.04625
 102        2S          0.01843   0.05899   0.09247  -0.00638   0.05680
 103        3S         -0.00655  -0.00799   0.00285  -0.00206   0.00993
 104        4PX         0.00062  -0.00349   0.00017   0.00059  -0.00271
 105        4PY         0.00523   0.01052   0.01183   0.00019   0.00290
 106        4PZ         0.00005   0.00249   0.00433   0.00045   0.00443
 107 8   H  1S          0.00979   0.04953   0.07418   0.00157   0.03482
 108        2S          0.01828   0.05864   0.09245   0.00045   0.04087
 109        3S         -0.00864  -0.00784  -0.00003  -0.00520   0.00633
 110        4PX         0.00027  -0.00420  -0.00077  -0.00002  -0.00229
 111        4PY         0.00036  -0.00123  -0.00316   0.00025  -0.00447
 112        4PZ        -0.00523  -0.01044  -0.01216  -0.00007  -0.00205
 113 9   H  1S          0.07491  -0.06061  -0.05322  -0.00247   0.09402
 114        2S          0.05940  -0.05998  -0.06742  -0.00360   0.11450
 115        3S          0.00558  -0.01074   0.00503   0.00044   0.03639
 116        4PX        -0.01879   0.01058   0.00747   0.00041  -0.01317
 117        4PY         0.00415  -0.00493  -0.00762   0.00003   0.00483
 118        4PZ        -0.00206   0.00345   0.00614   0.00019  -0.00356
 119 10  H  1S         -0.05816  -0.06112   0.05314  -0.00215  -0.09919
 120        2S         -0.04521  -0.05986   0.06679  -0.00195  -0.12043
 121        3S         -0.00444  -0.01210  -0.00407   0.00223  -0.03912
 122        4PX        -0.01393  -0.01022   0.00707  -0.00039  -0.01352
 123        4PY         0.00470   0.00654  -0.00913  -0.00038   0.00690
 124        4PZ         0.00046  -0.00128   0.00402  -0.00024  -0.00084
 125 11  C  1S         -0.00091   0.00051   0.00011  -0.07591  -0.00080
 126        2S         -0.00143   0.00080   0.00019  -0.12046  -0.00127
 127        2PX         0.00000  -0.00102   0.00166   0.00039   0.00148
 128        2PY        -0.00069  -0.00087   0.00326  -0.00189   0.00455
 129        2PZ        -0.00033   0.00099   0.00266  -0.00205   0.01641
 130        3S          0.00439  -0.00240  -0.00130   0.37464   0.00366
 131        3PX        -0.00036  -0.00188   0.00247   0.00039   0.00307
 132        3PY        -0.00168  -0.00180   0.00507  -0.00366   0.00733
 133        3PZ        -0.00079   0.00140   0.00400  -0.00321   0.02397
 134        4S          0.00557   0.00013   0.00393   0.26226   0.00164
 135        4PX        -0.00186  -0.00188   0.00306   0.00125   0.00268
 136        4PY        -0.00090  -0.00083   0.00406  -0.00115   0.00467
 137        4PZ         0.00213   0.00228   0.00075  -0.00302   0.01244
 138        5S          0.00490  -0.00235  -0.00116   0.00014  -0.00064
 139        5PX        -0.00072  -0.00040  -0.00102   0.00061   0.00203
 140        5PY         0.00126   0.00027   0.00032  -0.00443   0.00187
 141        5PZ         0.00121  -0.00216   0.00003  -0.00382   0.00125
 142        6D 0        0.00026  -0.00007   0.00004   0.00172  -0.00062
 143        6D+1       -0.00092   0.00006   0.00017  -0.01643   0.00068
 144        6D-1       -0.00069  -0.00031   0.00073  -0.00493  -0.00009
 145        6D+2        0.00092   0.00025  -0.00014   0.00936  -0.00010
 146        6D-2        0.00027   0.00039  -0.00020   0.00551   0.00121
 147 12  O  1S         -0.00094  -0.00056   0.00053   0.05029   0.00214
 148        2S         -0.00152  -0.00093   0.00088   0.08195   0.00345
 149        2PX         0.00051   0.00025   0.00056   0.11694   0.01311
 150        2PY        -0.00027  -0.00089   0.00331   0.03501   0.00512
 151        2PZ        -0.00065  -0.00054   0.00254  -0.09573   0.00205
 152        3S          0.00466   0.00328  -0.00293  -0.25071  -0.01008
 153        3PX         0.00064   0.00039   0.00085   0.15931   0.01893
 154        3PY        -0.00022  -0.00122   0.00479   0.04773   0.00764
 155        3PZ        -0.00069  -0.00064   0.00373  -0.13044   0.00359
 156        4S          0.00042  -0.00090  -0.00169  -0.31728  -0.01627
 157        4PX        -0.00144  -0.00129   0.00107   0.09425   0.01157
 158        4PY        -0.00126  -0.00158   0.00400   0.02776   0.00417
 159        4PZ         0.00045   0.00002   0.00242  -0.07727   0.00388
 160        5S         -0.00659  -0.00103   0.00377  -0.05428  -0.00408
 161        5PX        -0.00073   0.00037   0.00129   0.00234   0.00002
 162        5PY        -0.00083  -0.00166   0.00059   0.00311  -0.00208
 163        5PZ         0.00072   0.00050  -0.00055  -0.00007  -0.00169
 164        6D 0        0.00006   0.00006  -0.00042   0.00097  -0.00132
 165        6D+1       -0.00000  -0.00002   0.00023  -0.00992  -0.00034
 166        6D-1        0.00000  -0.00001  -0.00008  -0.00284  -0.00037
 167        6D+2        0.00005   0.00011  -0.00012   0.00547   0.00107
 168        6D-2       -0.00009  -0.00010   0.00039   0.00350   0.00101
 169 13  O  1S         -0.00100  -0.00012   0.00026   0.05073  -0.00044
 170        2S         -0.00159  -0.00016   0.00042   0.08264  -0.00066
 171        2PX        -0.00060   0.00189   0.00193  -0.11860   0.01280
 172        2PY        -0.00064   0.00125   0.00139  -0.03191   0.00928
 173        2PZ         0.00029  -0.00053   0.00239   0.09874   0.00706
 174        3S          0.00460  -0.00006  -0.00123  -0.25259   0.00114
 175        3PX        -0.00071   0.00267   0.00273  -0.16162   0.01844
 176        3PY        -0.00051   0.00174   0.00219  -0.04340   0.01336
 177        3PZ         0.00035  -0.00068   0.00345   0.13462   0.01052
 178        4S          0.00377   0.00380  -0.00266  -0.32208   0.00795
 179        4PX         0.00047   0.00128   0.00304  -0.09589   0.01205
 180        4PY        -0.00122   0.00206   0.00124  -0.02692   0.01094
 181        4PZ        -0.00057   0.00067   0.00259   0.07870   0.01104
 182        5S         -0.00123   0.00349  -0.00276  -0.06205   0.00763
 183        5PX        -0.00126   0.00008   0.00203   0.00183  -0.00134
 184        5PY        -0.00052   0.00084  -0.00099   0.00439  -0.00013
 185        5PZ        -0.00090   0.00107  -0.00110   0.00175   0.00070
 186        6D 0       -0.00002  -0.00003   0.00043   0.00106   0.00159
 187        6D+1        0.00002   0.00024  -0.00002  -0.01021   0.00021
 188        6D-1       -0.00012   0.00015   0.00020  -0.00280   0.00070
 189        6D+2        0.00006  -0.00021  -0.00000   0.00565  -0.00101
 190        6D-2        0.00009   0.00004  -0.00018   0.00339  -0.00095
                          16        17        18        19        20
                           O         O         O         O         O
     Eigenvalues --    -0.52617  -0.52024  -0.51799  -0.49672  -0.48609
   1 1   O  1S         -0.00035  -0.00068  -0.00049   0.01942  -0.01109
   2        2S         -0.00058  -0.00102  -0.00079   0.03167  -0.01808
   3        2PX         0.01048  -0.00119  -0.00387  -0.10221   0.09261
   4        2PY         0.00502  -0.03929  -0.00300   0.05179   0.00999
   5        2PZ         0.00389  -0.01734   0.00320   0.03114   0.04117
   6        3S          0.00199   0.00084   0.00248  -0.09801   0.05566
   7        3PX         0.01544  -0.00206  -0.00580  -0.14707   0.13374
   8        3PY         0.00753  -0.05660  -0.00424   0.07369   0.01609
   9        3PZ         0.00556  -0.02509   0.00449   0.04643   0.06029
  10        4S          0.00272   0.01476   0.00167  -0.12346   0.07565
  11        4PX         0.01035  -0.00533  -0.00172  -0.10360   0.09496
  12        4PY         0.00570  -0.04767  -0.00483   0.05586   0.01482
  13        4PZ         0.00525  -0.02447   0.00420   0.03562   0.05063
  14        5S          0.00303   0.00777   0.01271  -0.05124  -0.00098
  15        5PX        -0.00086  -0.00819  -0.00397   0.00408   0.00189
  16        5PY        -0.00107   0.00223   0.00298  -0.00805  -0.00572
  17        5PZ        -0.00095   0.00104   0.00076   0.00416   0.00571
  18        6D 0       -0.00050   0.00248  -0.00015  -0.00558  -0.00343
  19        6D+1       -0.00020  -0.00035  -0.00001   0.00485  -0.00146
  20        6D-1       -0.00005   0.00092   0.00016   0.00030   0.00249
  21        6D+2       -0.00039   0.00140  -0.00008  -0.00222  -0.00311
  22        6D-2        0.00098  -0.00016  -0.00041  -0.00624   0.00817
  23 2   C  1S         -0.00056   0.00048  -0.00051  -0.01371   0.00840
  24        2S         -0.00097   0.00088  -0.00079  -0.02127   0.01310
  25        2PX        -0.00026   0.00632   0.00213  -0.00393   0.01172
  26        2PY         0.00273  -0.01979   0.00357   0.10265   0.02518
  27        2PZ         0.01428  -0.03494  -0.00405   0.01534   0.11928
  28        3S          0.00393  -0.00368   0.00188   0.05470  -0.03498
  29        3PX        -0.00066   0.00981   0.00268  -0.00398   0.01612
  30        3PY         0.00260  -0.02770   0.00524   0.15409   0.03579
  31        3PZ         0.02123  -0.05215  -0.00629   0.02099   0.17789
  32        4S          0.00025  -0.00388   0.00278   0.08091  -0.04095
  33        4PX        -0.00030   0.00717   0.00066  -0.02345   0.02057
  34        4PY         0.00901  -0.02563   0.00317   0.07946   0.02615
  35        4PZ         0.01355  -0.02893  -0.00522   0.03072   0.10073
  36        5S          0.00435  -0.01622  -0.05145   0.05498   0.00701
  37        5PX         0.00129   0.00747  -0.01778  -0.00465   0.01123
  38        5PY         0.00389   0.00028   0.00485  -0.00715   0.00566
  39        5PZ         0.00098  -0.00544  -0.00322   0.01445   0.00362
  40        6D 0       -0.00034   0.00017   0.00000   0.00082  -0.00354
  41        6D+1       -0.00042   0.00198  -0.00025   0.00744  -0.00446
  42        6D-1       -0.00138   0.00124   0.00078   0.01338  -0.01004
  43        6D+2       -0.00021  -0.00154   0.00004  -0.00080  -0.00244
  44        6D-2        0.00059  -0.00010  -0.00042  -0.01002   0.00800
  45 3   C  1S         -0.00146   0.00421   0.00242  -0.01215   0.00962
  46        2S         -0.00228   0.00663   0.00376  -0.01880   0.01502
  47        2PX        -0.00154  -0.00337  -0.00036   0.00521  -0.00770
  48        2PY         0.00447  -0.00709   0.00430  -0.01220   0.11399
  49        2PZ         0.01318  -0.03383  -0.00977   0.10308   0.05468
  50        3S          0.00613  -0.01873  -0.01001   0.04811  -0.03945
  51        3PX        -0.00294  -0.00330  -0.00015   0.00594  -0.01024
  52        3PY         0.00607  -0.00973   0.00653  -0.02034   0.17021
  53        3PZ         0.01904  -0.04977  -0.01442   0.15518   0.08003
  54        4S          0.01053  -0.02152  -0.01359   0.06731  -0.05573
  55        4PX        -0.00173  -0.00921  -0.00439   0.02314  -0.01931
  56        4PY         0.00072  -0.00634   0.00537  -0.00167   0.09672
  57        4PZ         0.01260  -0.02852  -0.00838   0.07611   0.05752
  58        5S         -0.00741   0.00270   0.04613  -0.04325  -0.02312
  59        5PX         0.00197  -0.00489  -0.00896   0.02760  -0.00334
  60        5PY        -0.00262   0.00034   0.00869   0.00626   0.00263
  61        5PZ         0.00400  -0.00440  -0.00740   0.00304   0.01275
  62        6D 0        0.00016  -0.00042  -0.00033   0.00129   0.00122
  63        6D+1        0.00030   0.00005  -0.00064   0.00850  -0.00505
  64        6D-1        0.00099  -0.00300  -0.00166   0.01489  -0.00919
  65        6D+2        0.00090  -0.00109  -0.00071   0.00139   0.00149
  66        6D-2       -0.00035   0.00140   0.00033  -0.01027   0.00571
  67 4   H  1S          0.00489  -0.02054   0.00213   0.09096   0.03074
  68        2S          0.00478  -0.02379   0.00237   0.11123   0.04108
  69        3S         -0.00314   0.00231   0.00130   0.02948   0.00937
  70        4PX         0.00015  -0.00029   0.00020   0.00090   0.00253
  71        4PY        -0.00076   0.00260  -0.00007  -0.00725  -0.00421
  72        4PZ         0.00047  -0.00089  -0.00023  -0.00253   0.00463
  73 5   H  1S         -0.01050   0.02545   0.00255  -0.00269  -0.09928
  74        2S         -0.01193   0.03302   0.00108  -0.00288  -0.12434
  75        3S         -0.00167   0.01158  -0.00102   0.00668  -0.02632
  76        4PX        -0.00031   0.00089   0.00040  -0.00161  -0.00212
  77        4PY         0.00033  -0.00157   0.00066   0.00466  -0.00038
  78        4PZ        -0.00058   0.00222   0.00006  -0.00051  -0.00851
  79 6   O  1S          0.00074  -0.00309  -0.00176   0.01761  -0.01347
  80        2S          0.00121  -0.00503  -0.00286   0.02872  -0.02197
  81        2PX         0.00842  -0.02208  -0.01269   0.12617  -0.06879
  82        2PY         0.00285  -0.00394   0.00146   0.00460   0.06246
  83        2PZ         0.00423  -0.01274  -0.00271   0.03275   0.03554
  84        3S         -0.00376   0.01544   0.00866  -0.08855   0.06781
  85        3PX         0.01229  -0.03193  -0.01843   0.18191  -0.09892
[...]
   || (z)    -0.115518D+02     -0.997986D-01     -0.370393D-01
   _|_(z)    -0.385060D+01     -0.332662D-01     -0.123464D-01
   x         -0.874108D+02     -0.755161D+00     -0.280270D+00
   y         -0.246859D+03     -0.213267D+01     -0.791518D+00
   z         -0.577590D+02     -0.498993D+00     -0.185196D+00
   ||         0.536343D+02      0.463359D+00      0.171971D+00
   xxx       -0.702010D+01     -0.606482D-01     -0.225090D-01
   xxy       -0.660138D+01     -0.570308D-01     -0.211664D-01
   yxy       -0.194979D+02     -0.168447D+00     -0.625174D-01
   yyy       -0.655631D+02     -0.566415D+00     -0.210219D+00
   xxz        0.363704D+01      0.314212D-01      0.116617D-01
   yxz       -0.490715D+01     -0.423939D-01     -0.157341D-01
   yyz       -0.192653D+02     -0.166437D+00     -0.617715D-01
   zxz       -0.261889D+01     -0.226251D-01     -0.839710D-02
   zyz       -0.101217D+02     -0.874436D-01     -0.324538D-01
   zzz       -0.362475D+01     -0.313150D-01     -0.116223D-01

 ----------------------------------------------------------------------

 Dipole orientation:
     8          4.04088962         -2.03715803          0.83185085
     6          5.84226666         -0.06103334          1.24428150
     6          8.41972763         -1.29463554          1.48299324
     1          5.40393365          0.98606073          2.97395023
     1          5.85045455          1.26427374         -0.34671400
     8         10.22965863          0.69069263          1.78718583
     1          8.81468534         -2.40138975         -0.22030219
     1          8.43477016         -2.56736928          3.11653723
     1         11.88644398         -0.05160404          1.89780960
     1          2.36955137         -1.36138994          1.07295573
     6          4.11205107         -3.72143171         -4.18888194
     8          2.30468081         -4.92252719         -3.86921988
     8          5.92028664         -2.54708036         -4.59430841

 Electric dipole moment (dipole orientation):
 (Debye = 10**-18 statcoulomb cm , SI units = C m)
                  (au)            (Debye)         (10**-30 SI)
   Tot        0.268652D+00      0.682846D+00      0.227773D+01
   x          0.000000D+00      0.000000D+00      0.000000D+00
   y          0.000000D+00      0.000000D+00      0.000000D+00
   z          0.268652D+00      0.682846D+00      0.227773D+01

 Dipole polarizability, Alpha (dipole orientation).
 (esu units = cm**3 , SI units = C**2 m**2 J**-1)
 Alpha(0;0):
               (au)            (10**-24 esu)      (10**-40 SI)
   iso        0.608554D+02      0.901784D+01      0.100337D+02
   aniso      0.247237D+02      0.366368D+01      0.407639D+01
   xx         0.700368D+02      0.103784D+02      0.115475D+02
   yx         0.111529D+02      0.165268D+01      0.183886D+01
   yy         0.600795D+02      0.890286D+01      0.990577D+01
   zx        -0.123385D+01     -0.182838D+00     -0.203435D+00
   zy        -0.264664D+00     -0.392192D-01     -0.436373D-01
   zz         0.524500D+02      0.777228D+01      0.864783D+01

 First dipole hyperpolarizability, Beta (dipole orientation).
 ||, _|_  parallel and perpendicular components, (z) with respect to z axis,
 vector components x,y,z.  Values do not include the 1/n! factor of 1/2.
 (esu units = statvolt**-1 cm**4 , SI units = C**3 m**3 J**-2)
 Beta(0;0,0):
               (au)            (10**-30 esu)      (10**-50 SI)
   || (z)    -0.455011D+02     -0.393094D+00     -0.145893D+00
   _|_(z)    -0.151670D+02     -0.131031D+00     -0.486309D-01
   x         -0.614738D+02     -0.531086D+00     -0.197107D+00
   y         -0.127978D+03     -0.110563D+01     -0.410342D+00
   z         -0.227505D+03     -0.196547D+01     -0.729464D+00
   ||         0.536343D+02      0.463359D+00      0.171971D+00
   xxx       -0.772089D+01     -0.667025D-01     -0.247560D-01
   xxy       -0.513170D+01     -0.443339D-01     -0.164541D-01
   yxy       -0.389044D+01     -0.336104D-01     -0.124742D-01
   yyy       -0.110599D+02     -0.955493D-01     -0.354622D-01
   xxz       -0.318314D+00     -0.274998D-02     -0.102063D-02
   yxz       -0.618900D+01     -0.534682D-01     -0.198442D-01
   yyz       -0.137309D+02     -0.118625D+00     -0.440263D-01
   zxz       -0.887993D+01     -0.767157D-01     -0.284723D-01
   zyz       -0.264676D+02     -0.228659D+00     -0.848646D-01
   zzz       -0.617859D+02     -0.533782D+00     -0.198108D+00

 ----------------------------------------------------------------------
 Unable to Open any file for archive entry.
 1\1\GINC-NODE1686\Freq\RB3LYP\6-311+G(d,p)\C3H6O4\SVICCHI\12-Jun-2023\
 0\\#p freq=raman scale=0.967 pop=(nbo,full,hirshfeld) guess=read geom=
 allcheck b3lyp/6-311+G(d,p) int=grid=ultrafine EmpiricalDispersion=GD3
 BJ SCRF=(Solvent=ethanol) scf=(xqc,intrep,maxconventionalcycle=350) no
 symm\\EG-CO2_binding_direct-site_index-0.gjf\\0,1\O,2.2452785763,-0.58
 78992009,0.73588054\C,3.1517216383,0.2432936905,0.0028568723\C,4.55786
 54651,-0.2160314626,0.3407799474\H,3.0283055287,1.2948799394,0.2813163
 976\H,2.9814955747,0.1445315256,-1.0750892018\O,5.4596472424,0.5779195
 256,-0.4360180343\H,4.6628208574,-1.2785972901,0.0977744701\H,4.741892
 9211,-0.0825350864,1.4128000378\H,6.3583078978,0.2856174376,-0.2533895
 341\H,1.3699180263,-0.1887097843,0.7080877938\C,1.9307889765,-3.093229
 7696,-0.4803031992\O,1.0545264783,-3.3614269897,0.232132003\O,2.801427
 8171,-2.8670595352,-1.2142410926\\Version=ES64L-G16RevC.01\HF=-419.004
 2195\RMSD=4.826e-09\RMSF=4.552e-06\ZeroPoint=0.0937498\Thermal=0.10367
 48\ETot=-418.9005447\HTot=-418.8996005\GTot=-418.9486718\Dipole=0.0413
 33,0.1894482,0.1859434\DipoleDeriv=-0.8728072,-0.3153068,0.2195874,-0.
 3040714,-0.7044296,0.0307884,0.2100279,0.0154587,-0.748354,0.6251086,0
 .2808959,-0.2317592,0.2780962,0.542792,-0.1049092,-0.2380007,-0.109886
 5,0.5750569,0.6272761,0.2835361,-0.2574893,0.2875196,0.5404477,-0.1067
 951,-0.2603245,-0.0950782,0.5944945,-0.0044476,0.0097979,0.0235159,-0.
 0051394,-0.219623,-0.0143553,0.0386672,-0.066206,0.0322546,-0.0112656,
 -0.0223212,-0.0275218,-0.028534,0.0386595,-0.0225448,-0.0106223,0.0372
 445,-0.2317824,-0.8958168,-0.3005077,0.2782679,-0.2854042,-0.6773553,0
 .0369513,0.2612689,0.0346617,-0.7227021,0.0100609,0.0153231,0.0263841,
 -0.0109254,-0.2112553,0.0073411,0.0472331,-0.042589,0.0266398,-0.01508
 51,-0.022758,-0.0255675,-0.0436437,0.0349805,-0.0242074,-0.0119962,0.0
 256486,-0.2416101,0.2825651,0.0344414,-0.0195936,0.0542032,0.317908,0.
 0912522,-0.032876,0.0927723,0.3481116,0.2886238,0.0383765,0.0011665,0.
 0442393,0.2827159,0.0736086,-0.0188597,0.077727,0.3763687,2.0421531,0.
 4775958,-1.1279684,0.4632489,0.9677383,-0.2478567,-1.1473528,-0.276816
 8,1.5887055,-1.0489989,-0.2728168,0.5601715,-0.2546905,-0.4704204,0.16
 60446,0.5735499,0.1905017,-0.7705075,-1.0273663,-0.2062562,0.5808065,-
 0.1948985,-0.4421583,0.1146823,0.5892853,0.116562,-0.8266755\Polar=67.
 8002449,5.4911835,55.1645231,-10.74009,-4.1420744,59.601414\PolarDeriv
 =3.1214695,-3.723938,0.946285,1.4384252,-0.0287181,0.3015322,-6.381239
 4,-1.8090993,-4.9511283,0.6786812,1.2446298,-1.4695416,1.6258155,0.784
 6612,0.2257957,-2.119242,-1.4449179,1.175388,-2.1088785,2.5576034,1.16
 36194,-1.9042715,0.0663646,1.5095399,3.0777875,2.4820102,-11.5034748,-
 0.8226073,-2.5201553,1.6805869,-2.4392023,-0.7747699,-4.1913066,3.0169
 762,-0.7377338,11.6752745,1.9817265,-2.5804996,-0.1203035,2.0244932,0.
 0364442,-1.1540673,-2.1585524,-2.2015178,10.9805508,0.890832,1.7855691
 ,-2.093304,2.5324594,0.7546812,3.800912,-3.5623487,0.009934,-11.613594
 8,-0.1332591,2.0713083,-0.3092171,0.5712536,-0.3002698,-0.7205463,1.65
 03623,-1.2562277,13.0934124,-0.0485997,1.2593766,0.8026755,1.4694861,-
 0.1571916,2.812923,-0.733006,2.101131,0.1384241,-0.3928006,-0.4342548,
 -0.7575664,-2.1581575,-0.1636952,-0.6109395,-1.2409387,-0.7220302,0.62
 43181,-0.1397792,-1.6275225,-1.0094833,-2.1309479,-0.074523,-0.9978486
 ,-1.7196939,0.774322,-13.2620672,-3.9200973,3.6134216,-0.7784837,-2.78
 808,0.185803,-0.4764161,4.779736,2.0086481,3.0264201,-0.8872705,-1.990
 6703,1.3724144,-3.7159372,-0.7721879,-1.3341423,2.2573305,1.7524181,-2
 .3258359,-0.2033712,-2.3020346,-0.4681415,-0.6581809,0.2559926,0.61671
 71,-2.252048,0.6895615,-13.0673369,-0.0906265,-0.715899,-0.8710341,-1.
 5449229,0.0332346,-2.4142923,0.6596072,-1.9462414,0.2268957,0.6543337,
 0.4898748,0.557039,2.3148266,0.2160154,0.4569891,1.2785531,0.7068898,-
 0.4740825,0.0554986,1.7450709,1.5560204,2.1597036,0.0962436,0.7883419,
 1.9714722,-0.2063252,13.4149219,11.287488,-0.6909891,1.1781729,-0.1098
 323,-0.5348739,0.9733709,-2.4599553,1.3203336,-0.2726242,-0.1469502,0.
 0968988,-0.7857161,1.163032,-0.2103428,0.5819022,1.083006,-0.0697498,-
 0.2501211,-10.0441433,1.3030883,-1.8750303,1.0563077,0.0770232,-0.9895
 904,3.6245016,-1.6269422,0.8458092,-0.2293957,-0.0129482,0.7851803,0.6
 091514,-0.1243492,-0.3617167,-0.9399552,-0.0044107,0.8855011,0.1235575
 ,0.6435056,0.5337724,-0.0931984,-0.3399308,-0.754589,0.0455907,1.57532
 81,5.5472809,0.4833773,1.898031,0.2217183,-0.1197413,-0.0457089,2.3217
 889,0.2101923,1.1795307,0.5462418,-10.9874914,-2.5986537,-4.4352104,3.
 8279313,0.0313391,-2.9620317,-1.3021737,-4.5955703,-5.5167558,0.356048
 3,2.2235323,-0.93375,3.2194638,0.8766928,3.0340758,-4.2528122,-1.41269
 1,8.0548284,10.6214662,1.6515676,4.3650643,-3.521517,0.4985057,3.81003
 11,1.3383763,3.4286162,1.6676109,-0.0992084,-3.3859131,0.7442335,-2.82
 83603,-0.3864402,-4.266433,4.1284736,0.0047341,-8.6658564\HyperPolar=-
 7.0200972,-6.6013831,-19.497934,-65.5631475,3.6370395,-4.9071454,-19.2
 65306,-2.6188872,-10.1216964,-3.6247491\Quadrupole=5.4477343,-2.722946
 3,-2.7247879,-3.4103437,4.664578,1.9812342\PG=C01 [X(C3H6O4)]\NImag=0\
 \0.60432179,-0.11833960,0.26944666,-0.06885855,-0.10544383,0.12859008,
 -0.13198843,-0.01856664,0.03308652,0.48208439,-0.05476805,-0.12855862,
 0.05616931,-0.03671940,0.55980838,0.05127566,0.04664791,-0.10365489,0.
 02555019,0.03998170,0.56040366,-0.02514308,0.00021999,0.00223742,-0.17
 402017,0.05136336,-0.04159098,0.48365137,-0.02887588,0.00562603,-0.000
 79521,0.05112169,-0.09778058,0.01036607,-0.02972264,0.55778902,0.02641
 806,-0.00345949,0.00146197,-0.04135679,0.01087882,-0.08894978,0.033937
 66,0.03796052,0.55856270,-0.00384621,-0.03137742,0.00058902,-0.0556582
 5,0.03580938,0.00802191,-0.00489470,0.03225287,0.00894835,0.06112762,-
 0.00884509,-0.02186175,0.00377684,0.03312736,-0.27324315,-0.06880858,0
 .00192399,-0.01062478,-0.00312228,-0.03025906,0.30418116,0.00276135,0.
 02530482,0.00391844,0.00978988,-0.07401466,-0.07590660,-0.00312037,0.0
 0876135,0.00220682,-0.01241204,0.06886566,0.07487139,-0.00149209,-0.00
 585623,0.03060692,-0.05876909,-0.00236499,-0.04703927,-0.00703915,-0.0
 0386976,-0.03265504,0.00309026,0.00178331,0.00425288,0.06487094,-0.003
 76606,-0.00088651,0.02737772,-0.00395348,-0.05757426,-0.03683023,0.004
 16239,0.00163421,0.01157490,-0.00524398,-0.00241022,-0.02967202,0.0081
 2450,0.05807941,0.01022936,0.00914715,-0.01777290,-0.04683164,-0.03324
 314,-0.28362065,-0.00204736,-0.00128543,-0.00887767,-0.00298920,-0.002
 44842,-0.00747106,0.04308801,0.02684115,0.31485653,-0.01523646,0.00277
 102,-0.00018004,-0.02562524,-0.02851215,0.02718787,-0.13318577,-0.0536
 4121,0.05221204,0.00204722,0.00029099,0.00079072,0.00223706,-0.0009050
 1,-0.00005572,0.62697897,0.00246048,0.00076253,-0.00034493,0.00025377,
 0.00507263,-0.00309804,-0.02225429,-0.11949286,0.05320719,-0.00095294,
 0.00132005,-0.00035693,0.00017437,0.00019666,-0.00050273,-0.07064932,0
 .20459067,-0.00105218,-0.00031263,0.00100612,0.00158249,-0.00121915,0.
 00254806,0.02601365,0.05637832,-0.11264732,-0.00044015,-0.00041580,0.0
 0010273,0.00085010,-0.00050760,0.00135118,0.01338415,-0.13692435,0.162
 56981,0.00224429,-0.00109561,-0.00036250,-0.00473209,0.03260147,0.0082
 9034,-0.05467107,0.03190728,0.00520596,-0.00605058,0.00137698,-0.00129
 294,0.00168862,-0.00068224,-0.00002688,-0.00357970,-0.03103074,0.00222
 151,0.06032801,0.00010791,0.00123544,-0.00024591,0.00225233,-0.0112278
 5,-0.00311292,0.03109745,-0.27775453,-0.06246857,0.00133292,0.00036635
 ,0.00094078,-0.00012778,0.00067358,0.00028447,-0.00978816,-0.02007726,
 0.00583796,-0.02638623,0.30966030,0.00066094,-0.00045231,0.00010711,-0
 .00265539,0.00860778,0.00219701,0.00703439,-0.06744660,-0.07133703,-0.
 00118876,0.00093733,0.00069606,0.00064026,0.00039942,0.00077143,0.0038
 1049,0.02702569,0.00319326,-0.01038486,0.06126433,0.07098684,0.0021341
 1,0.00027898,0.00076174,-0.00714609,-0.00455387,-0.03255815,-0.0601037
 1,-0.00490438,-0.04933750,0.00177284,-0.00012643,0.00070423,-0.0059078
 5,0.00168139,-0.00087375,-0.00142151,-0.00446178,0.03109652,0.00311340
 ,0.00179376,0.00359818,0.06563117,-0.00088260,0.00014508,-0.00049606,0
 .00440602,0.00140850,0.01153961,-0.00713700,-0.06063428,-0.04385561,-0
 .00074107,0.00080742,0.00050847,0.00175244,0.00026859,0.00103358,-0.00
 240845,0.00071550,0.02686189,-0.00578375,-0.00310970,-0.02971342,0.009
 85240,0.06042964,-0.00022487,-0.00046456,0.00151248,-0.00166891,-0.001
 47802,-0.00829809,-0.04887842,-0.04028772,-0.27988199,0.00001067,0.000
 39924,0.00086959,-0.00084673,0.00097571,0.00059727,0.00940371,0.007996
 46,-0.01987456,-0.00305346,-0.00256145,-0.00671552,0.04579258,0.034905
 01,0.31126819,-0.00110297,0.00082004,-0.00035291,-0.00085484,-0.003936
 63,0.00349996,-0.02323945,0.00949711,-0.00646667,0.00041217,0.00000033
 ,0.00005149,0.00045943,-0.00010136,0.00001462,-0.45103367,0.12584336,-
 0.07319956,0.00152570,0.00053362,-0.00140290,0.00153612,0.00116112,-0.
 00046061,0.47245263,-0.00172852,0.00060157,0.00021747,-0.00077666,-0.0
 0306075,0.00210988,-0.02826202,0.00434735,-0.00303251,-0.00017326,0.00
 037345,0.00007630,0.00010635,-0.00016170,-0.00002148,0.16487762,-0.073
 47383,0.05018654,-0.00059933,0.00050755,-0.00052579,0.00031892,0.00022
 319,0.00062638,-0.13350422,0.07080246,0.00158201,-0.00000865,0.0003693
 1,0.00045960,0.00220680,-0.00289431,0.02679112,-0.00596046,0.00169789,
 -0.00019093,0.00005589,-0.00014023,0.00018152,-0.00002029,0.00040392,-
 0.10733325,0.05333108,-0.03879987,-0.00044412,0.00061497,0.00040076,0.
 00057622,-0.00062977,0.00037673,0.07812208,-0.04986394,0.03855764,-0.4
 2792757,0.17164089,0.00137319,-0.02297884,0.01224213,-0.00233878,-0.00
 104965,-0.00407688,0.00337918,0.00209329,0.00074582,-0.00162317,0.0008
 8841,0.00078756,-0.00050692,-0.00116244,0.00069030,-0.00053224,0.00048
 640,-0.00003454,0.00006488,0.00034859,-0.00005110,-0.00004172,-0.00017
 521,-0.00029312,0.00024355,0.44925187,0.21538986,-0.12277423,0.0202860
 1,-0.02993959,0.00695312,0.00109258,-0.00100668,-0.00350997,0.00260812
 ,-0.00081298,0.00083184,-0.00031099,0.00014899,-0.00009001,0.00059198,
 -0.00218392,0.00048454,0.00006289,-0.00011027,0.00044551,0.00008351,0.
 00007293,-0.00010709,-0.00006622,-0.00034405,-0.00019002,0.00027925,-0
 .18199749,0.11844260,-0.02396871,0.03106900,-0.01347545,0.02244328,-0.
 00832462,-0.00217200,-0.00006336,0.00165467,-0.00209626,-0.00057175,0.
 00062852,0.00091894,0.00080597,-0.00033710,-0.00020395,0.00086112,-0.0
 0005346,0.00047402,-0.00016241,0.00006703,-0.00014166,0.00020711,0.000
 00429,0.00022799,0.00015537,0.00021079,0.00003163,-0.00005586,-0.02419
 802,0.01682392,-0.00466974,0.00004418,0.00220509,0.00021251,-0.0023037
 1,-0.00141925,-0.00045234,-0.00217213,0.00003689,-0.00029247,0.0001667
 0,0.00061868,0.00015237,-0.00068858,0.00071964,0.00096784,0.00123203,-
 0.00030153,-0.00172659,0.00041090,-0.00052512,0.00009876,0.00061710,0.
 00036028,-0.00018370,-0.00005499,-0.00008344,0.00064775,0.00218470,0.0
 0056280,1.12995533,0.00088670,0.00418689,0.00283717,-0.00321592,-0.002
 85067,0.00161834,-0.00105880,-0.00040440,-0.00029763,0.00069649,0.0008
 9520,-0.00011202,0.00029797,-0.00021639,-0.00018871,0.00116608,0.00049
 444,-0.00022166,-0.00062277,0.00002428,-0.00020679,0.00013248,0.000205
 96,0.00016971,-0.00005282,0.00003779,-0.00007767,0.00125811,-0.0003908
 5,-0.00088162,0.27699811,0.21398522,0.00310680,0.00212081,-0.00261822,
 -0.00185054,0.00095801,0.00255731,-0.00032546,0.00163343,-0.00031727,0
 .00069770,0.00036687,-0.00074063,0.00010050,0.00069898,-0.00087069,-0.
 00022878,-0.00076251,0.00011084,0.00095545,-0.00066583,0.00035327,-0.0
 0003119,-0.00050005,-0.00026873,0.00013070,0.00006514,0.00004065,0.000
 27824,-0.00100982,-0.00033131,-0.81424348,-0.23618249,0.81708899,0.000
 99543,-0.00095902,-0.00054084,0.00019072,0.00048403,0.00026736,0.00030
 285,0.00079280,-0.00003478,-0.00005788,-0.00016750,-0.00019975,-0.0001
 0080,0.00027322,-0.00030584,-0.00046112,-0.00046391,0.00013172,0.00064
 084,-0.00018223,0.00023578,-0.00004825,-0.00026165,-0.00014791,0.00007
 433,0.00002412,0.00004302,-0.00038789,-0.00079181,-0.00013572,-0.56530
 383,-0.14738430,0.40236951,0.60622080,-0.00271805,-0.00423926,-0.00021
 733,0.00112679,-0.00002825,-0.00126906,0.00039158,0.00003158,0.0000931
 2,-0.00044522,-0.00039876,0.00018654,-0.00007026,0.00000681,0.00010091
 ,-0.00042037,-0.00012819,0.00008261,0.00016108,0.00001666,0.00008043,-
 0.00002992,-0.00007122,-0.00005077,0.00001504,-0.00000622,0.00003531,-
 0.00037111,0.00037433,0.00026380,-0.14772110,-0.11305455,0.12284668,0.
 17161488,0.08991612,-0.00200221,-0.00163158,0.00121119,0.00060234,-0.0
 0065960,-0.00099610,0.00000788,-0.00087993,0.00009060,-0.00022934,-0.0
 0008004,0.00031341,0.00003852,-0.00024529,0.00035858,0.00024735,0.0004
 3580,-0.00008165,-0.00054458,0.00032432,-0.00017876,0.00001850,0.00026
 984,0.00013827,-0.00007038,-0.00003143,-0.00003285,0.00011466,0.000574
 20,0.00011545,0.40295266,0.12262908,-0.40036707,-0.46562928,-0.1385358
 6,0.41730698,0.00171093,0.00041944,-0.00056506,-0.00071459,0.00065843,
 0.00085313,-0.00015514,0.00169114,-0.00028736,0.00025669,-0.00001740,-
 0.00032098,-0.00007812,0.00031164,-0.00041433,-0.00052518,-0.00084133,
 0.00024553,0.00073275,-0.00100995,0.00011210,-0.00000758,-0.00052347,-
 0.00024461,0.00012946,0.00006511,0.00005263,-0.00003470,-0.00060968,-0
 .00007784,-0.55940588,-0.12910132,0.40904056,-0.04206519,-0.02153335,0
 .06449388,0.60015653,0.00107890,-0.00368385,-0.00312125,0.00088374,0.0
 0108148,-0.00023728,0.00028267,0.00077319,-0.00008657,-0.00008572,-0.0
 0023682,-0.00017731,-0.00009891,0.00047984,-0.00030933,-0.00059712,-0.
 00046490,0.00019097,0.00026412,-0.00076032,-0.00005359,-0.00005448,-0.
 00028161,-0.00016376,0.00006846,-0.00000084,0.00003747,-0.00054057,-0.
 00046978,-0.00010328,-0.12871323,-0.10291294,0.11043080,-0.02297863,0.
 02758094,0.01783050,0.15049075,0.07889561,0.00007233,-0.00251663,-0.00
 065523,0.00084896,0.00013677,-0.00121361,0.00000381,-0.00009902,0.0000
 8733,-0.00024547,-0.00015523,0.00036113,-0.00002365,-0.00025536,0.0004
 7800,-0.00009965,0.00004674,0.00004737,-0.00040151,-0.00027917,-0.0003
 3279,0.00004552,0.00007221,0.00004837,-0.00002117,-0.00001736,-0.00001
 128,-0.00035502,0.00000650,-0.00017132,0.40911677,0.11091427,-0.414637
 14,0.06394673,0.01638362,-0.01787804,-0.47288764,-0.12423735,0.4338772
 1\\0.00000207,-0.00000541,0.00000619,-0.00000269,-0.00000057,0.0000031
 8,-0.00000108,0.00000264,-0.00000364,-0.00000174,0.00000127,0.00000255
 ,-0.00000298,0.00000055,-0.00000034,-0.00000457,0.00000914,-0.00000817
 ,0.00000052,-0.00000242,-0.00000323,0.00000129,0.00000020,0.00000108,-
 0.00000139,0.00000271,-0.00000209,0.00000009,-0.00000186,0.00000390,0.
 00000334,-0.00000153,0.00000014,-0.00000457,-0.00000811,0.00001034,0.0
 0001171,0.00000340,-0.00000991\\\@
 The archive entry for this job was punched.


 When I told the people of Northern Ireland that I was
 an atheist, a woman in the audience stood up and said,
 "Yes, but is it the God of the Catholics or the God
 of the Protestants in whom you don't believe?"
                               -- Quentin Crisp
 Job cpu time:       0 days  0 hours 17 minutes 14.9 seconds.
 Elapsed time:       0 days  0 hours  8 minutes 39.7 seconds.
 File lengths (MBytes):  RWF=    117 Int=      0 D2E=      0 Chk=     15 Scr=      1
 Normal termination of Gaussian 16 at Mon Jun 12 11:03:41 2023.
