 Entering Gaussian System, Link 0=g16
 Input=3ethyl5hydroxymethylthiazolium-isolated-freq.gjf
 Output=3ethyl5hydroxymethylthiazolium-isolated-freq.log
 Initial command:
 /software/commercial/gaussian/g16/AVX/g16/l1.exe "/scratch1/svicchi/G09-659742.pbs02/Gau-1902672.inp" -scrdir="/scratch1/svicchi/G09-659742.pbs02/"
 Entering Link 1 = /software/commercial/gaussian/g16/AVX/g16/l1.exe PID=   1902673.
  
 Copyright (c) 1988-2019, Gaussian, Inc.  All Rights Reserved.
  
 This is part of the Gaussian(R) 16 program.  It is based on
 the Gaussian(R) 09 system (copyright 2009, Gaussian, Inc.),
 the Gaussian(R) 03 system (copyright 2003, Gaussian, Inc.),
 the Gaussian(R) 98 system (copyright 1998, Gaussian, Inc.),
 the Gaussian(R) 94 system (copyright 1995, Gaussian, Inc.),
 the Gaussian 92(TM) system (copyright 1992, Gaussian, Inc.),
 the Gaussian 90(TM) system (copyright 1990, Gaussian, Inc.),
 the Gaussian 88(TM) system (copyright 1988, Gaussian, Inc.),
 the Gaussian 86(TM) system (copyright 1986, Carnegie Mellon
 University), and the Gaussian 82(TM) system (copyright 1983,
 Carnegie Mellon University). Gaussian is a federally registered
 trademark of Gaussian, Inc.
  
 This software contains proprietary and confidential information,
 including trade secrets, belonging to Gaussian, Inc.
  
 This software is provided under written license and may be
 used, copied, transmitted, or stored only in accord with that
 written license.
  
 The following legend is applicable only to US Government
 contracts under FAR:
  
                    RESTRICTED RIGHTS LEGEND
  
 Use, reproduction and disclosure by the US Government is
 subject to restrictions as set forth in subparagraphs (a)
 and (c) of the Commercial Computer Software - Restricted
 Rights clause in FAR 52.227-19.
  
 Gaussian, Inc.
 340 Quinnipiac St., Bldg. 40, Wallingford CT 06492
  
  
 ---------------------------------------------------------------
 Warning -- This program may not be used in any manner that
 competes with the business of Gaussian, Inc. or will provide
 assistance to any competitor of Gaussian, Inc.  The licensee
 of this program is prohibited from giving any competitor of
 Gaussian, Inc. access to this program.  By using this program,
 the user acknowledges that Gaussian, Inc. is engaged in the
 business of creating and licensing software in the field of
 computational chemistry and represents and warrants to the
 licensee that it is not a competitor of Gaussian, Inc. and that
 it will not use this program in any manner prohibited above.
 ---------------------------------------------------------------
  

 Cite this work as:
 Gaussian 16, Revision C.01,
 M. J. Frisch, G. W. Trucks, H. B. Schlegel, G. E. Scuseria, 
 M. A. Robb, J. R. Cheeseman, G. Scalmani, V. Barone, 
 G. A. Petersson, H. Nakatsuji, X. Li, M. Caricato, A. V. Marenich, 
 J. Bloino, B. G. Janesko, R. Gomperts, B. Mennucci, H. P. Hratchian, 
 J. V. Ortiz, A. F. Izmaylov, J. L. Sonnenberg, D. Williams-Young, 
 F. Ding, F. Lipparini, F. Egidi, J. Goings, B. Peng, A. Petrone, 
 T. Henderson, D. Ranasinghe, V. G. Zakrzewski, J. Gao, N. Rega, 
 G. Zheng, W. Liang, M. Hada, M. Ehara, K. Toyota, R. Fukuda, 
 J. Hasegawa, M. Ishida, T. Nakajima, Y. Honda, O. Kitao, H. Nakai, 
 T. Vreven, K. Throssell, J. A. Montgomery, Jr., J. E. Peralta, 
 F. Ogliaro, M. J. Bearpark, J. J. Heyd, E. N. Brothers, K. N. Kudin, 
 V. N. Staroverov, T. A. Keith, R. Kobayashi, J. Normand, 
 K. Raghavachari, A. P. Rendell, J. C. Burant, S. S. Iyengar, 
 J. Tomasi, M. Cossi, J. M. Millam, M. Klene, C. Adamo, R. Cammi, 
 J. W. Ochterski, R. L. Martin, K. Morokuma, O. Farkas, 
 J. B. Foresman, and D. J. Fox, Gaussian, Inc., Wallingford CT, 2019.
 
 ******************************************
 Gaussian 16:  ES64L-G16RevC.01  3-Jul-2019
                 2-Jun-2023 
 ******************************************
 %NProcShared=2
 Will use up to    2 processors via shared memory.
 %mem=55gb
 %chk=/scratch1/svicchi/G09-659742.pbs02/02-freq/3ethyl5hydroxymethylthiazolium-i
 solated-freq.chk
 ----------------------------------------------------------------------
 #p freq=raman scale=0.967 pop=(nbo,full,hirshfeld) guess=read geom=all
 check b3lyp/6-311+G(d,p) int=grid=ultrafine EmpiricalDispersion=GD3BJ 
 SCRF=(Solvent=ethanol) scf=(xqc,intrep,maxconventionalcycle=350) nosym
 m
 ----------------------------------------------------------------------
 1/10=4,29=7,30=1,38=1,114=967000/1,3;
 2/12=2,15=1,40=1/2;
 3/5=4,6=6,7=111,11=2,14=-4,25=1,30=1,70=2201,71=2,72=4,74=-5,75=-5,116=-2,124=41,140=1/1,2,3;
 4/5=1/1;
 5/5=2,8=3,13=1,17=20,38=6,53=4,85=350,98=1/2,8;
 8/6=4,10=90,11=11/1;
 10/13=10,15=4,31=1/2;
 11/6=3,8=1,9=11,15=111,16=1,31=1/1,2,10;
 10/6=1,31=1/2;
 6/7=3,28=1,40=1,79=1/1,7;
 7/8=1,10=1,25=1,30=1/1,2,3,16;
 1/10=4,30=1/3;
 99//99;
 Leave Link    1 at Fri Jun  2 11:41:10 2023, MaxMem=  7381975040 cpu:               1.4 elap:               1.5
 (Enter /software/commercial/gaussian/g16/AVX/g16/l101.exe)
 Structure from the checkpoint file:  "/scratch1/svicchi/G09-659742.pbs02/02-freq/3ethyl5hydroxymethylthiazolium-isolated-freq.chk"
 -------------------------------------------
 3ethyl5hydroxymethylthiazolium-isolated.gjf
 -------------------------------------------
 Charge =  1 Multiplicity = 1
 No Z-Matrix found in chk file; cartesian coordinates used.
  N                                                -0.096012623879      0.118397352462     -0.054750858120
  C                                                 1.111472625964     -0.409968792622      0.014821980262
  C                                                -0.560973734537      0.286527893036     -1.349841913675
  C                                                 0.327706619731     -0.126012921265     -2.285491541333
  S                                                 1.767772788549     -0.738419984558     -1.515131437134
  C                                                -0.913441802934      0.453924423540      1.139270621462
  C                                                -2.004614456475     -0.582294257785      1.373294473353
  H                                                -2.570459291962     -0.300204860393      2.262841827824
  H                                                -2.696771702009     -0.631303766441      0.530997950689
  H                                                -1.573929232067     -1.571829232108      1.535654599859
  H                                                -1.325505242147      1.447420014894      0.965246574419
  H                                                -0.225740074414      0.512307599223      1.980809673499
  H                                                -1.533663808765      0.714075157462     -1.524771138223
  H                                                 1.620608589525     -0.610206394808      0.944213780038
  C                                                 0.167262829621     -0.083556226192     -3.773354554711
  O                                                -1.126580577639      0.435783964728     -4.040050038703
  H                                                 0.285267560718     -1.093104069267     -4.183449182980
  H                                                 0.949587509654      0.549990763965     -4.206624125163
  H                                                -1.234686976935      0.510664336127     -4.994336691365
 Recover connectivity data from disk.
 ITRead=  0  0  0  0  0  0  0  0  0  0  0  0  0  0  0  0  0  0  0
 MicOpt= -1 -1 -1 -1 -1 -1 -1 -1 -1 -1 -1 -1 -1 -1 -1 -1 -1 -1 -1
 NAtoms=     19 NQM=       19 NQMF=       0 NMMI=      0 NMMIF=      0
                NMic=       0 NMicF=      0.
                    Isotopes and Nuclear Properties:
 (Nuclear quadrupole moments (NQMom) in fm**2, nuclear magnetic moments (NMagM)
  in nuclear magnetons)

  Atom         1           2           3           4           5           6           7           8           9          10
 IAtWgt=          14          12          12          12          32          12          12           1           1           1
 AtmWgt=  14.0030740  12.0000000  12.0000000  12.0000000  31.9720718  12.0000000  12.0000000   1.0078250   1.0078250   1.0078250
 NucSpn=           2           0           0           0           0           0           0           1           1           1
 AtZEff=   4.5500000   3.6000000   3.6000000   3.6000000  13.6000000   3.6000000   3.6000000   1.0000000   1.0000000   1.0000000
 NQMom=    2.0440000   0.0000000   0.0000000   0.0000000   0.0000000   0.0000000   0.0000000   0.0000000   0.0000000   0.0000000
 NMagM=    0.4037610   0.0000000   0.0000000   0.0000000   0.0000000   0.0000000   0.0000000   2.7928460   2.7928460   2.7928460
 AtZNuc=   7.0000000   6.0000000   6.0000000   6.0000000  16.0000000   6.0000000   6.0000000   1.0000000   1.0000000   1.0000000

  Atom        11          12          13          14          15          16          17          18          19
 IAtWgt=           1           1           1           1          12          16           1           1           1
 AtmWgt=   1.0078250   1.0078250   1.0078250   1.0078250  12.0000000  15.9949146   1.0078250   1.0078250   1.0078250
 NucSpn=           1           1           1           1           0           0           1           1           1
 AtZEff=   1.0000000   1.0000000   1.0000000   1.0000000   3.6000000   5.6000000   1.0000000   1.0000000   1.0000000
 NQMom=    0.0000000   0.0000000   0.0000000   0.0000000   0.0000000   0.0000000   0.0000000   0.0000000   0.0000000
 NMagM=    2.7928460   2.7928460   2.7928460   2.7928460   0.0000000   0.0000000   2.7928460   2.7928460   2.7928460
 AtZNuc=   1.0000000   1.0000000   1.0000000   1.0000000   6.0000000   8.0000000   1.0000000   1.0000000   1.0000000
 Leave Link  101 at Fri Jun  2 11:41:14 2023, MaxMem=  7381975040 cpu:               0.5 elap:               1.8
 (Enter /software/commercial/gaussian/g16/AVX/g16/l103.exe)

 GradGradGradGradGradGradGradGradGradGradGradGradGradGradGradGradGradGrad
 Berny optimization.
 Initialization pass.
 Trust Radius=3.00D-01 FncErr=1.00D-07 GrdErr=1.00D-07 EigMax=2.50D+02 EigMin=1.00D-04
 Number of steps in this run=      2 maximum allowed number of steps=      2.
 GradGradGradGradGradGradGradGradGradGradGradGradGradGradGradGradGradGrad

 Leave Link  103 at Fri Jun  2 11:41:17 2023, MaxMem=  7381975040 cpu:               0.1 elap:               1.2
 (Enter /software/commercial/gaussian/g16/AVX/g16/l202.exe)
                          Input orientation:                          
 ---------------------------------------------------------------------
 Center     Atomic      Atomic             Coordinates (Angstroms)
 Number     Number       Type             X           Y           Z
 ---------------------------------------------------------------------
      1          7           0       -0.096013    0.118397   -0.054751
      2          6           0        1.111473   -0.409969    0.014822
      3          6           0       -0.560974    0.286528   -1.349842
      4          6           0        0.327707   -0.126013   -2.285492
      5         16           0        1.767773   -0.738420   -1.515131
      6          6           0       -0.913442    0.453924    1.139271
      7          6           0       -2.004614   -0.582294    1.373294
      8          1           0       -2.570459   -0.300205    2.262842
      9          1           0       -2.696772   -0.631304    0.530998
     10          1           0       -1.573929   -1.571829    1.535655
     11          1           0       -1.325505    1.447420    0.965247
     12          1           0       -0.225740    0.512308    1.980810
     13          1           0       -1.533664    0.714075   -1.524771
     14          1           0        1.620609   -0.610206    0.944214
     15          6           0        0.167263   -0.083556   -3.773355
     16          8           0       -1.126581    0.435784   -4.040050
     17          1           0        0.285268   -1.093104   -4.183449
     18          1           0        0.949588    0.549991   -4.206624
     19          1           0       -1.234687    0.510664   -4.994337
 ---------------------------------------------------------------------
                    Distance matrix (angstroms):
                    1          2          3          4          5
     1  N    0.000000
     2  C    1.319861   0.000000
     3  C    1.386260   2.268147   0.000000
     4  C    2.283742   2.446704   1.354763   0.000000
     5  S    2.518044   1.696870   2.549686   1.744215   0.000000
     6  C    1.485414   2.472039   2.519511   3.688600   3.956823
     7  C    2.484561   3.403695   3.202253   4.362869   4.753765
     8  H    3.416043   4.315352   4.175377   5.396021   5.769348
     9  H    2.769314   3.849435   2.990252   4.163580   4.912258
    10  H    2.751453   3.297610   3.578500   4.506413   4.600961
    11  H    2.078064   3.208124   2.700336   3.971914   4.527531
    12  H    2.077378   2.550263   3.355085   4.349147   4.214264
    13  H    2.140708   3.260455   1.076811   2.179253   3.606843
    14  H    2.115557   1.078464   3.290308   3.512412   2.467078
    15  C    3.733378   3.917698   2.557480   1.497091   2.844301
    16  O    4.128609   4.708096   2.753073   2.347135   4.016373
    17  H    4.319637   4.332986   3.263256   2.130566   3.073035
    18  H    4.303209   4.332244   3.242285   2.129429   3.094117
    19  H    5.084286   5.607468   3.713013   3.191281   4.762336
                    6          7          8          9         10
     6  C    0.000000
     7  C    1.522883   0.000000
     8  H    2.139353   1.091352   0.000000
     9  H    2.174392   1.091305   1.767729   0.000000
    10  H    2.167266   1.091343   1.771695   1.776147   0.000000
    11  H    1.089548   2.178860   2.507560   2.527852   3.082685
    12  H    1.088361   2.175229   2.497484   3.084769   2.521786
    13  H    2.747630   3.209541   4.055826   2.718281   3.820103
    14  H    2.755328   3.650634   4.404535   4.337161   3.388155
    15  C    5.058725   5.608368   6.631570   5.199055   5.782066
    16  O    5.183736   5.577789   6.507911   4.949612   5.942989
    17  H    5.671115   6.031740   7.094965   5.597484   6.032739
    18  H    5.662040   6.414427   7.414011   6.093969   6.621482
    19  H    6.142276   6.506464   7.423506   5.828474   6.862409
                   11         12         13         14         15
    11  H    0.000000
    12  H    1.765018   0.000000
    13  H    2.604095   3.747062   0.000000
    14  H    3.593585   2.396575   4.218891   0.000000
    15  C    5.198710   5.798268   2.930101   4.964376   0.000000
    16  O    5.110379   6.088359   2.563160   5.786539   1.419462
    17  H    5.963046   6.390349   3.693640   5.320644   1.096034
    18  H    5.720985   6.298186   3.658660   5.322355   1.095964
    19  H    6.033439   7.047740   3.488359   6.683969   1.951758
                   16         17         18         19
    16  O    0.000000
    17  H    2.085995   0.000000
    18  H    2.085968   1.772461   0.000000
    19  H    0.963305   2.353694   2.322303   0.000000
 Symmetry turned off by external request.
 Stoichiometry    C6H10NOS(1+)
 Framework group  C1[X(C6H10NOS)]
 Deg. of freedom    51
 Full point group                 C1      NOp   1
 Rotational constants (GHZ):           2.0679000           0.9746881           0.7013954
 Leave Link  202 at Fri Jun  2 11:41:20 2023, MaxMem=  7381975040 cpu:               0.0 elap:               1.6
 (Enter /software/commercial/gaussian/g16/AVX/g16/l301.exe)
 Standard basis: 6-311+G(d,p) (5D, 7F)
 Ernie: Thresh=  0.10000D-02 Tol=  0.10000D-05 Strict=F.
   266 basis functions,   418 primitive gaussians,   275 cartesian basis functions
    38 alpha electrons       38 beta electrons
       nuclear repulsion energy       534.4281767699 Hartrees.
 IExCor=  402 DFT=T Ex+Corr=B3LYP ExCW=0 ScaHFX=  0.200000
 ScaDFX=  0.800000  0.720000  1.000000  0.810000 ScalE2=  1.000000  1.000000
 IRadAn=      5 IRanWt=     -1 IRanGd=            0 ICorTp=0 IEmpDi=141
 NAtoms=   19 NActive=   19 NUniq=   19 SFac= 1.00D+00 NAtFMM=   60 NAOKFM=F Big=F
 Integral buffers will be    131072 words long.
 Raffenetti 2 integral format.
 Two-electron integral symmetry is turned off.
 R6Disp:  Grimme-D3(BJ) Dispersion energy=       -0.0326804983 Hartrees.
 Nuclear repulsion after empirical dispersion term =      534.3954962716 Hartrees.
 Force inversion solution in PCM.
 ------------------------------------------------------------------------------
 Polarizable Continuum Model (PCM)
 =================================
 Model                : PCM.
 Atomic radii         : UFF (Universal Force Field).
 Polarization charges : Total charges.
 Charge compensation  : None.
 Solution method      : Matrix inversion.
 Cavity type          : Scaled VdW (van der Waals Surface) (Alpha=1.100).
 Cavity algorithm     : GePol (No added spheres)
                        Default sphere list used, NSphG=   19.
                        Lebedev-Laikov grids with approx.  5.0 points / Ang**2.
                        Smoothing algorithm: York/Karplus (Gamma=1.0000).
                        Polarization charges: spherical gaussians, with
                                              point-specific exponents (IZeta= 3).
                        Self-potential: point-specific (ISelfS= 7).
                        Self-field    : sphere-specific E.n sum rule (ISelfD= 2).
 1st derivatives      : Analytical E(r).r(x)/FMM algorithm (CHGder, D1EAlg=3).
                        Cavity 1st derivative terms included.
 2nd derivatives      : Analytical E(r).r(xy)/FMM algorithm (CHGder, D2EAlg=3).
                        Cavity 2nd derivative terms included.
 Solvent              : Ethanol, Eps=  24.852000 Eps(inf)=   1.852593
 ------------------------------------------------------------------------------
 Spheres list:
 ISph  on   Nord     Re0    Alpha      Xe            Ye            Ze
    1   N      1    1.8300  1.100     -0.096013      0.118397     -0.054751
    2   C      2    1.9255  1.100      1.111473     -0.409969      0.014822
    3   C      3    1.9255  1.100     -0.560974      0.286528     -1.349842
    4   C      4    1.9255  1.100      0.327707     -0.126013     -2.285492
    5   S      5    2.0175  1.100      1.767773     -0.738420     -1.515131
    6   C      6    1.9255  1.100     -0.913442      0.453924      1.139271
    7   C      7    1.9255  1.100     -2.004614     -0.582294      1.373294
    8   H      8    1.4430  1.100     -2.570459     -0.300205      2.262842
    9   H      9    1.4430  1.100     -2.696772     -0.631304      0.530998
   10   H     10    1.4430  1.100     -1.573929     -1.571829      1.535655
   11   H     11    1.4430  1.100     -1.325505      1.447420      0.965247
   12   H     12    1.4430  1.100     -0.225740      0.512308      1.980810
   13   H     13    1.4430  1.100     -1.533664      0.714075     -1.524771
   14   H     14    1.4430  1.100      1.620609     -0.610206      0.944214
   15   C     15    1.9255  1.100      0.167263     -0.083556     -3.773355
   16   O     16    1.7500  1.100     -1.126581      0.435784     -4.040050
   17   H     17    1.4430  1.100      0.285268     -1.093104     -4.183449
   18   H     18    1.4430  1.100      0.949588      0.549991     -4.206624
   19   H     19    1.4430  1.100     -1.234687      0.510664     -4.994337
 ------------------------------------------------------------------------------
 GePol: Number of generator spheres                  =      19
 GePol: Total number of spheres                      =      19
 GePol: Number of exposed spheres                    =      19 (100.00%)
 GePol: Number of points                             =    1603
 GePol: Average weight of points                     =       0.13
 GePol: Minimum weight of points                     =   0.15D-09
 GePol: Maximum weight of points                     =    0.20577
 GePol: Number of points with low weight             =      90
 GePol: Fraction of low-weight points (<1% of avg)   =       5.61%
 GePol: Cavity surface area                          =    212.162 Ang**2
 GePol: Cavity volume                                =    208.620 Ang**3
 Leave Link  301 at Fri Jun  2 11:41:22 2023, MaxMem=  7381975040 cpu:               0.6 elap:               1.2
 (Enter /software/commercial/gaussian/g16/AVX/g16/l302.exe)
 NPDir=0 NMtPBC=     1 NCelOv=     1 NCel=       1 NClECP=     1 NCelD=      1
         NCelK=      1 NCelE2=     1 NClLst=     1 CellRange=     0.0.
 One-electron integrals computed using PRISM.
 NBasis=   266 RedAO= T EigKep=  1.09D-05  NBF=   266
 NBsUse=   266 1.00D-06 EigRej= -1.00D+00 NBFU=   266
 Precomputing XC quadrature grid using
 IXCGrd= 4 IRadAn=           5 IRanWt=          -1 IRanGd=           0 AccXCQ= 0.00D+00.
 Generated NRdTot=       0 NPtTot=           0 NUsed=           0 NTot=          32
 NSgBfM=   275   275   275   275   275 MxSgAt=    19 MxSgA2=    19.
 Leave Link  302 at Fri Jun  2 11:41:26 2023, MaxMem=  7381975040 cpu:               0.9 elap:               2.0
 (Enter /software/commercial/gaussian/g16/AVX/g16/l303.exe)
 DipDrv:  MaxL=1.
 Leave Link  303 at Fri Jun  2 11:41:31 2023, MaxMem=  7381975040 cpu:               0.2 elap:               2.0
 (Enter /software/commercial/gaussian/g16/AVX/g16/l401.exe)
 Initial guess from the checkpoint file:  "/scratch1/svicchi/G09-659742.pbs02/02-freq/3ethyl5hydroxymethylthiazolium-isolated-freq.chk"
 B after Tr=     0.000000    0.000000    0.000000
         Rot=    1.000000    0.000000    0.000000    0.000000 Ang=   0.00 deg.
 Guess basis will be translated and rotated to current coordinates.
 JPrj=2 DoOrth=T DoCkMO=T.
 Leave Link  401 at Fri Jun  2 11:41:37 2023, MaxMem=  7381975040 cpu:               2.0 elap:               4.2
 (Enter /software/commercial/gaussian/g16/AVX/g16/l502.exe)
 Keep R1 ints in memory in canonical form, NReq=641046831.
 FoFCou: FMM=F IPFlag=           0 FMFlag=           0 FMFlg1=           0
         NFxFlg=           0 DoJE=F BraDBF=F KetDBF=F FulRan=T
         wScrn=  0.000000 ICntrl=       600 IOpCl=  0 I1Cent=           0 NGrid=           0
         NMat0=    1 NMatS0=  35511 NMatT0=    0 NMatD0=    1 NMtDS0=    0 NMtDT0=    0
 Symmetry not used in FoFCou.
 Two-electron integral symmetry not used.
 Closed shell SCF:
 Using DIIS extrapolation, IDIIS=  1040.
 NGot=  7381975040 LenX=  6751286257 LenY=  6751210191
 Requested convergence on RMS density matrix=1.00D-08 within 350 cycles.
 Requested convergence on MAX density matrix=1.00D-06.
 Requested convergence on             energy=1.00D-06.
 No special actions if energy rises.

 Cycle   1  Pass 1  IDiag  1:
 Inv3:  Mode=1 IEnd=     7708827.
 Iteration    1 A*A^-1 deviation from unit magnitude is 6.00D-15 for   1603.
 Iteration    1 A*A^-1 deviation from orthogonality  is 2.53D-15 for   1603   1486.
 Iteration    1 A^-1*A deviation from unit magnitude is 5.55D-15 for   1603.
 Iteration    1 A^-1*A deviation from orthogonality  is 2.65D-15 for   1601   1399.
 E= -762.811519987163    
 DIIS: error= 2.58D-08 at cycle   1 NSaved=   1.
 NSaved= 1 IEnMin= 1 EnMin= -762.811519987163     IErMin= 1 ErrMin= 2.58D-08
 ErrMax= 2.58D-08  0.00D+00 EMaxC= 1.00D-01 BMatC= 1.15D-13 BMatP= 1.15D-13
 IDIUse=1 WtCom= 1.00D+00 WtEn= 0.00D+00
 Coeff-Com:  0.100D+01
 Coeff:      0.100D+01
 Gap=     0.205 Goal=   None    Shift=    0.000
 RMSDP=3.47D-09 MaxDP=1.30D-07              OVMax= 2.96D-07

 Error on total polarization charges =  0.01188
 SCF Done:  E(RB3LYP) =  -762.811519987     A.U. after    1 cycles
            NFock=  1  Conv=0.35D-08     -V/T= 2.0028
 KE= 7.606503321586D+02 PE=-2.850754402808D+03 EE= 7.928970543906D+02
 Leave Link  502 at Fri Jun  2 11:42:11 2023, MaxMem=  7381975040 cpu:              57.5 elap:              33.3
 (Enter /software/commercial/gaussian/g16/AVX/g16/l508.exe)
 QCSCF skips out because SCF is already converged.
 Leave Link  508 at Fri Jun  2 11:42:15 2023, MaxMem=  7381975040 cpu:               0.1 elap:               2.0
 (Enter /software/commercial/gaussian/g16/AVX/g16/l801.exe)
 DoSCS=F DFT=T ScalE2(SS,OS)=  1.000000  1.000000
 Range of M.O.s used for correlation:     1   266
 NBasis=   266 NAE=    38 NBE=    38 NFC=     0 NFV=     0
 NROrb=    266 NOA=    38 NOB=    38 NVA=   228 NVB=   228

 **** Warning!!: The largest alpha MO coefficient is  0.70895537D+02

 Leave Link  801 at Fri Jun  2 11:42:20 2023, MaxMem=  7381975040 cpu:               0.7 elap:               3.1
 (Enter /software/commercial/gaussian/g16/AVX/g16/l1002.exe)
 Minotr:  Closed shell wavefunction.
 NEqPCM:  Using equilibrium solvation (IEInf=0, Eps=  24.8520, EpsInf=   1.8526)
          Direct CPHF calculation.
          Differentiating once with respect to electric field.
                with respect to dipole field.
          Electric field/nuclear overlap derivatives assumed to be zero.
          Requested convergence is 1.0D-08 RMS, and 1.0D-07 maximum.
          Secondary convergence is 1.0D-12 RMS, and 1.0D-12 maximum.
          NewPWx=F KeepS1=T KeepF1=T KeepIn=T MapXYZ=F SortEE=F KeepMc=T.
         5859 words used for storage of precomputed grid.
 Keep R1 ints in memory in canonical form, NReq=641054851.
 FoFCou: FMM=F IPFlag=           0 FMFlag=           0 FMFlg1=           0
         NFxFlg=           0 DoJE=F BraDBF=F KetDBF=F FulRan=T
         wScrn=  0.000000 ICntrl=       600 IOpCl=  0 I1Cent=           0 NGrid=           0
         NMat0=    1 NMatS0=  35511 NMatT0=    0 NMatD0=    1 NMtDS0=    0 NMtDT0=    0
 Symmetry not used in FoFCou.
 Two-electron integral symmetry not used.
          MDV=    7381975040 using IRadAn=       1.
          Solving linear equations simultaneously, MaxMat=       0.
          There are     3 degrees of freedom in the 1st order CPHF.  IDoFFX=0 NUNeed=     3.
      3 vectors produced by pass  0 Test12= 2.89D-13 3.33D-08 XBig12= 1.06D+02 5.01D+00.
 AX will form     3 AO Fock derivatives at one time.
      3 vectors produced by pass  1 Test12= 2.89D-13 3.33D-08 XBig12= 4.36D+01 1.85D+00.
      3 vectors produced by pass  2 Test12= 2.89D-13 3.33D-08 XBig12= 6.66D+00 5.99D-01.
      3 vectors produced by pass  3 Test12= 2.89D-13 3.33D-08 XBig12= 1.75D+00 2.80D-01.
      3 vectors produced by pass  4 Test12= 2.89D-13 3.33D-08 XBig12= 2.50D-01 9.31D-02.
      3 vectors produced by pass  5 Test12= 2.89D-13 3.33D-08 XBig12= 3.78D-02 5.90D-02.
      3 vectors produced by pass  6 Test12= 2.89D-13 3.33D-08 XBig12= 7.36D-03 2.38D-02.
      3 vectors produced by pass  7 Test12= 2.89D-13 3.33D-08 XBig12= 7.45D-04 5.75D-03.
      3 vectors produced by pass  8 Test12= 2.89D-13 3.33D-08 XBig12= 8.04D-05 1.99D-03.
      3 vectors produced by pass  9 Test12= 2.89D-13 3.33D-08 XBig12= 3.38D-06 2.22D-04.
      3 vectors produced by pass 10 Test12= 2.89D-13 3.33D-08 XBig12= 1.15D-07 5.52D-05.
      3 vectors produced by pass 11 Test12= 2.89D-13 3.33D-08 XBig12= 4.45D-09 7.40D-06.
      3 vectors produced by pass 12 Test12= 2.89D-13 3.33D-08 XBig12= 1.25D-10 1.64D-06.
      2 vectors produced by pass 13 Test12= 2.89D-13 3.33D-08 XBig12= 3.86D-12 2.29D-07.
      1 vectors produced by pass 14 Test12= 2.89D-13 3.33D-08 XBig12= 7.59D-14 4.06D-08.
 InvSVY:  IOpt=1 It=  1 EMax= 2.42D-15
 Solved reduced A of dimension    42 with     3 vectors.
 End of Minotr F.D. properties file   721 does not exist.
 End of Minotr F.D. properties file   722 does not exist.
 End of Minotr F.D. properties file   788 does not exist.
 Leave Link 1002 at Fri Jun  2 11:45:02 2023, MaxMem=  7381975040 cpu:             300.4 elap:             161.5
 (Enter /software/commercial/gaussian/g16/AVX/g16/l1101.exe)
 Using compressed storage, NAtomX=    19.
 Will process     20 centers per pass.
 R6Disp: Adding Grimme-D3(BJ) dispersion energy 1st derivatives to the gradient.
 Leave Link 1101 at Fri Jun  2 11:45:04 2023, MaxMem=  7381975040 cpu:               0.6 elap:               0.9
 (Enter /software/commercial/gaussian/g16/AVX/g16/l1102.exe)
 Symmetrizing basis deriv contribution to polar:
 IMax=3 JMax=2 DiffMx= 0.00D+00
 Leave Link 1102 at Fri Jun  2 11:45:08 2023, MaxMem=  7381975040 cpu:               0.3 elap:               1.5
 (Enter /software/commercial/gaussian/g16/AVX/g16/l1110.exe)
 Forming Gx(P) for the SCF density, NAtomX=    19.
 Integral derivatives from FoFJK, PRISM(SPDF).
 Do as many integral derivatives as possible in FoFJK.
 G2DrvN: MDV=    7381972947.
 G2DrvN: will do    20 centers at a time, making    1 passes.
 PxScal for G2LodP:  IOpCl= 0 ISclPx=1 IMOff=     1 NMtTot=     4 NTT=   35511 ScalPx= 1.46D+01
 Calling FoFCou, ICntrl=  3107 FMM=F I1Cent=   0 AccDes= 0.00D+00.
 FoFJK:  IHMeth= 1 ICntrl=    3107 DoSepK=F KAlg= 0 I1Cent=           0 FoldK=F
 IRaf=         0 NMat=       1 IRICut=       1 DoRegI=T DoRafI=F ISym2E= 0 IDoP0=0 IntGTp=1.
 FoFCou: FMM=F IPFlag=           0 FMFlag=      100000 FMFlg1=           0
         NFxFlg=           0 DoJE=F BraDBF=F KetDBF=F FulRan=T
         wScrn=  0.000000 ICntrl=      3107 IOpCl=  0 I1Cent=           0 NGrid=           0
         NMat0=    1 NMatS0=      1 NMatT0=    0 NMatD0=    4 NMtDS0=    3 NMtDT0=    0
 Symmetry not used in FoFCou.
 PxScal for G2LodP:  IOpCl= 0 ISclPx=0 IMOff=     1 NMtTot=     4 NTT=   35511 ScalPx= 1.00D+00
 NEqPCM:  Using equilibrium solvation (IEInf=0, Eps=  24.8520, EpsInf=   1.8526)
 G2PCM: DoFxE=T DoFxN=T DoGrad=T DoDP/DQ/DG/TGxP=TFFF NFrqRd=   0 IEInf=0 SqF1=F DoCFld=F IF1Alg=4.
 GePol: Maximum number of non-zero 1st derivatives   =     276
 End of G2Drv F.D. properties file   721 does not exist.
 End of G2Drv F.D. properties file   722 does not exist.
 End of G2Drv F.D. properties file   788 does not exist.
 Leave Link 1110 at Fri Jun  2 11:51:55 2023, MaxMem=  7381975040 cpu:             805.2 elap:             406.3
 (Enter /software/commercial/gaussian/g16/AVX/g16/l1002.exe)
 Minotr:  Closed shell wavefunction.
          IDoAtm=1111111111111111111
 NEqPCM:  Using equilibrium solvation (IEInf=0, Eps=  24.8520, EpsInf=   1.8526)
          Direct CPHF calculation.
          Differentiating once with respect to electric field.
                with respect to dipole field.
          Differentiating once with respect to nuclear coordinates.
          Requested convergence is 1.0D-08 RMS, and 1.0D-07 maximum.
          Secondary convergence is 1.0D-12 RMS, and 1.0D-12 maximum.
          NewPWx=T KeepS1=F KeepF1=F KeepIn=T MapXYZ=F SortEE=F KeepMc=T.
         5859 words used for storage of precomputed grid.
 Keep R1 ints in memory in canonical form, NReq=641055288.
 FoFCou: FMM=F IPFlag=           0 FMFlag=           0 FMFlg1=           0
         NFxFlg=           0 DoJE=F BraDBF=F KetDBF=F FulRan=T
         wScrn=  0.000000 ICntrl=       600 IOpCl=  0 I1Cent=           0 NGrid=           0
         NMat0=    1 NMatS0=  35511 NMatT0=    0 NMatD0=    1 NMtDS0=    0 NMtDT0=    0
 Symmetry not used in FoFCou.
 Two-electron integral symmetry not used.
          MDV=    7381975040 using IRadAn=       1.
          Solving linear equations simultaneously, MaxMat=       0.
          There are    60 degrees of freedom in the 1st order CPHF.  IDoFFX=5 NUNeed=    60.
 Will reuse    3 saved solutions.
     54 vectors produced by pass  0 Test12= 1.44D-14 1.67D-09 XBig12= 1.33D-01 1.05D-01.
 AX will form    54 AO Fock derivatives at one time.
     54 vectors produced by pass  1 Test12= 1.44D-14 1.67D-09 XBig12= 1.89D-02 4.50D-02.
     54 vectors produced by pass  2 Test12= 1.44D-14 1.67D-09 XBig12= 2.59D-04 2.46D-03.
     54 vectors produced by pass  3 Test12= 1.44D-14 1.67D-09 XBig12= 1.07D-06 1.04D-04.
     54 vectors produced by pass  4 Test12= 1.44D-14 1.67D-09 XBig12= 1.68D-09 3.96D-06.
     44 vectors produced by pass  5 Test12= 1.44D-14 1.67D-09 XBig12= 2.58D-12 1.65D-07.
     10 vectors produced by pass  6 Test12= 1.44D-14 1.67D-09 XBig12= 3.16D-15 6.22D-09.
 InvSVY:  IOpt=1 It=  1 EMax= 5.00D-16
 Solved reduced A of dimension   324 with    60 vectors.
 FullF1:  Do perturbations      1 to       3.
 Isotropic polarizability for W=    0.000000      118.23 Bohr**3.
 FullF1:  Do perturbations      1 to       6.
 End of Minotr F.D. properties file   721 does not exist.
 End of Minotr F.D. properties file   722 does not exist.
 End of Minotr F.D. properties file   788 does not exist.
 Leave Link 1002 at Fri Jun  2 11:58:25 2023, MaxMem=  7381975040 cpu:             757.8 elap:             387.9
 (Enter /software/commercial/gaussian/g16/AVX/g16/l601.exe)
 Copying SCF densities to generalized density rwf, IOpCl= 0 IROHF=0.

 **********************************************************************

            Population analysis using the SCF Density.

 **********************************************************************

 Alpha  occ. eigenvalues --  -88.94643 -19.15588 -14.45185 -10.30491 -10.26363
 Alpha  occ. eigenvalues --  -10.26315 -10.26056 -10.25126 -10.18750  -8.03214
 Alpha  occ. eigenvalues --   -5.99492  -5.99090  -5.98848  -1.07285  -1.05942
 Alpha  occ. eigenvalues --   -0.89882  -0.82671  -0.80011  -0.74258  -0.68810
 Alpha  occ. eigenvalues --   -0.64508  -0.62673  -0.56584  -0.55059  -0.51499
 Alpha  occ. eigenvalues --   -0.50507  -0.49389  -0.48041  -0.47404  -0.45597
 Alpha  occ. eigenvalues --   -0.42257  -0.41406  -0.40287  -0.38775  -0.38410
 Alpha  occ. eigenvalues --   -0.34276  -0.31843  -0.29936
 Alpha virt. eigenvalues --   -0.09399  -0.03218  -0.03029  -0.01061   0.00389
 Alpha virt. eigenvalues --    0.01075   0.01855   0.02571   0.03048   0.03641
 Alpha virt. eigenvalues --    0.04304   0.05684   0.06170   0.06743   0.06825
 Alpha virt. eigenvalues --    0.07108   0.07604   0.08447   0.08921   0.10171
 Alpha virt. eigenvalues --    0.11143   0.11253   0.11903   0.12734   0.12954
 Alpha virt. eigenvalues --    0.13370   0.14370   0.15038   0.15271   0.16225
 Alpha virt. eigenvalues --    0.16559   0.17037   0.17770   0.18848   0.19343
 Alpha virt. eigenvalues --    0.19552   0.19899   0.20395   0.20675   0.21510
 Alpha virt. eigenvalues --    0.22222   0.22359   0.22679   0.23190   0.24293
 Alpha virt. eigenvalues --    0.25286   0.26435   0.27250   0.28345   0.28864
 Alpha virt. eigenvalues --    0.29564   0.30640   0.31112   0.31864   0.33641
 Alpha virt. eigenvalues --    0.35478   0.36935   0.38283   0.38859   0.41445
 Alpha virt. eigenvalues --    0.42267   0.42760   0.44931   0.47820   0.48945
 Alpha virt. eigenvalues --    0.50364   0.52488   0.52595   0.53197   0.55252
 Alpha virt. eigenvalues --    0.55446   0.56734   0.57131   0.59610   0.59809
 Alpha virt. eigenvalues --    0.60393   0.62096   0.63620   0.65419   0.65530
 Alpha virt. eigenvalues --    0.65749   0.67135   0.68140   0.69244   0.70729
 Alpha virt. eigenvalues --    0.71418   0.72754   0.74731   0.75567   0.77324
 Alpha virt. eigenvalues --    0.80342   0.82005   0.84934   0.85215   0.89282
 Alpha virt. eigenvalues --    0.90969   0.92798   0.93865   0.95274   0.96491
 Alpha virt. eigenvalues --    0.98985   1.00645   1.04952   1.05944   1.09473
 Alpha virt. eigenvalues --    1.10476   1.11695   1.15405   1.19133   1.21186
 Alpha virt. eigenvalues --    1.22085   1.24840   1.28317   1.33847   1.34655
 Alpha virt. eigenvalues --    1.37624   1.40726   1.41537   1.44212   1.45987
 Alpha virt. eigenvalues --    1.46442   1.49013   1.51325   1.51852   1.53945
 Alpha virt. eigenvalues --    1.54588   1.55305   1.56325   1.58634   1.60624
 Alpha virt. eigenvalues --    1.61069   1.63764   1.64321   1.64909   1.66280
 Alpha virt. eigenvalues --    1.68614   1.72217   1.73461   1.76129   1.76983
 Alpha virt. eigenvalues --    1.78295   1.80959   1.81256   1.84355   1.87070
 Alpha virt. eigenvalues --    1.90243   1.93848   1.94607   1.98216   2.00416
 Alpha virt. eigenvalues --    2.04579   2.06040   2.08465   2.09119   2.13335
 Alpha virt. eigenvalues --    2.14692   2.16698   2.21108   2.21990   2.26239
 Alpha virt. eigenvalues --    2.27093   2.32437   2.36800   2.40059   2.44283
 Alpha virt. eigenvalues --    2.45411   2.46509   2.47409   2.50592   2.50883
 Alpha virt. eigenvalues --    2.53857   2.55056   2.57034   2.59231   2.61181
 Alpha virt. eigenvalues --    2.63282   2.64857   2.66699   2.70104   2.74997
 Alpha virt. eigenvalues --    2.75700   2.79099   2.80291   2.82013   2.84295
 Alpha virt. eigenvalues --    2.85738   2.92207   2.92473   2.95575   3.03703
 Alpha virt. eigenvalues --    3.07340   3.14948   3.17558   3.18849   3.24279
 Alpha virt. eigenvalues --    3.28358   3.34738   3.52561   3.60171   3.68784
 Alpha virt. eigenvalues --    3.76098   3.76623   3.77691   3.79974   3.82095
 Alpha virt. eigenvalues --    3.85856   3.87602   3.98308   4.20065   4.24383
 Alpha virt. eigenvalues --    4.85239   4.93053   4.98217   5.38278   5.65070
 Alpha virt. eigenvalues --    7.92403  17.22360  17.40218  17.44719  23.61468
 Alpha virt. eigenvalues --   23.78055  23.80939  23.83685  23.95225  24.10341
 Alpha virt. eigenvalues --   35.47682  49.88229 189.08202
     Molecular Orbital Coefficients:
                           1         2         3         4         5
                           O         O         O         O         O
     Eigenvalues --   -88.94643 -19.15588 -14.45185 -10.30491 -10.26363
   1 1   N  1S         -0.00000  -0.00000   0.55737  -0.00008  -0.00000
   2        2S          0.00001   0.00001   0.46568  -0.00000   0.00004
   3        2PX         0.00001  -0.00002   0.00005   0.00052  -0.00008
   4        2PY        -0.00000   0.00001  -0.00004  -0.00023   0.00003
   5        2PZ        -0.00001  -0.00001  -0.00003   0.00001  -0.00017
   6        3S         -0.00002  -0.00009   0.01638   0.00049  -0.00010
   7        3PX        -0.00006   0.00009   0.00068  -0.00164   0.00030
   8        3PY         0.00003  -0.00004  -0.00037   0.00073  -0.00012
   9        3PZ         0.00004   0.00004  -0.00050   0.00001   0.00085
  10        4S         -0.00011   0.00128  -0.01629  -0.00300  -0.00017
  11        4PX         0.00018  -0.00056   0.00027  -0.00132   0.00050
  12        4PY        -0.00008   0.00023   0.00008   0.00059  -0.00016
  13        4PZ        -0.00021  -0.00036   0.00110  -0.00112  -0.00249
  14        5S         -0.00010  -0.00021   0.00753   0.02393   0.01110
  15        5PX         0.00041  -0.00131   0.00013   0.01487  -0.00323
  16        5PY        -0.00015   0.00035  -0.00027  -0.00711   0.00116
  17        5PZ        -0.00033   0.00145  -0.00165  -0.00861  -0.01211
  18        6D 0        0.00001  -0.00001   0.00002   0.00060  -0.00034
  19        6D+1        0.00000   0.00000   0.00016   0.00001  -0.00024
  20        6D-1        0.00000  -0.00000  -0.00007  -0.00001   0.00009
  21        6D+2       -0.00001   0.00000   0.00040  -0.00084   0.00004
  22        6D-2        0.00001   0.00000  -0.00042   0.00092  -0.00005
  23 2   C  1S          0.00000   0.00000  -0.00001   0.56292   0.00004
  24        2S         -0.00000  -0.00000   0.00014   0.46330   0.00004
  25        2PX         0.00002  -0.00001  -0.00046  -0.00020  -0.00000
  26        2PY        -0.00001   0.00001   0.00020   0.00006   0.00000
  27        2PZ        -0.00005  -0.00000  -0.00010  -0.00072   0.00006
  28        3S          0.00005   0.00006   0.00007   0.01947  -0.00012
  29        3PX        -0.00005   0.00002   0.00164  -0.00100   0.00021
  30        3PY         0.00003  -0.00002  -0.00072   0.00049  -0.00009
  31        3PZ         0.00016  -0.00001   0.00068   0.00214  -0.00009
  32        4S          0.00002   0.00044   0.00227  -0.01513  -0.00025
  33        4PX         0.00013   0.00007  -0.00232   0.00220  -0.00057
  34        4PY        -0.00007   0.00004   0.00096  -0.00083   0.00025
  35        4PZ         0.00006   0.00019  -0.00080   0.00353   0.00145
  36        5S         -0.00045  -0.00198  -0.00424  -0.02935   0.02166
  37        5PX         0.00041  -0.00124   0.00088   0.00389  -0.00329
  38        5PY        -0.00019   0.00066  -0.00034  -0.00151   0.00127
  39        5PZ        -0.00007   0.00153   0.00036   0.00238  -0.00412
  40        6D 0       -0.00008   0.00001   0.00094   0.00040   0.00024
  41        6D+1        0.00008  -0.00002   0.00008   0.00136   0.00014
  42        6D-1       -0.00004   0.00001  -0.00001  -0.00054  -0.00004
  43        6D+2        0.00001  -0.00002  -0.00060   0.00107   0.00001
  44        6D-2       -0.00001   0.00001   0.00067  -0.00112   0.00000
  45 3   C  1S         -0.00000  -0.00000   0.00001  -0.00002   0.06377
  46        2S          0.00001   0.00002   0.00002  -0.00003   0.05279
  47        2PX        -0.00000  -0.00000   0.00014  -0.00008   0.00066
  48        2PY        -0.00000  -0.00000  -0.00005   0.00003  -0.00032
  49        2PZ        -0.00000  -0.00004   0.00046   0.00005  -0.00062
  50        3S         -0.00005  -0.00010   0.00028   0.00007   0.00167
  51        3PX        -0.00005  -0.00008  -0.00032   0.00030  -0.00362
  52        3PY         0.00002   0.00005   0.00011  -0.00010   0.00172
  53        3PZ         0.00001   0.00019  -0.00132  -0.00027   0.00348
  54        4S          0.00017   0.00060   0.00641  -0.00336  -0.00458
  55        4PX        -0.00001  -0.00094   0.00363   0.00027  -0.00054
  56        4PY        -0.00001   0.00038  -0.00158  -0.00023  -0.00003
  57        4PZ         0.00003  -0.00256   0.00312  -0.00015  -0.00519
  58        5S         -0.00224   0.01731  -0.00401   0.00319  -0.05094
  59        5PX        -0.00059   0.00106  -0.00013   0.00035  -0.00723
  60        5PY         0.00028  -0.00050   0.00100   0.00063   0.00376
  61        5PZ        -0.00082   0.00103   0.00038   0.01105  -0.00663
  62        6D 0       -0.00001  -0.00007  -0.00058  -0.00015  -0.00043
  63        6D+1        0.00003   0.00002  -0.00074   0.00008   0.00227
  64        6D-1       -0.00001  -0.00001   0.00029  -0.00004  -0.00103
  65        6D+2        0.00001   0.00003   0.00018   0.00014  -0.00039
  66        6D-2       -0.00001  -0.00003  -0.00024  -0.00014   0.00049
  67 4   C  1S          0.00000   0.00000  -0.00001  -0.00003   0.53496
  68        2S         -0.00000   0.00000   0.00007  -0.00003   0.44036
  69        2PX         0.00005   0.00003  -0.00004   0.00000   0.00085
  70        2PY        -0.00002  -0.00001   0.00001  -0.00000  -0.00037
  71        2PZ         0.00002  -0.00002   0.00003  -0.00003  -0.00003
  72        3S          0.00006   0.00017  -0.00037   0.00001   0.01815
  73        3PX        -0.00012  -0.00010   0.00044   0.00001  -0.00302
  74        3PY         0.00005   0.00004  -0.00019  -0.00002   0.00138
  75        3PZ        -0.00001   0.00012  -0.00052  -0.00010   0.00190
  76        4S          0.00004  -0.00450  -0.00155  -0.00242  -0.01416
  77        4PX         0.00016   0.00232   0.00010  -0.00047   0.00241
  78        4PY        -0.00007  -0.00091  -0.00016   0.00030  -0.00104
  79        4PZ        -0.00016   0.00380  -0.00399   0.00165  -0.00002
  80        5S         -0.00082  -0.00064   0.00486   0.01584   0.07685
  81        5PX         0.00151   0.00855  -0.00247  -0.01426  -0.00868
  82        5PY        -0.00063  -0.00359   0.00042   0.00524   0.00285
  83        5PZ         0.00428  -0.00278  -0.00730  -0.03568  -0.01480
  84        6D 0        0.00002  -0.00015   0.00008   0.00011   0.00093
  85        6D+1       -0.00007  -0.00004   0.00042   0.00011  -0.00153
  86        6D-1        0.00003   0.00001  -0.00018  -0.00004   0.00073
  87        6D+2       -0.00004   0.00007  -0.00004   0.00002   0.00053
  88        6D-2        0.00004  -0.00007   0.00005  -0.00002  -0.00063
  89 5   S  1S          0.41089  -0.00000  -0.00000  -0.00000  -0.00000
  90        2S          0.65436   0.00000   0.00001  -0.00000  -0.00000
  91        3S          0.01536  -0.00001  -0.00006  -0.00001   0.00002
  92        4S         -0.00459   0.00003   0.00014  -0.00001  -0.00007
  93        5S          0.00190  -0.00002  -0.00017   0.00018   0.00040
  94        6S         -0.00166  -0.00138   0.00035   0.00268   0.00027
  95        7S         -0.00299  -0.00553   0.00805   0.03867  -0.01061
  96        7PX         0.00035   0.00131  -0.00224  -0.00846   0.00347
  97        7PY        -0.00014  -0.00060   0.00107   0.00372  -0.00137
  98        7PZ        -0.00006   0.00245  -0.00004   0.00092  -0.00075
  99        8PX        -0.00009  -0.00000   0.00000  -0.00000  -0.00001
 100        8PY         0.00004   0.00000  -0.00000   0.00000   0.00000
 101        8PZ         0.00004   0.00000  -0.00000   0.00001  -0.00001
 102        9PX         0.00003   0.00001  -0.00003   0.00001   0.00009
 103        9PY        -0.00001  -0.00001   0.00002  -0.00001  -0.00004
 104        9PZ        -0.00001  -0.00001   0.00003  -0.00009   0.00007
 105       10PX        -0.00001  -0.00007   0.00006  -0.00008  -0.00041
 106       10PY         0.00000   0.00004  -0.00004   0.00004   0.00017
 107       10PZ        -0.00000   0.00003  -0.00005   0.00046  -0.00029
 108       11PX        -0.00011   0.00043   0.00005  -0.00034   0.00024
 109       11PY         0.00005  -0.00021  -0.00001   0.00015  -0.00009
 110       11PZ         0.00008  -0.00003  -0.00028  -0.00002   0.00040
 111       12PX         0.00053   0.00024   0.00007  -0.00099  -0.00063
 112       12PY        -0.00023  -0.00008  -0.00006   0.00040   0.00026
 113       12PZ        -0.00013   0.00083   0.00076   0.00082  -0.00021
 114       13D 0        0.00002   0.00003  -0.00008  -0.00005   0.00002
 115       13D+1       -0.00002  -0.00000   0.00013   0.00004   0.00002
 116       13D-1        0.00001   0.00000  -0.00006  -0.00002  -0.00001
 117       13D+2        0.00002  -0.00003  -0.00002  -0.00003  -0.00005
 118       13D-2       -0.00002   0.00003   0.00003   0.00004   0.00006
 119 6   C  1S         -0.00000  -0.00000   0.00001  -0.00006  -0.00012
 120        2S          0.00000   0.00000  -0.00003  -0.00001  -0.00007
 121        2PX        -0.00000  -0.00001   0.00015  -0.00005   0.00000
 122        2PY        -0.00000  -0.00000  -0.00009  -0.00001  -0.00002
 123        2PZ         0.00000  -0.00001  -0.00022  -0.00005  -0.00001
 124        3S         -0.00003  -0.00003   0.00007  -0.00047  -0.00049
 125        3PX         0.00001   0.00001  -0.00012   0.00019   0.00005
 126        3PY         0.00001   0.00002   0.00032   0.00013   0.00014
 127        3PZ        -0.00001   0.00008   0.00035   0.00024   0.00008
 128        4S          0.00045  -0.00021   0.00394   0.00342   0.00452
 129        4PX         0.00011  -0.00032   0.00087   0.00019   0.00041
 130        4PY        -0.00005  -0.00001  -0.00021  -0.00087  -0.00080
 131        4PZ        -0.00017   0.00006  -0.00120  -0.00066  -0.00135
 132        5S          0.00120  -0.00653  -0.00957  -0.01116   0.00503
 133        5PX         0.00020  -0.00078   0.00141   0.00382   0.00213
 134        5PY        -0.00010   0.00060   0.00216   0.00237   0.00069
 135        5PZ        -0.00029   0.00168   0.00069   0.00023  -0.00324
 136        6D 0        0.00000  -0.00003  -0.00021  -0.00014   0.00001
 137        6D+1       -0.00001   0.00002   0.00037   0.00008   0.00001
 138        6D-1        0.00000  -0.00001  -0.00015   0.00001  -0.00002
 139        6D+2        0.00000  -0.00001  -0.00015   0.00008  -0.00001
 140        6D-2       -0.00000  -0.00001   0.00010  -0.00008  -0.00003
 141 7   C  1S         -0.00000   0.00000  -0.00000  -0.00000  -0.00000
 142        2S          0.00000  -0.00000   0.00001   0.00000   0.00000
 143        2PX         0.00000  -0.00000   0.00006   0.00001   0.00003
 144        2PY         0.00000   0.00000   0.00005   0.00002   0.00001
 145        2PZ        -0.00000   0.00000  -0.00001  -0.00002  -0.00002
 146        3S         -0.00000   0.00003  -0.00009   0.00000   0.00011
 147        3PX        -0.00002   0.00001  -0.00036  -0.00004  -0.00014
 148        3PY        -0.00001  -0.00000  -0.00028  -0.00008  -0.00001
 149        3PZ         0.00001   0.00000   0.00007   0.00012   0.00007
 150        4S         -0.00006  -0.00028   0.00001  -0.00044  -0.00193
 151        4PX         0.00004  -0.00018   0.00012  -0.00044  -0.00009
 152        4PY         0.00001  -0.00009  -0.00026   0.00035  -0.00045
 153        4PZ        -0.00003   0.00024  -0.00016   0.00023   0.00027
 154        5S         -0.00012   0.00083   0.00971   0.01322   0.00568
 155        5PX        -0.00001   0.00019   0.00210   0.00295   0.00125
 156        5PY        -0.00002   0.00002   0.00124   0.00194   0.00072
 157        5PZ         0.00002  -0.00019  -0.00127  -0.00097  -0.00068
 158        6D 0        0.00000   0.00001   0.00009   0.00002  -0.00000
 159        6D+1        0.00000  -0.00002  -0.00000  -0.00004   0.00000
 160        6D-1        0.00000   0.00001   0.00008   0.00003   0.00003
 161        6D+2        0.00000   0.00001  -0.00002  -0.00001  -0.00000
 162        6D-2        0.00000  -0.00000  -0.00013   0.00001   0.00000
 163 8   H  1S         -0.00000   0.00001  -0.00004   0.00000  -0.00004
 164        2S          0.00002  -0.00007   0.00001  -0.00009   0.00027
 165        3S          0.00006   0.00001   0.00013  -0.00012   0.00011
 166        4PX         0.00000  -0.00001  -0.00001   0.00001   0.00002
 167        4PY         0.00000   0.00001   0.00004  -0.00000   0.00003
 168        4PZ        -0.00000   0.00000   0.00004   0.00005  -0.00004
 169 9   H  1S          0.00000  -0.00001   0.00005  -0.00005  -0.00002
 170        2S         -0.00001   0.00009  -0.00030   0.00044   0.00028
 171        3S          0.00011  -0.00024  -0.00055   0.00002  -0.00005
 172        4PX         0.00000   0.00001  -0.00017   0.00010  -0.00000
 173        4PY        -0.00000   0.00000  -0.00001   0.00001  -0.00003
 174        4PZ        -0.00000   0.00001  -0.00003  -0.00001   0.00005
 175 10  H  1S         -0.00000  -0.00001   0.00004  -0.00004  -0.00004
 176        2S          0.00001   0.00006  -0.00029   0.00047   0.00034
 177        3S          0.00003  -0.00013  -0.00060  -0.00050  -0.00040
 178        4PX        -0.00000   0.00000  -0.00000  -0.00006   0.00000
 179        4PY         0.00000   0.00001  -0.00011  -0.00001   0.00004
 180        4PZ        -0.00000   0.00000   0.00008   0.00001  -0.00002
 181 11  H  1S          0.00000   0.00002  -0.00001   0.00006   0.00004
 182        2S         -0.00006  -0.00013  -0.00104  -0.00053  -0.00070
 183        3S          0.00014  -0.00015   0.00022   0.00330  -0.00002
 184        4PX        -0.00000   0.00000  -0.00014  -0.00005  -0.00004
 185        4PY         0.00001   0.00003   0.00025   0.00008   0.00012
 186        4PZ        -0.00000   0.00002  -0.00003  -0.00003   0.00005
 187 12  H  1S          0.00000  -0.00000   0.00003  -0.00003   0.00002
 188        2S         -0.00004  -0.00000  -0.00109  -0.00057  -0.00046
 189        3S          0.00005   0.00018   0.00042   0.00118   0.00161
 190        4PX         0.00000   0.00001   0.00014   0.00001   0.00007
 191        4PY        -0.00000   0.00001   0.00000   0.00007   0.00000
 192        4PZ         0.00000   0.00000   0.00025   0.00012   0.00005
 193 13  H  1S         -0.00001   0.00005  -0.00021  -0.00008  -0.00018
 194        2S         -0.00005  -0.00062   0.00020   0.00033  -0.00179
 195        3S          0.00011  -0.00115   0.00083   0.00224  -0.00005
 196        4PX        -0.00002  -0.00011  -0.00024   0.00004  -0.00095
 197        4PY         0.00001   0.00005   0.00010  -0.00002   0.00043
 198        4PZ         0.00000   0.00014  -0.00035   0.00008   0.00019
 199 14  H  1S         -0.00000   0.00002  -0.00018   0.00005  -0.00003
 200        2S         -0.00013  -0.00015  -0.00083  -0.00496  -0.00045
 201        3S         -0.00003  -0.00002   0.00138   0.00199   0.00091
 202        4PX         0.00000   0.00001   0.00050   0.00122   0.00007
 203        4PY         0.00000  -0.00001  -0.00021  -0.00048  -0.00003
 204        4PZ         0.00005   0.00001   0.00034   0.00238   0.00006
 205 15  C  1S         -0.00000   0.00002  -0.00000  -0.00002   0.16306
 206        2S          0.00000  -0.00006   0.00002   0.00000   0.13419
 207        2PX         0.00001  -0.00016  -0.00002  -0.00001  -0.00020
 208        2PY        -0.00000   0.00006   0.00001   0.00000   0.00009
 209        2PZ         0.00001  -0.00002   0.00007   0.00002   0.00069
 210        3S         -0.00000  -0.00013   0.00001  -0.00030   0.00560
 211        3PX        -0.00002   0.00000   0.00008   0.00003   0.00053
 212        3PY         0.00001  -0.00000  -0.00003  -0.00001  -0.00023
 213        3PZ        -0.00004  -0.00018  -0.00036  -0.00017  -0.00209
 214        4S         -0.00017   0.00872  -0.00296   0.00311  -0.00057
 215        4PX         0.00006  -0.00179  -0.00011   0.00038  -0.00008
 216        4PY        -0.00001   0.00071   0.00009  -0.00024   0.00004
 217        4PZ        -0.00001   0.00184  -0.00108   0.00123   0.00104
 218        5S          0.00572  -0.00431  -0.01140  -0.05023  -0.05399
 219        5PX        -0.00002  -0.00025  -0.00029  -0.00061   0.00103
 220        5PY         0.00005   0.00008   0.00011   0.00013  -0.00054
 221        5PZ         0.00112  -0.00113  -0.00240  -0.01002  -0.01236
 222        6D 0       -0.00001   0.00008  -0.00013  -0.00003  -0.00123
 223        6D+1       -0.00002  -0.00009   0.00001   0.00004  -0.00058
 224        6D-1        0.00001   0.00004  -0.00001  -0.00001   0.00019
 225        6D+2        0.00000  -0.00018  -0.00000  -0.00003  -0.00038
 226        6D-2       -0.00000   0.00016   0.00001   0.00002   0.00037
 227 16  O  1S         -0.00000   0.55133   0.00000  -0.00000  -0.00001
 228        2S          0.00000   0.46973   0.00001  -0.00000  -0.00002
 229        2PX         0.00000   0.00092   0.00001  -0.00000   0.00005
 230        2PY        -0.00000  -0.00033   0.00000   0.00000  -0.00002
 231        2PZ         0.00000  -0.00087   0.00002   0.00000   0.00001
 232        3S         -0.00001   0.01364  -0.00002   0.00006   0.00026
 233        3PX        -0.00001  -0.00003  -0.00004   0.00002  -0.00004
 234        3PY         0.00000   0.00002  -0.00000  -0.00002   0.00000
 235        3PZ        -0.00000  -0.00006  -0.00005  -0.00000  -0.00001
 236        4S          0.00001  -0.01000  -0.00033  -0.00040  -0.00133
 237        4PX         0.00002  -0.00164   0.00024  -0.00019  -0.00034
 238        4PY        -0.00001   0.00065  -0.00006   0.00011   0.00015
 239        4PZ         0.00001  -0.00060   0.00049   0.00024   0.00094
 240        5S          0.00027   0.00666  -0.00026   0.00080   0.00362
 241        5PX         0.00009   0.00039   0.00012  -0.00009   0.00058
 242        5PY        -0.00004  -0.00011  -0.00018  -0.00001  -0.00031
 243        5PZ         0.00005   0.00051   0.00144  -0.00142  -0.00288
 244        6D 0        0.00000   0.00026  -0.00004  -0.00002   0.00001
 245        6D+1       -0.00000   0.00007   0.00000   0.00000  -0.00001
 246        6D-1        0.00000  -0.00004   0.00000   0.00000   0.00001
 247        6D+2       -0.00000  -0.00002   0.00000  -0.00000  -0.00009
 248        6D-2        0.00000   0.00001  -0.00000   0.00001   0.00008
 249 17  H  1S         -0.00000   0.00006  -0.00001   0.00005  -0.00010
 250        2S          0.00000  -0.00130   0.00006  -0.00057  -0.00180
 251        3S         -0.00009  -0.00040   0.00003   0.00033   0.00193
 252        4PX        -0.00001   0.00023   0.00001   0.00000   0.00012
 253        4PY        -0.00000  -0.00031  -0.00002  -0.00008  -0.00097
 254        4PZ        -0.00001  -0.00012  -0.00002  -0.00004  -0.00025
 255 18  H  1S          0.00000   0.00005   0.00000   0.00004  -0.00010
 256        2S         -0.00001  -0.00124  -0.00003  -0.00051  -0.00183
 257        3S         -0.00008  -0.00040   0.00020   0.00045   0.00209
 258        4PX        -0.00000   0.00037   0.00003   0.00004   0.00076
 259        4PY         0.00001   0.00006   0.00001   0.00005   0.00062
 260        4PZ        -0.00001  -0.00012  -0.00003  -0.00003  -0.00027
 261 19  H  1S         -0.00000  -0.00002  -0.00002  -0.00002  -0.00003
 262        2S          0.00002   0.00016   0.00043   0.00035   0.00096
 263        3S         -0.00009  -0.00146   0.00138  -0.00138  -0.00265
 264        4PX        -0.00000   0.00002  -0.00002   0.00005   0.00010
 265        4PY         0.00000   0.00002   0.00000  -0.00002  -0.00004
 266        4PZ         0.00000  -0.00080   0.00014   0.00006   0.00026
                           6         7         8         9        10
                           O         O         O         O         O
     Eigenvalues --   -10.26315 -10.26056 -10.25126 -10.18750  -8.03214
   1 1   N  1S          0.00000  -0.00005  -0.00002   0.00000   0.00000
   2        2S          0.00000  -0.00007  -0.00007   0.00002   0.00004
   3        2PX         0.00003  -0.00007  -0.00009  -0.00004   0.00007
   4        2PY        -0.00001   0.00002   0.00006   0.00001  -0.00003
   5        2PZ        -0.00000  -0.00032   0.00017   0.00005  -0.00004
   6        3S         -0.00002   0.00073   0.00037  -0.00007  -0.00024
   7        3PX        -0.00013  -0.00006  -0.00006   0.00020  -0.00054
   8        3PY         0.00006   0.00004  -0.00005  -0.00002   0.00024
   9        3PZ         0.00002   0.00044  -0.00005  -0.00026   0.00036
  10        4S         -0.00093  -0.00013   0.00153   0.00026  -0.00109
  11        4PX         0.00002   0.00160  -0.00018  -0.00095   0.00262
  12        4PY        -0.00000  -0.00062  -0.00009   0.00029  -0.00114
  13        4PZ        -0.00032  -0.00015   0.00007   0.00096  -0.00309
  14        5S         -0.00258   0.02283   0.01156   0.00613  -0.00028
  15        5PX        -0.00076   0.00102  -0.00966  -0.00855   0.00758
  16        5PY         0.00034  -0.00109   0.00343   0.00279  -0.00282
  17        5PZ         0.00210  -0.01424   0.01161   0.00729  -0.00668
  18        6D 0        0.00005  -0.00058  -0.00014  -0.00002   0.00011
  19        6D+1        0.00008  -0.00021   0.00025   0.00003  -0.00003
  20        6D-1       -0.00003   0.00006  -0.00016  -0.00001   0.00002
  21        6D+2        0.00000  -0.00013  -0.00002  -0.00001  -0.00006
  22        6D-2        0.00000   0.00013   0.00006   0.00005   0.00005
  23 2   C  1S          0.00000   0.00002   0.00005   0.00000  -0.00006
  24        2S          0.00002   0.00000   0.00008   0.00001   0.00003
  25        2PX         0.00000   0.00002  -0.00003   0.00002   0.00021
  26        2PY        -0.00000  -0.00001   0.00000   0.00001  -0.00011
  27        2PZ        -0.00004   0.00005  -0.00000   0.00000  -0.00055
  28        3S         -0.00022   0.00008  -0.00039  -0.00007   0.00047
  29        3PX        -0.00003  -0.00000   0.00029  -0.00017  -0.00054
  30        3PY         0.00001  -0.00001  -0.00009  -0.00001   0.00033
  31        3PZ         0.00015  -0.00013   0.00004   0.00001   0.00199
  32        4S          0.00083  -0.00312   0.00207   0.00184  -0.00051
  33        4PX        -0.00090   0.00090  -0.00015   0.00054   0.00196
  34        4PY         0.00039  -0.00038   0.00010   0.00023  -0.00104
  35        4PZ        -0.00106  -0.00005   0.00079  -0.00165   0.00153
  36        5S          0.01085  -0.00649   0.01054   0.00491  -0.00656
  37        5PX         0.00006  -0.00338   0.00241   0.00278   0.00726
  38        5PY        -0.00004   0.00151  -0.00091  -0.00064  -0.00340
  39        5PZ        -0.00284   0.00260  -0.00107  -0.00185  -0.00173
  40        6D 0       -0.00004   0.00012   0.00018   0.00003  -0.00106
  41        6D+1       -0.00001   0.00021   0.00004   0.00002   0.00099
  42        6D-1        0.00001  -0.00008  -0.00004   0.00002  -0.00048
  43        6D+2        0.00004   0.00003   0.00005  -0.00006   0.00004
  44        6D-2       -0.00004  -0.00002  -0.00005  -0.00002   0.00001
  45 3   C  1S         -0.02403   0.55876   0.00018  -0.00000  -0.00001
  46        2S         -0.01981   0.45970   0.00016  -0.00001   0.00004
  47        2PX        -0.00014   0.00018   0.00001  -0.00001  -0.00005
  48        2PY         0.00007  -0.00007  -0.00000  -0.00001   0.00002
  49        2PZ         0.00005   0.00099   0.00006  -0.00000   0.00000
  50        3S         -0.00087   0.02017  -0.00009   0.00014  -0.00054
  51        3PX         0.00053   0.00073  -0.00011   0.00003  -0.00026
  52        3PY        -0.00025  -0.00033   0.00005   0.00003   0.00014
  53        3PZ        -0.00025  -0.00243  -0.00038   0.00010   0.00004
  54        4S          0.00099  -0.01697  -0.00264  -0.00008   0.00140
  55        4PX         0.00051  -0.00559  -0.00245   0.00063  -0.00033
  56        4PY        -0.00016   0.00235   0.00115  -0.00011  -0.00004
  57        4PZ         0.00151  -0.00016   0.00218  -0.00152   0.00094
  58        5S          0.01349  -0.01762  -0.03886  -0.02845  -0.03672
  59        5PX         0.00129   0.00016  -0.00727  -0.00370  -0.00997
  60        5PY        -0.00062   0.00059   0.00461   0.00159   0.00466
  61        5PZ         0.00193  -0.00794  -0.00170  -0.00605  -0.01466
  62        6D 0       -0.00010   0.00002  -0.00009  -0.00006  -0.00015
  63        6D+1       -0.00024  -0.00103  -0.00003   0.00003   0.00033
  64        6D-1        0.00010   0.00051   0.00002   0.00003  -0.00015
  65        6D+2        0.00016   0.00152   0.00012   0.00001   0.00019
  66        6D-2       -0.00018  -0.00171  -0.00011  -0.00000  -0.00021
  67 4   C  1S         -0.16133  -0.06818   0.00010   0.00000  -0.00004
  68        2S         -0.13279  -0.05580   0.00011   0.00001   0.00001
  69        2PX        -0.00021  -0.00057  -0.00000   0.00001   0.00050
  70        2PY         0.00008   0.00027   0.00001   0.00001  -0.00022
  71        2PZ        -0.00063   0.00059   0.00003   0.00002   0.00019
  72        3S         -0.00517  -0.00291  -0.00034  -0.00006   0.00078
  73        3PX         0.00050   0.00258   0.00006  -0.00004  -0.00156
  74        3PY        -0.00020  -0.00121  -0.00004  -0.00003   0.00068
  75        3PZ         0.00143  -0.00315  -0.00020  -0.00011  -0.00023
  76        4S          0.00880   0.00286   0.00414  -0.00094   0.00083
  77        4PX        -0.00196  -0.00122  -0.00175   0.00081   0.00157
  78        4PY         0.00074   0.00068   0.00089  -0.00021  -0.00075
  79        4PZ        -0.00552   0.00458   0.00300   0.00130  -0.00245
  80        5S          0.02473   0.01629   0.01371  -0.00304  -0.00850
  81        5PX        -0.00030  -0.00940   0.00099   0.00003   0.02634
  82        5PY        -0.00017   0.00302  -0.00008   0.00085  -0.01106
  83        5PZ        -0.02069  -0.02547   0.03782   0.02792   0.06815
  84        6D 0       -0.00114  -0.00053   0.00001  -0.00001   0.00022
  85        6D+1        0.00011   0.00190  -0.00001  -0.00000  -0.00093
  86        6D-1       -0.00008  -0.00088   0.00001  -0.00001   0.00041
  87        6D+2        0.00002  -0.00069   0.00002   0.00002  -0.00058
  88        6D-2       -0.00002   0.00082  -0.00002  -0.00001   0.00059
  89 5   S  1S          0.00000  -0.00000  -0.00000  -0.00000  -0.11961
  90        2S          0.00000   0.00000   0.00000   0.00000  -0.32017
  91        3S         -0.00002  -0.00004  -0.00002  -0.00001   0.51756
  92        4S          0.00007   0.00011   0.00005   0.00002   0.59225
  93        5S         -0.00014  -0.00030  -0.00011   0.00002   0.05675
  94        6S          0.00072  -0.00050   0.00036  -0.00154  -0.03059
  95        7S         -0.00300   0.02554  -0.02063  -0.01036  -0.05166
  96        7PX         0.00015  -0.00478   0.00372   0.00116   0.00601
  97        7PY        -0.00015   0.00232  -0.00175  -0.00088  -0.00240
  98        7PZ        -0.00209   0.00360  -0.00399  -0.00304  -0.00106
  99        8PX         0.00000   0.00000   0.00000  -0.00000  -0.00235
 100        8PY        -0.00000  -0.00000  -0.00000   0.00000   0.00106
 101        8PZ         0.00000   0.00000  -0.00000   0.00000   0.00093
 102        9PX        -0.00004  -0.00003  -0.00001   0.00000  -0.00514
 103        9PY         0.00002   0.00001   0.00000  -0.00001   0.00232
 104        9PZ        -0.00001  -0.00001   0.00000  -0.00001   0.00203
 105       10PX         0.00014   0.00007   0.00004  -0.00003  -0.00018
 106       10PY        -0.00006  -0.00003  -0.00001   0.00004   0.00007
 107       10PZ         0.00001   0.00000   0.00000   0.00004   0.00004
 108       11PX        -0.00022   0.00026  -0.00004   0.00028  -0.00248
 109       11PY         0.00010  -0.00011   0.00001  -0.00021   0.00115
 110       11PZ         0.00014   0.00013  -0.00001  -0.00026   0.00135
 111       12PX        -0.00030   0.00038  -0.00037  -0.00012   0.00910
 112       12PY         0.00011  -0.00020   0.00021  -0.00001  -0.00400
 113       12PZ         0.00063  -0.00091   0.00019  -0.00037  -0.00207
 114       13D 0       -0.00006   0.00008   0.00003  -0.00003   0.00050
 115       13D+1       -0.00011  -0.00014   0.00002   0.00001  -0.00017
 116       13D-1        0.00004   0.00007  -0.00001  -0.00003   0.00012
 117       13D+2        0.00002  -0.00001  -0.00002  -0.00001   0.00044
 118       13D-2       -0.00002   0.00001   0.00001   0.00002  -0.00050
 119 6   C  1S          0.00003  -0.00016   0.56302  -0.00105  -0.00000
 120        2S          0.00002  -0.00013   0.46322  -0.00091   0.00002
 121        2PX        -0.00001   0.00002   0.00047  -0.00034  -0.00002
 122        2PY         0.00001  -0.00002  -0.00043  -0.00034  -0.00001
 123        2PZ         0.00001   0.00004  -0.00089   0.00005   0.00001
 124        3S          0.00009  -0.00014   0.01959   0.00055  -0.00043
 125        3PX         0.00006  -0.00005   0.00013   0.00065   0.00015
 126        3PY        -0.00005   0.00010   0.00162   0.00082   0.00009
 127        3PZ        -0.00008  -0.00013   0.00136   0.00006  -0.00014
 128        4S         -0.00005   0.00170  -0.01772  -0.00055   0.00637
 129        4PX         0.00019   0.00020   0.00001  -0.00222   0.00153
 130        4PY        -0.00009  -0.00063   0.00151  -0.00101  -0.00065
 131        4PZ         0.00028  -0.00016   0.00266   0.00163  -0.00254
 132        5S         -0.00311  -0.00075  -0.03232   0.01993   0.02211
 133        5PX        -0.00030   0.00207   0.00081  -0.00316   0.00382
 134        5PY         0.00005   0.00210   0.00488  -0.00307  -0.00196
 135        5PZ         0.00117  -0.00311   0.00344  -0.00102  -0.00533
 136        6D 0       -0.00001   0.00010  -0.00028   0.00025   0.00003
 137        6D+1       -0.00002   0.00003   0.00113   0.00029  -0.00010
 138        6D-1        0.00001  -0.00002  -0.00027   0.00008   0.00003
 139        6D+2        0.00002  -0.00002  -0.00030  -0.00007   0.00001
 140        6D-2       -0.00000   0.00001  -0.00027  -0.00060  -0.00004
 141 7   C  1S          0.00000   0.00000   0.00103   0.56295  -0.00000
 142        2S         -0.00000  -0.00000   0.00081   0.46315   0.00001
 143        2PX        -0.00001   0.00002   0.00034   0.00029   0.00004
 144        2PY        -0.00001  -0.00001   0.00035   0.00028   0.00002
 145        2PZ         0.00000   0.00001  -0.00001  -0.00006  -0.00002
 146        3S         -0.00001   0.00009   0.00037   0.01969  -0.00007
 147        3PX         0.00002  -0.00009  -0.00089  -0.00118  -0.00024
 148        3PY         0.00002   0.00003  -0.00085  -0.00106  -0.00007
 149        3PZ        -0.00001  -0.00007  -0.00004   0.00024   0.00009
 150        4S          0.00015  -0.00054   0.00419  -0.01255  -0.00070
 151        4PX        -0.00022  -0.00029   0.00073  -0.00206   0.00080
 152        4PY        -0.00000  -0.00008   0.00111  -0.00128   0.00024
 153        4PZ        -0.00011   0.00042  -0.00005   0.00109  -0.00046
 154        5S          0.00017   0.01034   0.01854  -0.01815  -0.00217
 155        5PX         0.00006   0.00212   0.00359  -0.00245  -0.00020
 156        5PY        -0.00004   0.00141   0.00232  -0.00264  -0.00030
 157        5PZ        -0.00013  -0.00093  -0.00154   0.00079   0.00037
 158        6D 0        0.00001   0.00001   0.00050   0.00038   0.00000
 159        6D+1       -0.00000   0.00002   0.00005   0.00018   0.00001
 160        6D-1       -0.00000   0.00002   0.00013   0.00018   0.00003
 161        6D+2        0.00000  -0.00001   0.00004  -0.00003   0.00001
 162        6D-2       -0.00000   0.00001  -0.00079  -0.00068   0.00003
 163 8   H  1S          0.00001  -0.00000  -0.00003   0.00021  -0.00004
 164        2S         -0.00005   0.00003  -0.00106  -0.00334   0.00030
 165        3S          0.00003  -0.00049  -0.00061   0.00334   0.00089
 166        4PX         0.00001   0.00001  -0.00016  -0.00101   0.00004
 167        4PY        -0.00000   0.00001   0.00012   0.00066   0.00001
 168        4PZ         0.00001  -0.00001   0.00033   0.00175  -0.00003
 169 9   H  1S          0.00001   0.00002  -0.00004   0.00020   0.00001
 170        2S         -0.00007   0.00002  -0.00097  -0.00310  -0.00004
 171        3S         -0.00035  -0.00041  -0.00046   0.00367   0.00185
 172        4PX        -0.00000  -0.00007  -0.00020  -0.00120   0.00002
 173        4PY         0.00000  -0.00005   0.00002  -0.00002  -0.00002
 174        4PZ        -0.00001   0.00003  -0.00028  -0.00168  -0.00002
 175 10  H  1S         -0.00000  -0.00003  -0.00009   0.00017  -0.00003
 176        2S          0.00004   0.00035  -0.00060  -0.00281   0.00022
 177        3S         -0.00020  -0.00072  -0.00083   0.00302   0.00049
 178        4PX        -0.00001   0.00000   0.00017   0.00093  -0.00004
 179        4PY         0.00000   0.00002  -0.00021  -0.00180   0.00001
 180        4PZ         0.00001   0.00000   0.00005   0.00026  -0.00001
 181 11  H  1S         -0.00000  -0.00001   0.00001  -0.00010   0.00005
 182        2S          0.00012  -0.00008  -0.00245  -0.00027  -0.00073
 183        3S         -0.00015   0.00018   0.00284  -0.00339   0.00244
 184        4PX        -0.00000  -0.00000  -0.00089  -0.00011  -0.00005
 185        4PY        -0.00003   0.00005   0.00186   0.00026   0.00006
 186        4PZ        -0.00000   0.00010  -0.00051  -0.00000  -0.00005
 187 12  H  1S          0.00000   0.00004   0.00007  -0.00010   0.00002
 188        2S         -0.00007  -0.00032  -0.00301  -0.00038  -0.00039
 189        3S         -0.00041   0.00191   0.00258  -0.00214   0.00083
 190        4PX        -0.00000   0.00004   0.00145   0.00019   0.00001
 191        4PY         0.00001   0.00002  -0.00003   0.00002  -0.00003
 192        4PZ        -0.00001  -0.00001   0.00166   0.00017   0.00005
 193 13  H  1S         -0.00005   0.00017   0.00006  -0.00001  -0.00007
 194        2S          0.00052  -0.00470  -0.00096   0.00020  -0.00058
 195        3S         -0.00081   0.00124  -0.00078  -0.00151   0.00186
 196        4PX         0.00009  -0.00215  -0.00014  -0.00001  -0.00018
 197        4PY        -0.00004   0.00094   0.00004   0.00003   0.00008
 198        4PZ        -0.00002  -0.00060  -0.00022  -0.00004   0.00001
 199 14  H  1S         -0.00007  -0.00005   0.00003  -0.00005  -0.00004
 200        2S          0.00047   0.00002  -0.00081   0.00041  -0.00157
 201        3S         -0.00010   0.00148  -0.00076  -0.00013  -0.00077
 202        4PX         0.00000  -0.00006   0.00020  -0.00003   0.00007
 203        4PY        -0.00000   0.00002  -0.00010  -0.00001  -0.00001
 204        4PZ        -0.00002   0.00004   0.00011   0.00000   0.00049
 205 15  C  1S          0.53892   0.00456   0.00000   0.00000  -0.00000
 206        2S          0.44338   0.00379   0.00000   0.00000   0.00002
 207        2PX        -0.00091  -0.00003  -0.00000   0.00000   0.00005
 208        2PY         0.00037   0.00001  -0.00000  -0.00001  -0.00002
 209        2PZ         0.00018   0.00005   0.00001  -0.00001   0.00007
 210        3S          0.01821  -0.00012   0.00004  -0.00003  -0.00006
 211        3PX         0.00191   0.00014  -0.00000  -0.00000  -0.00025
 212        3PY        -0.00077  -0.00007   0.00002   0.00002   0.00010
 213        3PZ        -0.00037  -0.00043  -0.00004   0.00004  -0.00043
 214        4S         -0.01948   0.00258   0.00032   0.00120  -0.00277
 215        4PX         0.00173   0.00054   0.00100  -0.00004   0.00141
 216        4PY        -0.00081  -0.00027  -0.00058  -0.00016  -0.00035
 217        4PZ        -0.00324   0.00108   0.00043   0.00046  -0.00008
 218        5S         -0.04558  -0.04289   0.04301   0.03408   0.08859
 219        5PX        -0.00175   0.00133   0.00104   0.00104  -0.00074
 220        5PY         0.00058  -0.00068  -0.00047  -0.00049   0.00091
 221        5PZ        -0.00940  -0.00895   0.00837   0.00670   0.01714
 222        6D 0        0.00014  -0.00021  -0.00001   0.00000  -0.00009
 223        6D+1       -0.00044   0.00010   0.00002  -0.00001  -0.00011
 224        6D-1        0.00017  -0.00005  -0.00000   0.00001   0.00003
 225        6D+2       -0.00062   0.00005  -0.00000  -0.00001   0.00006
 226        6D-2        0.00058  -0.00007   0.00000   0.00000  -0.00003
 227 16  O  1S         -0.00002   0.00000   0.00000  -0.00000   0.00000
 228        2S         -0.00007   0.00001   0.00000  -0.00000   0.00001
 229        2PX         0.00013   0.00001   0.00001   0.00000   0.00002
 230        2PY        -0.00005  -0.00000   0.00000   0.00000  -0.00000
 231        2PZ         0.00001   0.00003  -0.00001  -0.00001   0.00001
 232        3S          0.00042  -0.00006  -0.00004   0.00000  -0.00009
 233        3PX         0.00001  -0.00006  -0.00004  -0.00000  -0.00007
 234        3PY        -0.00001   0.00000  -0.00001  -0.00001   0.00002
 235        3PZ         0.00010  -0.00011   0.00003   0.00004  -0.00003
 236        4S          0.00061  -0.00026   0.00027  -0.00001   0.00028
 237        4PX         0.00063   0.00004   0.00027  -0.00001   0.00034
 238        4PY        -0.00025   0.00002  -0.00001   0.00006  -0.00012
 239        4PZ         0.00023   0.00069  -0.00020  -0.00020   0.00010
 240        5S          0.00909   0.00049  -0.00057  -0.00205   0.00501
 241        5PX         0.00198   0.00013   0.00046   0.00012   0.00164
 242        5PY        -0.00072  -0.00015  -0.00037  -0.00015  -0.00076
 243        5PZ        -0.00088  -0.00191   0.00201   0.00166   0.00053
 244        6D 0        0.00003  -0.00003   0.00001   0.00001   0.00001
 245        6D+1       -0.00005   0.00002   0.00000   0.00000  -0.00001
 246        6D-1        0.00002  -0.00000  -0.00000  -0.00000   0.00001
 247        6D+2       -0.00012  -0.00001   0.00001   0.00000  -0.00001
 248        6D-2        0.00012   0.00001  -0.00000   0.00000   0.00000
 249 17  H  1S          0.00008   0.00003  -0.00000   0.00001  -0.00001
 250        2S         -0.00231  -0.00040  -0.00006  -0.00011   0.00009
 251        3S          0.00378   0.00015  -0.00030   0.00016  -0.00146
 252        4PX         0.00001  -0.00004  -0.00004   0.00000  -0.00014
 253        4PY        -0.00179  -0.00009  -0.00002  -0.00001  -0.00001
 254        4PZ        -0.00066  -0.00003   0.00001  -0.00001  -0.00009
 255 18  H  1S          0.00008   0.00004   0.00000   0.00000   0.00002
 256        2S         -0.00228  -0.00039  -0.00003  -0.00005  -0.00013
 257        3S          0.00378   0.00035   0.00012   0.00040  -0.00137
 258        4PX         0.00125   0.00003  -0.00004  -0.00001  -0.00006
 259        4PY         0.00126   0.00009   0.00005   0.00001   0.00011
 260        4PZ        -0.00071  -0.00003   0.00001  -0.00000  -0.00011
 261 19  H  1S         -0.00001  -0.00002   0.00001   0.00001  -0.00005
 262        2S          0.00012   0.00055  -0.00018  -0.00015   0.00019
 263        3S         -0.00261  -0.00101   0.00218   0.00216  -0.00180
 264        4PX         0.00007   0.00003  -0.00001  -0.00000  -0.00006
 265        4PY        -0.00003  -0.00001   0.00000  -0.00000   0.00002
 266        4PZ         0.00011   0.00013   0.00001   0.00000   0.00001
                          11        12        13        14        15
                           O         O         O         O         O
     Eigenvalues --    -5.99492  -5.99090  -5.98848  -1.07285  -1.05942
   1 1   N  1S          0.00000  -0.00000   0.00000  -0.09403   0.02443
   2        2S          0.00002  -0.00003   0.00000  -0.14781   0.03842
   3        2PX         0.00005  -0.00003   0.00000   0.02150  -0.00561
   4        2PY        -0.00002   0.00001   0.00001  -0.01106   0.00287
   5        2PZ         0.00004   0.00000   0.00000  -0.01768   0.00316
   6        3S         -0.00013   0.00016  -0.00001   0.40752  -0.10602
   7        3PX        -0.00031   0.00017   0.00000   0.02938  -0.00799
   8        3PY         0.00013  -0.00006  -0.00003  -0.01528   0.00409
   9        3PZ        -0.00020  -0.00002  -0.00002  -0.02444   0.00410
  10        4S          0.00048  -0.00022  -0.00000   0.27009  -0.07764
  11        4PX         0.00076   0.00112  -0.00005   0.00631   0.00130
  12        4PY        -0.00029  -0.00056   0.00007  -0.00501  -0.00007
  13        4PZ         0.00118  -0.00034   0.00015  -0.00938   0.00206
  14        5S          0.00093   0.00409   0.00041  -0.19272   0.03154
  15        5PX        -0.00045   0.00269  -0.00135  -0.02879   0.02124
  16        5PY         0.00013  -0.00131  -0.00065   0.01720  -0.00903
  17        5PZ         0.00397  -0.00452   0.00089   0.04675  -0.01603
  18        6D 0        0.00010  -0.00006   0.00000   0.00431  -0.00076
  19        6D+1        0.00001  -0.00001  -0.00000  -0.00052   0.00008
  20        6D-1       -0.00000  -0.00000   0.00000   0.00047  -0.00008
  21        6D+2       -0.00004   0.00005  -0.00001   0.00773  -0.00203
  22        6D-2        0.00005  -0.00005  -0.00001  -0.00813   0.00213
  23 2   C  1S         -0.00009   0.00008   0.00000  -0.05059   0.01296
  24        2S         -0.00015   0.00010   0.00000  -0.07764   0.01993
  25        2PX         0.00012  -0.00011  -0.00000  -0.04667   0.01244
  26        2PY        -0.00006   0.00005  -0.00001   0.01996  -0.00535
  27        2PZ        -0.00028   0.00019   0.00000  -0.01413   0.00281
  28        3S          0.00080  -0.00015  -0.00000   0.19951  -0.05187
  29        3PX         0.00012   0.00017   0.00007  -0.06375   0.01716
  30        3PY        -0.00004  -0.00005   0.00019   0.02701  -0.00725
  31        3PZ         0.00013   0.00025  -0.00001  -0.02778   0.00614
  32        4S         -0.00099  -0.00456   0.00006   0.09724  -0.02683
  33        4PX         0.00155   0.00047   0.00004  -0.01057   0.00161
  34        4PY        -0.00071  -0.00012  -0.00000   0.00467  -0.00105
  35        4PZ        -0.00099   0.00380  -0.00011  -0.00589  -0.00074
  36        5S         -0.00787   0.00168   0.00118   0.09599  -0.03998
  37        5PX        -0.00327  -0.00045  -0.00004  -0.01717   0.01202
  38        5PY         0.00157   0.00002   0.00021   0.00627  -0.00530
  39        5PZ         0.00683   0.00056  -0.00027  -0.01341   0.00065
  40        6D 0       -0.00029  -0.00000   0.00001  -0.00094   0.00061
  41        6D+1        0.00023  -0.00008  -0.00007   0.00354  -0.00082
  42        6D-1       -0.00011   0.00002  -0.00015  -0.00117   0.00027
  43        6D+2        0.00013  -0.00011   0.00005   0.01149  -0.00291
  44        6D-2       -0.00013   0.00011   0.00005  -0.01229   0.00313
  45 3   C  1S          0.00000   0.00000  -0.00000  -0.04215   0.00638
  46        2S         -0.00002  -0.00001  -0.00000  -0.06455   0.00971
  47        2PX        -0.00002  -0.00001   0.00000   0.02445  -0.00470
  48        2PY         0.00001   0.00000   0.00000  -0.00994   0.00175
  49        2PZ         0.00003   0.00004  -0.00000   0.03111  -0.01247
  50        3S          0.00020   0.00012   0.00001   0.16235  -0.02433
  51        3PX         0.00021   0.00041  -0.00000   0.03641  -0.00509
  52        3PY        -0.00009  -0.00017  -0.00001  -0.01487   0.00169
  53        3PZ        -0.00020  -0.00028   0.00002   0.04909  -0.02157
  54        4S         -0.00300   0.00027   0.00021   0.06614  -0.00762
  55        4PX        -0.00087   0.00329   0.00031   0.00758   0.00609
[...]
 6715,-0.07103875,-0.24711950,-0.09735769,0.05566712,0.70173111,-0.0546
 4438,0.02841981,0.00194065,-0.06027542,0.01129229,0.04316076,-0.048995
 16,0.02716814,0.03164243,-0.11667868,0.03588503,-0.02243308,0.27545546
 ,0.02992684,-0.00272776,-0.00191180,0.01246365,-0.04222153,-0.02252898
 ,0.02530076,-0.00217711,-0.01412150,0.03518498,-0.04823591,0.00898252,
 -0.10400386,0.08690085,0.04852229,-0.02320413,-0.02533604,0.06733977,-
 0.03262103,-0.18589352,-0.01372072,0.00556796,-0.00075745,-0.04873685,
 0.02065006,-0.06965536,-0.04080758,0.02436607,0.29692700,-0.10967095,0
 .02092127,0.01787801,-0.02127310,0.01038432,0.02476610,0.01524023,-0.0
 0645574,-0.00083467,-0.00075575,0.00099814,-0.00702107,-0.00169869,0.0
 0281098,-0.00046667,0.51581611,0.02214606,-0.07740096,-0.01661970,0.01
 155203,-0.00483200,-0.01187634,-0.00519385,0.00114392,-0.00084402,-0.0
 0035360,0.00059666,0.00215370,0.00418084,0.00583733,0.00088517,-0.0410
 7413,0.55861198,0.02149793,-0.01126040,-0.14425099,0.01309364,-0.00638
 805,0.00406530,0.01350982,-0.00743409,-0.02818996,-0.00334465,0.001602
 60,-0.00201091,-0.00412355,0.00160680,0.00604599,0.11461023,-0.0243412
 3,0.50854717,-0.02419307,-0.00904453,0.01677999,0.00074831,-0.00176608
 ,0.00106644,-0.00004722,-0.00045414,-0.00154029,-0.00021540,0.00008061
 ,0.00006231,0.00052421,0.00091185,-0.00016452,-0.13010153,-0.05533051,
 0.00073660,0.51930903,0.00754902,0.00915648,0.00238390,-0.00019944,0.0
 0072501,-0.00128831,0.00080681,0.00022179,0.00052164,0.00056876,-0.000
 14616,-0.00026792,0.00018531,-0.00126825,-0.00150337,-0.05965376,-0.14
 103459,0.00982487,-0.05338797,0.53051059,0.03308702,0.01747810,-0.0137
 1160,-0.00331589,0.00271046,-0.00084052,0.00175487,0.00059819,0.000747
 98,0.00023484,-0.00035458,0.00009013,0.00084311,-0.00165262,-0.0019543
 9,-0.00185215,0.00667278,-0.07668931,0.01599969,0.01608129,0.57249111,
 -0.00456259,-0.00350656,0.00129923,0.00117661,-0.00076092,0.00014578,-
 0.00046571,0.00004100,-0.00073069,-0.00027764,0.00020516,0.00026946,-0
 .00010496,0.00037212,0.00070884,-0.01204788,0.00760968,0.01854805,-0.1
 1667697,0.03524150,0.11196330,0.12620626,-0.00563584,-0.00251452,0.001
 67191,0.00046020,-0.00046426,0.00046273,-0.00037314,0.00005584,-0.0002
 0057,-0.00005445,0.00003697,0.00002895,-0.00031010,0.00053088,0.000638
 36,-0.01012220,0.00586002,0.01875940,0.03703813,-0.06572792,-0.0594528
 8,-0.03683702,0.06797934,0.00044542,0.00042285,0.00117080,-0.00049835,
 0.00034991,0.00001926,0.00001555,-0.00001439,0.00032434,-0.00004089,0.
 00008981,0.00014683,0.00017905,-0.00015399,-0.00018468,0.00161947,-0.0
 0129800,-0.00469475,0.11367911,-0.05740308,-0.22507868,-0.12473258,0.0
 6281909,0.24133872,0.00127176,0.00044076,-0.00142232,-0.00015319,0.000
 19253,0.00009738,-0.00047371,0.00014429,0.00007134,-0.00015508,0.00018
 683,0.00036415,0.00022606,-0.00017480,0.00002641,-0.01722302,-0.001871
 38,-0.01811401,-0.15155069,-0.00554056,-0.12917221,0.01218118,0.000375
 92,0.01302830,0.16491511,0.00110649,0.00048930,-0.00006726,-0.00005116
 ,0.00010047,0.00005963,-0.00026296,0.00016457,-0.00025059,-0.00011361,
 0.00006614,0.00027110,0.00017035,-0.00008101,0.00006336,-0.01560544,-0
 .00225311,-0.02029322,-0.00492146,-0.04863404,-0.00513017,-0.00551360,
 -0.00117573,-0.00604102,0.01058337,0.05069501,-0.00052399,-0.00025270,
 0.00141176,0.00041163,-0.00024179,-0.00009572,0.00003199,0.00023212,-0
 .00026958,-0.00009047,0.00005922,0.00003677,-0.00012998,0.00002784,0.0
 0020488,0.00627012,0.00052942,0.00485307,-0.13138992,-0.00744512,-0.20
 845947,-0.01675769,-0.00024105,-0.01893371,0.14187127,0.00628338,0.224
 04586,0.00251642,-0.00021233,-0.00126716,0.00043510,0.00045354,-0.0003
 3072,0.00005778,0.00019469,0.00020623,0.00007219,-0.00002630,-0.000068
 42,-0.00011099,-0.00007793,-0.00001238,0.00885264,-0.02618761,0.005026
 45,-0.09263701,0.10020021,-0.01698679,-0.00677846,0.01406934,-0.003749
 35,-0.00782442,0.01758774,-0.00124820,0.09772824,0.00079157,0.00125912
 ,-0.00079443,-0.00003652,0.00026806,0.00009425,-0.00007916,0.00003114,
 0.00013211,-0.00002804,-0.00004292,-0.00003795,-0.00022551,0.00003186,
 0.00026433,0.00843233,-0.02167298,0.00290338,0.09660871,-0.26309934,0.
 03584426,0.00244978,-0.00605644,0.00095242,-0.00091353,0.00275245,-0.0
 0005474,-0.10332917,0.28695711,-0.00149634,0.00050239,0.00081251,0.000
 27098,-0.00036299,0.00030265,-0.00017656,0.00004729,-0.00033122,-0.000
 02261,0.00003531,0.00006754,-0.00000852,-0.00000764,0.00006327,-0.0003
 6881,0.00528448,-0.00265560,-0.01718275,0.03508924,-0.05355346,0.00958
 470,-0.02422048,0.00528453,-0.00910135,0.02311057,-0.00301658,0.017409
 24,-0.03954717,0.05177242,-0.01440083,0.01914355,0.00181254,0.00077826
 ,0.00053572,0.00220415,0.00020983,-0.00030923,-0.00159842,-0.00035585,
 0.00000137,0.00009514,-0.00080671,-0.00032243,0.00081116,-0.08602216,0
 .09170833,-0.01852327,0.01028243,-0.02443430,0.00443785,0.00083160,0.0
 0102722,-0.00012136,0.00100630,0.00075592,-0.00042190,-0.00341646,-0.0
 0372743,0.00074769,0.09810097,0.00565712,-0.00515501,-0.00143354,-0.00
 107840,0.00003048,-0.00072834,0.00012201,0.00067671,0.00115474,0.00047
 625,-0.00003346,-0.00033748,-0.00031181,0.00004909,-0.00018064,0.09508
 625,-0.27160812,0.04049402,0.00649871,-0.01953144,0.00469842,0.0000601
 5,0.00070097,0.00019204,0.00039250,0.00096883,-0.00058571,-0.00344592,
 -0.00126577,0.00069364,-0.10179093,0.29198428,0.02093103,-0.03076199,-
 0.00182468,-0.00157448,-0.00035113,-0.00288703,0.00063232,-0.00073796,
 0.00113518,0.00018353,-0.00033779,0.00042134,0.00175278,0.00032885,-0.
 00152760,-0.02493266,0.04883402,-0.06028859,-0.00251081,0.00415940,-0.
 00013138,0.00000929,0.00004371,0.00014196,0.00055264,-0.00049384,0.000
 35314,0.00127561,0.00057660,0.00097306,0.01305519,-0.04401186,0.065703
 85,0.01059431,0.00157025,0.02392965,0.00140806,-0.00017101,0.00130146,
 -0.00260554,0.00186858,0.00148918,0.00037369,-0.00015142,0.00151377,0.
 00027581,-0.00007964,-0.00002944,-0.16290148,-0.00473864,-0.14250654,-
 0.01531711,-0.00137768,-0.01716997,0.00051659,0.00038941,0.00020170,-0
 .00203290,-0.00358248,0.00151335,0.00123495,0.00010402,0.00038806,-0.0
 0687240,-0.00134116,-0.00909731,0.17631799,-0.00411157,-0.00177618,-0.
 00928257,-0.00075071,0.00067585,-0.00045459,0.00104491,0.00001173,0.00
 018551,0.00008017,0.00030993,-0.00040799,-0.00005934,-0.00021643,-0.00
 016675,-0.00332500,-0.05072040,-0.00666638,-0.01607667,-0.00141002,-0.
 01760914,0.00077556,0.00089527,0.00021791,-0.00332614,-0.00230551,0.00
 104828,0.00086114,0.00086534,-0.00061172,0.01713350,0.00326879,0.02289
 232,0.00764010,0.05065411,-0.01399553,-0.00095661,-0.03104106,-0.00229
 975,0.00110460,0.00088247,0.00375749,-0.00244156,-0.00026559,-0.000311
 36,0.00019306,-0.00134315,0.00005718,0.00019546,-0.00012131,-0.1286773
 0,-0.01033031,-0.20805972,0.00435440,0.00000761,0.00729400,-0.00044784
 ,-0.00030984,0.00038369,0.00148713,0.00160912,0.00073611,-0.00018926,-
 0.00025914,0.00012374,-0.00262357,0.00056567,-0.00182978,0.13794380,0.
 01127163,0.23324715,-0.00264710,0.00044954,0.00037947,0.00132065,0.000
 36202,0.00021929,-0.30261971,0.12022133,-0.04359056,-0.00790692,0.0055
 9860,-0.00310480,0.00018470,0.00235313,0.00082939,0.00018496,-0.000461
 35,0.00054022,0.00014760,0.00002236,0.00012720,-0.00001253,0.00002730,
 -0.00002701,-0.00027570,-0.00016813,0.00044335,-0.00003421,-0.00000703
 ,-0.00005528,0.00030557,-0.00025698,-0.00029700,0.00001613,-0.00012432
 ,0.00002916,0.31163717,-0.00047843,-0.00161358,-0.00082679,0.00033357,
 0.00182839,-0.00032186,0.12073125,-0.08273097,0.01892422,0.00602673,0.
 00243619,0.00140416,0.00238024,0.00442580,-0.00048372,-0.00057774,-0.0
 0046957,0.00001758,0.00023182,-0.00006102,0.00009316,-0.00011743,0.000
 01093,-0.00016981,-0.00046569,-0.00069373,0.00059012,-0.00002566,0.000
 01964,-0.00005367,-0.00001217,-0.00008729,-0.00003406,-0.00001540,-0.0
 0006801,-0.00005146,-0.12712709,0.07873143,-0.03059315,0.01354455,-0.0
 0508221,0.00053378,-0.00046765,-0.00625515,-0.03479377,0.01450652,-0.0
 6037479,0.01670726,-0.00723614,0.00902877,0.00349140,-0.00163525,-0.00
 055285,-0.00072010,0.00048846,0.00175011,0.00003528,0.00007704,-0.0001
 9989,0.00006435,-0.00002483,0.00012170,0.00036149,0.00087453,-0.000890
 59,0.00001461,-0.00008478,0.00013371,-0.00000350,-0.00048717,-0.000315
 65,0.00015080,-0.00024293,0.00017219,0.04658370,-0.02011617,0.06198877
 ,-0.01041100,0.00442219,-0.02676989,-0.11525994,0.03617889,-0.11865153
 ,-0.00308601,0.00343829,0.00275395,-0.00139806,0.00117443,0.00456006,0
 .00789410,-0.00379549,0.00945213,0.00039156,-0.00214529,-0.00161893,-0
 .00021219,0.00010016,0.00019065,-0.00002271,-0.00006088,-0.00000303,0.
 00007021,0.00002807,0.00000501,-0.00008671,-0.00003282,0.00000621,0.00
 032932,-0.00003005,0.00008849,-0.00072606,0.00020101,0.00056998,0.0003
 3573,0.00046146,-0.00111869,0.12058664,0.00560018,-0.00085276,0.011524
 79,0.03542564,-0.04056033,0.04546921,0.00338248,0.00307035,-0.00119822
 ,0.00121479,0.00051215,-0.00210463,-0.00427129,0.00049032,-0.00430147,
 -0.00161837,-0.00305554,0.00128543,-0.00033057,0.00037962,0.00016007,-
 0.00007359,-0.00013693,0.00001914,-0.00002902,-0.00006793,0.00000057,-
 0.00005113,-0.00003878,0.00004103,0.00031579,0.00002549,-0.00024523,-0
 .00007850,-0.00010576,-0.00053055,0.00049553,0.00129041,0.00046044,-0.
 04007492,0.03723558,0.00288173,-0.00128355,0.00592721,-0.12972355,0.05
 035780,-0.28885994,0.00116457,-0.00058265,0.00216540,0.00327733,-0.001
 47394,-0.00279708,-0.00859878,0.00364450,-0.00890975,0.00083865,0.0000
 7756,0.00095369,-0.00009158,-0.00015298,-0.00000163,0.00003422,-0.0000
 0871,-0.00000724,0.00000316,0.00000620,-0.00000665,-0.00005162,0.00000
 653,0.00001802,0.00006734,-0.00001656,-0.00002303,0.00023027,-0.000192
 27,-0.00000128,-0.00000241,-0.00001094,0.00043150,0.13086778,-0.050683
 13,0.29067362,-0.00029051,0.00328407,0.00561041,-0.00706413,0.00337467
 ,0.00076194,0.00812950,-0.00245753,0.01810623,-0.07293620,0.00418700,-
 0.01514549,-0.00220431,-0.00084216,-0.02204394,0.00189025,-0.00012664,
 -0.00003996,-0.00013473,0.00009980,0.00000696,-0.00004913,-0.00006268,
 0.00004664,0.00003201,-0.00002689,-0.00000343,0.00001865,-0.00001694,-
 0.00001022,-0.00007111,0.00001165,-0.00000478,-0.00035268,0.00001679,0
 .00046185,-0.00105263,-0.00096086,0.00017569,0.00120105,0.00032314,-0.
 00075308,0.49473395,0.00352834,0.00555515,-0.00270176,0.00313103,-0.00
 107806,-0.00011069,-0.00252975,0.00359515,-0.00859748,0.00409910,-0.06
 603348,0.00334889,-0.00036252,-0.00213943,0.00992218,-0.00037384,0.001
 30644,0.00013265,-0.00000749,-0.00015969,-0.00022077,0.00010133,0.0000
 3049,0.00000337,-0.00000926,-0.00001624,0.00006363,-0.00001647,-0.0000
 1150,0.00001405,0.00001404,-0.00004567,0.00012205,-0.00001717,-0.00008
 546,-0.00009472,-0.00097724,-0.00288611,0.00000916,0.00035936,0.001855
 07,0.00024009,0.02585389,0.55244363,-0.00172713,0.00065104,0.00001397,
 0.00592509,-0.00275450,0.00085488,0.00255759,-0.00138704,-0.01842397,0
 .00400864,-0.00448568,-0.21884225,-0.00841078,0.00407594,-0.00176289,0
 .00008178,-0.00009861,-0.00045001,0.00005633,0.00020896,0.00021544,-0.
 00009554,-0.00007973,0.00004865,0.00001766,0.00000137,-0.00003395,0.00
 002018,-0.00002073,-0.00001999,-0.00010395,-0.00000267,0.00013506,-0.0
 0000903,0.00000412,0.00007196,-0.00079216,0.00045073,0.00064465,-0.000
 88073,0.00033279,0.00067985,-0.03327274,0.01152321,0.51350939,-0.00002
 811,-0.00009200,-0.00121521,-0.00066431,0.00043059,-0.00065468,0.00066
 324,-0.00022444,0.00178955,-0.01460603,0.00729342,-0.01150954,0.001351
 49,-0.00081038,0.00002702,-0.00044753,0.00019204,0.00050032,0.00004121
 ,-0.00014341,-0.00012153,0.00006642,0.00005533,-0.00003423,-0.00001789
 ,0.00000263,0.00002255,-0.00001904,0.00001092,0.00000857,0.00007376,-0
 .00002686,-0.00005524,0.00005883,0.00000356,-0.00008756,0.00015335,-0.
 00017205,-0.00010546,0.00029581,-0.00013134,-0.00013185,-0.19933989,0.
 05494169,0.00699718,0.30920180,-0.00003520,0.00003747,0.00050631,0.000
 48618,0.00026503,0.00021659,-0.00033975,-0.00015222,-0.00066860,0.0073
 3337,0.00091909,0.00473465,-0.00072695,-0.00013447,0.00000803,0.000125
 54,-0.00016296,-0.00017513,-0.00003380,0.00005407,0.00006787,-0.000032
 21,-0.00002018,0.00001453,0.00001853,-0.00000852,-0.00001054,-0.000000
 45,-0.00000077,-0.00001836,-0.00003693,0.00000630,0.00001214,-0.000022
 13,-0.00000341,0.00003072,-0.00024849,-0.00018132,-0.00001606,-0.00014
 321,0.00001918,0.00006764,0.05687671,-0.08259599,-0.00150796,-0.108777
 33,0.08648318,-0.00061123,0.00028704,0.00055997,-0.00370982,0.00158324
 ,-0.00176523,0.00139954,-0.00070969,-0.00076795,-0.04533906,0.01835546
 ,-0.01387682,0.00086290,-0.00057872,-0.00643369,-0.00029210,0.00017076
 ,0.00083137,0.00003288,-0.00019028,-0.00016413,0.00008344,0.00007050,-
 0.00005184,-0.00004685,-0.00000929,0.00004890,-0.00002503,0.00001951,0
 .00001615,0.00010852,-0.00000531,-0.00005929,0.00001472,0.00002441,-0.
 00005128,-0.00113546,0.00046119,-0.00086892,0.00065090,-0.00027545,-0.
 00043148,-0.03628784,0.01547856,-0.09459347,0.08478875,-0.05251735,0.6
 2016786,-0.00034552,0.00043561,-0.00058915,0.00053330,-0.00046805,-0.0
 0056970,0.00006272,-0.00036518,-0.00023745,0.00195326,-0.00258777,0.00
 198383,-0.00017927,0.00047194,-0.00049219,-0.00009807,0.00015712,0.000
 11383,0.00002833,-0.00002306,-0.00002004,0.00001279,0.00000663,-0.0000
 0495,-0.00000524,0.00000381,-0.00000133,-0.00000565,-0.00000268,0.0000
 0196,0.00000763,-0.00000304,0.00000701,0.00000461,0.00000919,-0.000012
 06,-0.00001999,0.00000991,-0.00020768,-0.00006805,-0.00012734,0.000048
 94,-0.04915526,0.00957541,0.00251660,-0.01835642,0.03839788,0.00853407
 ,0.06096268,-0.00011531,-0.00034138,0.00051924,-0.00040592,0.00037430,
 -0.00007840,-0.00044477,0.00020241,0.00076431,-0.00133357,0.00426697,-
 0.00089957,0.00064237,0.00000898,-0.00097366,0.00000836,-0.00012734,-0
 .00002075,-0.00001415,0.00001623,0.00001957,-0.00001117,-0.00000346,-0
 .00000141,-0.00000291,-0.00000147,-0.00000306,0.00000191,0.00000267,0.
 00000021,0.00000062,0.00000567,-0.00000617,0.00000653,0.00000219,0.000
 00482,0.00002512,0.00008296,0.00009035,0.00005414,0.00003948,-0.000023
 62,0.01321216,-0.26162106,-0.08706374,0.01383393,-0.00892042,0.0007634
 2,-0.02494296,0.28362868,0.00033393,0.00156921,-0.00162892,0.00115352,
 -0.00011512,-0.00113446,-0.00239113,0.00029499,-0.00094515,0.00304964,
 -0.03016606,-0.01884722,-0.00030030,-0.00121514,-0.00036509,-0.0004022
 3,0.00039605,0.00017741,0.00003091,-0.00008087,-0.00008183,0.00004706,
 0.00002644,-0.00000936,-0.00001055,-0.00000360,0.00002006,-0.00001540,
 0.00000076,0.00000276,0.00003167,-0.00001045,0.00003216,0.00003935,-0.
 00001557,-0.00008412,-0.00023392,-0.00051284,0.00004687,0.00002434,0.0
 0015965,0.00007158,0.00747606,-0.08823506,-0.08647207,-0.00440326,0.00
 984492,0.00600265,-0.00461476,0.09538912,0.09525248,-0.00060994,-0.000
 29239,-0.00080819,0.00092032,-0.00020138,-0.00045130,0.00054063,0.0000
 7356,-0.00061737,0.00522023,0.00208991,0.00182934,-0.00050703,0.000200
 51,0.00002300,-0.00020491,-0.00004906,0.00012365,0.00001338,-0.0000149
 8,0.00000185,0.00000508,0.00000733,-0.00000867,-0.00000282,0.00000280,
 0.00000248,-0.00000395,0.00000306,0.00000344,0.00001818,-0.00001618,-0
 .00000584,0.00001423,0.00000508,-0.00003591,0.00000079,0.00003981,-0.0
 0020161,0.00002592,0.00013154,0.00004293,-0.16193978,-0.10247340,0.065
 48022,-0.03977913,-0.00862508,0.00642363,0.00361368,-0.00093861,-0.000
 02966,0.19162305,0.00026912,-0.00026034,0.00012180,-0.00010928,0.00004
 651,0.00040480,0.00012169,-0.00026013,-0.00052206,0.00113913,0.0015988
 2,-0.00105884,-0.00015135,0.00028557,0.00067099,0.00006682,-0.00004244
 ,-0.00006525,-0.00000706,0.00001141,0.00000621,-0.00000696,-0.00000273
 ,0.00000361,0.00000343,0.00000031,-0.00000368,0.00000279,0.00000100,-0
 .00000238,-0.00000592,0.00000408,-0.00000484,-0.00000613,0.00000348,0.
 00000232,0.00005345,0.00006515,0.00006571,-0.00004437,-0.00005021,-0.0
 0000662,-0.10636048,-0.14449534,0.06329011,0.01607285,0.01212969,-0.00
 687084,-0.02006853,-0.01793738,0.01206607,0.10993829,0.14803687,-0.001
 14782,-0.00129628,-0.00150548,0.00087557,-0.00086050,-0.00123419,-0.00
 176271,0.00151724,-0.00068383,0.02281361,0.01888247,-0.01955607,0.0006
 9339,0.00067470,0.00005825,-0.00056556,-0.00005690,0.00011776,0.000052
 74,-0.00003937,0.00001445,0.00001506,0.00002265,-0.00002359,-0.0000161
 1,0.00001204,-0.00000281,-0.00001045,0.00000602,0.00000773,0.00003418,
 -0.00000144,-0.00001375,0.00010754,0.00000371,-0.00012734,0.00022361,0
 .00055763,0.00000766,-0.00009511,-0.00013938,0.00008381,0.07026909,0.0
 6067183,-0.09034805,-0.01012241,-0.00398511,0.00604865,-0.00786667,-0.
 00800333,0.00718821,-0.07324177,-0.06732784,0.09893854,0.00032865,-0.0
 0005714,-0.00005900,-0.00053194,0.00024890,-0.00002988,-0.00040372,0.0
 0022293,0.00068990,-0.00642452,0.00225374,-0.00027468,0.00029376,0.000
 10992,-0.00126571,0.00006932,-0.00001403,-0.00002983,-0.00000860,0.000
 00123,-0.00000875,0.00000203,-0.00000050,0.00000520,0.00001203,0.00000
 457,-0.00000484,0.00000092,-0.00000156,0.00000158,0.00000167,-0.000003
 33,-0.00000978,-0.00000702,0.00000275,0.00001915,0.00028213,-0.0002622
 7,-0.00037441,0.00014038,-0.00010301,-0.00010406,-0.01141503,0.0051629
 8,-0.04236921,-0.03864757,0.01578333,-0.01545197,0.00105447,0.00042424
 ,0.00021472,0.00105207,-0.00090750,-0.00025618,0.05420097,-0.00005232,
 0.00023360,-0.00000260,0.00020228,-0.00006007,-0.00000243,0.00020864,-
 0.00011559,-0.00032840,0.00195909,-0.00174928,-0.00005942,0.00009835,0
 .00064124,0.00039828,-0.00002780,0.00002367,0.00001777,0.00000463,-0.0
 0000272,-0.00001021,0.00000319,0.00000145,-0.00000296,-0.00000488,0.00
 000021,0.00000381,0.00000162,0.00000012,0.00000622,0.00000327,0.000006
 08,0.00001578,0.00000246,0.00000448,-0.00001082,-0.00023773,-0.0000993
 2,0.00019422,-0.00009096,-0.00004940,0.00003465,0.00361430,-0.00361789
 ,0.01686239,0.01754083,-0.00773375,0.02394285,-0.00047890,0.00032200,0
 .00060752,0.00011918,0.00086567,-0.00063814,-0.02286526,0.01132950,-0.
 00008409,0.00002806,0.00035094,-0.00001150,0.00001085,0.00005252,0.000
 09659,-0.00003176,0.00029102,-0.00120028,0.00044540,0.00005173,0.00018
 891,-0.00009702,0.00015523,0.00006897,-0.00002728,-0.00005202,-0.00000
 680,0.00001735,0.00001318,-0.00000842,-0.00000567,0.00000338,0.0000024
 8,-0.00000230,-0.00000147,0.00000242,-0.00000121,-0.00000123,-0.000009
 46,0.00000263,0.00000504,-0.00001139,0.00000202,0.00001331,-0.00013679
 ,0.00008254,0.00021410,-0.00003158,0.00002496,0.00003339,0.00464661,-0
 .00156918,-0.00522721,-0.06569296,0.04339570,-0.51461143,0.00140975,-0
 .00047730,0.00077405,0.00146977,-0.00076929,0.00103006,0.05930777,-0.0
 4102850,0.51690540\\0.00000141,0.00000587,-0.00000067,0.00000714,0.000
 03545,-0.00000201,-0.00000884,-0.00000800,-0.00000129,-0.00000111,0.00
 001060,0.00000364,0.00002002,0.00007506,-0.00000665,-0.00000636,-0.000
 01037,-0.00000014,0.00001449,-0.00003385,0.00000607,0.00000407,-0.0000
 1900,0.00000336,0.00000581,-0.00002113,0.00000183,0.00001819,-0.000013
 37,0.00000437,-0.00001256,-0.00000574,0.00000004,0.00000022,0.00000222
 ,0.00000267,-0.00000805,-0.00001210,0.00000139,0.00000598,0.00002030,-
 0.00000272,-0.00000316,0.00000051,0.00001120,-0.00002393,-0.00002052,-
 0.00006821,0.00000954,-0.00000471,-0.00000103,-0.00000764,0.00001045,-
 0.00000366,-0.00001523,-0.00001166,0.00005181\\\@
 The archive entry for this job was punched.


 CLIMB THE MOUNTAINS AND GET THEIR GOOD TIDINGS.
 NATURE'S PEACE WILL FLOW INTO YOU AS SUNSHINE FLOWS INTO TREES.
 THE WINDS WILL BLOW THEIR OWN FRESHNESS INTO YOU, 
 AND CARES WILL DROP OFF LIKE AUTUMN LEAVES.

                                         -- JOHN MUIR
 Job cpu time:       0 days  0 hours 46 minutes 51.1 seconds.
 Elapsed time:       0 days  0 hours 24 minutes 29.4 seconds.
 File lengths (MBytes):  RWF=    211 Int=      0 D2E=      0 Chk=     23 Scr=      1
 Normal termination of Gaussian 16 at Fri Jun  2 12:06:13 2023.
