 Entering Gaussian System, Link 0=g16
 Input=2ethylimidazolide-isolated-freq.gjf
 Output=2ethylimidazolide-isolated-freq.log
 Initial command:
 /software/commercial/gaussian/g16/AVX/g16/l1.exe "/scratch1/svicchi/G09-659781.pbs02/Gau-3878484.inp" -scrdir="/scratch1/svicchi/G09-659781.pbs02/"
 Entering Link 1 = /software/commercial/gaussian/g16/AVX/g16/l1.exe PID=   3878485.
  
 Copyright (c) 1988-2019, Gaussian, Inc.  All Rights Reserved.
  
 This is part of the Gaussian(R) 16 program.  It is based on
 the Gaussian(R) 09 system (copyright 2009, Gaussian, Inc.),
 the Gaussian(R) 03 system (copyright 2003, Gaussian, Inc.),
 the Gaussian(R) 98 system (copyright 1998, Gaussian, Inc.),
 the Gaussian(R) 94 system (copyright 1995, Gaussian, Inc.),
 the Gaussian 92(TM) system (copyright 1992, Gaussian, Inc.),
 the Gaussian 90(TM) system (copyright 1990, Gaussian, Inc.),
 the Gaussian 88(TM) system (copyright 1988, Gaussian, Inc.),
 the Gaussian 86(TM) system (copyright 1986, Carnegie Mellon
 University), and the Gaussian 82(TM) system (copyright 1983,
 Carnegie Mellon University). Gaussian is a federally registered
 trademark of Gaussian, Inc.
  
 This software contains proprietary and confidential information,
 including trade secrets, belonging to Gaussian, Inc.
  
 This software is provided under written license and may be
 used, copied, transmitted, or stored only in accord with that
 written license.
  
 The following legend is applicable only to US Government
 contracts under FAR:
  
                    RESTRICTED RIGHTS LEGEND
  
 Use, reproduction and disclosure by the US Government is
 subject to restrictions as set forth in subparagraphs (a)
 and (c) of the Commercial Computer Software - Restricted
 Rights clause in FAR 52.227-19.
  
 Gaussian, Inc.
 340 Quinnipiac St., Bldg. 40, Wallingford CT 06492
  
  
 ---------------------------------------------------------------
 Warning -- This program may not be used in any manner that
 competes with the business of Gaussian, Inc. or will provide
 assistance to any competitor of Gaussian, Inc.  The licensee
 of this program is prohibited from giving any competitor of
 Gaussian, Inc. access to this program.  By using this program,
 the user acknowledges that Gaussian, Inc. is engaged in the
 business of creating and licensing software in the field of
 computational chemistry and represents and warrants to the
 licensee that it is not a competitor of Gaussian, Inc. and that
 it will not use this program in any manner prohibited above.
 ---------------------------------------------------------------
  

 Cite this work as:
 Gaussian 16, Revision C.01,
 M. J. Frisch, G. W. Trucks, H. B. Schlegel, G. E. Scuseria, 
 M. A. Robb, J. R. Cheeseman, G. Scalmani, V. Barone, 
 G. A. Petersson, H. Nakatsuji, X. Li, M. Caricato, A. V. Marenich, 
 J. Bloino, B. G. Janesko, R. Gomperts, B. Mennucci, H. P. Hratchian, 
 J. V. Ortiz, A. F. Izmaylov, J. L. Sonnenberg, D. Williams-Young, 
 F. Ding, F. Lipparini, F. Egidi, J. Goings, B. Peng, A. Petrone, 
 T. Henderson, D. Ranasinghe, V. G. Zakrzewski, J. Gao, N. Rega, 
 G. Zheng, W. Liang, M. Hada, M. Ehara, K. Toyota, R. Fukuda, 
 J. Hasegawa, M. Ishida, T. Nakajima, Y. Honda, O. Kitao, H. Nakai, 
 T. Vreven, K. Throssell, J. A. Montgomery, Jr., J. E. Peralta, 
 F. Ogliaro, M. J. Bearpark, J. J. Heyd, E. N. Brothers, K. N. Kudin, 
 V. N. Staroverov, T. A. Keith, R. Kobayashi, J. Normand, 
 K. Raghavachari, A. P. Rendell, J. C. Burant, S. S. Iyengar, 
 J. Tomasi, M. Cossi, J. M. Millam, M. Klene, C. Adamo, R. Cammi, 
 J. W. Ochterski, R. L. Martin, K. Morokuma, O. Farkas, 
 J. B. Foresman, and D. J. Fox, Gaussian, Inc., Wallingford CT, 2019.
 
 ******************************************
 Gaussian 16:  ES64L-G16RevC.01  3-Jul-2019
                 2-Jun-2023 
 ******************************************
 %NProcShared=2
 Will use up to    2 processors via shared memory.
 %mem=55gb
 %chk=/scratch1/svicchi/G09-659781.pbs02/02-freq/2ethylimidazolide-isolated-freq.
 chk
 ----------------------------------------------------------------------
 #p freq=raman scale=0.967 pop=(nbo,full,hirshfeld) guess=read geom=all
 check b3lyp/6-311+G(d,p) int=grid=ultrafine EmpiricalDispersion=GD3BJ 
 SCRF=(Solvent=ethanol) scf=(xqc,intrep,maxconventionalcycle=350) nosym
 m
 ----------------------------------------------------------------------
 1/10=4,29=7,30=1,38=1,114=967000/1,3;
 2/12=2,15=1,40=1/2;
 3/5=4,6=6,7=111,11=2,14=-4,25=1,30=1,70=2201,71=2,72=4,74=-5,75=-5,116=-2,124=41,140=1/1,2,3;
 4/5=1/1;
 5/5=2,8=3,13=1,17=20,38=6,53=4,85=350,98=1/2,8;
 8/6=4,10=90,11=11/1;
 10/13=10,15=4,31=1/2;
 11/6=3,8=1,9=11,15=111,16=1,31=1/1,2,10;
 10/6=1,31=1/2;
 6/7=3,28=1,40=1,79=1/1,7;
 7/8=1,10=1,25=1,30=1/1,2,3,16;
 1/10=4,30=1/3;
 99//99;
 Leave Link    1 at Fri Jun  2 11:24:44 2023, MaxMem=  7381975040 cpu:               2.9 elap:               2.9
 (Enter /software/commercial/gaussian/g16/AVX/g16/l101.exe)
 Structure from the checkpoint file:  "/scratch1/svicchi/G09-659781.pbs02/02-freq/2ethylimidazolide-isolated-freq.chk"
 ------------------------------
 2ethylimidazolide-isolated.gjf
 ------------------------------
 Charge = -1 Multiplicity = 1
 No Z-Matrix found in chk file; cartesian coordinates used.
  N                                                -0.829801989600     -0.473553690079     -0.728082636168
  N                                                 0.509104052072     -0.772080123530      1.087508252913
  C                                                -0.486224317134     -1.262601877316      0.314884969938
  C                                                -1.119888087038     -2.601864703690      0.563166155393
  C                                                 0.013478607826      0.608631617188     -0.614641076845
  C                                                 0.829727277954      0.426581269439      0.491293821841
  H                                                -0.021676183856      1.436473451718     -1.311759272544
  H                                                 1.601413001393      1.074298364238      0.888078378645
  C                                                -0.422551193237     -3.757272287807     -0.175088551458
  H                                                -2.169868107500     -2.563258415563      0.255239183041
  H                                                -1.108494547912     -2.806451639078      1.638653465433
  H                                                -0.443762025842     -3.595347123858     -1.256469027621
  H                                                -0.909971956297     -4.715222644585      0.033654596322
  H                                                 0.624336469171     -3.835950197076      0.131443741110
 Recover connectivity data from disk.
 ITRead=  0  0  0  0  0  0  0  0  0  0  0  0  0  0
 MicOpt= -1 -1 -1 -1 -1 -1 -1 -1 -1 -1 -1 -1 -1 -1
 NAtoms=     14 NQM=       14 NQMF=       0 NMMI=      0 NMMIF=      0
                NMic=       0 NMicF=      0.
                    Isotopes and Nuclear Properties:
 (Nuclear quadrupole moments (NQMom) in fm**2, nuclear magnetic moments (NMagM)
  in nuclear magnetons)

  Atom         1           2           3           4           5           6           7           8           9          10
 IAtWgt=          14          14          12          12          12          12           1           1          12           1
 AtmWgt=  14.0030740  14.0030740  12.0000000  12.0000000  12.0000000  12.0000000   1.0078250   1.0078250  12.0000000   1.0078250
 NucSpn=           2           2           0           0           0           0           1           1           0           1
 AtZEff=   4.5500000   4.5500000   3.6000000   3.6000000   3.6000000   3.6000000   1.0000000   1.0000000   3.6000000   1.0000000
 NQMom=    2.0440000   2.0440000   0.0000000   0.0000000   0.0000000   0.0000000   0.0000000   0.0000000   0.0000000   0.0000000
 NMagM=    0.4037610   0.4037610   0.0000000   0.0000000   0.0000000   0.0000000   2.7928460   2.7928460   0.0000000   2.7928460
 AtZNuc=   7.0000000   7.0000000   6.0000000   6.0000000   6.0000000   6.0000000   1.0000000   1.0000000   6.0000000   1.0000000

  Atom        11          12          13          14
 IAtWgt=           1           1           1           1
 AtmWgt=   1.0078250   1.0078250   1.0078250   1.0078250
 NucSpn=           1           1           1           1
 AtZEff=   1.0000000   1.0000000   1.0000000   1.0000000
 NQMom=    0.0000000   0.0000000   0.0000000   0.0000000
 NMagM=    2.7928460   2.7928460   2.7928460   2.7928460
 AtZNuc=   1.0000000   1.0000000   1.0000000   1.0000000
 Leave Link  101 at Fri Jun  2 11:24:46 2023, MaxMem=  7381975040 cpu:               0.9 elap:               1.1
 (Enter /software/commercial/gaussian/g16/AVX/g16/l103.exe)

 GradGradGradGradGradGradGradGradGradGradGradGradGradGradGradGradGradGrad
 Berny optimization.
 Initialization pass.
 Trust Radius=3.00D-01 FncErr=1.00D-07 GrdErr=1.00D-07 EigMax=2.50D+02 EigMin=1.00D-04
 Number of steps in this run=      2 maximum allowed number of steps=      2.
 GradGradGradGradGradGradGradGradGradGradGradGradGradGradGradGradGradGrad

 Leave Link  103 at Fri Jun  2 11:24:48 2023, MaxMem=  7381975040 cpu:               0.4 elap:               1.0
 (Enter /software/commercial/gaussian/g16/AVX/g16/l202.exe)
                          Input orientation:                          
 ---------------------------------------------------------------------
 Center     Atomic      Atomic             Coordinates (Angstroms)
 Number     Number       Type             X           Y           Z
 ---------------------------------------------------------------------
      1          7           0       -0.829802   -0.473554   -0.728083
      2          7           0        0.509104   -0.772080    1.087508
      3          6           0       -0.486224   -1.262602    0.314885
      4          6           0       -1.119888   -2.601865    0.563166
      5          6           0        0.013479    0.608632   -0.614641
      6          6           0        0.829727    0.426581    0.491294
      7          1           0       -0.021676    1.436473   -1.311759
      8          1           0        1.601413    1.074298    0.888078
      9          6           0       -0.422551   -3.757272   -0.175089
     10          1           0       -2.169868   -2.563258    0.255239
     11          1           0       -1.108495   -2.806452    1.638653
     12          1           0       -0.443762   -3.595347   -1.256469
     13          1           0       -0.909972   -4.715223    0.033655
     14          1           0        0.624336   -3.835950    0.131444
 ---------------------------------------------------------------------
                    Distance matrix (angstroms):
                    1          2          3          4          5
     1  N    0.000000
     2  N    2.275557   0.000000
     3  C    1.352192   1.352123   0.000000
     4  C    2.506228   2.505327   1.502264   0.000000
     5  C    1.376632   2.247070   2.148310   3.602643   0.000000
     6  C    2.247478   1.376612   2.148532   3.602451   1.386541
     7  H    2.154518   3.303925   3.185402   4.585803   1.082835
     8  H    3.304335   2.154536   3.185574   4.585327   2.235296
     9  C    3.354767   3.372463   2.543130   1.538267   4.409586
    10  H    2.670124   3.328345   2.128361   1.094882   3.947731
    11  H    3.334895   2.656888   2.126748   1.094833   4.242517
    12  H    3.189642   3.791177   2.812945   2.180648   4.277201
    13  H    4.310270   4.321199   3.489877   2.188773   5.442102
    14  H    3.762847   3.211641   2.808757   2.179833   4.547977
                    6          7          8          9         10
     6  C    0.000000
     7  H    2.235122   0.000000
     8  H    1.082809   2.757694   0.000000
     9  C    4.417793   5.331765   5.345169   0.000000
    10  H    4.241749   4.802923   5.277771   2.159622   0.000000
    11  H    3.940259   5.280959   4.792409   2.159685   1.760537
    12  H    4.566438   5.049795   5.530589   1.093642   2.515931
    13  H    5.447397   6.359448   6.368332   1.094907   2.503475
    14  H    4.282622   5.504418   5.063370   1.093675   3.072889
                   11         12         13         14
    11  H    0.000000
    12  H    3.073428   0.000000
    13  H    2.501767   1.770845   0.000000
    14  H    2.516794   1.767774   1.771097   0.000000
 Symmetry turned off by external request.
 Stoichiometry    C5H7N2(1-)
 Framework group  C1[X(C5H7N2)]
 Deg. of freedom    36
 Full point group                 C1      NOp   1
 Rotational constants (GHZ):           6.9075574           1.9505935           1.7105027
 Leave Link  202 at Fri Jun  2 11:24:50 2023, MaxMem=  7381975040 cpu:               0.3 elap:               1.5
 (Enter /software/commercial/gaussian/g16/AVX/g16/l301.exe)
 Standard basis: 6-311+G(d,p) (5D, 7F)
 Ernie: Thresh=  0.10000D-02 Tol=  0.10000D-05 Strict=F.
   196 basis functions,   308 primitive gaussians,   203 cartesian basis functions
    26 alpha electrons       26 beta electrons
       nuclear repulsion energy       279.1633750270 Hartrees.
 IExCor=  402 DFT=T Ex+Corr=B3LYP ExCW=0 ScaHFX=  0.200000
 ScaDFX=  0.800000  0.720000  1.000000  0.810000 ScalE2=  1.000000  1.000000
 IRadAn=      5 IRanWt=     -1 IRanGd=            0 ICorTp=0 IEmpDi=141
 NAtoms=   14 NActive=   14 NUniq=   14 SFac= 1.00D+00 NAtFMM=   60 NAOKFM=F Big=F
 Integral buffers will be    131072 words long.
 Raffenetti 2 integral format.
 Two-electron integral symmetry is turned off.
 R6Disp:  Grimme-D3(BJ) Dispersion energy=       -0.0195727619 Hartrees.
 Nuclear repulsion after empirical dispersion term =      279.1438022651 Hartrees.
 Force inversion solution in PCM.
 ------------------------------------------------------------------------------
 Polarizable Continuum Model (PCM)
 =================================
 Model                : PCM.
 Atomic radii         : UFF (Universal Force Field).
 Polarization charges : Total charges.
 Charge compensation  : None.
 Solution method      : Matrix inversion.
 Cavity type          : Scaled VdW (van der Waals Surface) (Alpha=1.100).
 Cavity algorithm     : GePol (No added spheres)
                        Default sphere list used, NSphG=   14.
                        Lebedev-Laikov grids with approx.  5.0 points / Ang**2.
                        Smoothing algorithm: York/Karplus (Gamma=1.0000).
                        Polarization charges: spherical gaussians, with
                                              point-specific exponents (IZeta= 3).
                        Self-potential: point-specific (ISelfS= 7).
                        Self-field    : sphere-specific E.n sum rule (ISelfD= 2).
 1st derivatives      : Analytical E(r).r(x)/FMM algorithm (CHGder, D1EAlg=3).
                        Cavity 1st derivative terms included.
 2nd derivatives      : Analytical E(r).r(xy)/FMM algorithm (CHGder, D2EAlg=3).
                        Cavity 2nd derivative terms included.
 Solvent              : Ethanol, Eps=  24.852000 Eps(inf)=   1.852593
 ------------------------------------------------------------------------------
 Spheres list:
 ISph  on   Nord     Re0    Alpha      Xe            Ye            Ze
    1   N      1    1.8300  1.100     -0.829802     -0.473554     -0.728083
    2   N      2    1.8300  1.100      0.509104     -0.772080      1.087508
    3   C      3    1.9255  1.100     -0.486224     -1.262602      0.314885
    4   C      4    1.9255  1.100     -1.119888     -2.601865      0.563166
    5   C      5    1.9255  1.100      0.013479      0.608632     -0.614641
    6   C      6    1.9255  1.100      0.829727      0.426581      0.491294
    7   H      7    1.4430  1.100     -0.021676      1.436473     -1.311759
    8   H      8    1.4430  1.100      1.601413      1.074298      0.888078
    9   C      9    1.9255  1.100     -0.422551     -3.757272     -0.175089
   10   H     10    1.4430  1.100     -2.169868     -2.563258      0.255239
   11   H     11    1.4430  1.100     -1.108495     -2.806452      1.638653
   12   H     12    1.4430  1.100     -0.443762     -3.595347     -1.256469
   13   H     13    1.4430  1.100     -0.909972     -4.715223      0.033655
   14   H     14    1.4430  1.100      0.624336     -3.835950      0.131444
 ------------------------------------------------------------------------------
 GePol: Number of generator spheres                  =      14
 GePol: Total number of spheres                      =      14
 GePol: Number of exposed spheres                    =      14 (100.00%)
 GePol: Number of points                             =    1210
 GePol: Average weight of points                     =       0.14
 GePol: Minimum weight of points                     =   0.18D-10
 GePol: Maximum weight of points                     =    0.20577
 GePol: Number of points with low weight             =      76
 GePol: Fraction of low-weight points (<1% of avg)   =       6.28%
 GePol: Cavity surface area                          =    165.573 Ang**2
 GePol: Cavity volume                                =    155.319 Ang**3
 Leave Link  301 at Fri Jun  2 11:24:53 2023, MaxMem=  7381975040 cpu:               0.5 elap:               1.3
 (Enter /software/commercial/gaussian/g16/AVX/g16/l302.exe)
 NPDir=0 NMtPBC=     1 NCelOv=     1 NCel=       1 NClECP=     1 NCelD=      1
         NCelK=      1 NCelE2=     1 NClLst=     1 CellRange=     0.0.
 One-electron integrals computed using PRISM.
 NBasis=   196 RedAO= T EigKep=  1.61D-05  NBF=   196
 NBsUse=   196 1.00D-06 EigRej= -1.00D+00 NBFU=   196
 Precomputing XC quadrature grid using
 IXCGrd= 4 IRadAn=           5 IRanWt=          -1 IRanGd=           0 AccXCQ= 0.00D+00.
 Generated NRdTot=       0 NPtTot=           0 NUsed=           0 NTot=          32
 NSgBfM=   203   203   203   203   203 MxSgAt=    14 MxSgA2=    14.
 Leave Link  302 at Fri Jun  2 11:24:56 2023, MaxMem=  7381975040 cpu:               1.2 elap:               1.7
 (Enter /software/commercial/gaussian/g16/AVX/g16/l303.exe)
 DipDrv:  MaxL=1.
 Leave Link  303 at Fri Jun  2 11:24:59 2023, MaxMem=  7381975040 cpu:               0.7 elap:               1.7
 (Enter /software/commercial/gaussian/g16/AVX/g16/l401.exe)
 Initial guess from the checkpoint file:  "/scratch1/svicchi/G09-659781.pbs02/02-freq/2ethylimidazolide-isolated-freq.chk"
 B after Tr=     0.000000    0.000000    0.000000
         Rot=    1.000000    0.000000    0.000000    0.000000 Ang=   0.00 deg.
 Guess basis will be translated and rotated to current coordinates.
 JPrj=2 DoOrth=T DoCkMO=T.
 Leave Link  401 at Fri Jun  2 11:25:03 2023, MaxMem=  7381975040 cpu:               1.5 elap:               2.7
 (Enter /software/commercial/gaussian/g16/AVX/g16/l502.exe)
 Keep R1 ints in memory in canonical form, NReq=190616234.
 FoFCou: FMM=F IPFlag=           0 FMFlag=           0 FMFlg1=           0
         NFxFlg=           0 DoJE=F BraDBF=F KetDBF=F FulRan=T
         wScrn=  0.000000 ICntrl=       600 IOpCl=  0 I1Cent=           0 NGrid=           0
         NMat0=    1 NMatS0=  19306 NMatT0=    0 NMatD0=    1 NMtDS0=    0 NMtDT0=    0
 Symmetry not used in FoFCou.
 Two-electron integral symmetry not used.
 Closed shell SCF:
 Using DIIS extrapolation, IDIIS=  1040.
 NGot=  7381975040 LenX=  7195518996 LenY=  7195477346
 Requested convergence on RMS density matrix=1.00D-08 within 350 cycles.
 Requested convergence on MAX density matrix=1.00D-06.
 Requested convergence on             energy=1.00D-06.
 No special actions if energy rises.

 Cycle   1  Pass 1  IDiag  1:
 Inv3:  Mode=1 IEnd=     4392300.
 Iteration    1 A*A^-1 deviation from unit magnitude is 2.44D-15 for   1206.
 Iteration    1 A*A^-1 deviation from orthogonality  is 1.52D-15 for   1192    934.
 Iteration    1 A^-1*A deviation from unit magnitude is 2.44D-15 for   1206.
 Iteration    1 A^-1*A deviation from orthogonality  is 1.13D-15 for   1181    169.
 E= -304.477871514716    
 DIIS: error= 2.09D-08 at cycle   1 NSaved=   1.
 NSaved= 1 IEnMin= 1 EnMin= -304.477871514716     IErMin= 1 ErrMin= 2.09D-08
 ErrMax= 2.09D-08  0.00D+00 EMaxC= 1.00D-01 BMatC= 8.96D-14 BMatP= 8.96D-14
 IDIUse=1 WtCom= 1.00D+00 WtEn= 0.00D+00
 Coeff-Com:  0.100D+01
 Coeff:      0.100D+01
 Gap=     0.195 Goal=   None    Shift=    0.000
 RMSDP=3.31D-09 MaxDP=1.08D-07              OVMax= 1.42D-07

 Error on total polarization charges =  0.02346
 SCF Done:  E(RB3LYP) =  -304.477871515     A.U. after    1 cycles
            NFock=  1  Conv=0.33D-08     -V/T= 2.0046
 KE= 3.030700882248D+02 PE=-1.277007787422D+03 EE= 3.903160254171D+02
 Leave Link  502 at Fri Jun  2 11:25:23 2023, MaxMem=  7381975040 cpu:              28.4 elap:              19.1
 (Enter /software/commercial/gaussian/g16/AVX/g16/l508.exe)
 QCSCF skips out because SCF is already converged.
 Leave Link  508 at Fri Jun  2 11:25:26 2023, MaxMem=  7381975040 cpu:               0.5 elap:               1.4
 (Enter /software/commercial/gaussian/g16/AVX/g16/l801.exe)
 DoSCS=F DFT=T ScalE2(SS,OS)=  1.000000  1.000000
 Range of M.O.s used for correlation:     1   196
 NBasis=   196 NAE=    26 NBE=    26 NFC=     0 NFV=     0
 NROrb=    196 NOA=    26 NOB=    26 NVA=   170 NVB=   170

 **** Warning!!: The largest alpha MO coefficient is  0.87334992D+02

 Leave Link  801 at Fri Jun  2 11:25:28 2023, MaxMem=  7381975040 cpu:               0.2 elap:               0.9
 (Enter /software/commercial/gaussian/g16/AVX/g16/l1002.exe)
 Minotr:  Closed shell wavefunction.
 NEqPCM:  Using equilibrium solvation (IEInf=0, Eps=  24.8520, EpsInf=   1.8526)
          Direct CPHF calculation.
          Differentiating once with respect to electric field.
                with respect to dipole field.
          Electric field/nuclear overlap derivatives assumed to be zero.
          Requested convergence is 1.0D-08 RMS, and 1.0D-07 maximum.
          Secondary convergence is 1.0D-12 RMS, and 1.0D-12 maximum.
          NewPWx=F KeepS1=T KeepF1=T KeepIn=T MapXYZ=F SortEE=F KeepMc=T.
         4306 words used for storage of precomputed grid.
 Keep R1 ints in memory in canonical form, NReq=191172553.
 FoFCou: FMM=F IPFlag=           0 FMFlag=           0 FMFlg1=           0
         NFxFlg=           0 DoJE=F BraDBF=F KetDBF=F FulRan=T
         wScrn=  0.000000 ICntrl=       600 IOpCl=  0 I1Cent=           0 NGrid=           0
         NMat0=    1 NMatS0=  19306 NMatT0=    0 NMatD0=    1 NMtDS0=    0 NMtDT0=    0
 Symmetry not used in FoFCou.
 Two-electron integral symmetry not used.
          MDV=    7381975040 using IRadAn=       1.
          Solving linear equations simultaneously, MaxMat=       0.
          There are     3 degrees of freedom in the 1st order CPHF.  IDoFFX=0 NUNeed=     3.
      3 vectors produced by pass  0 Test12= 1.47D-13 3.33D-08 XBig12= 7.75D+01 3.03D+00.
 AX will form     3 AO Fock derivatives at one time.
      3 vectors produced by pass  1 Test12= 1.47D-13 3.33D-08 XBig12= 2.42D+01 1.32D+00.
      3 vectors produced by pass  2 Test12= 1.47D-13 3.33D-08 XBig12= 3.51D+00 4.00D-01.
      3 vectors produced by pass  3 Test12= 1.47D-13 3.33D-08 XBig12= 7.58D-01 2.50D-01.
      3 vectors produced by pass  4 Test12= 1.47D-13 3.33D-08 XBig12= 1.62D-01 8.40D-02.
      3 vectors produced by pass  5 Test12= 1.47D-13 3.33D-08 XBig12= 1.36D-02 4.38D-02.
      3 vectors produced by pass  6 Test12= 1.47D-13 3.33D-08 XBig12= 1.33D-03 4.43D-03.
      3 vectors produced by pass  7 Test12= 1.47D-13 3.33D-08 XBig12= 5.96D-05 1.50D-03.
      3 vectors produced by pass  8 Test12= 1.47D-13 3.33D-08 XBig12= 1.50D-06 1.88D-04.
      3 vectors produced by pass  9 Test12= 1.47D-13 3.33D-08 XBig12= 4.80D-08 4.83D-05.
      3 vectors produced by pass 10 Test12= 1.47D-13 3.33D-08 XBig12= 9.91D-10 7.42D-06.
      3 vectors produced by pass 11 Test12= 1.47D-13 3.33D-08 XBig12= 2.46D-11 1.20D-06.
      3 vectors produced by pass 12 Test12= 1.47D-13 3.33D-08 XBig12= 8.76D-13 2.19D-07.
 InvSVY:  IOpt=1 It=  1 EMax= 5.33D-15
 Solved reduced A of dimension    39 with     3 vectors.
 End of Minotr F.D. properties file   721 does not exist.
 End of Minotr F.D. properties file   722 does not exist.
 End of Minotr F.D. properties file   788 does not exist.
 Leave Link 1002 at Fri Jun  2 11:26:50 2023, MaxMem=  7381975040 cpu:             141.8 elap:              80.3
 (Enter /software/commercial/gaussian/g16/AVX/g16/l1101.exe)
 Using compressed storage, NAtomX=    14.
 Will process     15 centers per pass.
 R6Disp: Adding Grimme-D3(BJ) dispersion energy 1st derivatives to the gradient.
 Leave Link 1101 at Fri Jun  2 11:26:54 2023, MaxMem=  7381975040 cpu:               1.1 elap:               2.1
 (Enter /software/commercial/gaussian/g16/AVX/g16/l1102.exe)
 Symmetrizing basis deriv contribution to polar:
 IMax=3 JMax=2 DiffMx= 0.00D+00
 Leave Link 1102 at Fri Jun  2 11:26:57 2023, MaxMem=  7381975040 cpu:               0.4 elap:               1.7
 (Enter /software/commercial/gaussian/g16/AVX/g16/l1110.exe)
 Forming Gx(P) for the SCF density, NAtomX=    14.
 Integral derivatives from FoFJK, PRISM(SPDF).
 Do as many integral derivatives as possible in FoFJK.
 G2DrvN: MDV=    7381973462.
 G2DrvN: will do    15 centers at a time, making    1 passes.
 PxScal for G2LodP:  IOpCl= 0 ISclPx=1 IMOff=     1 NMtTot=     4 NTT=   19306 ScalPx= 1.06D+01
 Calling FoFCou, ICntrl=  3107 FMM=F I1Cent=   0 AccDes= 0.00D+00.
 FoFJK:  IHMeth= 1 ICntrl=    3107 DoSepK=F KAlg= 0 I1Cent=           0 FoldK=F
 IRaf=         0 NMat=       1 IRICut=       1 DoRegI=T DoRafI=F ISym2E= 0 IDoP0=0 IntGTp=1.
 FoFCou: FMM=F IPFlag=           0 FMFlag=      100000 FMFlg1=           0
         NFxFlg=           0 DoJE=F BraDBF=F KetDBF=F FulRan=T
         wScrn=  0.000000 ICntrl=      3107 IOpCl=  0 I1Cent=           0 NGrid=           0
         NMat0=    1 NMatS0=      1 NMatT0=    0 NMatD0=    4 NMtDS0=    3 NMtDT0=    0
 Symmetry not used in FoFCou.
 PxScal for G2LodP:  IOpCl= 0 ISclPx=0 IMOff=     1 NMtTot=     4 NTT=   19306 ScalPx= 1.00D+00
 NEqPCM:  Using equilibrium solvation (IEInf=0, Eps=  24.8520, EpsInf=   1.8526)
 G2PCM: DoFxE=T DoFxN=T DoGrad=T DoDP/DQ/DG/TGxP=TFFF NFrqRd=   0 IEInf=0 SqF1=F DoCFld=F IF1Alg=4.
 GePol: Maximum number of non-zero 1st derivatives   =     221
 End of G2Drv F.D. properties file   721 does not exist.
 End of G2Drv F.D. properties file   722 does not exist.
 End of G2Drv F.D. properties file   788 does not exist.
 Leave Link 1110 at Fri Jun  2 11:30:18 2023, MaxMem=  7381975040 cpu:             390.2 elap:             200.3
 (Enter /software/commercial/gaussian/g16/AVX/g16/l1002.exe)
 Minotr:  Closed shell wavefunction.
          IDoAtm=11111111111111
 NEqPCM:  Using equilibrium solvation (IEInf=0, Eps=  24.8520, EpsInf=   1.8526)
          Direct CPHF calculation.
          Differentiating once with respect to electric field.
                with respect to dipole field.
          Differentiating once with respect to nuclear coordinates.
          Requested convergence is 1.0D-08 RMS, and 1.0D-07 maximum.
          Secondary convergence is 1.0D-12 RMS, and 1.0D-12 maximum.
          NewPWx=T KeepS1=F KeepF1=F KeepIn=T MapXYZ=F SortEE=F KeepMc=T.
         4306 words used for storage of precomputed grid.
 Keep R1 ints in memory in canonical form, NReq=191172875.
 FoFCou: FMM=F IPFlag=           0 FMFlag=           0 FMFlg1=           0
         NFxFlg=           0 DoJE=F BraDBF=F KetDBF=F FulRan=T
         wScrn=  0.000000 ICntrl=       600 IOpCl=  0 I1Cent=           0 NGrid=           0
         NMat0=    1 NMatS0=  19306 NMatT0=    0 NMatD0=    1 NMtDS0=    0 NMtDT0=    0
 Symmetry not used in FoFCou.
 Two-electron integral symmetry not used.
          MDV=    7381975040 using IRadAn=       1.
          Solving linear equations simultaneously, MaxMat=       0.
          There are    45 degrees of freedom in the 1st order CPHF.  IDoFFX=5 NUNeed=    45.
 Will reuse    3 saved solutions.
     39 vectors produced by pass  0 Test12= 9.82D-15 2.22D-09 XBig12= 1.21D-01 8.80D-02.
 AX will form    39 AO Fock derivatives at one time.
     39 vectors produced by pass  1 Test12= 9.82D-15 2.22D-09 XBig12= 1.03D-02 4.01D-02.
     39 vectors produced by pass  2 Test12= 9.82D-15 2.22D-09 XBig12= 1.64D-04 3.14D-03.
     39 vectors produced by pass  3 Test12= 9.82D-15 2.22D-09 XBig12= 8.13D-07 1.78D-04.
     39 vectors produced by pass  4 Test12= 9.82D-15 2.22D-09 XBig12= 2.43D-09 7.74D-06.
     33 vectors produced by pass  5 Test12= 9.82D-15 2.22D-09 XBig12= 6.57D-12 3.76D-07.
     14 vectors produced by pass  6 Test12= 9.82D-15 2.22D-09 XBig12= 8.72D-15 1.27D-08.
 InvSVY:  IOpt=1 It=  1 EMax= 1.78D-15
 Solved reduced A of dimension   242 with    39 vectors.
 FullF1:  Do perturbations      1 to       3.
 Isotropic polarizability for W=    0.000000      109.59 Bohr**3.
 FullF1:  Do perturbations      1 to       6.
 End of Minotr F.D. properties file   721 does not exist.
 End of Minotr F.D. properties file   722 does not exist.
 End of Minotr F.D. properties file   788 does not exist.
 Leave Link 1002 at Fri Jun  2 11:34:15 2023, MaxMem=  7381975040 cpu:             445.6 elap:             236.4
 (Enter /software/commercial/gaussian/g16/AVX/g16/l601.exe)
 Copying SCF densities to generalized density rwf, IOpCl= 0 IROHF=0.

 **********************************************************************

            Population analysis using the SCF Density.

 **********************************************************************

 Alpha  occ. eigenvalues --  -14.25291 -14.25284 -10.16646 -10.15184 -10.14803
 Alpha  occ. eigenvalues --  -10.14176 -10.14119  -0.94037  -0.78844  -0.75976
 Alpha  occ. eigenvalues --   -0.67691  -0.60690  -0.53753  -0.49326  -0.45392
 Alpha  occ. eigenvalues --   -0.42993  -0.40890  -0.37749  -0.37442  -0.34444
 Alpha  occ. eigenvalues --   -0.32766  -0.32699  -0.26505  -0.22742  -0.22429
 Alpha  occ. eigenvalues --   -0.18066
 Alpha virt. eigenvalues --    0.01464   0.02603   0.03715   0.04086   0.05319
 Alpha virt. eigenvalues --    0.05798   0.06354   0.06730   0.07916   0.08477
 Alpha virt. eigenvalues --    0.08579   0.09311   0.09430   0.10209   0.10981
 Alpha virt. eigenvalues --    0.13236   0.13298   0.14904   0.15421   0.16303
 Alpha virt. eigenvalues --    0.17449   0.18822   0.19151   0.20846   0.20951
 Alpha virt. eigenvalues --    0.21693   0.22007   0.23098   0.24677   0.24870
 Alpha virt. eigenvalues --    0.25484   0.26202   0.26289   0.28295   0.29936
 Alpha virt. eigenvalues --    0.30070   0.30644   0.31660   0.32920   0.35319
 Alpha virt. eigenvalues --    0.36302   0.41821   0.44398   0.46175   0.46678
 Alpha virt. eigenvalues --    0.48737   0.49915   0.52942   0.56901   0.58313
 Alpha virt. eigenvalues --    0.58697   0.62136   0.62216   0.63309   0.65194
 Alpha virt. eigenvalues --    0.65960   0.67510   0.69405   0.70376   0.71243
 Alpha virt. eigenvalues --    0.72664   0.77200   0.77990   0.78394   0.81621
 Alpha virt. eigenvalues --    0.82223   0.83785   0.89771   0.90004   0.92188
 Alpha virt. eigenvalues --    0.93989   0.95843   0.96963   0.97424   1.00631
 Alpha virt. eigenvalues --    1.05383   1.08334   1.09998   1.14055   1.21069
 Alpha virt. eigenvalues --    1.24001   1.25052   1.28885   1.29026   1.30954
 Alpha virt. eigenvalues --    1.41433   1.42012   1.45955   1.54543   1.54647
 Alpha virt. eigenvalues --    1.57680   1.59094   1.60083   1.63186   1.64775
 Alpha virt. eigenvalues --    1.66625   1.67119   1.73040   1.73620   1.75609
 Alpha virt. eigenvalues --    1.77039   1.77655   1.79253   1.82474   1.83617
 Alpha virt. eigenvalues --    1.91401   1.93648   1.98202   2.06732   2.09497
 Alpha virt. eigenvalues --    2.10194   2.11852   2.13996   2.19679   2.24078
 Alpha virt. eigenvalues --    2.31387   2.31931   2.35502   2.39481   2.45408
 Alpha virt. eigenvalues --    2.45751   2.47531   2.53803   2.55483   2.56751
 Alpha virt. eigenvalues --    2.57430   2.58071   2.62432   2.64736   2.66832
 Alpha virt. eigenvalues --    2.70410   2.72475   2.72610   2.73830   2.79130
 Alpha virt. eigenvalues --    2.81843   2.82370   2.82944   2.85633   2.87711
 Alpha virt. eigenvalues --    2.97804   2.98628   3.01133   3.06320   3.17012
 Alpha virt. eigenvalues --    3.27134   3.32369   3.35419   3.62712   3.65865
 Alpha virt. eigenvalues --    3.69196   3.81787   3.82054   3.88433   3.97882
 Alpha virt. eigenvalues --    3.98339   4.05830   4.13937   4.25065   4.56092
 Alpha virt. eigenvalues --    4.59989   4.84275   5.28018  23.84705  23.88223
 Alpha virt. eigenvalues --   23.91453  23.99173  24.15283  35.56005  35.73683
     Molecular Orbital Coefficients:
                           1         2         3         4         5
                           O         O         O         O         O
     Eigenvalues --   -14.25291 -14.25284 -10.16646 -10.15184 -10.14803
   1 1   N  1S         -0.12051   0.54420  -0.00006   0.00000  -0.00000
   2        2S         -0.10062   0.45478  -0.00002   0.00004  -0.00000
   3        2PX        -0.00016   0.00085   0.00015  -0.00002  -0.00000
   4        2PY        -0.00010   0.00025  -0.00028  -0.00008   0.00002
   5        2PZ        -0.00010   0.00080   0.00040   0.00005  -0.00000
   6        3S         -0.00401   0.01567   0.00067  -0.00022   0.00003
   7        3PX        -0.00034   0.00061  -0.00041   0.00005   0.00001
   8        3PY         0.00026  -0.00004   0.00081   0.00037  -0.00011
   9        3PZ        -0.00062   0.00070  -0.00114  -0.00027   0.00003
  10        4S          0.00588  -0.01773  -0.00343   0.00052   0.00023
  11        4PX         0.00045  -0.00264  -0.00061   0.00022  -0.00000
  12        4PY        -0.00086   0.00032   0.00021  -0.00035   0.00071
  13        4PZ         0.00127  -0.00313  -0.00091   0.00070  -0.00024
  14        5S          0.00175   0.00605   0.01155   0.00307  -0.00271
  15        5PX        -0.00067  -0.00046   0.00150   0.00031   0.00083
  16        5PY        -0.00222  -0.00252  -0.00317  -0.00131   0.00199
  17        5PZ         0.00093   0.00067   0.00382   0.00051  -0.00035
  18        6D 0       -0.00009  -0.00005  -0.00045  -0.00001   0.00000
  19        6D+1       -0.00011   0.00005  -0.00054   0.00004  -0.00002
  20        6D-1        0.00013  -0.00024   0.00086   0.00013   0.00003
  21        6D+2        0.00002  -0.00019   0.00023   0.00007   0.00002
  22        6D-2        0.00005   0.00017   0.00018   0.00003   0.00001
  23 2   N  1S          0.54420   0.12051  -0.00006   0.00000  -0.00000
  24        2S          0.45474   0.10078  -0.00002   0.00004  -0.00000
  25        2PX        -0.00042  -0.00016  -0.00037  -0.00006   0.00001
  26        2PY         0.00055   0.00010  -0.00016  -0.00007   0.00002
  27        2PZ        -0.00094  -0.00027  -0.00030  -0.00001   0.00001
  28        3S          0.01589   0.00297   0.00066  -0.00023   0.00003
  29        3PX        -0.00065   0.00027   0.00107   0.00033  -0.00004
  30        3PY         0.00015   0.00015   0.00048   0.00031  -0.00010
  31        3PZ        -0.00093   0.00016   0.00086   0.00011  -0.00004
  32        4S         -0.01849  -0.00210  -0.00342   0.00055   0.00024
  33        4PX         0.00245  -0.00018   0.00069  -0.00064   0.00033
  34        4PY        -0.00049  -0.00076  -0.00008  -0.00014   0.00061
  35        4PZ         0.00347   0.00057   0.00087  -0.00048   0.00023
  36        5S          0.00469   0.00418   0.01155   0.00321  -0.00283
  37        5PX        -0.00040  -0.00177  -0.00360  -0.00053   0.00088
  38        5PY        -0.00122  -0.00291  -0.00205  -0.00095   0.00204
  39        5PZ        -0.00022  -0.00022  -0.00315  -0.00085  -0.00017
  40        6D 0       -0.00010  -0.00008  -0.00004   0.00005  -0.00000
  41        6D+1        0.00018  -0.00010  -0.00092  -0.00003  -0.00003
  42        6D-1       -0.00002  -0.00006  -0.00025  -0.00009  -0.00002
  43        6D+2       -0.00004  -0.00010  -0.00035  -0.00004   0.00001
  44        6D-2        0.00029   0.00007  -0.00052  -0.00011  -0.00002
  45 3   C  1S         -0.00000  -0.00000   0.56290  -0.00499   0.00024
  46        2S          0.00006   0.00009   0.46335  -0.00410   0.00023
  47        2PX         0.00038  -0.00005  -0.00003  -0.00028  -0.00003
  48        2PY         0.00009   0.00028  -0.00004  -0.00052  -0.00008
  49        2PZ         0.00035  -0.00031   0.00002   0.00012   0.00001
  50        3S          0.00010   0.00017   0.01826   0.00009  -0.00025
  51        3PX        -0.00098   0.00007   0.00050   0.00079   0.00017
  52        3PY        -0.00024  -0.00073   0.00082   0.00143   0.00054
  53        3PZ        -0.00087   0.00082  -0.00023  -0.00035  -0.00003
  54        4S          0.00281   0.00433  -0.01222   0.00269   0.00212
  55        4PX         0.00592   0.00016   0.00044  -0.00275  -0.00078
  56        4PY         0.00231   0.00572   0.00101  -0.00640  -0.00217
  57        4PZ         0.00483  -0.00489  -0.00018   0.00098   0.00020
  58        5S         -0.00653  -0.01067  -0.00751   0.00995   0.01134
  59        5PX        -0.00040  -0.00020  -0.00886  -0.00720  -0.00174
  60        5PY         0.00056   0.00086  -0.01530  -0.01185  -0.00400
  61        5PZ        -0.00001   0.00057   0.00404   0.00366   0.00072
  62        6D 0        0.00005  -0.00049   0.00005   0.00045  -0.00000
  63        6D+1       -0.00055  -0.00029   0.00103   0.00033  -0.00002
  64        6D-1       -0.00074   0.00054  -0.00064   0.00021   0.00003
  65        6D+2       -0.00056  -0.00000  -0.00029   0.00042  -0.00002
  66        6D-2       -0.00037   0.00050   0.00072  -0.00059  -0.00003
  67 4   C  1S         -0.00001  -0.00001   0.00496   0.56274  -0.01571
  68        2S          0.00003   0.00005   0.00410   0.46303  -0.01296
  69        2PX         0.00009   0.00005   0.00025   0.00017   0.00022
  70        2PY         0.00005   0.00009   0.00049  -0.00012  -0.00031
  71        2PZ         0.00003  -0.00008  -0.00010  -0.00015  -0.00023
  72        3S         -0.00027  -0.00043   0.00049   0.01939  -0.00015
  73        3PX        -0.00043  -0.00034  -0.00078  -0.00127  -0.00056
  74        3PY        -0.00027  -0.00050  -0.00130   0.00025   0.00051
  75        3PZ        -0.00004   0.00038   0.00036   0.00102   0.00052
  76        4S          0.00287   0.00460   0.00131  -0.01972   0.00077
  77        4PX        -0.00096   0.00203  -0.00027  -0.00274   0.00023
  78        4PY         0.00086   0.00063   0.00089  -0.00185  -0.00209
  79        4PZ        -0.00251   0.00079   0.00039   0.00179  -0.00055
  80        5S         -0.01236  -0.01932  -0.02909  -0.03316   0.02114
  81        5PX        -0.00224  -0.00381  -0.00342  -0.00249   0.00428
  82        5PY         0.00159   0.00258  -0.00428  -0.00473  -0.00580
  83        5PZ         0.00225   0.00317   0.00189   0.00103  -0.00434
  84        6D 0        0.00014   0.00021   0.00053   0.00040   0.00015
  85        6D+1        0.00005   0.00018   0.00011   0.00038   0.00028
  86        6D-1       -0.00017   0.00014   0.00029  -0.00033  -0.00041
  87        6D+2        0.00008   0.00026   0.00065   0.00057   0.00026
  88        6D-2       -0.00025  -0.00011  -0.00075   0.00006   0.00035
  89 5   C  1S         -0.00001   0.00001   0.00000  -0.00007  -0.00002
  90        2S          0.00002   0.00002  -0.00002  -0.00003  -0.00001
  91        2PX         0.00014  -0.00029   0.00001  -0.00001  -0.00000
  92        2PY         0.00009  -0.00028   0.00007   0.00001   0.00002
  93        2PZ         0.00009  -0.00010  -0.00005  -0.00001  -0.00000
  94        3S         -0.00001   0.00034   0.00024  -0.00026  -0.00005
  95        3PX        -0.00074   0.00074  -0.00009   0.00005   0.00001
  96        3PY         0.00006   0.00063  -0.00041   0.00001  -0.00008
  97        3PZ        -0.00090   0.00033   0.00025  -0.00003   0.00002
  98        4S         -0.00528   0.00694  -0.00043   0.00099  -0.00076
  99        4PX        -0.00037  -0.00106  -0.00001  -0.00038   0.00027
 100        4PY         0.00437  -0.00319  -0.00000  -0.00077  -0.00026
 101        4PZ        -0.00398   0.00141  -0.00003   0.00036   0.00053
 102        5S          0.00427  -0.00082   0.00862   0.00622  -0.00030
 103        5PX        -0.00018  -0.00013  -0.00166  -0.00044   0.00008
 104        5PY        -0.00067   0.00016  -0.00160  -0.00147   0.00008
 105        5PZ         0.00006  -0.00017  -0.00074   0.00056   0.00001
 106        6D 0       -0.00032   0.00056  -0.00003   0.00002  -0.00001
 107        6D+1       -0.00038   0.00024  -0.00005   0.00002  -0.00002
 108        6D-1       -0.00012  -0.00041  -0.00010  -0.00009   0.00001
 109        6D+2       -0.00034   0.00010  -0.00009  -0.00003  -0.00002
 110        6D-2        0.00027  -0.00066   0.00001   0.00002   0.00001
 111 6   C  1S          0.00001  -0.00000   0.00000  -0.00006  -0.00002
 112        2S          0.00001   0.00003  -0.00002  -0.00003  -0.00001
 113        2PX        -0.00002  -0.00004   0.00006   0.00000   0.00001
 114        2PY        -0.00036  -0.00003   0.00006   0.00001   0.00002
 115        2PZ         0.00028  -0.00002   0.00002   0.00002   0.00000
 116        3S          0.00031   0.00013   0.00024  -0.00025  -0.00006
 117        3PX        -0.00025   0.00059  -0.00032   0.00005  -0.00004
 118        3PY         0.00082   0.00011  -0.00036   0.00001  -0.00007
 119        3PZ        -0.00099   0.00058  -0.00008  -0.00003  -0.00003
 120        4S          0.00851  -0.00187  -0.00045   0.00089  -0.00069
 121        4PX        -0.00377   0.00300   0.00002  -0.00057  -0.00046
 122        4PY        -0.00408   0.00178  -0.00000  -0.00066  -0.00014
 123        4PZ        -0.00105   0.00212   0.00003   0.00008  -0.00047
 124        5S         -0.00258   0.00363   0.00869   0.00488  -0.00033
 125        5PX         0.00022  -0.00016  -0.00008  -0.00069   0.00006
 126        5PY         0.00040  -0.00056  -0.00196  -0.00121   0.00015
 127        5PZ         0.00016   0.00009   0.00142   0.00011  -0.00013
 128        6D 0        0.00036  -0.00024  -0.00007  -0.00002  -0.00002
 129        6D+1        0.00065  -0.00006  -0.00000   0.00005  -0.00001
 130        6D-1        0.00046   0.00025   0.00005   0.00001  -0.00000
 131        6D+2        0.00064   0.00001  -0.00001   0.00002  -0.00001
 132        6D-2       -0.00022   0.00030   0.00011   0.00008  -0.00000
 133 7   H  1S          0.00010  -0.00013  -0.00006  -0.00003  -0.00004
 134        2S         -0.00169  -0.00039   0.00033   0.00006   0.00040
 135        3S         -0.00140   0.00125  -0.00044   0.00018  -0.00013
 136        4PX        -0.00008   0.00018  -0.00001   0.00002  -0.00001
 137        4PY         0.00019   0.00037  -0.00006   0.00004  -0.00005
 138        4PZ        -0.00023  -0.00009   0.00004  -0.00000   0.00003
 139 8   H  1S         -0.00016   0.00004  -0.00006  -0.00003  -0.00004
 140        2S          0.00037  -0.00170   0.00033   0.00006   0.00040
 141        3S          0.00171  -0.00075  -0.00044   0.00016  -0.00012
 142        4PX         0.00008   0.00028  -0.00005   0.00002  -0.00004
 143        4PY         0.00029   0.00027  -0.00005   0.00004  -0.00004
 144        4PZ        -0.00014   0.00013  -0.00002  -0.00001  -0.00001
 145 9   C  1S         -0.00000  -0.00000  -0.00010   0.01570   0.56275
 146        2S          0.00000   0.00000  -0.00005   0.01288   0.46301
 147        2PX        -0.00002   0.00000  -0.00005  -0.00023  -0.00009
 148        2PY         0.00001   0.00001   0.00007   0.00033   0.00009
 149        2PZ        -0.00002   0.00002   0.00005   0.00023   0.00009
 150        3S          0.00006   0.00011  -0.00032   0.00068   0.01929
 151        3PX         0.00012  -0.00009   0.00026   0.00056   0.00083
 152        3PY        -0.00005  -0.00002  -0.00046  -0.00081  -0.00121
 153        3PZ         0.00017  -0.00011  -0.00028  -0.00057  -0.00085
 154        4S         -0.00083  -0.00128   0.00201   0.00575  -0.01106
 155        4PX         0.00056  -0.00052   0.00029  -0.00095   0.00035
 156        4PY        -0.00058  -0.00063   0.00091   0.00195  -0.00167
 157        4PZ         0.00074  -0.00057  -0.00007   0.00107  -0.00056
 158        5S          0.01171   0.01847   0.00736   0.00499  -0.02951
 159        5PX        -0.00086  -0.00140   0.00016  -0.00035   0.00227
 160        5PY         0.00276   0.00437   0.00228   0.00113  -0.00524
 161        5PZ         0.00122   0.00184   0.00027   0.00047  -0.00266
 162        6D 0       -0.00005  -0.00002  -0.00001   0.00009   0.00011
 163        6D+1       -0.00000  -0.00004   0.00008   0.00035   0.00030
 164        6D-1        0.00002  -0.00004  -0.00017  -0.00048  -0.00049
 165        6D+2        0.00000  -0.00005   0.00002   0.00015   0.00022
 166        6D-2        0.00006   0.00004   0.00021   0.00047   0.00047
 167 10  H  1S          0.00003  -0.00001  -0.00010   0.00007  -0.00009
 168        2S         -0.00102  -0.00033  -0.00068  -0.00234  -0.00030
 169        3S          0.00058   0.00171  -0.00002   0.00423  -0.00123
 170        4PX        -0.00016  -0.00015  -0.00028  -0.00189  -0.00018
 171        4PY         0.00012  -0.00004   0.00011   0.00009  -0.00002
 172        4PZ         0.00005  -0.00005  -0.00017  -0.00075  -0.00008
 173 11  H  1S         -0.00002   0.00003  -0.00010   0.00007  -0.00009
 174        2S          0.00015  -0.00110  -0.00067  -0.00235  -0.00030
 175        3S          0.00130   0.00122  -0.00007   0.00421  -0.00119
 176        4PX         0.00002  -0.00006   0.00010   0.00021   0.00002
 177        4PY        -0.00011   0.00005   0.00002  -0.00039  -0.00007
 178        4PZ         0.00006   0.00022   0.00032   0.00199   0.00018
 179 12  H  1S         -0.00010  -0.00002   0.00005  -0.00004   0.00020
 180        2S          0.00080   0.00023  -0.00060  -0.00104  -0.00307
 181        3S          0.00003  -0.00060  -0.00082   0.00051   0.00431
 182        4PX        -0.00000   0.00006  -0.00006  -0.00006  -0.00009
 183        4PY         0.00002   0.00002  -0.00008   0.00011   0.00046
 184        4PZ         0.00015   0.00001  -0.00017  -0.00033  -0.00201
 185 13  H  1S         -0.00002  -0.00002  -0.00003   0.00002   0.00025
 186        2S          0.00004   0.00004  -0.00024  -0.00121  -0.00343
 187        3S         -0.00023  -0.00038   0.00048   0.00023   0.00409
 188        4PX        -0.00007   0.00001  -0.00007  -0.00017  -0.00103
 189        4PY         0.00001  -0.00001  -0.00011  -0.00041  -0.00176
 190        4PZ        -0.00006   0.00007   0.00003   0.00006   0.00049
 191 14  H  1S          0.00003  -0.00010   0.00005  -0.00004   0.00020
 192        2S         -0.00012   0.00085  -0.00061  -0.00104  -0.00305
 193        3S         -0.00056  -0.00020  -0.00078   0.00050   0.00428
 194        4PX         0.00007  -0.00013   0.00014   0.00031   0.00195
 195        4PY         0.00001   0.00006  -0.00012   0.00003   0.00000
 196        4PZ        -0.00003  -0.00005   0.00008   0.00016   0.00065
                           6         7         8         9        10
                           O         O         O         O         O
     Eigenvalues --   -10.14176 -10.14119  -0.94037  -0.78844  -0.75976
   1 1   N  1S         -0.00004   0.00003  -0.06157  -0.07854   0.00489
   2        2S         -0.00004   0.00005  -0.09633  -0.12360   0.00770
   3        2PX         0.00022  -0.00017   0.03250   0.02730  -0.01220
   4        2PY         0.00026  -0.00012   0.00329   0.01188  -0.02516
   5        2PZ         0.00006  -0.00010   0.03535   0.02234   0.00475
   6        3S          0.00079  -0.00041   0.26064   0.34157  -0.02098
   7        3PX        -0.00058   0.00024   0.04931   0.04115  -0.01840
   8        3PY        -0.00062  -0.00004   0.00539   0.01898  -0.03824
   9        3PZ        -0.00019   0.00033   0.05342   0.03284   0.00739
  10        4S         -0.00484  -0.00091   0.16798   0.24940  -0.01851
  11        4PX        -0.00149  -0.00007   0.01781   0.01488  -0.00728
  12        4PY        -0.00105   0.00082   0.00153   0.00407  -0.01314
  13        4PZ        -0.00083  -0.00080   0.01878   0.01378   0.00048
  14        5S          0.00723  -0.00724  -0.07294  -0.04246   0.00026
  15        5PX         0.00223  -0.00253  -0.01023  -0.00706  -0.00126
  16        5PY         0.00240  -0.00155   0.00841  -0.00023   0.00650
  17        5PZ         0.00068  -0.00154  -0.01580  -0.00710  -0.00381
  18        6D 0        0.00036  -0.00009   0.00140  -0.00206   0.00177
  19        6D+1       -0.00021   0.00027   0.00722   0.00163  -0.00145
  20        6D-1       -0.00010   0.00003  -0.00367  -0.00352  -0.00390
  21        6D+2        0.00012   0.00001  -0.00048  -0.00342  -0.00169
  22        6D-2       -0.00070   0.00032   0.00333   0.00508  -0.00376
  23 2   N  1S         -0.00003  -0.00004  -0.06160   0.07853   0.00476
  24        2S         -0.00003  -0.00005  -0.09638   0.12358   0.00749
  25        2PX         0.00006  -0.00002  -0.02268   0.01071  -0.01212
  26        2PY         0.00028   0.00020   0.01560  -0.02036  -0.02514
  27        2PZ        -0.00015  -0.00018  -0.03949   0.02924   0.00485
  28        3S          0.00073   0.00050   0.26079  -0.34153  -0.02040
  29        3PX        -0.00012   0.00023  -0.03416   0.01519  -0.01853
  30        3PY        -0.00072  -0.00015   0.02401  -0.03155  -0.03815
  31        3PZ         0.00043   0.00037  -0.05978   0.04361   0.00719
  32        4S         -0.00492   0.00033   0.16794  -0.24935  -0.01805
  33        4PX         0.00025  -0.00083  -0.01186   0.00775  -0.00479
  34        4PY        -0.00136  -0.00079   0.00818  -0.00911  -0.01371
  35        4PZ         0.00146  -0.00029  -0.02153   0.01686   0.00391
  36        5S          0.00621   0.00796  -0.07267   0.04216   0.00045
  37        5PX         0.00048  -0.00036   0.01279  -0.00435   0.00396
  38        5PY         0.00249   0.00255   0.00323   0.00296   0.00460
  39        5PZ        -0.00144  -0.00265   0.01572  -0.00844   0.00366
  40        6D 0        0.00011  -0.00004   0.00155   0.00234  -0.00089
  41        6D+1        0.00005  -0.00013   0.00714  -0.00191   0.00141
  42        6D-1        0.00056   0.00042  -0.00380   0.00266   0.00489
  43        6D+2        0.00046   0.00024  -0.00060   0.00298   0.00264
  44        6D-2       -0.00024  -0.00011   0.00327  -0.00563   0.00190
  45 3   C  1S         -0.00000  -0.00000  -0.06071  -0.00002  -0.03533
  46        2S         -0.00004  -0.00000  -0.09315  -0.00003  -0.05473
  47        2PX        -0.00000  -0.00001   0.02000  -0.05129  -0.01728
  48        2PY        -0.00002  -0.00000   0.03868   0.01143  -0.04111
  49        2PZ        -0.00000  -0.00001  -0.00836  -0.06955   0.00606
  50        3S          0.00016   0.00001   0.24070   0.00007   0.14674
  51        3PX        -0.00003   0.00006   0.03015  -0.07277  -0.02693
  52        3PY         0.00004  -0.00001   0.05735   0.01621  -0.06429
  53        3PZ         0.00002   0.00009  -0.01277  -0.09869   0.00940
  54        4S         -0.00047  -0.00001   0.09914   0.00026   0.09037
  55        4PX         0.00455  -0.00083  -0.00326  -0.00705  -0.00523
  56        4PY         0.00885   0.00078  -0.00520   0.00148  -0.01056
  57        4PZ        -0.00178  -0.00160   0.00169  -0.00948   0.00203
  58        5S         -0.00408   0.00004   0.05718   0.00035  -0.10163
  59        5PX        -0.00764   0.00156   0.04681  -0.00694   0.03174
  60        5PY        -0.01360  -0.00133   0.08184   0.00175   0.05379
  61        5PZ         0.00315   0.00296  -0.02137  -0.00977  -0.01580
  62        6D 0       -0.00014  -0.00003  -0.00112   0.00668  -0.00223
  63        6D+1       -0.00005   0.00002   0.00896  -0.00637   0.00142
  64        6D-1       -0.00011   0.00007  -0.00706  -0.01849  -0.00147
  65        6D+2       -0.00015   0.00003  -0.00426  -0.00974  -0.00372
  66        6D-2        0.00023   0.00006   0.00923  -0.01165   0.00345
  67 4   C  1S          0.00008   0.00000  -0.01207  -0.00003  -0.08130
  68        2S          0.00010   0.00000  -0.01848  -0.00005  -0.12572
  69        2PX        -0.00001  -0.00001   0.00460  -0.00441   0.01251
  70        2PY        -0.00003  -0.00000   0.00918   0.00095  -0.00445
  71        2PZ         0.00001  -0.00001  -0.00188  -0.00600  -0.01031
  72        3S         -0.00054  -0.00003   0.04835   0.00014   0.33024
  73        3PX         0.00001   0.00001   0.00803  -0.00792   0.02660
  74        3PY         0.00014   0.00001   0.01335   0.00172  -0.00684
  75        3PZ         0.00002   0.00002  -0.00379  -0.01078  -0.02150
  76        4S          0.00938   0.00054   0.00437  -0.00012   0.18132
  77        4PX         0.00154   0.00016  -0.00171  -0.00684   0.00595
  78        4PY         0.00265   0.00014   0.00048   0.00140  -0.00562
  79        4PZ        -0.00073   0.00004   0.00130  -0.00912  -0.00547
  80        5S         -0.01272  -0.00082   0.17416   0.00003   0.09811
  81        5PX        -0.00038  -0.00023   0.02066   0.00200   0.00185
  82        5PY        -0.00267  -0.00021   0.01143  -0.00028   0.04586
  83        5PZ        -0.00015  -0.00031  -0.01368   0.00277   0.00695
  84        6D 0        0.00001  -0.00005  -0.00147   0.00041  -0.00328
  85        6D+1        0.00000   0.00002  -0.00087  -0.00096  -0.00332
  86        6D-1       -0.00000   0.00005  -0.00048  -0.00347   0.00295
  87        6D+2        0.00000   0.00004  -0.00156  -0.00137  -0.00457
  88        6D-2       -0.00000   0.00002   0.00171  -0.00238  -0.00076
  89 5   C  1S          0.42109  -0.37357  -0.04182  -0.03542   0.02673
  90        2S          0.34663  -0.30724  -0.06410  -0.05463   0.04127
  91        2PX         0.00009   0.00060  -0.00949  -0.03568  -0.00216
  92        2PY        -0.00009  -0.00002  -0.03429  -0.03209   0.00866
  93        2PZ         0.00017   0.00071   0.01668  -0.01585  -0.00990
  94        3S          0.01455  -0.01297   0.16237   0.14283  -0.10839
  95        3PX        -0.00083  -0.00221  -0.01415  -0.05437  -0.00270
  96        3PY         0.00032   0.00019  -0.04959  -0.04876   0.01276
  97        3PZ        -0.00119  -0.00275   0.02370  -0.02424  -0.01377
  98        4S         -0.00692   0.00874   0.06608   0.07000  -0.05521
  99        4PX        -0.00003   0.00113  -0.00027  -0.00654  -0.00067
 100        4PY         0.00223  -0.00277  -0.00857  -0.00563   0.00345
 101        4PZ        -0.00191   0.00352   0.00653  -0.00319  -0.00422
 102        5S          0.00388   0.01875  -0.03888   0.07369  -0.02226
 103        5PX         0.00010   0.00065   0.00393   0.00519   0.00401
 104        5PY        -0.00175  -0.00259   0.00886  -0.00863   0.00364
 105        5PZ         0.00148   0.00274  -0.00226   0.01219   0.00210
 106        6D 0       -0.00024  -0.00123  -0.00289  -0.01039  -0.00074
 107        6D+1       -0.00004  -0.00209   0.00334  -0.00242  -0.00358
 108        6D-1       -0.00089   0.00143  -0.00670   0.00175   0.00228
 109        6D+2       -0.00077  -0.00011  -0.00583  -0.00557   0.00049
 110        6D-2        0.00049   0.00030   0.00821   0.01479  -0.00180
 111 6   C  1S          0.37347   0.42118  -0.04182   0.03543   0.02666
 112        2S          0.30747   0.34643  -0.06411   0.05463   0.04116
 113        2PX        -0.00021   0.00047  -0.02389   0.00108   0.00998
 114        2PY        -0.00001  -0.00023  -0.03108   0.03980   0.00588
 115        2PZ        -0.00024   0.00074  -0.00281  -0.03110   0.00660
 116        3S          0.01290   0.01462   0.16237  -0.14284  -0.10811
 117        3PX         0.00113  -0.00181  -0.03430   0.00153   0.01409
 118        3PY        -0.00015   0.00073  -0.04510   0.06053   0.00891
 119        3PZ         0.00150  -0.00271  -0.00353  -0.04744   0.00903
 120        4S         -0.00578  -0.00949   0.06601  -0.07002  -0.05507
 121        4PX         0.00169   0.00361  -0.00748  -0.00014   0.00435
 122        4PY         0.00150   0.00195  -0.00694   0.00709   0.00229
 123        4PZ         0.00070   0.00270  -0.00330  -0.00586   0.00264
 124        5S          0.00640  -0.01815  -0.03936  -0.07409  -0.01895
 125        5PX        -0.00199   0.00255   0.00481   0.01121  -0.00072
 126        5PY        -0.00159   0.00166   0.00860   0.00508   0.00393
 127        5PZ        -0.00114   0.00177  -0.00105   0.00996  -0.00365
 128        6D 0       -0.00065   0.00070  -0.00376   0.00628  -0.00057
 129        6D+1       -0.00003   0.00256   0.00418   0.00637  -0.00375
 130        6D-1        0.00008  -0.00008  -0.00419   0.00977   0.00182
 131        6D+2       -0.00038   0.00077  -0.00452   0.01159   0.00022
 132        6D-2        0.00102   0.00068   0.00981  -0.00753  -0.00206
 133 7   H  1S          0.00007  -0.00017   0.01013   0.01852  -0.01330
 134        2S         -0.00386   0.00289   0.01034   0.02064  -0.01494
 135        3S          0.00063  -0.00035   0.00093  -0.00219  -0.00049
 136        4PX        -0.00009  -0.00017  -0.00067  -0.00196  -0.00030
 137        4PY         0.00159  -0.00122  -0.00157  -0.00442   0.00165
 138        4PZ        -0.00136   0.00076   0.00050   0.00124  -0.00168
 139 8   H  1S          0.00005   0.00018   0.01013  -0.01853  -0.01326
 140        2S         -0.00348  -0.00333   0.01032  -0.02062  -0.01491
 141        3S          0.00059   0.00042   0.00094   0.00221  -0.00047
 142        4PX         0.00137   0.00113  -0.00092   0.00245   0.00174
 143        4PY         0.00111   0.00118  -0.00151   0.00431   0.00119
 144        4PZ         0.00074   0.00039   0.00016  -0.00058   0.00108
 145 9   C  1S          0.00003   0.00000  -0.00346  -0.00012  -0.06695
 146        2S          0.00003   0.00000  -0.00529  -0.00018  -0.10339
 147        2PX        -0.00000   0.00001  -0.00061  -0.00074  -0.01011
 148        2PY         0.00000  -0.00000   0.00286   0.00023   0.01921
 149        2PZ         0.00000   0.00001   0.00098  -0.00097   0.01117
 150        3S          0.00007   0.00000   0.01285   0.00045   0.26899
 151        3PX        -0.00003  -0.00004  -0.00108  -0.00085  -0.01929
 152        3PY        -0.00005   0.00000   0.00431   0.00028   0.03578
 153        3PZ         0.00002  -0.00005   0.00157  -0.00109   0.02113
 154        4S         -0.00187  -0.00010   0.01012   0.00025   0.14732
 155        4PX         0.00021   0.00013  -0.00042   0.00194  -0.00339
 156        4PY        -0.00070  -0.00006   0.00434  -0.00034   0.00467
 157        4PZ        -0.00030   0.00013   0.00119   0.00239   0.00343
 158        5S          0.00042  -0.00016  -0.07086   0.00016   0.06397
 159        5PX         0.00039   0.00013   0.00339   0.00041  -0.00533
 160        5PY         0.00067  -0.00002  -0.01886  -0.00011   0.00792
 161        5PZ        -0.00020   0.00008  -0.00601   0.00065   0.00545
 162        6D 0       -0.00005   0.00001  -0.00020  -0.00033  -0.00152
 163        6D+1       -0.00003  -0.00000  -0.00012   0.00003  -0.00290
 164        6D-1       -0.00003   0.00001   0.00058  -0.00025   0.00522
 165        6D+2       -0.00004  -0.00000  -0.00050   0.00008  -0.00309
 166        6D-2        0.00007   0.00001  -0.00052  -0.00025  -0.00476
 167 10  H  1S          0.00002   0.00003   0.00560   0.00359   0.05282
 168        2S         -0.00057  -0.00023   0.00763   0.00124   0.06284
 169        3S         -0.00051   0.00043  -0.00356  -0.00019  -0.00779
 170        4PX        -0.00008  -0.00003   0.00171   0.00015   0.01204
 171        4PY         0.00002  -0.00001   0.00033   0.00008  -0.00064
 172        4PZ        -0.00003  -0.00000   0.00014  -0.00007   0.00299
 173 11  H  1S          0.00002  -0.00003   0.00563  -0.00367   0.05287
 174        2S         -0.00059   0.00016   0.00773  -0.00125   0.06285
 175        3S         -0.00042  -0.00047  -0.00359   0.00024  -0.00784
 176        4PX         0.00001   0.00001   0.00039  -0.00012   0.00035
 177        4PY         0.00000   0.00002   0.00065  -0.00009   0.00204
 178        4PZ         0.00009  -0.00002  -0.00160   0.00010  -0.01226
 179 12  H  1S         -0.00006   0.00001   0.00211   0.00068   0.04371
 180        2S          0.00050  -0.00007   0.00037   0.00239   0.05190
 181        3S         -0.00081   0.00049   0.00408   0.00204  -0.00779
 182        4PX         0.00003   0.00000  -0.00008  -0.00011  -0.00025
 183        4PY         0.00002   0.00001   0.00009   0.00020  -0.00055
 184        4PZ         0.00006  -0.00000   0.00030   0.00039   0.00981
 185 13  H  1S         -0.00004  -0.00000   0.00120   0.00005   0.04256
 186        2S          0.00014   0.00001   0.00131   0.00009   0.05046
 187        3S          0.00011   0.00002   0.00122   0.00003  -0.00823
 188        4PX        -0.00003  -0.00000   0.00013  -0.00015   0.00354
 189        4PY         0.00004   0.00000   0.00029   0.00004   0.00899
 190        4PZ         0.00003  -0.00000  -0.00006  -0.00020  -0.00116
 191 14  H  1S         -0.00006  -0.00002   0.00212  -0.00050   0.04375
 192        2S          0.00050   0.00011   0.00031  -0.00221   0.05198
 193        3S         -0.00076  -0.00056   0.00399  -0.00206  -0.00780
 194        4PX        -0.00005  -0.00001  -0.00029   0.00033  -0.00948
 195        4PY         0.00003  -0.00001   0.00014  -0.00024   0.00154
 196        4PZ        -0.00004  -0.00001   0.00002  -0.00006  -0.00216
                          11        12        13        14        15
                           O         O         O         O         O
     Eigenvalues --    -0.67691  -0.60690  -0.53753  -0.49326  -0.45392
   1 1   N  1S          0.01549   0.01985  -0.01909   0.02717   0.02619
   2        2S          0.02448   0.03153  -0.03041   0.04339   0.04180
   3        2PX         0.01121  -0.00858  -0.02220  -0.01225   0.03607
   4        2PY         0.04805   0.00882  -0.08703  -0.07359  -0.01396
   5        2PZ        -0.02738  -0.01308   0.04419   0.03598   0.06289
   6        3S         -0.06901  -0.08995   0.08592  -0.12478  -0.11998
   7        3PX         0.01680  -0.01277  -0.03201  -0.01820   0.05238
   8        3PY         0.07091   0.01316  -0.12769  -0.10736  -0.01881
   9        3PZ        -0.04016  -0.01931   0.06546   0.05148   0.09096
  10        4S         -0.05051  -0.07043   0.08732  -0.12460  -0.14729
  11        4PX         0.00830  -0.00566  -0.01676  -0.00765   0.02746
  12        4PY         0.02957   0.00485  -0.06778  -0.05638  -0.01742
  13        4PZ        -0.01580  -0.00646   0.03512   0.02737   0.05564
  14        5S          0.01114  -0.01443   0.01183  -0.02250  -0.07737
  15        5PX        -0.00139  -0.00298   0.01424   0.00209  -0.00926
  16        5PY        -0.01216  -0.00090   0.03368   0.01442  -0.00056
  17        5PZ         0.00806  -0.00311  -0.01112  -0.00881  -0.01241
  18        6D 0       -0.00621  -0.00239   0.00727   0.00521   0.00566
  19        6D+1       -0.00117  -0.00311   0.00238   0.00252   0.01173
  20        6D-1        0.00728   0.00125  -0.00787  -0.00545   0.00536
  21        6D+2        0.00109  -0.00137  -0.00054   0.00058   0.00829
  22        6D-2        0.00734   0.00277  -0.00869  -0.00798   0.00006
  23 2   N  1S          0.01541   0.01991   0.01924   0.02703   0.02621
  24        2S          0.02435   0.03163   0.03064   0.04317   0.04184
  25        2PX         0.03666   0.01072   0.06166  -0.04917  -0.05008
  26        2PY         0.04259   0.00394   0.07802  -0.06555   0.00532
  27        2PZ         0.00698   0.01351   0.00952  -0.01382  -0.05398
  28        3S         -0.06865  -0.09026  -0.08659  -0.12416  -0.12012
  29        3PX         0.05396   0.01578   0.09087  -0.07087  -0.07214
  30        3PY         0.06293   0.00594   0.11424  -0.09588   0.00905
  31        3PZ         0.01000   0.02006   0.01467  -0.01959  -0.07797
  32        4S         -0.05013  -0.07069  -0.08790  -0.12394  -0.14720
  33        4PX         0.02197   0.00491   0.04856  -0.03703  -0.04648
  34        4PY         0.02671   0.00203   0.06065  -0.05000  -0.00081
  35        4PZ         0.00266   0.00813   0.00807  -0.01218  -0.04476
  36        5S          0.01149  -0.01472  -0.01156  -0.02207  -0.07688
  37        5PX        -0.00999   0.00208  -0.02001   0.01113   0.00866
  38        5PY        -0.01052  -0.00185  -0.03239   0.01263  -0.00465
  39        5PZ        -0.00355   0.00359   0.00328   0.00318   0.01188
  40        6D 0       -0.00054  -0.00251  -0.00160   0.00279   0.00847
  41        6D+1       -0.00639  -0.00358  -0.00788   0.00611   0.00791
  42        6D-1       -0.00753  -0.00119  -0.00821   0.00687  -0.00748
  43        6D+2       -0.00689  -0.00208  -0.00784   0.00598   0.00251
  44        6D-2       -0.00191   0.00101  -0.00146   0.00016  -0.00838
  45 3   C  1S          0.05512  -0.00274  -0.00015  -0.05573  -0.00122
  46        2S          0.08561  -0.00444  -0.00023  -0.08739  -0.00193
  47        2PX        -0.00065  -0.03656  -0.06971  -0.00426   0.02306
  48        2PY        -0.00774  -0.05895   0.01526  -0.03125   0.06452
  49        2PZ        -0.00090   0.01766  -0.09419  -0.00178  -0.00646
  50        3S         -0.23534   0.01130   0.00064   0.24607   0.00377
  51        3PX         0.00003  -0.05449  -0.09694  -0.00456   0.03360
  52        3PY        -0.01023  -0.08642   0.02121  -0.04460   0.09475
  53        3PZ        -0.00183   0.02651  -0.13097  -0.00368  -0.00928
  54        4S         -0.13578   0.01855   0.00066   0.20003   0.01236
  55        4PX        -0.00537  -0.02610  -0.03450   0.00096   0.03433
  56        4PY        -0.01370  -0.04302   0.00740  -0.01610   0.08425
  57        4PZ         0.00154   0.01244  -0.04650  -0.00336  -0.01168
  58        5S          0.02338  -0.12385  -0.00219  -0.00291   0.08794
  59        5PX        -0.01749   0.05697  -0.04116   0.04382   0.02728
  60        5PY        -0.03861   0.11194   0.01036   0.09404   0.05613
  61        5PZ         0.00615  -0.02357  -0.05677  -0.01640  -0.01125
  62        6D 0       -0.00529  -0.00519   0.00229   0.00229  -0.00656
  63        6D+1       -0.00940  -0.00650  -0.00208   0.00522  -0.00388
  64        6D-1        0.00331  -0.00172  -0.00580  -0.00009  -0.00346
  65        6D+2       -0.00383  -0.00341  -0.00316   0.00042  -0.00633
  66        6D-2        0.00016   0.00595  -0.00359  -0.00160   0.00913
  67 4   C  1S         -0.00264  -0.06346  -0.00014   0.02581  -0.00559
  68        2S         -0.00407  -0.09887  -0.00022   0.04040  -0.00861
  69        2PX         0.00052  -0.02580  -0.02213   0.06247  -0.03614
  70        2PY        -0.04750   0.03369   0.00525   0.07080  -0.04022
  71        2PZ        -0.00883   0.02578  -0.02965  -0.03498   0.02005
  72        3S          0.00952   0.26786   0.00061  -0.10823   0.02089
  73        3PX         0.00055  -0.03462  -0.03225   0.09051  -0.05507
  74        3PY        -0.07548   0.05285   0.00768   0.10464  -0.06260
  75        3PZ        -0.01380   0.03595  -0.04327  -0.05031   0.03036
  76        4S          0.00768   0.15476   0.00027  -0.09448   0.06275
  77        4PX         0.00057  -0.02339  -0.01983   0.05317  -0.02977
  78        4PY        -0.03011   0.01567   0.00456   0.05568  -0.01392
  79        4PZ        -0.00566   0.02072  -0.02638  -0.03052   0.02001
  80        5S         -0.17202   0.29133   0.00147   0.10540   0.01923
  81        5PX        -0.02408   0.02544   0.00543   0.01427  -0.00385
  82        5PY        -0.00021   0.03350  -0.00027   0.03636  -0.00340
  83        5PZ         0.01843  -0.01364   0.00745  -0.00453   0.00243
  84        6D 0        0.00238   0.00097  -0.00046  -0.00666   0.00350
  85        6D+1       -0.00172   0.00402  -0.00077  -0.00578   0.00344
  86        6D-1        0.00623  -0.00575  -0.00366  -0.00193   0.00152
  87        6D+2        0.00188   0.00185  -0.00096  -0.00636   0.00298
  88        6D-2       -0.00896   0.00576  -0.00262   0.00760  -0.00463
  89 5   C  1S         -0.05991  -0.03403   0.05303  -0.01503  -0.00369
  90        2S         -0.09286  -0.05290   0.08297  -0.02354  -0.00613
  91        2PX         0.02396   0.03003   0.03034   0.07660   0.05994
  92        2PY         0.00879   0.02985  -0.02057   0.06334  -0.05398
  93        2PZ         0.02092   0.01245   0.05176   0.03525   0.11770
  94        3S          0.24670   0.14079  -0.22474   0.06017   0.01825
  95        3PX         0.03245   0.04162   0.04282   0.10850   0.08254
  96        3PY         0.01106   0.04155  -0.02566   0.08985  -0.07329
  97        3PZ         0.02902   0.01722   0.07036   0.04946   0.16188
  98        4S          0.14429   0.09846  -0.18991   0.04875   0.00951
  99        4PX         0.01020   0.01342   0.01563   0.04798   0.03488
 100        4PY         0.00189   0.01223  -0.00453   0.03996  -0.04382
 101        4PZ         0.01047   0.00641   0.02195   0.02123   0.08012
 102        5S          0.02302  -0.03902  -0.11011  -0.06130  -0.03594
 103        5PX        -0.00583   0.00262   0.02030   0.01062   0.00809
 104        5PY        -0.00169   0.01117   0.03306   0.01840   0.00282
 105        5PZ        -0.00502  -0.00590  -0.00286  -0.00375   0.00729
 106        6D 0        0.00455   0.00460   0.00053   0.00655   0.00607
 107        6D+1        0.00966   0.00620  -0.00198   0.00400   0.00228
 108        6D-1       -0.00260  -0.00077   0.00431  -0.00355  -0.00957
 109        6D+2        0.00248   0.00343   0.00292   0.00174  -0.00196
 110        6D-2       -0.00028  -0.00275  -0.00278  -0.00803  -0.00548
 111 6   C  1S         -0.06001  -0.03373  -0.05318  -0.01484  -0.00371
 112        2S         -0.09302  -0.05244  -0.08320  -0.02324  -0.00617
 113        2PX        -0.01094   0.00202   0.04250  -0.00001  -0.10041
 114        2PY         0.01648   0.03621   0.00472   0.08021  -0.01817
 115        2PZ        -0.02624  -0.02561   0.04670  -0.06842  -0.09966
 116        3S          0.24714   0.13954   0.22534   0.05938   0.01835
 117        3PX        -0.01557   0.00287   0.05693   0.00047  -0.13790
 118        3PY         0.02164   0.05036   0.00398   0.11365  -0.02403
 119        3PZ        -0.03591  -0.03545   0.06447  -0.09675  -0.13697
 120        4S          0.14443   0.09767   0.19024   0.04790   0.00933
 121        4PX        -0.00637  -0.00008   0.01651   0.00090  -0.07115
 122        4PY         0.00563   0.01530  -0.00238   0.05036  -0.01998
 123        4PZ        -0.01198  -0.01187   0.02146  -0.04255  -0.06375
 124        5S          0.02352  -0.03830   0.10947  -0.06380  -0.03608
 125        5PX         0.00258   0.00789  -0.01394   0.01002  -0.00391
 126        5PY        -0.00383   0.01016  -0.03430   0.01878   0.00548
 127        5PZ         0.00662   0.00123   0.01136  -0.00478  -0.00886
 128        6D 0        0.00466   0.00448  -0.00152   0.00357   0.00003
 129        6D+1        0.00956   0.00630   0.00312   0.00702   0.00788
 130        6D-1       -0.00282  -0.00052  -0.00088   0.00557   0.00644
 131        6D+2        0.00233   0.00361  -0.00120   0.00635   0.00661
 132        6D-2       -0.00038  -0.00266   0.00496  -0.00224   0.00454
 133 7   H  1S          0.04505   0.03904  -0.08599   0.03351  -0.08319
 134        2S          0.05346   0.04750  -0.11084   0.04456  -0.11657
 135        3S          0.00523   0.00834  -0.03258   0.01133  -0.02665
 136        4PX         0.00176   0.00192   0.00047   0.00403   0.00253
 137        4PY        -0.00525  -0.00390   0.00988  -0.00122   0.01171
 138        4PZ         0.00619   0.00543  -0.00727   0.00540  -0.00594
 139 8   H  1S          0.04512   0.03871   0.08627   0.03307  -0.08313
 140        2S          0.05353   0.04709   0.11123   0.04397  -0.11651
 141        3S          0.00523   0.00824   0.03265   0.01115  -0.02667
 142        4PX        -0.00609  -0.00507  -0.00854  -0.00398   0.00816
 143        4PY        -0.00351  -0.00229  -0.00811   0.00061   0.01045
 144        4PZ        -0.00444  -0.00410  -0.00365  -0.00550   0.00170
 145 9   C  1S         -0.05955   0.06008   0.00021  -0.00768   0.00073
 146        2S         -0.09232   0.09342   0.00032  -0.01199   0.00118
 147        2PX        -0.00025  -0.02436  -0.00785   0.04443  -0.03043
 148        2PY        -0.00766   0.03708   0.00226   0.00212  -0.01816
 149        2PZ        -0.00114   0.02522  -0.01014  -0.03346   0.01989
 150        3S          0.24346  -0.24837  -0.00087   0.03195  -0.00429
 151        3PX        -0.00243  -0.03511  -0.01138   0.06502  -0.04342
 152        3PY        -0.00827   0.05396   0.00328   0.00280  -0.02776
 153        3PZ         0.00044   0.03644  -0.01469  -0.04904   0.02804
 154        4S          0.15003  -0.16734  -0.00071   0.02695   0.00698
 155        4PX         0.00136  -0.01790  -0.00494   0.03670  -0.02729
 156        4PY        -0.00885   0.02731   0.00153   0.00331  -0.00899
 157        4PZ        -0.00265   0.01856  -0.00643  -0.02740   0.01910
 158        5S          0.09637  -0.07495   0.00119   0.03736  -0.00989
 159        5PX        -0.00843   0.00656  -0.00007  -0.00267  -0.00187
 160        5PY         0.01689  -0.01412   0.00023   0.00953  -0.00373
 161        5PZ         0.00950  -0.00749   0.00033   0.00369   0.00076
 162        6D 0        0.00053  -0.00145  -0.00067   0.00036  -0.00072
 163        6D+1       -0.00053  -0.00395  -0.00020   0.00620  -0.00347
 164        6D-1       -0.00044   0.00644  -0.00163  -0.00304   0.00016
 165        6D+2        0.00131  -0.00293  -0.00028  -0.00144   0.00068
 166        6D-2        0.00015  -0.00619  -0.00138   0.00301   0.00047
 167 10  H  1S          0.00228   0.06536   0.02103  -0.06093   0.02718
 168        2S          0.00066   0.08250   0.02519  -0.07779   0.02999
 169        3S          0.00442   0.00215   0.00348  -0.01600   0.01648
 170        4PX         0.00015   0.01024   0.00250  -0.00565   0.00106
 171        4PY        -0.00250   0.00122   0.00074   0.00435  -0.00291
 172        4PZ        -0.00026   0.00488  -0.00076  -0.00459   0.00202
 173 11  H  1S          0.00221   0.06540  -0.02123  -0.06047   0.02654
 174        2S          0.00052   0.08252  -0.02539  -0.07726   0.02908
 175        3S          0.00433   0.00218  -0.00364  -0.01586   0.01593
 176        4PX        -0.00014  -0.00163  -0.00149   0.00356  -0.00216
 177        4PY        -0.00245   0.00393  -0.00097   0.00226  -0.00222
 178        4PZ        -0.00061  -0.01059   0.00202   0.00733  -0.00206
 179 12  H  1S          0.04669  -0.06370   0.00753   0.03184  -0.01797
 180        2S          0.05588  -0.07855   0.01098   0.04131  -0.02660
 181        3S         -0.00165  -0.00541   0.00114   0.00785  -0.00214
 182        4PX         0.00009  -0.00144  -0.00055   0.00268  -0.00190
 183        4PY        -0.00184   0.00344   0.00033  -0.00049  -0.00085
 184        4PZ         0.00873  -0.00971   0.00091   0.00334  -0.00208
 185 13  H  1S          0.05085  -0.06239  -0.00048  -0.01297   0.02542
 186        2S          0.06034  -0.07704  -0.00059  -0.01492   0.03303
 187        3S         -0.00191  -0.00806  -0.00015  -0.00322   0.01459
 188        4PX         0.00429  -0.00603  -0.00054   0.00139  -0.00001
 189        4PY         0.00810  -0.00752   0.00006  -0.00227   0.00263
 190        4PZ        -0.00190   0.00333  -0.00064  -0.00144   0.00044
 191 14  H  1S          0.04669  -0.06367  -0.00791   0.03220  -0.01833
 192        2S          0.05593  -0.07855  -0.01141   0.04186  -0.02708
 193        3S         -0.00155  -0.00541  -0.00132   0.00788  -0.00209
 194        4PX        -0.00857   0.00939   0.00101  -0.00257   0.00137
 195        4PY         0.00012   0.00100  -0.00035   0.00070  -0.00156
 196        4PZ        -0.00251   0.00436  -0.00036  -0.00342   0.00209
                          16        17        18        19        20
                           O         O         O         O         O
     Eigenvalues --    -0.42993  -0.40890  -0.37749  -0.37442  -0.34444
   1 1   N  1S         -0.01251   0.00373   0.00222  -0.00810  -0.00054
   2        2S         -0.01991   0.00590   0.00355  -0.01288  -0.00090
   3        2PX         0.01250   0.05052  -0.04307   0.04001  -0.05234
   4        2PY         0.01630   0.02057   0.07280   0.09127   0.02467
   5        2PZ         0.00156  -0.04142   0.02566  -0.03726   0.05813
   6        3S          0.05834  -0.01695  -0.01091   0.03706   0.00341
   7        3PX         0.01809   0.07494  -0.06543   0.06008  -0.07855
   8        3PY         0.02416   0.02789   0.10777   0.13294   0.03684
   9        3PZ         0.00181  -0.06143   0.03962  -0.05211   0.08700
  10        4S          0.06069  -0.02184  -0.00984   0.06024  -0.00010
  11        4PX         0.01339   0.05328  -0.05199   0.04274  -0.06284
  12        4PY         0.01562   0.01163   0.07260   0.08114   0.03478
  13        4PZ         0.00321  -0.04250   0.03655  -0.02947   0.06522
  14        5S          0.03974  -0.01043   0.00103   0.04555   0.00529
  15        5PX        -0.00486  -0.00651   0.00177  -0.00005   0.00409
  16        5PY        -0.01890  -0.00235  -0.00430  -0.01163  -0.00426
  17        5PZ         0.01019  -0.00153  -0.00637   0.00926   0.00091
  18        6D 0       -0.00074  -0.01063   0.00482  -0.00595   0.00944
  19        6D+1        0.00115   0.00176  -0.00276   0.00212   0.00170
  20        6D-1        0.00323   0.00250   0.00844   0.01064   0.00416
  21        6D+2        0.00213   0.00363  -0.00592   0.00472  -0.00719
  22        6D-2        0.00117   0.00317   0.00882   0.00809  -0.00096
  23 2   N  1S          0.01262   0.00315   0.00286   0.00800  -0.00059
  24        2S          0.02009   0.00498   0.00457   0.01273  -0.00098
  25        2PX        -0.00336   0.05843  -0.03013  -0.05750  -0.06871
  26        2PY        -0.01806   0.02083   0.06308  -0.09101   0.02541
  27        2PZ         0.00737  -0.03219   0.04917   0.00401   0.03846
  28        3S         -0.05885  -0.01426  -0.01386  -0.03666   0.00366
  29        3PX        -0.00530   0.08624  -0.04647  -0.08201  -0.10274
  30        3PY        -0.02666   0.02834   0.09354  -0.13341   0.03802
  31        3PZ         0.01035  -0.04832   0.07404   0.00792   0.05784
  32        4S         -0.06142  -0.01856  -0.01428  -0.05960  -0.00032
  33        4PX        -0.00196   0.05867  -0.04257  -0.04862  -0.07685
  34        4PY        -0.01820   0.01240   0.06441  -0.08392   0.03523
  35        4PZ         0.00873  -0.03658   0.05491   0.01021   0.04863
  36        5S         -0.04060  -0.00670  -0.00212  -0.04616   0.00524
  37        5PX         0.01367  -0.00180   0.00673   0.01042  -0.00020
  38        5PY         0.01668  -0.00418  -0.00430   0.00993  -0.00258
  39        5PZ         0.00254   0.00479  -0.00066   0.00522  -0.00535
  40        6D 0       -0.00132   0.00631  -0.01140  -0.00190  -0.00825
  41        6D+1        0.00087  -0.00544  -0.00050   0.00550   0.00709
  42        6D-1        0.00265  -0.00419  -0.00657   0.01133   0.00139
  43        6D+2        0.00090  -0.00781  -0.00185   0.00717   0.00164
  44        6D-2        0.00257   0.00177  -0.00496   0.00579  -0.00646
  45 3   C  1S          0.00020   0.01610   0.00765  -0.00008  -0.00119
  46        2S          0.00032   0.02528   0.01200  -0.00013  -0.00187
  47        2PX         0.00966   0.03140  -0.07837   0.05967  -0.01251
  48        2PY        -0.00266  -0.06264  -0.00362  -0.01348   0.05153
  49        2PZ         0.01065  -0.03456   0.06133   0.07459   0.01931
  50        3S         -0.00093  -0.07470  -0.03735   0.00042   0.00807
  51        3PX         0.01442   0.05125  -0.12029   0.08610  -0.01994
  52        3PY        -0.00400  -0.09371  -0.00115  -0.01956   0.07518
  53        3PZ         0.01569  -0.05481   0.09445   0.10698   0.02936
  54        4S         -0.00099  -0.07450  -0.04488   0.00036  -0.00264
  55        4PX         0.01077   0.03887  -0.07557   0.06211  -0.02210
  56        4PY        -0.00262  -0.04182   0.01386  -0.01444   0.07061
  57        4PZ         0.01221  -0.03687   0.06224   0.07760   0.02974
[...]
     1         -0.32405164          2.31665899         -8.76845404
     1          2.27303350          2.08359067         -6.67024269

 Electric dipole moment (dipole orientation):
 (Debye = 10**-18 statcoulomb cm , SI units = C m)
                  (au)            (Debye)         (10**-30 SI)
   Tot        0.114237D+01      0.290362D+01      0.968542D+01
   x          0.000000D+00      0.000000D+00      0.000000D+00
   y          0.000000D+00      0.000000D+00      0.000000D+00
   z          0.114237D+01      0.290362D+01      0.968542D+01

 Dipole polarizability, Alpha (dipole orientation).
 (esu units = cm**3 , SI units = C**2 m**2 J**-1)
 Alpha(0;0):
               (au)            (10**-24 esu)      (10**-40 SI)
   iso        0.109593D+03      0.162400D+02      0.180695D+02
   aniso      0.383909D+02      0.568894D+01      0.632980D+01
   xx         0.104324D+03      0.154592D+02      0.172007D+02
   yx        -0.157693D+02     -0.233677D+01     -0.260000D+01
   yy         0.977026D+02      0.144780D+02      0.161090D+02
   zx         0.328043D+01      0.486110D+00      0.540870D+00
   zy         0.210536D+00      0.311982D-01      0.347127D-01
   zz         0.126753D+03      0.187829D+02      0.208988D+02

 First dipole hyperpolarizability, Beta (dipole orientation).
 ||, _|_  parallel and perpendicular components, (z) with respect to z axis,
 vector components x,y,z.  Values do not include the 1/n! factor of 1/2.
 (esu units = statvolt**-1 cm**4 , SI units = C**3 m**3 J**-2)
 Beta(0;0,0):
               (au)            (10**-30 esu)      (10**-50 SI)
   || (z)    -0.111246D+03     -0.961078D+00     -0.356694D+00
   _|_(z)    -0.370820D+02     -0.320359D+00     -0.118898D+00
   x          0.129959D+03      0.112274D+01      0.416694D+00
   y          0.364962D+03      0.315299D+01      0.117020D+01
   z         -0.556229D+03     -0.480539D+01     -0.178347D+01
   ||         0.135570D+03      0.117122D+01      0.434685D+00
   xxx        0.137221D+03      0.118548D+01      0.439979D+00
   xxy        0.457112D+02      0.394909D+00      0.146567D+00
   yxy        0.671110D+02      0.579786D+00      0.215182D+00
   yyy       -0.124945D+01     -0.107943D-01     -0.400620D-02
   xxz        0.136390D+03      0.117830D+01      0.437315D+00
   yxz        0.789211D+02      0.681817D+00      0.253050D+00
   yyz        0.190970D+03      0.164983D+01      0.612318D+00
   zxz       -0.161012D+03     -0.139102D+01     -0.516262D+00
   zyz        0.771923D+02      0.666881D+00      0.247506D+00
   zzz       -0.512769D+03     -0.442993D+01     -0.164412D+01

 ----------------------------------------------------------------------
 Unable to Open any file for archive entry.
 1\1\GINC-NODE1779\Freq\RB3LYP\6-311+G(d,p)\C5H7N2(1-)\SVICCHI\02-Jun-2
 023\0\\#p freq=raman scale=0.967 pop=(nbo,full,hirshfeld) guess=read g
 eom=allcheck b3lyp/6-311+G(d,p) int=grid=ultrafine EmpiricalDispersion
 =GD3BJ SCRF=(Solvent=ethanol) scf=(xqc,intrep,maxconventionalcycle=350
 ) nosymm\\2ethylimidazolide-isolated.gjf\\-1,1\N,-0.8298019896,-0.4735
 536901,-0.7280826362\N,0.5091040521,-0.7720801235,1.0875082529\C,-0.48
 62243171,-1.2626018773,0.3148849699\C,-1.119888087,-2.6018647037,0.563
 1661554\C,0.0134786078,0.6086316172,-0.6146410768\C,0.829727278,0.4265
 812694,0.4912938218\H,-0.0216761839,1.4364734517,-1.3117592725\H,1.601
 4130014,1.0742983642,0.8880783786\C,-0.4225511932,-3.7572722878,-0.175
 0885515\H,-2.1698681075,-2.5632584156,0.255239183\H,-1.1084945479,-2.8
 064516391,1.6386534654\H,-0.4437620258,-3.5953471239,-1.2564690276\H,-
 0.9099719563,-4.7152226446,0.0336545963\H,0.6243364692,-3.8359501971,0
 .1314437411\\Version=ES64L-G16RevC.01\HF=-304.4778715\RMSD=3.310e-09\R
 MSF=7.482e-06\ZeroPoint=0.1096514\Thermal=0.1162301\ETot=-304.3616414\
 HTot=-304.3606972\GTot=-304.3993054\Dipole=-0.2085506,-1.2654303,-0.06
 54001\DipoleDeriv=-0.739424,-0.0151615,-0.3629384,-0.1396715,-0.521259
 3,-0.0868071,-0.2606304,0.0720816,-0.7686942,-0.5811861,-0.0221904,-0.
 1867156,0.115627,-0.5810968,0.2619947,-0.2881128,0.1123308,-0.8563091,
 0.2011605,0.0873098,0.3477416,0.1218567,0.3094029,-0.1445843,0.3518346
 ,-0.1195048,0.3714443,0.2760164,0.0594554,-0.0108339,-0.0554034,0.1646
 904,0.028394,-0.0303647,-0.0605532,0.2576925,0.0669566,0.1444052,0.307
 7719,0.2847911,-0.071652,0.0811216,0.2327852,-0.0526561,-0.047149,-0.1
 810366,0.0850321,0.1162217,-0.014773,0.0140481,-0.357012,0.2007881,-0.
 1943257,0.1037736,0.1500749,-0.041809,-0.07887,-0.0625795,-0.0851235,0
 .1830319,-0.0530359,0.2122271,0.0170909,0.0030355,-0.2062841,-0.124406
 5,-0.1791319,-0.0137136,-0.0099307,-0.1486518,-0.033624,0.0946503,0.09
 19604,-0.0159646,0.0481465,0.0126516,0.0247164,-0.0339092,0.0536347,-0
 .0119506,0.1146482,-0.2410721,-0.0404023,-0.0305746,0.0199684,-0.01856
 57,-0.0000993,-0.0867454,-0.0253845,0.053429,0.0627057,0.0031597,-0.00
 58941,-0.0195404,-0.0302669,0.0292548,0.0581773,0.084537,-0.2368214,0.
 0679345,0.0212441,-0.0082695,0.020439,0.0516993,0.0455396,0.0150299,-0
 .0145376,-0.2120717,0.0121142,-0.1307357,0.0361715,-0.1215371,-0.29871
 54,0.0256697,0.03748,0.032671,0.0654048,-0.1892399,0.0719416,-0.047550
 8,0.0173029,0.0558362,-0.0226636,-0.0821889,-0.0013111,0.0429119\Polar
 =101.7987842,12.2994758,121.2877781,12.9349115,-8.1445892,105.69328\Po
 larDeriv=-4.6943447,4.0122285,1.0817594,-3.1270815,2.5649,-2.5084159,6
 .3138336,8.8982806,13.8221446,-0.5228496,2.2219947,-6.2547578,-3.76282
 89,-5.6835143,-8.2423862,-1.6189556,-2.7851829,-4.8639866,2.4745473,0.
 4212834,13.6836678,-0.9758132,-6.3408612,-0.0264835,-4.7562867,4.47631
 34,13.867142,-5.0605889,-4.9415682,-0.0215192,1.3014879,1.1456917,3.73
 40322,1.617731,-0.3882107,8.2063703,-6.3209637,-3.254451,-12.2507591,2
 .1920014,9.4362572,-7.9458014,-8.3136555,-7.4478941,-28.8416814,-5.399
 5483,0.9420893,-8.6230719,9.5797714,8.4711076,0.7350859,0.829883,4.234
 5412,1.7084183,13.2125376,3.0566394,-1.291588,1.6336665,-2.0344528,-1.
 0879676,-0.3601343,0.3006662,17.5158813,-0.6785552,2.5392623,2.7551204
 ,3.6928828,-2.2835749,3.7517093,2.4785566,4.9493819,-11.6931489,-8.722
 2517,-2.34508,-19.9627344,0.8590234,-4.6334725,6.4468524,3.0644765,-8.
 9524351,-2.2768849,4.1292507,0.121899,2.617016,-10.306461,-7.0313061,-
 10.2673279,5.4352006,-2.3343654,-10.8071852,14.5402031,-0.5535977,5.07
 34926,-2.7977649,-4.2012931,3.7274741,-2.8895468,-4.1569057,-9.9375224
 ,5.4767568,6.6052202,6.2591416,-0.9836036,0.7407893,22.3737007,-5.6717
 532,0.0632777,8.7665594,-0.1559289,-0.354467,2.3261881,-0.2455644,0.76
 46806,-2.5820853,0.1262836,1.4094138,8.4644059,-0.7868615,-6.8069053,5
 .5444029,-0.0587163,1.379708,-7.269763,-1.5778548,5.2382776,-3.7026275
 ,4.1991914,5.1534075,5.775612,3.6648456,3.5462198,2.4393356,6.1823155,
 5.4657217,4.8670562,1.5393183,1.2196282,0.1232571,4.813635,2.4810977,0
 .3690868,2.377137,0.4587883,1.1101938,-7.9653899,3.4432267,13.4383886,
 -2.837494,0.8620732,1.750914,2.6204264,6.8267966,2.5937722,0.2695213,-
 4.826879,-2.2612629,-4.8441964,0.0622345,-10.1512827,-0.7286768,-2.253
 3691,9.7129741,-14.693686,-2.5664155,-2.8365944,-1.0615569,-0.064153,-
 0.7842974,0.1982441,-2.1050389,0.1218499,0.2701264,-0.8256907,0.430798
 8,-3.6514751,-0.7697011,-3.9649789,-2.0935796,-0.4958672,-0.2196835,-0
 .9334265,-0.0770566,2.9065597,1.6685406,0.4321919,0.615096,0.2098357,-
 0.2234992,-2.2069215,0.9230666,2.7127114,-1.7333339,1.3512733,1.456011
 2,4.4198797,-2.3391715,-3.805683,13.2829349,0.4699563,-0.3529927,-1.50
 42566,-1.4361722,-0.2493776,-0.3989416,0.291287,-0.7309642,0.7618526,-
 0.3035038,-1.3472979,1.2904569,-1.1193473,-0.0503592,-1.4108766,0.3086
 616,-0.5440755,-12.3986615,-2.5046321,-4.2284332,-8.0023982,0.8084195,
 0.1668247,-1.1589336,-2.0319854,-5.1459224,-18.03619,0.431027,1.264283
 2,-0.3972629,1.3632752,0.6460699,3.7839726,-0.9002531,-2.1048722,0.253
 6066,11.0941877,-2.3542918,1.5626626,1.6549501,-0.2495371,1.5132543,-0
 .6550937,1.3854672,-0.7149046,-0.28716,1.1212528,0.2710149,2.624303,-0
 .5642542,2.1391483,1.8830749,-0.2326408,0.6442357\HyperPolar=219.61769
 77,11.817361,-299.448916,-356.1260925,-82.6089968,18.6240245,120.53557
 37,102.89359,126.9414979,-95.1338447\Quadrupole=0.1771726,2.1359964,-2
 .3131691,1.3777185,-3.3178973,0.4370239\PG=C01 [X(C5H7N2)]\NImag=0\\0.
 30864113,0.11066288,0.39154683,0.15512598,-0.10399082,0.36618690,-0.02
 065040,0.02076639,-0.07771853,0.31289271,-0.02110497,0.00786264,-0.006
 28916,0.11434327,0.39131207,-0.04377582,0.04298498,-0.05517894,0.15773
 955,-0.09778175,0.36540268,-0.10368987,0.03064228,-0.05095761,-0.19362
 595,-0.05715429,-0.08657081,0.42924512,0.01972020,-0.15970961,0.086765
 37,-0.05251635,-0.11970360,-0.03015082,0.18763445,0.64410547,-0.044244
 82,0.09328721,-0.20830322,-0.09464185,-0.04152952,-0.15837730,0.140891
 88,-0.12724252,0.45378540,0.00284423,0.00621883,0.00278008,-0.01500308
 ,-0.02505523,0.00653984,-0.09923785,-0.05674413,0.00014389,0.53972354,
 -0.00710698,-0.02064825,0.00544404,-0.00743763,-0.01286300,-0.00097008
 ,-0.05538951,-0.18044077,0.02530943,0.01762593,0.45198873,0.01547952,0
 .02537059,-0.00521108,-0.00543772,-0.01748880,0.00389623,0.00037112,0.
 02654054,-0.08249412,0.04295040,-0.03764337,0.55350589,-0.15129656,-0.
 09888662,-0.01825755,0.00662405,0.02148506,-0.03162812,0.00588321,-0.0
 3565636,0.02395709,0.00348125,0.00095387,-0.00485463,0.34787431,-0.086
 48304,-0.18985833,-0.00301832,-0.01567991,-0.03510334,0.02590878,-0.00
 968310,-0.07905232,0.06635815,0.00266949,0.00228539,0.00316882,0.09987
 518,0.58907965,-0.02869754,-0.01750488,-0.08680382,-0.00065953,0.07003
 775,-0.03916125,-0.00194998,0.03194684,-0.01281771,-0.00233916,0.00399
 419,-0.00262347,0.18769872,-0.26019985,0.54657782,-0.03905083,-0.05576
 025,-0.02226760,-0.08740694,-0.03083831,0.00099164,-0.03523066,-0.0444
 5339,-0.02112028,-0.00061691,-0.00219038,-0.00449427,-0.16323265,0.018
 95587,-0.13253972,0.50538442,-0.01806984,-0.01505503,0.00687076,-0.043
 20287,-0.21838257,0.07043516,-0.07525545,-0.06026807,-0.02511824,-0.00
 056399,0.00387588,-0.00235982,0.00875299,-0.08506643,0.02556699,0.2409
 3095,0.51886978,-0.05311163,-0.03688806,-0.01356119,0.01145745,0.08485
 748,-0.12335072,0.00379558,0.00566353,0.00932173,-0.00641053,-0.000522
 39,0.00018933,-0.12544229,0.03800382,-0.24037495,0.26311687,-0.0376532
 6,0.46063061,0.00000953,-0.01278942,0.01768038,0.00188957,-0.00001145,
 -0.00627968,-0.00126702,-0.00535827,-0.00293511,0.00131553,-0.00046282
 ,0.00025150,-0.04234062,0.00233524,-0.02490917,0.00433752,0.01473277,-
 0.00403491,0.03730213,0.00444977,-0.01690324,0.01345861,-0.00238819,0.
 00166833,0.00154298,-0.00462351,-0.00253137,0.00027517,0.00007173,-0.0
 0002711,0.00148913,0.00023467,-0.20521152,0.14542754,-0.00025050,0.001
 77332,-0.00351339,0.00182342,0.22252169,0.00416534,-0.00650422,0.00346
 920,-0.00454223,0.00414541,-0.00155938,-0.00314381,0.00018660,0.001009
 65,-0.00050796,0.00002199,0.00083919,-0.02319201,0.14748470,-0.1663606
 2,0.00770723,0.01440567,-0.00445350,0.01908552,-0.15888408,0.16779903,
 0.00102501,-0.00284600,-0.00490023,-0.00506479,-0.00002206,0.00177691,
 0.00190971,-0.00222730,-0.00168215,0.00071972,-0.00012680,-0.00075161,
 -0.00544218,-0.00882778,0.00311947,-0.18407871,-0.12644721,-0.09058004
 ,-0.00103912,0.00090807,0.00028796,0.19207159,-0.00070751,0.00196659,0
 .00323690,-0.01692084,-0.01471956,-0.01347318,-0.00214097,-0.00393159,
 0.00429740,-0.00151352,0.00028302,-0.00060016,0.00636738,0.00604840,0.
 00089463,-0.12471476,-0.14158981,-0.05220408,0.00002851,-0.00066760,-0
 .00093226,0.13988814,0.15321118,-0.00666133,0.00048070,-0.00100230,0.0
 1538105,0.00675281,0.00637516,-0.00135221,0.00499067,-0.00079080,-0.00
 013301,0.00021734,0.00116103,-0.00857623,-0.01683689,0.00102945,-0.092
 40543,-0.05457451,-0.08837911,0.00096440,0.00011385,-0.00082099,0.0925
 6845,0.05873843,0.08245709,0.00064097,-0.00005092,-0.00027196,-0.00079
 310,-0.00112100,-0.00017295,0.01034795,-0.00638591,-0.00907120,-0.0986
 6473,0.03291616,0.02396248,-0.00110962,-0.00133957,0.00006502,-0.00062
 302,-0.00076620,0.00102407,-0.00019386,-0.00006979,0.00013456,-0.00026
 429,-0.00007277,0.00019507,0.53514092,0.00098608,0.00185364,-0.0023436
 0,0.00308035,0.00159028,0.00002224,0.00797863,-0.03334016,-0.01215702,
 0.03767471,-0.12516940,-0.03767321,-0.00186876,-0.00057914,-0.00021107
 ,-0.00054695,-0.00107560,0.00164093,-0.00021815,0.00009551,0.00020067,
 -0.00023945,0.00009977,0.00017269,0.03866325,0.49416013,0.00053689,0.0
 0151005,-0.00112355,-0.00013894,-0.00011432,0.00048347,-0.00644273,-0.
 00102650,0.00485331,0.02481875,-0.03395117,-0.10014007,0.00068588,0.00
 016807,-0.00009332,0.00038724,0.00118019,-0.00022199,0.00019414,0.0000
 6155,-0.00011754,0.00009438,0.00006962,-0.00006196,0.02392789,-0.04063
 534,0.53242836,0.00195882,0.00238766,-0.00075659,-0.00117350,-0.001937
 05,0.00189495,-0.01353151,0.00040926,-0.00665588,-0.27673858,0.0065343
 4,-0.06924006,-0.00058273,-0.00136226,-0.00016170,0.00022371,-0.000680
 33,-0.00013984,-0.00003809,0.00002496,0.00011168,0.00003710,-0.0003051
 0,0.00012915,-0.01556376,0.00238317,-0.00371951,0.30347286,0.00185531,
 0.00229118,-0.00137792,-0.00262938,-0.00353345,0.00257035,-0.02906980,
 0.00020581,-0.01069687,0.00826433,-0.04532057,0.00508056,-0.00066382,-
 0.00029524,-0.00022081,-0.00054793,-0.00138514,-0.00062718,0.00010983,
 -0.00000302,0.00003785,0.00011978,-0.00064743,-0.00002080,0.02529333,-
 0.00307297,0.00654003,-0.00985030,0.05441860,-0.00050073,0.00011457,0.
 00050888,-0.00061850,-0.00025857,0.00057781,0.00547825,-0.00034078,0.0
 0070114,-0.07141899,0.00448649,-0.07050690,0.00035321,-0.00049133,-0.0
 0006829,0.00032253,0.00016109,0.00005794,-0.00007396,-0.00001208,0.000
 09492,-0.00007463,0.00010902,0.00008177,0.01764842,-0.00220898,0.00443
 468,0.07739932,-0.00070676,0.07150640,-0.00063169,-0.00091916,-0.00017
 262,0.00108135,0.00082381,-0.00062003,0.00029429,-0.00271927,0.0143332
 4,-0.04958513,-0.00016729,-0.00729820,0.00006139,-0.00060908,0.0002321
 7,-0.00018562,-0.00005352,0.00054143,0.00001223,-0.00027597,-0.0001381
 0,0.00006931,0.00003076,-0.00004754,-0.00027849,-0.00158299,0.01729253
 ,0.00078718,0.00607760,-0.02990433,0.04799804,-0.00423822,-0.00369474,
 0.00113465,0.00215124,0.00241859,-0.00091093,0.00275338,-0.00709037,0.
 03009201,-0.00080012,-0.05377953,0.04692619,0.00029666,-0.00146031,0.0
 0037135,-0.00008109,-0.00064506,0.00049890,-0.00010042,-0.00061008,-0.
 00023078,-0.00004580,0.00003052,-0.00009887,0.00016697,0.00274389,-0.0
 2646104,0.00007611,-0.00107351,0.00039186,-0.00186886,0.06460832,0.001
 63077,0.00099060,-0.00004976,-0.00065347,-0.00187043,0.00082675,-0.002
 13984,0.00113073,-0.00613471,-0.00488368,0.04864647,-0.28947742,-0.000
 10333,0.00022542,0.00039354,0.00017614,0.00129553,-0.00004066,0.000158
 56,0.00009027,0.00005417,0.00013541,-0.00002921,-0.00004254,0.00027552
 ,0.00122952,-0.01654588,-0.00087732,0.00155477,-0.00799721,0.00458251,
 -0.05035859,0.31778251,-0.00016281,-0.00010320,0.00009421,0.00014556,0
 .00000127,-0.00010630,0.00002559,-0.00081531,-0.00037964,-0.00028469,-
 0.00207115,0.01631610,0.00001093,0.00018197,-0.00004283,-0.00004255,-0
 .00005387,-0.00003244,-0.00000784,0.00002557,0.00001386,-0.00000106,0.
 00001731,-0.00000246,-0.04708102,0.00024352,-0.00828884,0.00052097,-0.
 00085826,-0.00013811,-0.00062832,0.00280378,0.00171879,0.04738237,0.00
 004651,0.00040408,0.00052511,-0.00055834,-0.00042288,0.00017292,-0.000
 10570,0.00197034,-0.00047125,-0.00054468,0.00256042,-0.02554188,0.0000
 9649,-0.00007542,0.00015025,0.00009827,0.00027652,-0.00015693,0.000021
 86,0.00000208,-0.00000577,0.00001157,-0.00001823,-0.00000109,0.0000921
 4,-0.05253644,0.04294903,-0.00052891,0.00106110,0.00094039,0.00260004,
 -0.00345156,-0.00290303,-0.00311139,0.05542209,0.00008249,0.00045056,0
 .00074110,-0.00021740,-0.00036090,0.00014131,0.00003695,0.00187149,0.0
 0012939,-0.00013376,0.00163603,-0.01597052,-0.00031029,-0.00050003,0.0
 0009685,0.00017112,-0.00006500,0.00009817,-0.00001645,-0.00003031,0.00
 000175,0.00000754,-0.00004969,-0.00000334,-0.00789886,0.04115628,-0.29
 770751,0.00032405,0.00011261,0.00086580,0.00203333,-0.00281357,-0.0001
 9475,0.00640934,-0.04410570,0.32523168,0.00013940,0.00040403,-0.000307
 02,0.00042207,0.00041720,0.00019400,-0.00119397,0.00077441,0.00165266,
 0.00689325,0.01527875,-0.00341385,0.00000389,-0.00006500,-0.00002656,0
 .00028126,0.00015487,-0.00003684,0.00001509,0.00002546,0.00000265,0.00
 004875,0.00000852,-0.00005039,-0.10000123,-0.10130876,0.02270569,0.000
 76785,-0.00061396,-0.00065048,0.00045770,-0.00076361,-0.00039806,-0.00
 004455,0.00196777,-0.00005171,0.10508488,0.00040839,0.00043012,-0.0007
 7403,0.00092956,0.00026179,-0.00012832,0.00353351,-0.00227775,-0.00323
 034,-0.01163029,-0.01955645,0.00569967,-0.00118261,-0.00093783,-0.0001
 8872,-0.00043118,-0.00118833,0.00097736,-0.00011255,-0.00008593,0.0000
 9663,-0.00015279,-0.00007339,0.00007650,-0.10039193,-0.23790108,0.0442
 3707,0.00022260,0.00076867,0.00066810,-0.00039255,0.00097773,-0.000277
 24,-0.00170667,-0.00400502,0.00119920,0.11014721,0.26105965,0.00012932
 ,-0.00029821,0.00016997,-0.00011214,-0.00019533,-0.00000723,0.00213171
 ,-0.00115099,-0.00109860,-0.00808356,-0.01502483,0.00260167,-0.0003890
 1,-0.00038640,0.00019404,-0.00001287,-0.00010075,0.00019166,-0.0000805
 9,-0.00001197,0.00004890,-0.00001775,-0.00004109,0.00000966,0.02286098
 ,0.04495319,-0.05744488,-0.00013028,0.00074844,0.00046088,-0.00070642,
 0.00057504,0.00060403,0.01510975,0.02732488,-0.00499306,-0.02678459,-0
 .04732749,0.05790519,0.00022306,0.00027351,-0.00007094,0.00066245,0.00
 017373,0.00001680,0.00007096,-0.00166204,-0.00024784,-0.01484655,0.001
 64350,-0.00384076,0.00006532,0.00003199,0.00021081,0.00024099,0.000521
 71,-0.00014689,0.00000496,0.00004430,0.00001532,0.00000897,0.00003485,
 -0.00000952,-0.28155673,0.01475535,-0.07205339,-0.00014032,0.00251326,
 0.00217800,0.00054774,-0.00035002,0.00037798,0.00016744,-0.00008562,-0
 .00043638,-0.01287438,0.00075929,-0.00391454,0.30742609,-0.00041857,-0
 .00048587,0.00035841,0.00006269,-0.00038529,-0.00022233,0.00088008,0.0
 0206397,0.00082640,0.02432694,-0.00318837,0.00703174,0.00019588,0.0002
 2644,-0.00006423,-0.00017036,-0.00013946,-0.00007674,0.00000143,-0.000
 02107,-0.00002242,0.00000763,0.00000812,-0.00001083,0.01306624,-0.0468
 6842,0.00547277,0.00262584,-0.00341404,-0.00285302,-0.00094353,0.00102
 611,0.00027519,0.00544642,-0.00118708,0.00149903,-0.02642690,0.0025278
 1,-0.00906450,-0.01865380,0.04983714,-0.00015844,-0.00000305,0.0001578
 1,0.00016226,0.00009533,-0.00006859,-0.00014851,0.00081583,0.00021583,
 0.01667770,-0.00164414,0.00423024,0.00005855,0.00011506,0.00001175,-0.
 00003259,-0.00004382,-0.00010733,-0.00000465,-0.00000728,-0.00000479,0
 .00001628,-0.00001634,-0.00001312,-0.07267904,0.00585371,-0.06874312,0
 .00182203,-0.00299426,-0.00071783,-0.00012799,0.00088378,0.00082192,-0
 .03067144,0.00112307,-0.00843686,0.00716450,-0.00102839,0.00135777,0.0
 7792135,-0.00314949,0.07129631\\0.00000780,0.00000295,-0.00001276,-0.0
 0000640,-0.00000672,0.00001932,-0.00000465,-0.00000164,-0.00000228,-0.
 00000586,0.00000183,-0.00001062,0.00001311,0.00000261,0.00000283,0.000
 00441,-0.00000187,0.00001875,0.00001036,0.00000306,0.00000102,-0.00000
 034,-0.00000216,0.00001239,-0.00000171,0.00000061,-0.00000361,-0.00000
 750,0.00000229,-0.00001470,-0.00001200,0.00000052,-0.00000516,0.000006
 07,0.00000070,-0.00000620,-0.00000545,-0.00000034,-0.00000512,0.000002
 16,-0.00000185,0.00000614\\\@
 The archive entry for this job was punched.


 SUCCESS-- IF YOU HAVE TRIED TO DO SOMETHING AND FAILED
           YOU ARE BETTER OFF THAN IF YOU HAD TRIED TO DO
           NOTHING AND SUCCEEDED.

                   -- FROM THE BACK OF A SUGAR PACKET
 Job cpu time:       0 days  0 hours 24 minutes  7.1 seconds.
 Elapsed time:       0 days  0 hours 13 minutes  7.0 seconds.
 File lengths (MBytes):  RWF=    117 Int=      0 D2E=      0 Chk=     15 Scr=      1
 Normal termination of Gaussian 16 at Fri Jun  2 11:38:22 2023.
