 Entering Gaussian System, Link 0=g16
 Input=EMIM-isolated-freq.gjf
 Output=EMIM-isolated-freq.log
 Initial command:
 /software/commercial/gaussian/g16/AVX/g16/l1.exe "/scratch1/svicchi/G09-659728.pbs02/Gau-3187499.inp" -scrdir="/scratch1/svicchi/G09-659728.pbs02/"
 Entering Link 1 = /software/commercial/gaussian/g16/AVX/g16/l1.exe PID=   3187500.
  
 Copyright (c) 1988-2019, Gaussian, Inc.  All Rights Reserved.
  
 This is part of the Gaussian(R) 16 program.  It is based on
 the Gaussian(R) 09 system (copyright 2009, Gaussian, Inc.),
 the Gaussian(R) 03 system (copyright 2003, Gaussian, Inc.),
 the Gaussian(R) 98 system (copyright 1998, Gaussian, Inc.),
 the Gaussian(R) 94 system (copyright 1995, Gaussian, Inc.),
 the Gaussian 92(TM) system (copyright 1992, Gaussian, Inc.),
 the Gaussian 90(TM) system (copyright 1990, Gaussian, Inc.),
 the Gaussian 88(TM) system (copyright 1988, Gaussian, Inc.),
 the Gaussian 86(TM) system (copyright 1986, Carnegie Mellon
 University), and the Gaussian 82(TM) system (copyright 1983,
 Carnegie Mellon University). Gaussian is a federally registered
 trademark of Gaussian, Inc.
  
 This software contains proprietary and confidential information,
 including trade secrets, belonging to Gaussian, Inc.
  
 This software is provided under written license and may be
 used, copied, transmitted, or stored only in accord with that
 written license.
  
 The following legend is applicable only to US Government
 contracts under FAR:
  
                    RESTRICTED RIGHTS LEGEND
  
 Use, reproduction and disclosure by the US Government is
 subject to restrictions as set forth in subparagraphs (a)
 and (c) of the Commercial Computer Software - Restricted
 Rights clause in FAR 52.227-19.
  
 Gaussian, Inc.
 340 Quinnipiac St., Bldg. 40, Wallingford CT 06492
  
  
 ---------------------------------------------------------------
 Warning -- This program may not be used in any manner that
 competes with the business of Gaussian, Inc. or will provide
 assistance to any competitor of Gaussian, Inc.  The licensee
 of this program is prohibited from giving any competitor of
 Gaussian, Inc. access to this program.  By using this program,
 the user acknowledges that Gaussian, Inc. is engaged in the
 business of creating and licensing software in the field of
 computational chemistry and represents and warrants to the
 licensee that it is not a competitor of Gaussian, Inc. and that
 it will not use this program in any manner prohibited above.
 ---------------------------------------------------------------
  

 Cite this work as:
 Gaussian 16, Revision C.01,
 M. J. Frisch, G. W. Trucks, H. B. Schlegel, G. E. Scuseria, 
 M. A. Robb, J. R. Cheeseman, G. Scalmani, V. Barone, 
 G. A. Petersson, H. Nakatsuji, X. Li, M. Caricato, A. V. Marenich, 
 J. Bloino, B. G. Janesko, R. Gomperts, B. Mennucci, H. P. Hratchian, 
 J. V. Ortiz, A. F. Izmaylov, J. L. Sonnenberg, D. Williams-Young, 
 F. Ding, F. Lipparini, F. Egidi, J. Goings, B. Peng, A. Petrone, 
 T. Henderson, D. Ranasinghe, V. G. Zakrzewski, J. Gao, N. Rega, 
 G. Zheng, W. Liang, M. Hada, M. Ehara, K. Toyota, R. Fukuda, 
 J. Hasegawa, M. Ishida, T. Nakajima, Y. Honda, O. Kitao, H. Nakai, 
 T. Vreven, K. Throssell, J. A. Montgomery, Jr., J. E. Peralta, 
 F. Ogliaro, M. J. Bearpark, J. J. Heyd, E. N. Brothers, K. N. Kudin, 
 V. N. Staroverov, T. A. Keith, R. Kobayashi, J. Normand, 
 K. Raghavachari, A. P. Rendell, J. C. Burant, S. S. Iyengar, 
 J. Tomasi, M. Cossi, J. M. Millam, M. Klene, C. Adamo, R. Cammi, 
 J. W. Ochterski, R. L. Martin, K. Morokuma, O. Farkas, 
 J. B. Foresman, and D. J. Fox, Gaussian, Inc., Wallingford CT, 2019.
 
 ******************************************
 Gaussian 16:  ES64L-G16RevC.01  3-Jul-2019
                 2-Jun-2023 
 ******************************************
 %NProcShared=2
 Will use up to    2 processors via shared memory.
 %mem=55gb
 %chk=/scratch1/svicchi/G09-659728.pbs02/02-freq/EMIM-isolated-freq.chk
 ----------------------------------------------------------------------
 #p freq=raman scale=0.967 pop=(nbo,full,hirshfeld) guess=read geom=all
 check b3lyp/6-311+G(d,p) int=grid=ultrafine EmpiricalDispersion=GD3BJ 
 SCRF=(Solvent=ethanol) scf=(xqc,intrep,maxconventionalcycle=350) nosym
 m
 ----------------------------------------------------------------------
 1/10=4,29=7,30=1,38=1,114=967000/1,3;
 2/12=2,15=1,40=1/2;
 3/5=4,6=6,7=111,11=2,14=-4,25=1,30=1,70=2201,71=2,72=4,74=-5,75=-5,116=-2,124=41,140=1/1,2,3;
 4/5=1/1;
 5/5=2,8=3,13=1,17=20,38=6,53=4,85=350,98=1/2,8;
 8/6=4,10=90,11=11/1;
 10/13=10,15=4,31=1/2;
 11/6=3,8=1,9=11,15=111,16=1,31=1/1,2,10;
 10/6=1,31=1/2;
 6/7=3,28=1,40=1,79=1/1,7;
 7/8=1,10=1,25=1,30=1/1,2,3,16;
 1/10=4,30=1/3;
 99//99;
 Leave Link    1 at Fri Jun  2 11:22:09 2023, MaxMem=  7381975040 cpu:               1.7 elap:               1.9
 (Enter /software/commercial/gaussian/g16/AVX/g16/l101.exe)
 Structure from the checkpoint file:  "/scratch1/svicchi/G09-659728.pbs02/02-freq/EMIM-isolated-freq.chk"
 -----------------
 EMIM-isolated.gjf
 -----------------
 Charge =  1 Multiplicity = 1
 No Z-Matrix found in chk file; cartesian coordinates used.
  C                                                 1.102020843659     -0.274286687589      0.344067642756
  N                                                 0.645148407806     -1.577681422828     -0.176364532637
  C                                                 0.929528404441     -2.769756273066      0.354935639293
  N                                                 0.390091649495     -3.719336453238     -0.414075968034
  C                                                 0.454315616905     -5.162492594083     -0.163163237815
  C                                                -0.259211425447     -3.114641721891     -1.474445791240
  C                                                -0.096362899338     -1.771910743747     -1.326930810987
  C                                                 2.277756608234      0.272007993347     -0.455757753818
  H                                                 1.365836553156     -0.427744887404      1.389720298960
  H                                                 0.245627335736      0.398698358708      0.309392658430
  H                                                 1.498728255453     -2.937223732841      1.252674698417
  H                                                 1.088579475584     -5.338615295853      0.701856379373
  H                                                 0.877235194402     -5.658198234389     -1.034915036153
  H                                                -0.548007916332     -5.539859830853      0.032647370093
  H                                                -0.775662603576     -3.685203117901     -2.225792710528
  H                                                -0.440446319210     -0.949818009584     -1.928941301579
  H                                                 3.128992956198     -0.409883806633     -0.411893568272
  H                                                 2.580799656173      1.232506427432     -0.034966726499
  H                                                 2.005429206661      0.427864032414     -1.501233249759
 Recover connectivity data from disk.
 ITRead=  0  0  0  0  0  0  0  0  0  0  0  0  0  0  0  0  0  0  0
 MicOpt= -1 -1 -1 -1 -1 -1 -1 -1 -1 -1 -1 -1 -1 -1 -1 -1 -1 -1 -1
 NAtoms=     19 NQM=       19 NQMF=       0 NMMI=      0 NMMIF=      0
                NMic=       0 NMicF=      0.
                    Isotopes and Nuclear Properties:
 (Nuclear quadrupole moments (NQMom) in fm**2, nuclear magnetic moments (NMagM)
  in nuclear magnetons)

  Atom         1           2           3           4           5           6           7           8           9          10
 IAtWgt=          12          14          12          14          12          12          12          12           1           1
 AtmWgt=  12.0000000  14.0030740  12.0000000  14.0030740  12.0000000  12.0000000  12.0000000  12.0000000   1.0078250   1.0078250
 NucSpn=           0           2           0           2           0           0           0           0           1           1
 AtZEff=   3.6000000   4.5500000   3.6000000   4.5500000   3.6000000   3.6000000   3.6000000   3.6000000   1.0000000   1.0000000
 NQMom=    0.0000000   2.0440000   0.0000000   2.0440000   0.0000000   0.0000000   0.0000000   0.0000000   0.0000000   0.0000000
 NMagM=    0.0000000   0.4037610   0.0000000   0.4037610   0.0000000   0.0000000   0.0000000   0.0000000   2.7928460   2.7928460
 AtZNuc=   6.0000000   7.0000000   6.0000000   7.0000000   6.0000000   6.0000000   6.0000000   6.0000000   1.0000000   1.0000000

  Atom        11          12          13          14          15          16          17          18          19
 IAtWgt=           1           1           1           1           1           1           1           1           1
 AtmWgt=   1.0078250   1.0078250   1.0078250   1.0078250   1.0078250   1.0078250   1.0078250   1.0078250   1.0078250
 NucSpn=           1           1           1           1           1           1           1           1           1
 AtZEff=   1.0000000   1.0000000   1.0000000   1.0000000   1.0000000   1.0000000   1.0000000   1.0000000   1.0000000
 NQMom=    0.0000000   0.0000000   0.0000000   0.0000000   0.0000000   0.0000000   0.0000000   0.0000000   0.0000000
 NMagM=    2.7928460   2.7928460   2.7928460   2.7928460   2.7928460   2.7928460   2.7928460   2.7928460   2.7928460
 AtZNuc=   1.0000000   1.0000000   1.0000000   1.0000000   1.0000000   1.0000000   1.0000000   1.0000000   1.0000000
 Leave Link  101 at Fri Jun  2 11:22:11 2023, MaxMem=  7381975040 cpu:               0.5 elap:               0.9
 (Enter /software/commercial/gaussian/g16/AVX/g16/l103.exe)

 GradGradGradGradGradGradGradGradGradGradGradGradGradGradGradGradGradGrad
 Berny optimization.
 Initialization pass.
 Trust Radius=3.00D-01 FncErr=1.00D-07 GrdErr=1.00D-07 EigMax=2.50D+02 EigMin=1.00D-04
 Number of steps in this run=      2 maximum allowed number of steps=      2.
 GradGradGradGradGradGradGradGradGradGradGradGradGradGradGradGradGradGrad

 Leave Link  103 at Fri Jun  2 11:22:13 2023, MaxMem=  7381975040 cpu:               0.1 elap:               1.4
 (Enter /software/commercial/gaussian/g16/AVX/g16/l202.exe)
                          Input orientation:                          
 ---------------------------------------------------------------------
 Center     Atomic      Atomic             Coordinates (Angstroms)
 Number     Number       Type             X           Y           Z
 ---------------------------------------------------------------------
      1          6           0        1.102021   -0.274287    0.344068
      2          7           0        0.645148   -1.577681   -0.176365
      3          6           0        0.929528   -2.769756    0.354936
      4          7           0        0.390092   -3.719336   -0.414076
      5          6           0        0.454316   -5.162493   -0.163163
      6          6           0       -0.259211   -3.114642   -1.474446
      7          6           0       -0.096363   -1.771911   -1.326931
      8          6           0        2.277757    0.272008   -0.455758
      9          1           0        1.365837   -0.427745    1.389720
     10          1           0        0.245627    0.398698    0.309393
     11          1           0        1.498728   -2.937224    1.252675
     12          1           0        1.088579   -5.338615    0.701856
     13          1           0        0.877235   -5.658198   -1.034915
     14          1           0       -0.548008   -5.539860    0.032647
     15          1           0       -0.775663   -3.685203   -2.225793
     16          1           0       -0.440446   -0.949818   -1.928941
     17          1           0        3.128993   -0.409884   -0.411894
     18          1           0        2.580800    1.232506   -0.034967
     19          1           0        2.005429    0.427864   -1.501233
 ---------------------------------------------------------------------
                    Distance matrix (angstroms):
                    1          2          3          4          5
     1  C    0.000000
     2  N    1.475947   0.000000
     3  C    2.501448   1.335737   0.000000
     4  N    3.598610   2.169850   1.335692   0.000000
     5  C    4.956951   3.589911   2.493881   1.466213   0.000000
     6  C    3.636971   2.205704   2.208774   1.382619   2.534221
     7  C    2.543863   1.382522   2.208353   2.205087   3.626796
     8  C    1.523323   2.482906   3.424511   4.415410   5.739716
     9  H    1.089283   2.072285   2.597337   3.878187   5.065585
    10  H    1.089734   2.074043   3.241743   4.183597   5.585132
    11  H    2.841510   2.149211   1.076090   2.149147   2.836762
    12  H    5.076969   3.887483   2.597054   2.086925   1.087000
    13  H    5.562250   4.176313   3.205857   2.093307   1.088364
    14  H    5.526829   4.143207   3.156019   2.096163   1.088761
    15  H    4.665215   3.265043   3.225814   2.154638   2.819516
    16  H    2.828801   2.155053   3.225694   3.264176   4.654589
    17  H    2.167598   2.754761   3.315821   4.295819   5.459218
    18  H    2.144966   3.415244   4.347048   5.428045   6.740503
    19  H    2.171243   2.761857   3.850675   4.581539   5.953862
                    6          7          8          9         10
     6  C    0.000000
     7  C    1.360591   0.000000
     8  C    4.352393   3.251613   0.000000
     9  H    4.250134   3.365264   2.174176   0.000000
    10  H    3.972468   2.739718   2.175099   1.762097   0.000000
    11  H    3.249464   3.249098   3.718171   2.516729   3.686247
    12  H    3.391001   4.271001   5.850924   4.966556   5.812174
    13  H    2.820351   4.017013   6.120803   5.785778   6.236352
    14  H    2.869916   4.031114   6.480840   5.624781   5.997743
    15  H    1.075539   2.220380   5.302444   5.316859   4.914107
    16  H    2.219431   1.075475   3.324418   3.814280   2.701728
    17  H    4.463705   3.618747   1.091560   2.520883   3.080236
    18  H    5.388456   4.226452   1.091539   2.502459   2.503368
    19  H    4.204600   3.047445   1.091546   3.082005   2.525098
                   11         12         13         14         15
    11  H    0.000000
    12  H    2.497660   0.000000
    13  H    3.608743   1.778532   0.000000
    14  H    3.528641   1.779539   1.784660   0.000000
    15  H    4.222803   3.844516   2.836013   2.931233   0.000000
    16  H    4.222897   5.340464   4.970353   4.992783   2.771790
    17  H    3.437441   5.449415   5.744856   6.327291   5.409647
    18  H    4.496170   6.778589   7.168252   7.460493   6.344243
    19  H    4.377736   6.240713   6.207288   6.669825   5.017647
                   16         17         18         19
    16  H    0.000000
    17  H    3.915847   0.000000
    18  H    4.180623   1.772015   0.000000
    19  H    2.839586   1.775071   1.768739   0.000000
 Symmetry turned off by external request.
 Stoichiometry    C6H11N2(1+)
 Framework group  C1[X(C6H11N2)]
 Deg. of freedom    51
 Full point group                 C1      NOp   1
 Rotational constants (GHZ):           5.2724191           1.2722251           1.1225302
 Leave Link  202 at Fri Jun  2 11:22:15 2023, MaxMem=  7381975040 cpu:               0.0 elap:               0.5
 (Enter /software/commercial/gaussian/g16/AVX/g16/l301.exe)
 Standard basis: 6-311+G(d,p) (5D, 7F)
 Ernie: Thresh=  0.10000D-02 Tol=  0.10000D-05 Strict=F.
   242 basis functions,   376 primitive gaussians,   250 cartesian basis functions
    30 alpha electrons       30 beta electrons
       nuclear repulsion energy       381.1088111426 Hartrees.
 IExCor=  402 DFT=T Ex+Corr=B3LYP ExCW=0 ScaHFX=  0.200000
 ScaDFX=  0.800000  0.720000  1.000000  0.810000 ScalE2=  1.000000  1.000000
 IRadAn=      5 IRanWt=     -1 IRanGd=            0 ICorTp=0 IEmpDi=141
 NAtoms=   19 NActive=   19 NUniq=   19 SFac= 1.00D+00 NAtFMM=   60 NAOKFM=F Big=F
 Integral buffers will be    131072 words long.
 Raffenetti 2 integral format.
 Two-electron integral symmetry is turned off.
 R6Disp:  Grimme-D3(BJ) Dispersion energy=       -0.0276989246 Hartrees.
 Nuclear repulsion after empirical dispersion term =      381.0811122180 Hartrees.
 Force inversion solution in PCM.
 ------------------------------------------------------------------------------
 Polarizable Continuum Model (PCM)
 =================================
 Model                : PCM.
 Atomic radii         : UFF (Universal Force Field).
 Polarization charges : Total charges.
 Charge compensation  : None.
 Solution method      : Matrix inversion.
 Cavity type          : Scaled VdW (van der Waals Surface) (Alpha=1.100).
 Cavity algorithm     : GePol (No added spheres)
                        Default sphere list used, NSphG=   19.
                        Lebedev-Laikov grids with approx.  5.0 points / Ang**2.
                        Smoothing algorithm: York/Karplus (Gamma=1.0000).
                        Polarization charges: spherical gaussians, with
                                              point-specific exponents (IZeta= 3).
                        Self-potential: point-specific (ISelfS= 7).
                        Self-field    : sphere-specific E.n sum rule (ISelfD= 2).
 1st derivatives      : Analytical E(r).r(x)/FMM algorithm (CHGder, D1EAlg=3).
                        Cavity 1st derivative terms included.
 2nd derivatives      : Analytical E(r).r(xy)/FMM algorithm (CHGder, D2EAlg=3).
                        Cavity 2nd derivative terms included.
 Solvent              : Ethanol, Eps=  24.852000 Eps(inf)=   1.852593
 ------------------------------------------------------------------------------
 Spheres list:
 ISph  on   Nord     Re0    Alpha      Xe            Ye            Ze
    1   C      1    1.9255  1.100      1.102021     -0.274287      0.344068
    2   N      2    1.8300  1.100      0.645148     -1.577681     -0.176365
    3   C      3    1.9255  1.100      0.929528     -2.769756      0.354936
    4   N      4    1.8300  1.100      0.390092     -3.719336     -0.414076
    5   C      5    1.9255  1.100      0.454316     -5.162493     -0.163163
    6   C      6    1.9255  1.100     -0.259211     -3.114642     -1.474446
    7   C      7    1.9255  1.100     -0.096363     -1.771911     -1.326931
    8   C      8    1.9255  1.100      2.277757      0.272008     -0.455758
    9   H      9    1.4430  1.100      1.365837     -0.427745      1.389720
   10   H     10    1.4430  1.100      0.245627      0.398698      0.309393
   11   H     11    1.4430  1.100      1.498728     -2.937224      1.252675
   12   H     12    1.4430  1.100      1.088579     -5.338615      0.701856
   13   H     13    1.4430  1.100      0.877235     -5.658198     -1.034915
   14   H     14    1.4430  1.100     -0.548008     -5.539860      0.032647
   15   H     15    1.4430  1.100     -0.775663     -3.685203     -2.225793
   16   H     16    1.4430  1.100     -0.440446     -0.949818     -1.928941
   17   H     17    1.4430  1.100      3.128993     -0.409884     -0.411894
   18   H     18    1.4430  1.100      2.580800      1.232506     -0.034967
   19   H     19    1.4430  1.100      2.005429      0.427864     -1.501233
 ------------------------------------------------------------------------------
 GePol: Number of generator spheres                  =      19
 GePol: Total number of spheres                      =      19
 GePol: Number of exposed spheres                    =      19 (100.00%)
 GePol: Number of points                             =    1474
 GePol: Average weight of points                     =       0.13
 GePol: Minimum weight of points                     =   0.62D-08
 GePol: Maximum weight of points                     =    0.20577
 GePol: Number of points with low weight             =     101
 GePol: Fraction of low-weight points (<1% of avg)   =       6.85%
 GePol: Cavity surface area                          =    195.884 Ang**2
 GePol: Cavity volume                                =    188.388 Ang**3
 Leave Link  301 at Fri Jun  2 11:22:17 2023, MaxMem=  7381975040 cpu:               1.5 elap:               2.0
 (Enter /software/commercial/gaussian/g16/AVX/g16/l302.exe)
 NPDir=0 NMtPBC=     1 NCelOv=     1 NCel=       1 NClECP=     1 NCelD=      1
         NCelK=      1 NCelE2=     1 NClLst=     1 CellRange=     0.0.
 One-electron integrals computed using PRISM.
 NBasis=   242 RedAO= T EigKep=  2.10D-05  NBF=   242
 NBsUse=   242 1.00D-06 EigRej= -1.00D+00 NBFU=   242
 Precomputing XC quadrature grid using
 IXCGrd= 4 IRadAn=           5 IRanWt=          -1 IRanGd=           0 AccXCQ= 0.00D+00.
 Generated NRdTot=       0 NPtTot=           0 NUsed=           0 NTot=          32
 NSgBfM=   250   250   250   250   250 MxSgAt=    19 MxSgA2=    19.
 Leave Link  302 at Fri Jun  2 11:22:20 2023, MaxMem=  7381975040 cpu:               0.9 elap:               1.5
 (Enter /software/commercial/gaussian/g16/AVX/g16/l303.exe)
 DipDrv:  MaxL=1.
 Leave Link  303 at Fri Jun  2 11:22:23 2023, MaxMem=  7381975040 cpu:               0.1 elap:               1.6
 (Enter /software/commercial/gaussian/g16/AVX/g16/l401.exe)
 Initial guess from the checkpoint file:  "/scratch1/svicchi/G09-659728.pbs02/02-freq/EMIM-isolated-freq.chk"
 B after Tr=     0.000000    0.000000    0.000000
         Rot=    1.000000    0.000000    0.000000    0.000000 Ang=   0.00 deg.
 Guess basis will be translated and rotated to current coordinates.
 JPrj=2 DoOrth=T DoCkMO=T.
 Leave Link  401 at Fri Jun  2 11:22:25 2023, MaxMem=  7381975040 cpu:               0.6 elap:               1.1
 (Enter /software/commercial/gaussian/g16/AVX/g16/l502.exe)
 Keep R1 ints in memory in canonical form, NReq=440190746.
 FoFCou: FMM=F IPFlag=           0 FMFlag=           0 FMFlg1=           0
         NFxFlg=           0 DoJE=F BraDBF=F KetDBF=F FulRan=T
         wScrn=  0.000000 ICntrl=       600 IOpCl=  0 I1Cent=           0 NGrid=           0
         NMat0=    1 NMatS0=  29403 NMatT0=    0 NMatD0=    1 NMtDS0=    0 NMtDT0=    0
 Symmetry not used in FoFCou.
 Two-electron integral symmetry not used.
 Closed shell SCF:
 Using DIIS extrapolation, IDIIS=  1040.
 NGot=  7381975040 LenX=  6949563192 LenY=  6949500251
 Requested convergence on RMS density matrix=1.00D-08 within 350 cycles.
 Requested convergence on MAX density matrix=1.00D-06.
 Requested convergence on             energy=1.00D-06.
 No special actions if energy rises.

 Cycle   1  Pass 1  IDiag  1:
 Inv3:  Mode=1 IEnd=     6518028.
 Iteration    1 A*A^-1 deviation from unit magnitude is 3.55D-15 for   1474.
 Iteration    1 A*A^-1 deviation from orthogonality  is 1.58D-15 for    995    852.
 Iteration    1 A^-1*A deviation from unit magnitude is 3.55D-15 for   1474.
 Iteration    1 A^-1*A deviation from orthogonality  is 1.99D-15 for   1464    629.
 E= -344.737991709881    
 DIIS: error= 1.70D-07 at cycle   1 NSaved=   1.
 NSaved= 1 IEnMin= 1 EnMin= -344.737991709881     IErMin= 1 ErrMin= 1.70D-07
 ErrMax= 1.70D-07  0.00D+00 EMaxC= 1.00D-01 BMatC= 3.34D-12 BMatP= 3.34D-12
 IDIUse=1 WtCom= 1.00D+00 WtEn= 0.00D+00
 Coeff-Com:  0.100D+01
 Coeff:      0.100D+01
 Gap=     0.246 Goal=   None    Shift=    0.000
 RMSDP=1.80D-08 MaxDP=5.20D-07              OVMax= 1.88D-06

 Cycle   2  Pass 1  IDiag  1:
 E= -344.737991709871     Delta-E=        0.000000000011 Rises=F Damp=F
 DIIS: error= 3.48D-07 at cycle   2 NSaved=   2.
 NSaved= 2 IEnMin= 1 EnMin= -344.737991709881     IErMin= 1 ErrMin= 1.70D-07
 ErrMax= 3.48D-07  0.00D+00 EMaxC= 1.00D-01 BMatC= 1.42D-11 BMatP= 3.34D-12
 IDIUse=1 WtCom= 1.00D+00 WtEn= 0.00D+00
 Coeff-Com:  0.673D+00 0.327D+00
 Coeff:      0.673D+00 0.327D+00
 Gap=     0.246 Goal=   None    Shift=    0.000
 RMSDP=1.20D-08 MaxDP=3.52D-07 DE= 1.05D-11 OVMax= 1.27D-06

 Cycle   3  Pass 1  IDiag  1:
 E= -344.737991709883     Delta-E=       -0.000000000013 Rises=F Damp=F
 DIIS: error= 2.39D-09 at cycle   3 NSaved=   3.
 NSaved= 3 IEnMin= 3 EnMin= -344.737991709883     IErMin= 3 ErrMin= 2.39D-09
 ErrMax= 2.39D-09  0.00D+00 EMaxC= 1.00D-01 BMatC= 2.10D-15 BMatP= 3.34D-12
 IDIUse=1 WtCom= 1.00D+00 WtEn= 0.00D+00
 Coeff-Com:  0.312D+00 0.151D+00 0.537D+00
 Coeff:      0.312D+00 0.151D+00 0.537D+00
 Gap=     0.246 Goal=   None    Shift=    0.000
 RMSDP=2.46D-10 MaxDP=8.55D-09 DE=-1.27D-11 OVMax= 1.28D-08

 Error on total polarization charges =  0.01014
 SCF Done:  E(RB3LYP) =  -344.737991710     A.U. after    3 cycles
            NFock=  3  Conv=0.25D-09     -V/T= 2.0047
 KE= 3.431205559428D+02 PE=-1.550512647246D+03 EE= 4.815729873754D+02
 Leave Link  502 at Fri Jun  2 11:23:06 2023, MaxMem=  7381975040 cpu:              72.9 elap:              40.2
 (Enter /software/commercial/gaussian/g16/AVX/g16/l508.exe)
 QCSCF skips out because SCF is already converged.
 Leave Link  508 at Fri Jun  2 11:23:08 2023, MaxMem=  7381975040 cpu:               0.1 elap:               0.9
 (Enter /software/commercial/gaussian/g16/AVX/g16/l801.exe)
 DoSCS=F DFT=T ScalE2(SS,OS)=  1.000000  1.000000
 Range of M.O.s used for correlation:     1   242
 NBasis=   242 NAE=    30 NBE=    30 NFC=     0 NFV=     0
 NROrb=    242 NOA=    30 NOB=    30 NVA=   212 NVB=   212

 **** Warning!!: The largest alpha MO coefficient is  0.63770233D+02

 Leave Link  801 at Fri Jun  2 11:23:11 2023, MaxMem=  7381975040 cpu:               0.1 elap:               1.2
 (Enter /software/commercial/gaussian/g16/AVX/g16/l1002.exe)
 Minotr:  Closed shell wavefunction.
 NEqPCM:  Using equilibrium solvation (IEInf=0, Eps=  24.8520, EpsInf=   1.8526)
          Direct CPHF calculation.
          Differentiating once with respect to electric field.
                with respect to dipole field.
          Electric field/nuclear overlap derivatives assumed to be zero.
          Requested convergence is 1.0D-08 RMS, and 1.0D-07 maximum.
          Secondary convergence is 1.0D-12 RMS, and 1.0D-12 maximum.
          NewPWx=F KeepS1=T KeepF1=T KeepIn=T MapXYZ=F SortEE=F KeepMc=T.
         5866 words used for storage of precomputed grid.
 Keep R1 ints in memory in canonical form, NReq=440198701.
 FoFCou: FMM=F IPFlag=           0 FMFlag=           0 FMFlg1=           0
         NFxFlg=           0 DoJE=F BraDBF=F KetDBF=F FulRan=T
         wScrn=  0.000000 ICntrl=       600 IOpCl=  0 I1Cent=           0 NGrid=           0
         NMat0=    1 NMatS0=  29403 NMatT0=    0 NMatD0=    1 NMtDS0=    0 NMtDT0=    0
 Symmetry not used in FoFCou.
 Two-electron integral symmetry not used.
          MDV=    7381975040 using IRadAn=       1.
          Solving linear equations simultaneously, MaxMat=       0.
          There are     3 degrees of freedom in the 1st order CPHF.  IDoFFX=0 NUNeed=     3.
      3 vectors produced by pass  0 Test12= 2.12D-13 3.33D-08 XBig12= 7.67D+01 4.64D+00.
 AX will form     3 AO Fock derivatives at one time.
      3 vectors produced by pass  1 Test12= 2.12D-13 3.33D-08 XBig12= 2.73D+01 1.63D+00.
      3 vectors produced by pass  2 Test12= 2.12D-13 3.33D-08 XBig12= 4.51D+00 6.29D-01.
      3 vectors produced by pass  3 Test12= 2.12D-13 3.33D-08 XBig12= 1.16D+00 4.03D-01.
      3 vectors produced by pass  4 Test12= 2.12D-13 3.33D-08 XBig12= 1.71D-01 8.91D-02.
      3 vectors produced by pass  5 Test12= 2.12D-13 3.33D-08 XBig12= 2.82D-02 3.32D-02.
      3 vectors produced by pass  6 Test12= 2.12D-13 3.33D-08 XBig12= 2.54D-03 7.79D-03.
      3 vectors produced by pass  7 Test12= 2.12D-13 3.33D-08 XBig12= 2.39D-04 2.13D-03.
      3 vectors produced by pass  8 Test12= 2.12D-13 3.33D-08 XBig12= 2.04D-05 7.15D-04.
      3 vectors produced by pass  9 Test12= 2.12D-13 3.33D-08 XBig12= 4.98D-07 1.02D-04.
      3 vectors produced by pass 10 Test12= 2.12D-13 3.33D-08 XBig12= 1.15D-08 2.17D-05.
      3 vectors produced by pass 11 Test12= 2.12D-13 3.33D-08 XBig12= 3.00D-10 3.40D-06.
      2 vectors produced by pass 12 Test12= 2.12D-13 3.33D-08 XBig12= 4.69D-12 2.77D-07.
      1 vectors produced by pass 13 Test12= 2.12D-13 3.33D-08 XBig12= 1.23D-13 4.54D-08.
 InvSVY:  IOpt=1 It=  1 EMax= 1.78D-15
 Solved reduced A of dimension    39 with     3 vectors.
 End of Minotr F.D. properties file   721 does not exist.
 End of Minotr F.D. properties file   722 does not exist.
 End of Minotr F.D. properties file   788 does not exist.
 Leave Link 1002 at Fri Jun  2 11:25:20 2023, MaxMem=  7381975040 cpu:             243.0 elap:             128.3
 (Enter /software/commercial/gaussian/g16/AVX/g16/l1101.exe)
 Using compressed storage, NAtomX=    19.
 Will process     20 centers per pass.
 R6Disp: Adding Grimme-D3(BJ) dispersion energy 1st derivatives to the gradient.
 Leave Link 1101 at Fri Jun  2 11:25:23 2023, MaxMem=  7381975040 cpu:               0.8 elap:               1.2
 (Enter /software/commercial/gaussian/g16/AVX/g16/l1102.exe)
 Symmetrizing basis deriv contribution to polar:
 IMax=3 JMax=2 DiffMx= 0.00D+00
 Leave Link 1102 at Fri Jun  2 11:25:24 2023, MaxMem=  7381975040 cpu:               0.3 elap:               1.0
 (Enter /software/commercial/gaussian/g16/AVX/g16/l1110.exe)
 Forming Gx(P) for the SCF density, NAtomX=    19.
 Integral derivatives from FoFJK, PRISM(SPDF).
 Do as many integral derivatives as possible in FoFJK.
 G2DrvN: MDV=    7381972947.
 G2DrvN: will do    20 centers at a time, making    1 passes.
 PxScal for G2LodP:  IOpCl= 0 ISclPx=1 IMOff=     1 NMtTot=     4 NTT=   29403 ScalPx= 7.71D+00
 Calling FoFCou, ICntrl=  3107 FMM=F I1Cent=   0 AccDes= 0.00D+00.
 FoFJK:  IHMeth= 1 ICntrl=    3107 DoSepK=F KAlg= 0 I1Cent=           0 FoldK=F
 IRaf=         0 NMat=       1 IRICut=       1 DoRegI=T DoRafI=F ISym2E= 0 IDoP0=0 IntGTp=1.
 FoFCou: FMM=F IPFlag=           0 FMFlag=      100000 FMFlg1=           0
         NFxFlg=           0 DoJE=F BraDBF=F KetDBF=F FulRan=T
         wScrn=  0.000000 ICntrl=      3107 IOpCl=  0 I1Cent=           0 NGrid=           0
         NMat0=    1 NMatS0=      1 NMatT0=    0 NMatD0=    4 NMtDS0=    3 NMtDT0=    0
 Symmetry not used in FoFCou.
 PxScal for G2LodP:  IOpCl= 0 ISclPx=0 IMOff=     1 NMtTot=     4 NTT=   29403 ScalPx= 1.00D+00
 NEqPCM:  Using equilibrium solvation (IEInf=0, Eps=  24.8520, EpsInf=   1.8526)
 G2PCM: DoFxE=T DoFxN=T DoGrad=T DoDP/DQ/DG/TGxP=TFFF NFrqRd=   0 IEInf=0 SqF1=F DoCFld=F IF1Alg=4.
 GePol: Maximum number of non-zero 1st derivatives   =     228
 End of G2Drv F.D. properties file   721 does not exist.
 End of G2Drv F.D. properties file   722 does not exist.
 End of G2Drv F.D. properties file   788 does not exist.
 Leave Link 1110 at Fri Jun  2 11:31:36 2023, MaxMem=  7381975040 cpu:             729.8 elap:             370.3
 (Enter /software/commercial/gaussian/g16/AVX/g16/l1002.exe)
 Minotr:  Closed shell wavefunction.
          IDoAtm=1111111111111111111
 NEqPCM:  Using equilibrium solvation (IEInf=0, Eps=  24.8520, EpsInf=   1.8526)
          Direct CPHF calculation.
          Differentiating once with respect to electric field.
                with respect to dipole field.
          Differentiating once with respect to nuclear coordinates.
          Requested convergence is 1.0D-08 RMS, and 1.0D-07 maximum.
          Secondary convergence is 1.0D-12 RMS, and 1.0D-12 maximum.
          NewPWx=T KeepS1=F KeepF1=F KeepIn=T MapXYZ=F SortEE=F KeepMc=T.
         5866 words used for storage of precomputed grid.
 Keep R1 ints in memory in canonical form, NReq=440199138.
 FoFCou: FMM=F IPFlag=           0 FMFlag=           0 FMFlg1=           0
         NFxFlg=           0 DoJE=F BraDBF=F KetDBF=F FulRan=T
         wScrn=  0.000000 ICntrl=       600 IOpCl=  0 I1Cent=           0 NGrid=           0
         NMat0=    1 NMatS0=  29403 NMatT0=    0 NMatD0=    1 NMtDS0=    0 NMtDT0=    0
 Symmetry not used in FoFCou.
 Two-electron integral symmetry not used.
          MDV=    7381975040 using IRadAn=       1.
          Solving linear equations simultaneously, MaxMat=       0.
          There are    60 degrees of freedom in the 1st order CPHF.  IDoFFX=5 NUNeed=    60.
 Will reuse    3 saved solutions.
     54 vectors produced by pass  0 Test12= 1.06D-14 1.67D-09 XBig12= 1.08D-01 8.28D-02.
 AX will form    54 AO Fock derivatives at one time.
     54 vectors produced by pass  1 Test12= 1.06D-14 1.67D-09 XBig12= 1.57D-02 4.99D-02.
     54 vectors produced by pass  2 Test12= 1.06D-14 1.67D-09 XBig12= 1.25D-04 1.23D-03.
     54 vectors produced by pass  3 Test12= 1.06D-14 1.67D-09 XBig12= 4.52D-07 7.80D-05.
     54 vectors produced by pass  4 Test12= 1.06D-14 1.67D-09 XBig12= 5.43D-10 2.19D-06.
     39 vectors produced by pass  5 Test12= 1.06D-14 1.67D-09 XBig12= 6.75D-13 9.96D-08.
      5 vectors produced by pass  6 Test12= 1.06D-14 1.67D-09 XBig12= 7.23D-16 3.35D-09.
 InvSVY:  IOpt=1 It=  1 EMax= 3.89D-16
 Solved reduced A of dimension   314 with    60 vectors.
 FullF1:  Do perturbations      1 to       3.
 Isotropic polarizability for W=    0.000000       97.68 Bohr**3.
 FullF1:  Do perturbations      1 to       6.
 End of Minotr F.D. properties file   721 does not exist.
 End of Minotr F.D. properties file   722 does not exist.
 End of Minotr F.D. properties file   788 does not exist.
 Leave Link 1002 at Fri Jun  2 11:37:17 2023, MaxMem=  7381975040 cpu:             662.4 elap:             340.1
 (Enter /software/commercial/gaussian/g16/AVX/g16/l601.exe)
 Copying SCF densities to generalized density rwf, IOpCl= 0 IROHF=0.

 **********************************************************************

            Population analysis using the SCF Density.

 **********************************************************************

 Alpha  occ. eigenvalues --  -14.43343 -14.43017 -10.29625 -10.24934 -10.24861
 Alpha  occ. eigenvalues --  -10.24477 -10.23847 -10.18318  -1.10194  -0.98412
 Alpha  occ. eigenvalues --   -0.83370  -0.80419  -0.75729  -0.68839  -0.66084
 Alpha  occ. eigenvalues --   -0.63806  -0.58142  -0.52911  -0.51094  -0.50329
 Alpha  occ. eigenvalues --   -0.49422  -0.48367  -0.46514  -0.45953  -0.43480
 Alpha  occ. eigenvalues --   -0.41539  -0.40139  -0.38164  -0.33312  -0.29480
 Alpha virt. eigenvalues --   -0.04839  -0.01897  -0.00312   0.00872   0.01921
 Alpha virt. eigenvalues --    0.02419   0.03103   0.03735   0.03989   0.04884
 Alpha virt. eigenvalues --    0.05417   0.05991   0.06822   0.07224   0.07734
 Alpha virt. eigenvalues --    0.08615   0.09358   0.10117   0.10742   0.11140
 Alpha virt. eigenvalues --    0.11928   0.13390   0.13465   0.14708   0.15024
 Alpha virt. eigenvalues --    0.15768   0.16060   0.16642   0.17931   0.18119
 Alpha virt. eigenvalues --    0.18503   0.18893   0.19743   0.20048   0.20481
 Alpha virt. eigenvalues --    0.21232   0.21510   0.22134   0.22917   0.23110
 Alpha virt. eigenvalues --    0.23962   0.24656   0.26266   0.27275   0.27690
 Alpha virt. eigenvalues --    0.27993   0.28877   0.30949   0.35047   0.36259
 Alpha virt. eigenvalues --    0.37565   0.39272   0.40035   0.41035   0.41607
 Alpha virt. eigenvalues --    0.43219   0.45951   0.48616   0.49667   0.51373
 Alpha virt. eigenvalues --    0.52565   0.53533   0.55371   0.56385   0.57272
 Alpha virt. eigenvalues --    0.57361   0.59356   0.60752   0.62032   0.62200
 Alpha virt. eigenvalues --    0.64783   0.64954   0.65728   0.66055   0.66631
 Alpha virt. eigenvalues --    0.68203   0.71034   0.71334   0.72848   0.73642
 Alpha virt. eigenvalues --    0.75394   0.78736   0.79096   0.82062   0.82368
 Alpha virt. eigenvalues --    0.86127   0.90632   0.92386   0.93285   0.95269
 Alpha virt. eigenvalues --    0.95800   0.99053   1.02644   1.03810   1.04431
 Alpha virt. eigenvalues --    1.04877   1.10519   1.13738   1.19046   1.23865
 Alpha virt. eigenvalues --    1.25943   1.27875   1.30011   1.37385   1.38739
 Alpha virt. eigenvalues --    1.41663   1.42417   1.44100   1.46139   1.49592
 Alpha virt. eigenvalues --    1.51211   1.51547   1.51816   1.53932   1.56456
 Alpha virt. eigenvalues --    1.57009   1.58183   1.59291   1.60966   1.61746
 Alpha virt. eigenvalues --    1.62141   1.64416   1.66395   1.68451   1.70163
 Alpha virt. eigenvalues --    1.72832   1.75067   1.75543   1.77524   1.78125
 Alpha virt. eigenvalues --    1.80108   1.83603   1.84231   1.89612   1.94423
 Alpha virt. eigenvalues --    1.98288   1.99739   2.01587   2.06557   2.07842
 Alpha virt. eigenvalues --    2.09026   2.11409   2.14406   2.18012   2.18648
 Alpha virt. eigenvalues --    2.23681   2.26591   2.28309   2.32935   2.37204
 Alpha virt. eigenvalues --    2.39683   2.41981   2.45005   2.45976   2.47525
 Alpha virt. eigenvalues --    2.48746   2.49636   2.51472   2.51701   2.54157
 Alpha virt. eigenvalues --    2.54313   2.56132   2.57608   2.59846   2.61133
 Alpha virt. eigenvalues --    2.61747   2.62993   2.64097   2.69035   2.72363
 Alpha virt. eigenvalues --    2.73388   2.76811   2.77464   2.78615   2.82384
 Alpha virt. eigenvalues --    2.83228   2.88675   2.92409   2.94735   2.95609
 Alpha virt. eigenvalues --    2.97253   3.09381   3.19175   3.26440   3.36347
 Alpha virt. eigenvalues --    3.53885   3.55899   3.61896   3.65112   3.71010
 Alpha virt. eigenvalues --    3.73630   3.77678   3.78488   3.80247   3.83179
 Alpha virt. eigenvalues --    3.87673   3.89783   3.90249   4.08559   4.20935
 Alpha virt. eigenvalues --    4.69924   4.89977   4.93498   5.23619  23.71930
 Alpha virt. eigenvalues --   23.83239  23.87364  23.89614  23.95341  24.15418
 Alpha virt. eigenvalues --   35.42337  35.58143
     Molecular Orbital Coefficients:
                           1         2         3         4         5
                           O         O         O         O         O
     Eigenvalues --   -14.43343 -14.43017 -10.29625 -10.24934 -10.24861
   1 1   C  1S         -0.00000   0.00001  -0.00004  -0.00045   0.00015
   2        2S          0.00001  -0.00002  -0.00002  -0.00035   0.00013
   3        2PX        -0.00001  -0.00007  -0.00001   0.00003  -0.00001
   4        2PY        -0.00005  -0.00028   0.00001  -0.00002  -0.00001
   5        2PZ        -0.00002  -0.00014  -0.00006   0.00001  -0.00001
   6        3S         -0.00003  -0.00004  -0.00015  -0.00037  -0.00008
   7        3PX         0.00005  -0.00003   0.00004  -0.00012   0.00005
   8        3PY         0.00022   0.00048   0.00007   0.00010   0.00004
   9        3PZ         0.00009   0.00041   0.00026   0.00004   0.00007
  10        4S         -0.00132   0.00457  -0.00056   0.00313   0.00019
  11        4PX         0.00093  -0.00058   0.00123  -0.00003  -0.00029
  12        4PY        -0.00033  -0.00173   0.00040  -0.00104   0.00003
  13        4PZ         0.00078  -0.00050  -0.00016  -0.00059  -0.00033
  14        5S         -0.01573  -0.00125  -0.01944  -0.00255  -0.00734
  15        5PX        -0.00028  -0.00171  -0.00359  -0.00304   0.00071
  16        5PY         0.00311  -0.00157   0.00023  -0.00213   0.00198
  17        5PZ         0.00194   0.00082   0.00352   0.00043   0.00086
  18        6D 0        0.00007   0.00015   0.00003   0.00005  -0.00000
  19        6D+1        0.00000  -0.00011  -0.00002   0.00007  -0.00000
  20        6D-1       -0.00007  -0.00026  -0.00014   0.00003  -0.00000
  21        6D+2        0.00000   0.00030  -0.00005   0.00004   0.00002
  22        6D-2       -0.00001  -0.00028  -0.00007  -0.00001  -0.00001
  23 2   N  1S         -0.00198   0.55736  -0.00007  -0.00004   0.00003
  24        2S         -0.00158   0.46566  -0.00003  -0.00004   0.00007
  25        2PX         0.00001   0.00002   0.00008  -0.00018   0.00007
  26        2PY        -0.00007  -0.00004  -0.00045  -0.00008   0.00010
  27        2PZ         0.00003  -0.00001   0.00016  -0.00028   0.00010
  28        3S         -0.00045   0.01646   0.00067   0.00062  -0.00051
  29        3PX        -0.00004  -0.00007  -0.00019   0.00037   0.00009
  30        3PY         0.00049  -0.00099   0.00115   0.00029  -0.00027
  31        3PZ        -0.00015  -0.00013  -0.00038   0.00057   0.00015
  32        4S         -0.00021  -0.01699  -0.00356  -0.00228  -0.00086
  33        4PX        -0.00014  -0.00002  -0.00028   0.00018  -0.00016
  34        4PY         0.00118   0.00118   0.00261  -0.00097   0.00030
  35        4PZ        -0.00009   0.00017  -0.00043   0.00043  -0.00022
  36        5S         -0.01081   0.01299   0.01563   0.00987  -0.02536
  37        5PX         0.00378  -0.00225   0.00263  -0.00489   0.00408
  38        5PY         0.01174  -0.00705  -0.00289  -0.00653   0.01587
  39        5PZ         0.00487  -0.00289   0.00324  -0.00743   0.00558
  40        6D 0        0.00004  -0.00000   0.00032  -0.00035  -0.00000
  41        6D+1        0.00000   0.00037  -0.00027  -0.00061   0.00020
  42        6D-1        0.00020  -0.00018   0.00058  -0.00018   0.00017
  43        6D+2        0.00010  -0.00035   0.00085  -0.00006  -0.00016
  44        6D-2        0.00012  -0.00005   0.00028  -0.00013   0.00013
  45 3   C  1S         -0.00000  -0.00000   0.56291   0.00004   0.00001
  46        2S          0.00010   0.00010   0.46319   0.00003   0.00001
  47        2PX        -0.00020  -0.00010  -0.00033   0.00007   0.00001
  48        2PY        -0.00039   0.00047   0.00008  -0.00002  -0.00000
  49        2PZ        -0.00029  -0.00020  -0.00052   0.00010   0.00002
  50        3S          0.00010   0.00008   0.01955  -0.00013  -0.00005
  51        3PX         0.00069   0.00037   0.00011  -0.00022  -0.00003
  52        3PY         0.00123  -0.00152   0.00006   0.00007  -0.00007
  53        3PZ         0.00097   0.00070   0.00014  -0.00032  -0.00006
  54        4S          0.00575   0.00532  -0.00825  -0.00147  -0.00042
  55        4PX        -0.00249  -0.00176   0.00016  -0.00046   0.00020
  56        4PY        -0.00185   0.00277  -0.00094   0.00018   0.00158
  57        4PZ        -0.00374  -0.00313   0.00042  -0.00077   0.00020
  58        5S         -0.00126  -0.00232  -0.02296  -0.00532  -0.00114
  59        5PX         0.00054  -0.00017   0.00249   0.00104   0.00046
  60        5PY         0.00363  -0.00298   0.00028   0.00135   0.00193
  61        5PZ         0.00080   0.00018   0.00418   0.00133   0.00058
  62        6D 0       -0.00001   0.00041   0.00071   0.00021   0.00006
  63        6D+1       -0.00021   0.00019   0.00194   0.00027   0.00007
  64        6D-1       -0.00109   0.00094  -0.00029  -0.00011   0.00009
  65        6D+2        0.00005   0.00060  -0.00058   0.00010   0.00005
  66        6D-2       -0.00071   0.00056  -0.00009  -0.00007   0.00006
  67 4   N  1S          0.55737   0.00197  -0.00007  -0.00003  -0.00004
  68        2S          0.46566   0.00172  -0.00003  -0.00001  -0.00008
  69        2PX        -0.00000   0.00003   0.00017  -0.00013  -0.00009
  70        2PY        -0.00003   0.00006   0.00038   0.00012   0.00019
  71        2PZ         0.00003   0.00004   0.00024  -0.00021  -0.00015
  72        3S          0.01648  -0.00033   0.00069   0.00040   0.00069
  73        3PX         0.00014  -0.00018  -0.00042   0.00030  -0.00005
  74        3PY         0.00102  -0.00040  -0.00099  -0.00040  -0.00038
  75        3PZ         0.00015  -0.00025  -0.00059   0.00051  -0.00005
  76        4S         -0.01739  -0.00053  -0.00396  -0.00222   0.00018
  77        4PX        -0.00031  -0.00022  -0.00089   0.00046   0.00045
  78        4PY        -0.00141  -0.00116  -0.00234   0.00073   0.00070
  79        4PZ        -0.00038  -0.00020  -0.00118   0.00062   0.00067
  80        5S          0.01330  -0.01024   0.00760  -0.00010   0.02609
  81        5PX        -0.00031   0.00099   0.00240  -0.00196  -0.00091
  82        5PY         0.01138  -0.00926   0.00320   0.00459   0.02028
  83        5PZ        -0.00164   0.00224   0.00354  -0.00328  -0.00335
  84        6D 0        0.00005  -0.00003   0.00007  -0.00024  -0.00002
  85        6D+1        0.00042  -0.00008  -0.00052  -0.00042  -0.00029
  86        6D-1        0.00011  -0.00020  -0.00071   0.00035   0.00029
  87        6D+2       -0.00030  -0.00001   0.00051   0.00001   0.00027
  88        6D-2        0.00012  -0.00013  -0.00052   0.00021   0.00015
  89 5   C  1S          0.00001  -0.00000  -0.00003  -0.00016  -0.00012
  90        2S         -0.00003   0.00002  -0.00002  -0.00011  -0.00010
  91        2PX        -0.00002   0.00000  -0.00003   0.00002   0.00001
  92        2PY         0.00033   0.00005   0.00000   0.00001  -0.00001
  93        2PZ        -0.00007  -0.00001  -0.00006   0.00003   0.00002
  94        3S          0.00005  -0.00008  -0.00012  -0.00033  -0.00004
  95        3PX         0.00004  -0.00002   0.00011  -0.00005  -0.00003
  96        3PY        -0.00072  -0.00026  -0.00009  -0.00009   0.00005
  97        3PZ         0.00016   0.00002   0.00021  -0.00007  -0.00007
  98        4S          0.00542  -0.00090  -0.00030   0.00310   0.00108
  99        4PX         0.00001   0.00026   0.00001  -0.00001   0.00001
 100        4PY         0.00200  -0.00001  -0.00046   0.00109   0.00029
 101        4PZ        -0.00030   0.00039  -0.00009  -0.00017   0.00003
 102        5S          0.00794  -0.00706   0.00463   0.00957   0.01024
 103        5PX         0.00003  -0.00009   0.00007  -0.00041  -0.00031
 104        5PY         0.00224  -0.00229   0.00134   0.00293   0.00311
 105        5PZ        -0.00032   0.00006  -0.00017  -0.00082  -0.00083
 106        6D 0        0.00024   0.00003   0.00002   0.00005  -0.00000
 107        6D+1       -0.00007   0.00002   0.00003   0.00004   0.00002
 108        6D-1        0.00020   0.00005   0.00014  -0.00006  -0.00003
 109        6D+2        0.00051   0.00005   0.00002   0.00002  -0.00003
 110        6D-2        0.00006   0.00003   0.00008  -0.00004  -0.00001
 111 6   C  1S          0.00001  -0.00001  -0.00004   0.32399   0.46031
 112        2S          0.00002   0.00005  -0.00003   0.26681   0.37854
 113        2PX         0.00021  -0.00002  -0.00004   0.00027   0.00023
 114        2PY        -0.00021   0.00008  -0.00006   0.00035  -0.00093
 115        2PZ         0.00034  -0.00004  -0.00006   0.00040   0.00044
 116        3S          0.00041  -0.00036  -0.00010   0.01108   0.01703
 117        3PX        -0.00053  -0.00013   0.00021  -0.00059   0.00005
 118        3PY         0.00064  -0.00088   0.00017  -0.00218   0.00378
 119        3PZ        -0.00087  -0.00011   0.00030  -0.00073  -0.00021
 120        4S          0.00294   0.00013  -0.00042  -0.00553  -0.01717
 121        4PX         0.00213  -0.00107   0.00070  -0.00068  -0.00294
 122        4PY         0.00042  -0.00086   0.00099  -0.00045  -0.00660
 123        4PZ         0.00329  -0.00164   0.00101  -0.00102  -0.00400
 124        5S         -0.01582   0.02095   0.01385   0.00221  -0.03921
 125        5PX        -0.00173   0.00246   0.00130   0.00029  -0.00348
 126        5PY        -0.00055   0.00251   0.00208   0.00478  -0.00445
 127        5PZ        -0.00266   0.00321   0.00139  -0.00040  -0.00495
 128        6D 0       -0.00051   0.00030   0.00014   0.00079  -0.00088
 129        6D+1       -0.00044   0.00029   0.00019   0.00087   0.00098
 130        6D-1        0.00057   0.00015   0.00010   0.00021   0.00138
 131        6D+2       -0.00041   0.00027   0.00007   0.00060  -0.00223
 132        6D-2        0.00039   0.00007   0.00006   0.00011   0.00116
 133 7   C  1S         -0.00001   0.00001  -0.00003   0.46021  -0.32413
 134        2S          0.00005   0.00002  -0.00003   0.37881  -0.26643
 135        2PX        -0.00004   0.00025  -0.00002   0.00031  -0.00035
 136        2PY        -0.00006   0.00007   0.00007  -0.00020  -0.00086
 137        2PZ        -0.00005   0.00038  -0.00005   0.00049  -0.00048
 138        3S         -0.00037   0.00039  -0.00002   0.01619  -0.01231
 139        3PX         0.00010  -0.00066   0.00015  -0.00033   0.00078
 140        3PY         0.00089  -0.00026  -0.00022   0.00106   0.00416
 141        3PZ         0.00006  -0.00100   0.00027  -0.00054   0.00088
 142        4S         -0.00001   0.00326  -0.00111  -0.01076   0.01457
 143        4PX        -0.00100   0.00190   0.00025  -0.00102   0.00092
 144        4PY         0.00157  -0.00130  -0.00119   0.00258  -0.00708
 145        4PZ        -0.00168   0.00290   0.00047  -0.00191   0.00199
 146        5S          0.01663  -0.02042  -0.00608  -0.02010   0.03640
 147        5PX         0.00139  -0.00198   0.00025  -0.00191   0.00183
 148        5PY        -0.00210   0.00245   0.00306   0.00031  -0.00662
 149        5PZ         0.00252  -0.00245   0.00119  -0.00232   0.00323
 150        6D 0        0.00020  -0.00066   0.00009   0.00015   0.00138
 151        6D+1        0.00020  -0.00055   0.00013   0.00083  -0.00032
 152        6D-1       -0.00036  -0.00013  -0.00020  -0.00094   0.00030
 153        6D+2        0.00013  -0.00061   0.00001  -0.00062   0.00272
 154        6D-2       -0.00025  -0.00004  -0.00013  -0.00051  -0.00010
 155 8   C  1S          0.00000  -0.00000   0.00000  -0.00000  -0.00000
 156        2S         -0.00000   0.00002  -0.00000  -0.00000   0.00000
 157        2PX         0.00001  -0.00007  -0.00001  -0.00001  -0.00001
 158        2PY        -0.00001  -0.00004   0.00000  -0.00001  -0.00000
 159        2PZ         0.00000   0.00005  -0.00001   0.00002  -0.00001
 160        3S          0.00005  -0.00013   0.00016   0.00004   0.00003
 161        3PX        -0.00003   0.00038  -0.00001   0.00004   0.00005
 162        3PY         0.00001   0.00024  -0.00002   0.00007  -0.00000
 163        3PZ        -0.00002  -0.00026   0.00006  -0.00009   0.00008
 164        4S         -0.00045   0.00030  -0.00138  -0.00053  -0.00107
 165        4PX        -0.00010  -0.00011   0.00032   0.00007   0.00030
 166        4PY         0.00030  -0.00028   0.00088   0.00030  -0.00028
 167        4PZ        -0.00069  -0.00008  -0.00028   0.00026  -0.00028
 168        5S          0.00531   0.00699   0.01681   0.00887   0.00006
 169        5PX        -0.00092  -0.00150  -0.00298  -0.00181  -0.00010
 170        5PY        -0.00101  -0.00122  -0.00268  -0.00107  -0.00004
 171        5PZ         0.00044   0.00061   0.00191   0.00099  -0.00017
 172        6D 0        0.00001   0.00002  -0.00000   0.00001  -0.00002
 173        6D+1        0.00003   0.00009  -0.00001  -0.00001  -0.00001
 174        6D-1        0.00002   0.00011   0.00003   0.00003  -0.00001
 175        6D+2        0.00002  -0.00009  -0.00000  -0.00001  -0.00001
 176        6D-2       -0.00001  -0.00007   0.00001   0.00001  -0.00001
 177 9   H  1S          0.00003   0.00001  -0.00003   0.00005   0.00000
 178        2S         -0.00053  -0.00112  -0.00031  -0.00053  -0.00004
 179        3S         -0.00077   0.00078  -0.00016   0.00239  -0.00106
 180        4PX        -0.00003   0.00011  -0.00005   0.00001   0.00002
 181        4PY        -0.00002  -0.00001   0.00006  -0.00002  -0.00000
 182        4PZ         0.00006   0.00029   0.00007   0.00007   0.00002
 183 10  H  1S         -0.00003  -0.00000   0.00002   0.00001   0.00001
 184        2S          0.00034  -0.00107  -0.00002  -0.00037  -0.00025
 185        3S         -0.00070   0.00113   0.00121   0.00079  -0.00168
 186        4PX         0.00003  -0.00022  -0.00002  -0.00003  -0.00004
 187        4PY         0.00001   0.00022   0.00002   0.00009   0.00001
 188        4PZ        -0.00003  -0.00004   0.00000   0.00007  -0.00001
 189 11  H  1S         -0.00018  -0.00018  -0.00002  -0.00009  -0.00002
 190        2S         -0.00007  -0.00013  -0.00410   0.00031   0.00002
 191        3S          0.00148   0.00148   0.00199   0.00234   0.00024
 192        4PX         0.00024   0.00015   0.00136  -0.00002  -0.00001
 193        4PY         0.00033  -0.00043  -0.00037   0.00002  -0.00010
 194        4PZ         0.00034   0.00027   0.00212  -0.00004  -0.00001
 195 12  H  1S          0.00002  -0.00001  -0.00008   0.00003   0.00000
 196        2S         -0.00113  -0.00018   0.00006  -0.00042  -0.00006
 197        3S          0.00082  -0.00074  -0.00105   0.00089   0.00183
 198        4PX         0.00017   0.00002   0.00001   0.00005  -0.00001
 199        4PY        -0.00011   0.00003  -0.00005  -0.00000   0.00002
 200        4PZ         0.00025   0.00001   0.00002   0.00007  -0.00001
 201 13  H  1S         -0.00001  -0.00001   0.00003   0.00001  -0.00001
 202        2S         -0.00110   0.00004  -0.00012  -0.00030   0.00006
 203        3S          0.00103  -0.00069  -0.00023  -0.00024   0.00160
 204        4PX         0.00011  -0.00002   0.00000   0.00005   0.00000
 205        4PY        -0.00018  -0.00003  -0.00003  -0.00007  -0.00001
 206        4PZ        -0.00026  -0.00003  -0.00004  -0.00003   0.00002
 207 14  H  1S         -0.00002   0.00000   0.00003   0.00001  -0.00000
 208        2S         -0.00109  -0.00003  -0.00010  -0.00025   0.00004
 209        3S          0.00116  -0.00051  -0.00010  -0.00027   0.00158
 210        4PX        -0.00030  -0.00003  -0.00003  -0.00004   0.00001
 211        4PY        -0.00015  -0.00002  -0.00003  -0.00006  -0.00001
 212        4PZ         0.00005  -0.00004  -0.00001   0.00005  -0.00000
 213 15  H  1S         -0.00016  -0.00001  -0.00010  -0.00002   0.00018
 214        2S          0.00019  -0.00111   0.00068  -0.00329  -0.00415
 215        3S          0.00147  -0.00058   0.00105   0.00197   0.00073
 216        4PX        -0.00018  -0.00015   0.00006  -0.00084  -0.00101
 217        4PY         0.00012  -0.00022  -0.00001  -0.00105  -0.00069
 218        4PZ        -0.00029  -0.00021   0.00009  -0.00121  -0.00150
 219 16  H  1S          0.00001  -0.00014  -0.00009   0.00004  -0.00017
 220        2S         -0.00125  -0.00007   0.00053  -0.00439   0.00276
 221        3S         -0.00064   0.00163   0.00151   0.00205  -0.00003
 222        4PX        -0.00009  -0.00022   0.00006  -0.00075   0.00054
 223        4PY         0.00030   0.00001  -0.00002   0.00178  -0.00064
 224        4PZ        -0.00017  -0.00034   0.00008  -0.00131   0.00090
 225 17  H  1S          0.00000   0.00004  -0.00005  -0.00003   0.00001
 226        2S          0.00007  -0.00027   0.00055   0.00031  -0.00017
 227        3S         -0.00028  -0.00033  -0.00112   0.00004   0.00016
 228        4PX         0.00002   0.00014   0.00000  -0.00003  -0.00001
 229        4PY         0.00003  -0.00001   0.00006  -0.00001  -0.00002
 230        4PZ         0.00002   0.00002  -0.00003   0.00000  -0.00000
 231 18  H  1S         -0.00002  -0.00004  -0.00000  -0.00001  -0.00004
 232        2S          0.00011  -0.00003   0.00000   0.00004   0.00026
 233        3S         -0.00009   0.00018  -0.00051  -0.00025   0.00010
 234        4PX         0.00002  -0.00001   0.00003  -0.00002  -0.00003
 235        4PY        -0.00005   0.00005  -0.00002   0.00000  -0.00002
 236        4PZ         0.00004   0.00005   0.00003   0.00000  -0.00002
 237 19  H  1S          0.00003   0.00005  -0.00004  -0.00000  -0.00002
 238        2S         -0.00027  -0.00032   0.00035   0.00017   0.00015
 239        3S         -0.00072  -0.00015  -0.00047  -0.00020  -0.00052
 240        4PX        -0.00000   0.00001  -0.00001   0.00006   0.00000
 241        4PY        -0.00000   0.00010  -0.00007   0.00002  -0.00000
 242        4PZ        -0.00004  -0.00013   0.00005  -0.00001   0.00004
                           6         7         8         9        10
                           O         O         O         O         O
     Eigenvalues --   -10.24477 -10.23847 -10.18318  -1.10194  -0.98412
   1 1   C  1S          0.56302   0.00006  -0.00108  -0.01410   0.03220
   2        2S          0.46322   0.00006  -0.00093  -0.02162   0.04951
   3        2PX        -0.00017   0.00000   0.00037  -0.00449   0.00825
   4        2PY        -0.00093  -0.00001   0.00015  -0.01374   0.02502
   5        2PZ        -0.00052  -0.00000  -0.00027  -0.00516   0.01055
   6        3S          0.01951  -0.00008   0.00051   0.05509  -0.12842
   7        3PX        -0.00068  -0.00003  -0.00076  -0.00649   0.01133
   8        3PY         0.00116   0.00007  -0.00012  -0.02368   0.04078
   9        3PZ         0.00165   0.00002   0.00071  -0.00999   0.01945
  10        4S         -0.01747   0.00057  -0.00037   0.02002  -0.02893
  11        4PX        -0.00006  -0.00001   0.00196  -0.00408  -0.00291
  12        4PY         0.00176   0.00020   0.00190  -0.00122  -0.00041
  13        4PZ         0.00246  -0.00061  -0.00027  -0.00212   0.00071
  14        5S         -0.03397  -0.00240   0.01950   0.11248   0.03737
  15        5PX        -0.00213   0.00025   0.00315   0.01830  -0.00354
  16        5PY         0.00376   0.00099   0.00106  -0.00649  -0.01368
  17        5PZ         0.00448   0.00008  -0.00356  -0.01771  -0.00213
  18        6D 0        0.00048   0.00002   0.00014  -0.00246   0.00360
  19        6D+1        0.00023   0.00001   0.00050   0.00127  -0.00215
  20        6D-1       -0.00046   0.00001   0.00014   0.00380  -0.00636
  21        6D+2        0.00045   0.00004  -0.00020  -0.00458   0.00725
  22        6D-2       -0.00090  -0.00002  -0.00045   0.00344  -0.00615
  23 2   N  1S         -0.00002   0.00000   0.00000  -0.06800   0.07785
  24        2S         -0.00006   0.00001   0.00002  -0.10666   0.12268
  25        2PX         0.00004   0.00001   0.00003  -0.00481  -0.00139
  26        2PY         0.00020  -0.00002   0.00006  -0.03283  -0.00371
  27        2PZ         0.00009   0.00001   0.00002  -0.00642   0.00094
  28        3S          0.00022  -0.00012  -0.00013   0.29088  -0.34157
  29        3PX         0.00005  -0.00005  -0.00015  -0.00689  -0.00197
  30        3PY        -0.00013   0.00009  -0.00031  -0.04693  -0.00826
  31        3PZ        -0.00003  -0.00008  -0.00007  -0.00928   0.00186
  32        4S          0.00300   0.00085   0.00047   0.19744  -0.24445
  33        4PX        -0.00024   0.00040   0.00044  -0.00158  -0.00734
  34        4PY         0.00009  -0.00076   0.00133  -0.02245  -0.01879
  35        4PZ        -0.00070   0.00070   0.00025  -0.00369  -0.00693
  36        5S          0.00498   0.00638   0.00142  -0.08894   0.16975
  37        5PX         0.00441   0.00004   0.00267  -0.00506  -0.02300
  38        5PY         0.01781  -0.00350   0.01121  -0.00657  -0.08157
  39        5PZ         0.00386  -0.00027   0.00165  -0.00252  -0.03274
  40        6D 0        0.00011  -0.00000   0.00003  -0.00148  -0.00096
  41        6D+1        0.00002  -0.00001  -0.00003   0.00635  -0.00651
  42        6D-1       -0.00027   0.00001  -0.00002   0.00015  -0.00012
  43        6D+2        0.00019   0.00001   0.00003  -0.00820   0.00395
  44        6D-2       -0.00015   0.00001   0.00000   0.00126  -0.00113
  45 3   C  1S          0.00004   0.00003  -0.00000  -0.05697   0.00004
  46        2S          0.00004   0.00004  -0.00001  -0.08720   0.00006
  47        2PX         0.00001  -0.00002  -0.00001  -0.02600  -0.00849
  48        2PY         0.00007  -0.00002  -0.00000   0.00740  -0.06970
  49        2PZ        -0.00002  -0.00003   0.00002  -0.04116  -0.00759
  50        3S         -0.00012  -0.00007   0.00012   0.22518  -0.00020
  51        3PX         0.00003   0.00019   0.00002  -0.03800  -0.01231
  52        3PY        -0.00044   0.00022   0.00009   0.01069  -0.10090
  53        3PZ         0.00017   0.00026  -0.00011  -0.06020  -0.01087
  54        4S         -0.00092  -0.00190   0.00035   0.06689  -0.00155
  55        4PX         0.00112   0.00092  -0.00093   0.00621  -0.00034
  56        4PY         0.00167  -0.00167  -0.00059  -0.00118  -0.00817
  57        4PZ         0.00146   0.00165  -0.00050   0.01022  -0.00080
  58        5S          0.00107   0.00381  -0.00028   0.09236  -0.00835
  59        5PX         0.00090   0.00014  -0.00061  -0.01483  -0.00345
  60        5PY         0.00154  -0.00031  -0.00178  -0.00730  -0.02771
  61        5PZ         0.00151   0.00038   0.00031  -0.02423  -0.00113
  62        6D 0        0.00008   0.00000  -0.00001   0.00252   0.00368
  63        6D+1        0.00014   0.00001  -0.00003   0.01394   0.00370
  64        6D-1        0.00008  -0.00013   0.00005  -0.00118   0.01899
  65        6D+2        0.00006  -0.00002   0.00002  -0.00844   0.00508
  66        6D-2        0.00006  -0.00009  -0.00004   0.00055   0.01179
  67 4   N  1S         -0.00000  -0.00003  -0.00000  -0.06874  -0.07788
  68        2S          0.00001  -0.00007  -0.00000  -0.10782  -0.12274
  69        2PX         0.00001   0.00000   0.00001   0.00238  -0.00109
  70        2PY         0.00002  -0.00020   0.00001   0.03344  -0.00386
  71        2PZ         0.00002   0.00003  -0.00000   0.00154  -0.00055
  72        3S         -0.00002   0.00031   0.00003   0.29434   0.34216
  73        3PX        -0.00006   0.00004  -0.00002   0.00327  -0.00253
  74        3PY        -0.00013  -0.00003  -0.00005   0.04775  -0.00821
  75        3PZ        -0.00012   0.00007   0.00002   0.00217  -0.00194
  76        4S         -0.00006   0.00242  -0.00081   0.20085   0.24539
  77        4PX         0.00058  -0.00047   0.00004   0.00229   0.00156
  78        4PY         0.00070   0.00201   0.00027   0.02203  -0.02104
  79        4PZ         0.00097  -0.00088  -0.00017   0.00201   0.00507
  80        5S          0.01226   0.00557   0.00430  -0.08374  -0.15861
  81        5PX         0.00105  -0.00043   0.00099  -0.00435   0.00454
  82        5PY         0.01017  -0.01055   0.00527  -0.02987  -0.09461
  83        5PZ         0.00150   0.00046   0.00098  -0.00484   0.01574
  84        6D 0       -0.00001   0.00019   0.00000  -0.00133   0.00081
  85        6D+1       -0.00002   0.00009   0.00001   0.00650   0.00620
  86        6D-1       -0.00001   0.00011  -0.00000   0.00060  -0.00128
  87        6D+2        0.00001   0.00026  -0.00000  -0.00818  -0.00448
  88        6D-2       -0.00001   0.00004   0.00000   0.00147  -0.00002
  89 5   C  1S         -0.00006   0.56300  -0.00000  -0.01424  -0.03104
  90        2S         -0.00005   0.46316  -0.00000  -0.02182  -0.04766
  91        2PX         0.00001  -0.00004   0.00001  -0.00047  -0.00122
  92        2PY         0.00001   0.00112  -0.00001   0.01577   0.02882
  93        2PZ         0.00000  -0.00018  -0.00001  -0.00233  -0.00494
  94        3S         -0.00013   0.01963  -0.00002   0.05574   0.12299
  95        3PX        -0.00004   0.00014  -0.00004  -0.00077  -0.00220
  96        3PY        -0.00005  -0.00201   0.00006   0.02747   0.04799
  97        3PZ        -0.00002   0.00040   0.00002  -0.00412  -0.00835
  98        4S          0.00133  -0.01043   0.00077   0.01220   0.02145
  99        4PX        -0.00021   0.00040   0.00005  -0.00070  -0.00014
 100        4PY         0.00033  -0.00127   0.00009   0.00087  -0.00334
 101        4PZ        -0.00078   0.00057  -0.00026  -0.00044   0.00032
 102        5S         -0.00071  -0.01308  -0.00355  -0.02588  -0.04059
 103        5PX         0.00005   0.00026   0.00037   0.00082  -0.00111
 104        5PY        -0.00024  -0.00335  -0.00100  -0.00684  -0.01281
 105        5PZ        -0.00004   0.00062   0.00015   0.00260  -0.00059
 106        6D 0        0.00002   0.00053  -0.00001  -0.00345  -0.00548
 107        6D+1       -0.00002  -0.00000  -0.00001   0.00043   0.00088
 108        6D-1       -0.00002   0.00035   0.00001  -0.00201  -0.00370
 109        6D+2        0.00001   0.00097  -0.00000  -0.00656  -0.01072
 110        6D-2       -0.00002   0.00010  -0.00001  -0.00043  -0.00094
 111 6   C  1S          0.00013   0.00019   0.00000  -0.03529  -0.02395
 112        2S          0.00013   0.00017   0.00001  -0.05402  -0.03677
 113        2PX         0.00000   0.00004  -0.00000   0.01948   0.01357
 114        2PY         0.00003  -0.00002   0.00001   0.00379  -0.02458
 115        2PZ         0.00000   0.00006   0.00001   0.03017   0.02321
 116        3S         -0.00018  -0.00010  -0.00005   0.13566   0.09380
 117        3PX        -0.00002  -0.00026  -0.00000   0.02886   0.02201
 118        3PY        -0.00018   0.00010  -0.00004   0.00470  -0.03874
 119        3PZ        -0.00001  -0.00042  -0.00008   0.04470   0.03763
 120        4S          0.00227  -0.00246  -0.00179   0.05358   0.06642
 121        4PX         0.00099  -0.00107   0.00014   0.00245   0.00450
 122        4PY         0.00099  -0.00112  -0.00094   0.00255   0.00265
 123        4PZ         0.00132  -0.00161   0.00045   0.00384   0.00653
 124        5S         -0.00658   0.00661  -0.01272  -0.03167   0.25457
 125        5PX         0.00165  -0.00055   0.00129  -0.00373   0.02536
 126        5PY        -0.00401   0.00145  -0.00594  -0.01523   0.03877
 127        5PZ         0.00197  -0.00095   0.00248  -0.00120   0.03352
 128        6D 0        0.00002  -0.00006   0.00001   0.00504   0.00669
 129        6D+1        0.00001  -0.00000   0.00000   0.01163   0.00888
 130        6D-1       -0.00005   0.00015  -0.00001  -0.00097  -0.00951
 131        6D+2        0.00000  -0.00008   0.00000  -0.00208   0.00235
 132        6D-2       -0.00004   0.00011   0.00001  -0.00001  -0.00606
 133 7   C  1S          0.00045   0.00005   0.00000  -0.03517   0.02411
 134        2S          0.00038   0.00006  -0.00000  -0.05383   0.03702
 135        2PX         0.00004   0.00000   0.00000   0.01714  -0.01850
 136        2PY         0.00002  -0.00002   0.00000  -0.01469  -0.01517
 137        2PZ         0.00005   0.00001  -0.00002   0.02798  -0.02758
 138        3S         -0.00014  -0.00013   0.00006   0.13529  -0.09464
 139        3PX        -0.00027   0.00001   0.00004   0.02558  -0.02980
 140        3PY        -0.00005   0.00010   0.00004  -0.02103  -0.02335
 141        3PZ        -0.00040  -0.00000   0.00010   0.04159  -0.04444
 142        4S         -0.00106   0.00236   0.00133   0.05083  -0.06465
 143        4PX        -0.00066   0.00041  -0.00071   0.00271  -0.00279
 144        4PY         0.00173  -0.00156  -0.00210  -0.00201   0.00518
 145        4PZ        -0.00106   0.00086  -0.00054   0.00474  -0.00529
 146        5S          0.01130  -0.00276   0.01325   0.03806  -0.25636
 147        5PX        -0.00235   0.00120  -0.00280   0.00470  -0.01615
 148        5PY        -0.00304   0.00148  -0.00674  -0.00462   0.04475
 149        5PZ        -0.00172   0.00182  -0.00375   0.00082  -0.02388
 150        6D 0       -0.00009   0.00001   0.00001   0.00460  -0.00913
 151        6D+1       -0.00001  -0.00001  -0.00005   0.01109  -0.01126
 152        6D-1       -0.00016   0.00003  -0.00003  -0.00316  -0.00303
 153        6D+2       -0.00019   0.00002  -0.00004  -0.00265  -0.00575
 154        6D-2       -0.00006   0.00002  -0.00004  -0.00137  -0.00174
 155 8   C  1S          0.00106   0.00000   0.56295  -0.00271   0.00877
 156        2S          0.00084   0.00000   0.46316  -0.00416   0.01349
 157        2PX        -0.00036  -0.00000  -0.00028  -0.00204   0.00589
 158        2PY        -0.00013   0.00000  -0.00012  -0.00185   0.00460
 159        2PZ         0.00030   0.00000   0.00020   0.00070  -0.00246
 160        3S          0.00034   0.00004   0.01963   0.01034  -0.03482
 161        3PX         0.00087   0.00001   0.00121  -0.00452   0.01204
 162        3PY         0.00032  -0.00001   0.00057  -0.00345   0.00838
 163        3PZ        -0.00079   0.00001  -0.00084   0.00215  -0.00610
 164        4S          0.00423  -0.00042  -0.01214   0.00563  -0.01112
 165        4PX        -0.00101   0.00035   0.00184  -0.00092   0.00151
 166        4PY        -0.00019   0.00030   0.00155  -0.00279   0.00084
 167        4PZ         0.00066   0.00012  -0.00088   0.00132   0.00120
 168        5S          0.01727  -0.00020  -0.01895  -0.08811   0.00945
 169        5PX        -0.00318   0.00009   0.00303   0.01639  -0.00288
 170        5PY        -0.00223  -0.00007   0.00143   0.01420  -0.00221
 171        5PZ         0.00153  -0.00002  -0.00188  -0.00868   0.00101
 172        6D 0       -0.00001  -0.00000   0.00009  -0.00032   0.00072
 173        6D+1        0.00071  -0.00000   0.00056  -0.00087   0.00203
 174        6D-1        0.00031   0.00002   0.00027  -0.00076   0.00154
 175        6D+2       -0.00043  -0.00002  -0.00034   0.00050  -0.00137
 176        6D-2       -0.00032   0.00001  -0.00040   0.00099  -0.00223
 177 9   H  1S          0.00007   0.00001  -0.00009   0.00573  -0.01507
 178        2S         -0.00301  -0.00002  -0.00047   0.00977  -0.02030
 179        3S          0.00252   0.00063  -0.00210  -0.00399   0.00860
 180        4PX         0.00064  -0.00000   0.00005  -0.00056   0.00162
 181        4PY        -0.00045   0.00000  -0.00006  -0.00009   0.00016
 182        4PZ         0.00207   0.00000   0.00026  -0.00225   0.00488
 183 10  H  1S          0.00002   0.00001  -0.00011   0.00549  -0.01499
 184        2S         -0.00249  -0.00021  -0.00023   0.00703  -0.02103
 185        3S          0.00207   0.00044  -0.00334  -0.00353   0.01139
 186        4PX        -0.00169  -0.00003  -0.00020   0.00142  -0.00356
 187        4PY         0.00128   0.00001   0.00019  -0.00171   0.00372
 188        4PZ        -0.00026   0.00003   0.00001   0.00000  -0.00003
 189 11  H  1S          0.00004   0.00002  -0.00005   0.01344  -0.00000
 190        2S         -0.00073  -0.00054   0.00052   0.00783  -0.00018
 191        3S         -0.00116  -0.00179  -0.00043  -0.00875  -0.00002
 192        4PX         0.00008   0.00010   0.00000  -0.00086  -0.00047
 193        4PY        -0.00023   0.00015   0.00004   0.00022  -0.00393
 194        4PZ         0.00014   0.00014  -0.00006  -0.00136  -0.00039
 195 12  H  1S          0.00001   0.00017   0.00000   0.00572   0.01412
 196        2S         -0.00003  -0.00344  -0.00002   0.00863   0.02023
 197        3S          0.00118   0.00223   0.00035  -0.00090  -0.00973
 198        4PX        -0.00002   0.00130  -0.00001  -0.00119  -0.00261
 199        4PY        -0.00000  -0.00022  -0.00001   0.00080   0.00184
 200        4PZ         0.00000   0.00176   0.00000  -0.00169  -0.00371
 201 13  H  1S          0.00004   0.00015   0.00001   0.00531   0.01398
 202        2S         -0.00042  -0.00320  -0.00012   0.00772   0.01972
 203        3S          0.00112   0.00243   0.00058  -0.00090  -0.01252
 204        4PX         0.00004   0.00082   0.00000  -0.00072  -0.00170
 205        4PY        -0.00002  -0.00084  -0.00000   0.00145   0.00285
 206        4PZ        -0.00004  -0.00179  -0.00002   0.00164   0.00349
 207 14  H  1S          0.00003   0.00015   0.00001   0.00532   0.01396
 208        2S         -0.00026  -0.00315  -0.00012   0.00769   0.01934
 209        3S          0.00118   0.00258   0.00114  -0.00172  -0.01187
 210        4PX        -0.00003  -0.00202  -0.00001   0.00192   0.00410
 211        4PY        -0.00002  -0.00059   0.00002   0.00119   0.00232
 212        4PZ         0.00005   0.00035   0.00001  -0.00033  -0.00086
 213 15  H  1S         -0.00002   0.00003  -0.00001   0.00714   0.01058
 214        2S          0.00019  -0.00068   0.00007   0.00639   0.01135
 215        3S          0.00101  -0.00147   0.00044  -0.00382  -0.00221
 216        4PX         0.00001  -0.00013   0.00000   0.00071   0.00193
 217        4PY        -0.00001  -0.00002   0.00003  -0.00034  -0.00018
 218        4PZ         0.00003  -0.00020  -0.00001   0.00114   0.00302
 219 16  H  1S          0.00007  -0.00002  -0.00003   0.00706  -0.01063
 220        2S         -0.00107   0.00023   0.00034   0.00701  -0.01210
 221        3S         -0.00103   0.00060  -0.00109  -0.00482   0.00313
 222        4PX        -0.00013   0.00001  -0.00003   0.00076  -0.00193
 223        4PY         0.00010  -0.00000   0.00002  -0.00016   0.00093
 224        4PZ        -0.00024   0.00002  -0.00002   0.00121  -0.00307
 225 17  H  1S         -0.00008  -0.00001   0.00018   0.00137  -0.00445
 226        2S         -0.00075   0.00011  -0.00289   0.00102  -0.00602
 227        3S         -0.00059  -0.00022   0.00324   0.00370   0.00028
 228        4PX         0.00019  -0.00001   0.00151  -0.00069   0.00164
 229        4PY        -0.00022   0.00000  -0.00138   0.00000  -0.00051
 230        4PZ         0.00007  -0.00001   0.00014  -0.00005   0.00001
 231 18  H  1S         -0.00003   0.00001   0.00021   0.00070  -0.00308
 232        2S         -0.00103  -0.00008  -0.00334   0.00126  -0.00485
 233        3S         -0.00067  -0.00005   0.00334   0.00157   0.00194
 234        4PX         0.00008  -0.00001   0.00049  -0.00023   0.00054
 235        4PY         0.00033   0.00002   0.00185  -0.00040   0.00134
 236        4PZ         0.00018   0.00000   0.00092  -0.00022   0.00038
 237 19  H  1S         -0.00005  -0.00002   0.00020   0.00129  -0.00451
 238        2S         -0.00093   0.00020  -0.00309   0.00182  -0.00577
 239        3S         -0.00092   0.00004   0.00331   0.00396   0.00326
 240        4PX        -0.00013  -0.00000  -0.00063  -0.00007   0.00002
 241        4PY         0.00005  -0.00001   0.00021  -0.00034   0.00075
 242        4PZ        -0.00030   0.00003  -0.00196   0.00056  -0.00152
                          11        12        13        14        15
                           O         O         O         O         O
     Eigenvalues --    -0.83370  -0.80419  -0.75729  -0.68839  -0.66084
   1 1   C  1S          0.05404   0.05020   0.03325   0.02712   0.02755
   2        2S          0.08364   0.07785   0.05172   0.04235   0.04308
   3        2PX        -0.00328  -0.00455  -0.02705   0.03712   0.04483
   4        2PY         0.01418  -0.00633  -0.02447   0.04559   0.00494
   5        2PZ         0.00594   0.01492  -0.00050  -0.02442   0.00531
   6        3S         -0.22184  -0.20772  -0.13909  -0.11820  -0.11954
   7        3PX        -0.00754  -0.00879  -0.04312   0.05640   0.06805
   8        3PY         0.02509  -0.00690  -0.03549   0.07225   0.01081
   9        3PZ         0.01363   0.02739   0.00263  -0.03454   0.01017
  10        4S         -0.10881  -0.11566  -0.09657  -0.03827  -0.07236
  11        4PX        -0.00620  -0.00483  -0.01343   0.01911   0.03108
  12        4PY         0.00151  -0.00672  -0.00849   0.01718  -0.00215
  13        4PZ         0.00386   0.00944   0.00165  -0.02288   0.00141
  14        5S         -0.02984   0.00887   0.04297  -0.10648  -0.15071
  15        5PX         0.01183   0.00469   0.00849  -0.01530  -0.01788
  16        5PY         0.01499   0.00249  -0.00066  -0.00428   0.01058
  17        5PZ         0.00254  -0.00530  -0.00911   0.02183   0.01916
  18        6D 0        0.00275  -0.00021  -0.00116   0.00351  -0.00027
  19        6D+1        0.00137   0.00133   0.00623  -0.00713  -0.00773
  20        6D-1       -0.00149  -0.00217   0.00599  -0.00445  -0.00706
  21        6D+2        0.00458  -0.00288  -0.00463   0.01098  -0.00075
  22        6D-2       -0.00417  -0.00338   0.00065  -0.00062  -0.00026
  23 2   N  1S          0.01181  -0.00720  -0.03053   0.01501  -0.00314
  24        2S          0.01876  -0.01136  -0.04859   0.02407  -0.00497
  25        2PX        -0.04131   0.01579  -0.02554  -0.04115   0.04707
  26        2PY        -0.04151  -0.08326   0.00664  -0.03902  -0.10652
  27        2PZ        -0.05584   0.03801  -0.03090  -0.08060   0.06374
  28        3S         -0.05420   0.03280   0.14165  -0.07117   0.01428
  29        3PX        -0.06174   0.02349  -0.03858  -0.06048   0.06891
  30        3PY        -0.06205  -0.12285   0.00989  -0.05843  -0.15565
  31        3PZ        -0.08360   0.05646  -0.04663  -0.11929   0.09205
  32        4S         -0.04165   0.02355   0.11328  -0.06011  -0.00044
  33        4PX        -0.03543   0.01095  -0.02115  -0.04384   0.05262
  34        4PY        -0.04305  -0.07030   0.01170  -0.04734  -0.10041
  35        4PZ        -0.04705   0.02906  -0.02460  -0.08701   0.06956
  36        5S         -0.01727  -0.01131  -0.00667   0.06023   0.03424
  37        5PX         0.01790  -0.00209   0.01068   0.00002  -0.00659
  38        5PY         0.04716   0.02781   0.01124  -0.00916   0.01435
  39        5PZ         0.01969  -0.01025   0.00760   0.00863  -0.00564
  40        6D 0        0.00443  -0.00320   0.00474   0.00282  -0.00239
  41        6D+1        0.00318  -0.00256   0.00365   0.00172  -0.00149
  42        6D-1        0.00253  -0.00817  -0.00028  -0.00106  -0.00722
  43        6D+2        0.00395  -0.00446   0.00359   0.00402  -0.00170
  44        6D-2        0.00048  -0.00603  -0.00146   0.00060  -0.00347
  45 3   C  1S          0.02227  -0.06848   0.02343  -0.01681  -0.01838
  46        2S          0.03443  -0.10636   0.03653  -0.02631  -0.02879
  47        2PX        -0.01027  -0.01117   0.01052  -0.00732   0.01979
  48        2PY         0.00875   0.01319   0.02913  -0.05430   0.11572
  49        2PZ        -0.01590  -0.01717   0.01673  -0.01277   0.01654
  50        3S         -0.09528   0.29377  -0.10183   0.07388   0.08057
  51        3PX        -0.01237  -0.01573   0.01417  -0.00905   0.02825
  52        3PY         0.01142   0.01840   0.04265  -0.07397   0.16120
  53        3PZ        -0.01897  -0.02394   0.02260  -0.01688   0.02347
  54        4S         -0.04738   0.12053  -0.03928   0.02840   0.03898
  55        4PX         0.00377   0.00335  -0.00209   0.00319   0.01045
  56        4PY         0.00185   0.00334   0.00909  -0.01505   0.02583
  57        4PZ         0.00576   0.00444  -0.00242   0.00390   0.01050
  58        5S          0.04800   0.02816  -0.02864   0.00197  -0.00266
  59        5PX        -0.00867  -0.00132  -0.00230   0.00024   0.00980
  60        5PY        -0.00213  -0.00263  -0.00762  -0.02948   0.03804
  61        5PZ        -0.00841   0.00237   0.00272  -0.00139   0.00744
  62        6D 0        0.00908  -0.00051  -0.00574   0.00384  -0.00070
  63        6D+1        0.00573   0.00722  -0.00723   0.00402  -0.00048
  64        6D-1       -0.00524  -0.00304  -0.00981   0.00004  -0.01849
  65        6D+2        0.00997  -0.00745  -0.00382   0.00192  -0.00371
  66        6D-2       -0.00442  -0.00125  -0.00658   0.00092  -0.01063
  67 4   N  1S          0.02022   0.00674   0.01221   0.01042   0.03244
  68        2S          0.03208   0.01076   0.01936   0.01663   0.05191
  69        2PX        -0.02542   0.04008  -0.00023   0.05614  -0.03745
  70        2PY         0.05260   0.04744  -0.09748   0.00666  -0.02408
  71        2PZ        -0.04447   0.05871   0.00950   0.08501  -0.05881
  72        3S         -0.09251  -0.03100  -0.05627  -0.04943  -0.15366
  73        3PX        -0.03783   0.05973   0.00013   0.08264  -0.05435
  74        3PY         0.07862   0.06976  -0.14412   0.00885  -0.03477
  75        3PZ        -0.06631   0.08746   0.01487   0.12511  -0.08562
  76        4S         -0.07254  -0.02730  -0.03817  -0.04563  -0.12606
  77        4PX        -0.02061   0.03174   0.00178   0.05700  -0.03960
  78        4PY         0.05567   0.04411  -0.09179   0.00360  -0.01086
  79        4PZ        -0.03677   0.04653   0.01214   0.08607  -0.06334
  80        5S          0.02613   0.03008   0.00175  -0.02378   0.00536
  81        5PX         0.00636  -0.00780   0.00096  -0.00668   0.00728
  82        5PY         0.00360   0.02696   0.01395  -0.01593  -0.00265
  83        5PZ         0.00961  -0.01389   0.00064  -0.01015   0.01248
  84        6D 0        0.00185  -0.00133  -0.00410  -0.00326  -0.00154
  85        6D+1        0.00094  -0.00086  -0.00357  -0.00191  -0.00144
  86        6D-1       -0.00484   0.00969  -0.00315   0.00481  -0.00488
  87        6D+2        0.00189  -0.00063  -0.00430  -0.00337  -0.00152
  88        6D-2       -0.00348   0.00608  -0.00154   0.00365  -0.00272
  89 5   C  1S          0.04182   0.02536  -0.07580  -0.01934  -0.03522
  90        2S          0.06462   0.03930  -0.11770  -0.03014  -0.05498
  91        2PX        -0.00203   0.00566  -0.00039   0.01228  -0.00704
  92        2PY        -0.02117  -0.00743   0.00565  -0.00682  -0.03670
  93        2PZ        -0.00080   0.00979  -0.00151   0.01945  -0.00800
  94        3S         -0.17090  -0.10474   0.31589   0.08201   0.14879
  95        3PX        -0.00315   0.00877  -0.00111   0.01818  -0.01065
  96        3PY        -0.03705  -0.01406   0.01735  -0.00760  -0.05052
  97        3PZ        -0.00057   0.01556  -0.00385   0.02846  -0.01280
  98        4S         -0.06684  -0.04630   0.16647   0.04887   0.11882
[...]
 4,-0.24375874,-0.10546725,0.04343819,0.82635116,-0.00332767,0.00386630
 ,0.00262371,-0.01119300,-0.02911882,-0.00512441,-0.08571282,-0.0992162
 8,-0.19339440,0.22565644,0.00570919,0.50315907,0.00252893,-0.00032641,
 -0.00073664,0.00292324,-0.00456756,-0.00214722,-0.00017605,-0.00882675
 ,0.00892915,-0.07575940,0.00150338,-0.02184852,0.59718354,-0.00042373,
 -0.00089937,-0.00059241,-0.00137635,0.00375844,-0.00189553,-0.00187811
 ,-0.02727604,-0.00129224,0.00049680,-0.20667010,0.01649426,0.00751251,
 0.45928471,-0.00063686,0.00054938,0.00195528,-0.00338505,-0.00680167,0
 .00030554,0.00810703,-0.01434138,0.00863403,-0.02132873,0.01861129,-0.
 09744345,0.01574635,0.02686379,0.60789701,0.00001354,0.00252788,-0.004
 72826,-0.00376280,-0.01577569,-0.02446955,-0.01841712,-0.02250854,-0.0
 5144193,-0.11476440,0.02802492,-0.08100376,0.00041696,0.00553747,0.003
 06028,0.31630560,-0.00002008,0.00402699,0.00232930,-0.04547819,-0.0314
 8073,-0.07005337,0.00674130,0.00973318,0.01099379,0.01708584,-0.151469
 28,0.03566932,0.01711737,-0.01243590,0.02670291,0.12500000,0.75593931,
 -0.00285874,0.00310792,-0.00496313,-0.02353018,-0.02097308,-0.02001547
 ,-0.05370304,-0.03529161,-0.06592697,-0.07943588,0.05159199,-0.1930287
 8,0.00201628,0.00955338,0.00063650,0.29146217,0.14185008,0.56413070,-0
 .00538638,-0.00645849,-0.00472509,-0.12259115,-0.01430465,-0.09041012,
 -0.01088510,0.03729184,-0.04437885,0.01027988,0.00715092,-0.00591093,-
 0.00142191,0.00002593,-0.00420980,-0.08228767,-0.03614500,-0.02185413,
 0.27114767,-0.01448299,0.00184952,-0.02677811,-0.00644631,-0.13110674,
 -0.00183343,0.00810368,-0.00900485,0.01460539,0.03817183,-0.06387566,0
 .06492668,0.00047550,0.00405148,0.00096382,-0.04174019,-0.41016388,-0.
 03656387,-0.05417444,0.86417636,-0.00378339,-0.01195061,-0.00859910,-0
 .09121069,-0.01521667,-0.20374631,-0.04174359,0.06016519,-0.05486865,-
 0.00739314,0.01670907,-0.00081043,-0.00504302,-0.00037208,-0.00529510,
 -0.02162803,-0.02782209,-0.09713700,0.23544304,-0.14491001,0.50132144,
 -0.14809886,-0.02355496,0.04980861,-0.00979032,-0.01478459,0.00076382,
 -0.00047124,0.00142286,-0.00012957,0.00008473,0.00018765,0.00055947,0.
 00007417,-0.00015792,-0.00002603,0.00026682,0.00056099,0.00001635,-0.0
 0021633,-0.00011745,0.00035743,0.51021200,-0.01884945,-0.08182118,0.01
 887035,-0.03091396,-0.02911090,0.01339879,-0.00374614,0.00246219,-0.00
 057393,0.00007514,-0.00199406,-0.00165461,0.00045243,0.00026285,-0.000
 63329,0.00030275,-0.00114210,0.00015611,0.00017545,0.00066628,0.002642
 74,-0.03331777,0.56178838,0.05238852,0.02372960,-0.11969388,-0.0116196
 5,-0.00663928,0.01023640,-0.00105968,0.00271777,-0.00042789,-0.0012299
 9,-0.00241630,-0.00188677,0.00013963,0.00036408,-0.00044593,0.00054967
 ,-0.00121653,0.00040871,-0.00008437,-0.00061955,0.00152627,0.04058358,
 0.02240539,0.54961057,-0.06519166,0.01054563,-0.06405879,-0.00587649,-
 0.00038555,-0.01177874,0.00033476,0.00044708,-0.00007599,-0.00018366,-
 0.00003532,0.00025390,-0.00004287,0.00010373,0.00001857,-0.00027526,-0
 .00007987,-0.00075275,0.00089053,-0.00202233,0.00013144,0.00671008,-0.
 00445953,0.02714395,0.07046508,0.01599376,-0.05802474,0.04796784,-0.01
 450158,-0.00302604,-0.03799669,-0.00087944,0.00163752,-0.00096183,-0.0
 0006917,-0.00004657,-0.00062108,-0.00005751,0.00013312,0.00009385,-0.0
 0111019,-0.00069257,-0.00125538,0.00120482,-0.00453461,0.00055422,0.00
 327729,-0.00150965,0.01162304,-0.00526427,0.06749263,-0.06591721,0.035
 72374,-0.29579054,-0.00531569,-0.00130527,-0.01277184,0.00011691,0.002
 04180,0.00082306,-0.00032463,-0.00046810,-0.00016379,0.00000515,0.0000
 6802,-0.00002896,-0.00031096,-0.00015106,-0.00015630,0.00106477,-0.001
 21805,0.00141340,-0.00242474,0.00384106,-0.01470669,0.07057107,-0.0397
 1028,0.31919681,-0.21917361,0.13539850,-0.01129802,0.01093974,-0.01274
 386,0.00017221,-0.00004916,-0.00081955,-0.00139872,-0.00025019,-0.0013
 1109,0.00014957,-0.00036376,0.00006456,0.00005004,0.00037772,0.0001686
 4,0.00024931,0.00064012,-0.00031931,0.00015372,-0.02040048,0.01415613,
 -0.00091851,-0.00538233,0.00408524,-0.00019938,0.23423780,0.12564471,-
 0.14505884,0.00509908,0.02051327,-0.03298749,0.00145066,-0.00040659,0.
 00061495,-0.00455089,-0.00091515,-0.00219092,-0.00030201,-0.00061128,0
 .00029479,-0.00009924,0.00007378,-0.00092907,0.00055995,0.00085283,0.0
 0179553,0.00186159,-0.01071820,0.00995375,-0.00061425,0.00257365,-0.00
 124111,0.00098146,-0.13574215,0.16950916,-0.01355782,0.01076377,-0.052
 55038,0.00893809,-0.01365720,0.00027269,-0.00005128,0.00070068,-0.0013
 4169,-0.00041982,-0.00116035,-0.00066328,-0.00033642,0.00009882,0.0000
 4984,0.00047807,-0.00041560,0.00035844,0.00058943,-0.00023798,0.000833
 32,0.01605980,-0.01067187,0.00075918,-0.02334851,0.01966902,0.00073251
 ,0.01031243,-0.00519558,0.05103822,-0.00169728,-0.00022363,0.00120053,
 0.00000680,-0.00022630,-0.00128594,-0.12284345,0.02360147,-0.15040843,
 -0.00316083,0.00337298,-0.00631114,-0.00174987,0.00049886,0.00138512,0
 .00221859,-0.00204078,-0.00082407,0.00268110,0.00037013,-0.00040412,0.
 00015134,-0.00021383,0.00001015,0.00017003,0.00013919,0.00023271,0.000
 05717,0.00015653,-0.00006245,0.12171218,0.00083623,0.00181287,0.001233
 40,0.01566791,0.00112117,0.02466378,0.02435549,-0.06822189,0.04017691,
 -0.01341966,0.00850563,-0.02131282,-0.00031432,0.00206952,-0.00079315,
 -0.00149468,-0.00434631,-0.00171463,-0.00021796,-0.00552054,0.00029602
 ,-0.00008231,-0.00008022,-0.00006468,-0.00021576,-0.00040313,-0.000312
 81,-0.00007521,0.00002396,-0.00023386,-0.02507081,0.06436034,0.0012414
 9,-0.00022423,-0.00017471,-0.00236418,-0.00133141,-0.00301521,-0.15034
 712,0.04044745,-0.26425286,-0.00527597,0.00442227,-0.00761824,0.001366
 23,0.00050745,-0.00064389,-0.00096630,-0.00268840,0.00165200,-0.000310
 31,0.00126026,0.00231544,0.00000948,0.00016904,-0.00007661,0.00013282,
 0.00036234,0.00005489,-0.00000785,-0.00014298,0.00009615,0.15798186,-0
 .04259939,0.27024916,-0.00008915,-0.00003911,-0.00000196,-0.00015856,0
 .00032216,0.00010308,0.00080872,-0.00071316,-0.00003786,-0.00095559,-0
 .00002955,0.00154038,-0.14462819,0.02594246,-0.13261102,0.00075805,-0.
 00054317,0.00039286,0.00040546,-0.00012605,-0.00010993,-0.00000018,-0.
 00000082,0.00001270,0.00001146,0.00000117,0.00000251,0.00000328,0.0000
 2558,-0.00000192,-0.00000785,-0.00025217,0.00007735,0.14929630,-0.0000
 4618,0.00015960,0.00002425,0.00024821,-0.00008943,0.00025586,0.0008203
 6,0.00165966,0.00128432,0.02410231,-0.01366756,0.03443177,0.01709833,-
 0.05507569,0.02311205,-0.00165197,-0.00458003,-0.00252807,0.00080103,-
 0.00110194,0.00147574,-0.00000150,-0.00003394,-0.00002960,-0.00001522,
 -0.00004511,-0.00002212,0.00000051,0.00000701,0.00000496,-0.00034780,-
 0.00091942,-0.00053382,-0.02595696,0.06791804,0.00001279,-0.00007946,-
 0.00005704,0.00020612,0.00025483,-0.00010178,-0.00015571,-0.00142286,0
 .00080133,-0.00136866,0.00133607,-0.00434690,-0.13136758,0.03515804,-0
 .22638516,0.00036520,0.00000273,0.00130102,-0.00029187,0.00003582,0.00
 001901,-0.00000695,0.00003012,0.00001634,-0.00000028,0.00000788,0.0000
 0432,0.00000439,0.00000516,0.00000354,0.00007381,0.00018593,0.00038694
 ,0.14296753,-0.03733517,0.23865360,0.00001030,-0.00005964,-0.00003398,
 -0.00071152,0.00039084,-0.00029661,-0.00011900,-0.00160546,-0.00035851
 ,0.00109621,0.00062921,-0.00199101,-0.09174601,0.04801024,0.08792658,0
 .00039849,0.00019824,0.00030234,0.00011625,0.00023666,0.00028398,0.000
 00545,0.00000284,0.00002466,0.00000272,0.00000460,0.,0.00000426,0.0000
 0713,0.00000809,0.00019630,0.00007113,-0.00006698,0.00889146,-0.010024
 61,-0.01499152,0.09125428,-0.00020815,0.00041226,0.00077463,-0.0003738
 2,-0.00281069,0.00078648,0.00422198,0.00026588,0.00206311,0.01029525,-
 0.02972577,-0.02834402,0.04495734,-0.09630089,-0.08990927,-0.00075305,
 0.00209571,-0.00173919,-0.00079251,-0.00089982,-0.00076157,0.00000794,
 -0.00027374,-0.00021956,-0.00000974,-0.00000212,-0.00002253,0.00000179
 ,-0.00006700,-0.00000435,0.00018884,-0.00005955,-0.00012456,-0.0034621
 3,0.00356189,0.00418205,-0.05118183,0.11732403,0.00019315,-0.00009386,
 -0.00024927,-0.00000393,0.00121299,0.00001806,-0.00041027,0.00009774,-
 0.00010385,-0.00450908,0.00583035,0.00948915,0.08793302,-0.09968872,-0
 .23257810,-0.00032625,0.00027579,0.00053708,0.00005708,-0.00032658,0.0
 0047481,0.00001853,0.00009046,0.00006737,0.00000387,-0.00000281,0.0000
 0240,-0.00001072,-0.00000119,-0.00000632,0.00016190,0.00011460,0.00000
 302,0.01077675,-0.01028647,-0.01713389,-0.09484886,0.10407045,0.242557
 62,-0.00015653,-0.00000294,0.00007042,0.00005300,0.00070670,0.00019961
 ,0.00029098,0.00037207,0.00012495,0.00818915,0.00088706,-0.00163023,-0
 .28790253,-0.08421673,0.04531805,0.00061433,0.00052819,-0.00057977,0.0
 0014168,-0.00047289,0.00010179,-0.00000163,-0.00002615,-0.00000460,-0.
 00000756,0.00001134,0.00000610,0.00001203,0.00004131,0.00001988,-0.000
 05170,0.00006640,0.00010312,-0.01422790,-0.00486628,0.00431489,-0.0093
 6846,-0.00301992,0.00071312,0.30259999,0.00080135,0.00020874,0.0001027
 9,0.00102453,-0.00285640,0.00036300,-0.00005474,0.00125434,0.00448618,
 -0.03281209,-0.02690141,0.00478827,-0.07493058,-0.07308887,0.01517008,
 -0.00143496,0.00203649,-0.00145050,-0.00041764,-0.00116273,-0.00114343
 ,0.00003840,0.00000749,-0.00009095,-0.00003154,-0.00003773,-0.00002502
 ,-0.00012779,-0.00024516,-0.00011142,-0.00023035,-0.00004261,0.0001471
 2,0.00488000,0.00261111,-0.00228703,0.01319304,0.00660382,-0.00117001,
 0.09005296,0.09162937,-0.00011355,-0.00008488,-0.00004752,0.00011616,0
 .00093572,-0.00074586,-0.00043972,-0.00164661,-0.00058503,0.00354921,0
 .00444358,-0.00036547,0.04445371,0.01541124,-0.05809681,0.00052567,0.0
 0036145,0.00034512,0.00018923,0.00009653,0.00042480,-0.00000417,0.0000
 1405,0.00004041,-0.00000784,0.00001486,0.00001249,0.00002188,0.0000332
 9,0.00003549,-0.00015326,0.00008370,0.00016748,-0.02330074,-0.00967497
 ,0.00672466,0.02415659,0.00898675,-0.00290117,-0.04892626,-0.01909849,
 0.05514499,0.00096160,-0.00026920,-0.00057389,0.00440897,0.00051859,-0
 .00145039,0.00160789,0.00216168,-0.00226720,-0.00701117,-0.00770000,-0
 .00659040,-0.00050585,-0.00041392,0.00092325,-0.10604389,-0.07944569,-
 0.11588554,0.00217687,0.00099826,0.00131592,0.00003372,0.00016399,0.00
 021366,-0.00003095,-0.00012748,0.00006619,-0.00009220,-0.00007012,-0.0
 0009120,0.00119959,-0.00044115,-0.00086868,-0.00008310,0.00004489,0.00
 015599,-0.00007347,0.00036067,0.00013402,-0.00009835,-0.00007217,0.000
 00706,0.10576042,-0.00032143,0.00105278,-0.00090540,-0.00120535,-0.005
 42553,-0.00068281,0.00171571,-0.00334292,0.00319368,0.01094627,0.01313
 465,0.01564373,-0.00009395,0.00134308,-0.00035839,-0.08428430,-0.15069
 241,-0.12020484,-0.01151909,-0.00035336,-0.01758089,0.00002607,-0.0000
 5567,-0.00007677,-0.00016589,-0.00042039,-0.00013758,0.00003018,0.0000
 3728,0.00004728,0.00013618,0.00096742,0.00031191,-0.00002800,0.0000111
 9,-0.00010037,0.00013146,-0.00014189,-0.00010883,-0.00005384,-0.000005
 81,0.00011592,0.08433133,0.14367993,-0.00034527,-0.00009064,0.00079492
 ,-0.00143523,0.00133204,0.00301482,-0.00225424,0.00407403,-0.00081466,
 -0.00820433,-0.01330044,-0.01394866,0.00096723,-0.00082241,0.00041483,
 -0.11535339,-0.11252845,-0.19593948,0.00229417,0.00137910,0.00466569,-
 0.00005378,-0.00009666,-0.00013568,0.00009723,0.00019706,0.00007399,0.
 00002748,0.00001675,0.00004001,-0.00092821,-0.00066411,0.00036720,0.00
 013775,0.00003322,0.00006570,-0.00008603,0.00008655,-0.00006120,0.0001
 5396,0.00036251,-0.00018449,0.12372794,0.12041682,0.20268024,-0.000395
 00,0.00039842,0.00119686,-0.00613990,0.01398948,-0.00670717,0.00061023
 ,-0.00240792,-0.00357158,0.00413352,-0.00223182,-0.00185640,0.00113011
 ,0.00006134,-0.00011910,0.00419094,-0.00308008,0.00490720,-0.06604760,
 0.07165404,-0.06708320,-0.00022398,-0.00001351,-0.00020311,0.00008573,
 -0.00000463,0.00009745,-0.00006000,-0.00007659,-0.00011742,0.00128098,
 0.00055039,-0.00080927,-0.00002837,-0.00019105,0.00006640,0.00003848,-
 0.00012913,0.00009227,-0.00008677,0.00017797,-0.00009544,-0.00218234,0
 .00039998,0.00122462,0.06420361,0.00020093,0.00069953,0.00039660,-0.00
 436816,0.01130332,-0.00787531,-0.00181867,-0.00086399,-0.00258421,-0.0
 0098624,-0.00456213,-0.00058127,0.00062017,0.00052355,0.00089426,0.009
 17207,-0.00546155,0.01494585,0.07634084,-0.24483281,0.13592080,-0.0001
 7589,0.00000314,-0.00006438,0.00009938,-0.00001497,0.00004906,-0.00003
 592,0.00005666,-0.00019554,-0.00007653,0.00071153,-0.00000793,-0.00002
 010,-0.00041547,0.00002326,-0.00000609,0.00002458,-0.00002268,-0.00001
 159,-0.00000091,0.00000163,-0.00006318,0.00020211,-0.00039038,-0.07854
 650,0.24277719,0.00119549,0.00091928,0.00064150,-0.00589109,0.02054999
 ,-0.01297016,-0.00358827,-0.00338427,-0.00233729,-0.00199443,-0.002802
 99,0.00261846,-0.00013925,0.00025102,0.00090897,0.00391101,-0.00427618
 ,0.00767635,-0.06701371,0.12888951,-0.14181052,-0.00000053,-0.00011669
 ,0.00011357,0.00021247,-0.00012322,0.00005045,0.00008144,-0.00051820,-
 0.00002911,-0.00074342,0.00095749,0.00052541,0.00005516,-0.00020911,0.
 00005466,-0.00002478,0.00011799,-0.00009804,0.00002237,-0.00009444,0.0
 0004450,0.00125638,0.00035127,-0.00106424,0.07249370,-0.14056398,0.145
 84751,-0.02233320,0.01594976,-0.00019683,0.00170854,0.00127161,-0.0004
 9626,-0.00015817,-0.00042974,-0.00000129,-0.00014784,-0.00030115,-0.00
 008210,-0.00001798,0.00003676,-0.00001445,-0.00002224,0.00002772,0.000
 10186,-0.00002742,-0.00014736,-0.00021319,-0.20523572,0.12879780,-0.01
 031829,0.00121201,-0.00027406,-0.00019029,-0.00254092,-0.00255792,0.00
 296320,-0.00003493,0.00000682,0.00004987,0.00000077,-0.00000435,0.0000
 0310,0.00000107,-0.00001069,-0.00000041,0.00000236,-0.00001628,0.00000
 567,-0.00001503,-0.00001480,0.00000984,0.00007500,0.00003829,0.0000551
 0,0.22482369,-0.01312561,0.00706237,-0.00035191,0.00027423,0.00247987,
 -0.00024835,0.00019251,-0.00057858,0.00034711,0.00004516,0.00018141,0.
 00014064,0.00001193,-0.00004905,0.00003680,0.00001915,0.00018204,0.000
 01156,-0.00002934,-0.00013108,-0.00038179,0.13168417,-0.15383978,0.007
 92818,0.00067040,0.00043099,-0.00059389,-0.00256025,-0.00024262,0.0014
 3556,-0.00002314,-0.00001155,0.00006849,-0.00000208,0.00000225,-0.0000
 0359,0.00000023,0.00002266,-0.00000559,0.00000027,0.00001499,-0.000002
 77,-0.00000603,0.00000745,0.00000089,0.00001572,0.00000633,0.00000833,
 -0.14074553,0.16330811,0.01561199,-0.01292781,-0.00035517,-0.00097638,
 -0.00036907,0.00022131,-0.00019126,0.00007027,0.00005214,0.00011272,0.
 00019385,0.00004482,0.00004272,-0.00001778,0.,-0.00000966,0.00000869,-
 0.00004283,-0.00015583,0.00009655,-0.00005871,-0.01123234,0.00973171,-
 0.04885582,-0.00052512,-0.00073916,0.00066216,0.00294204,0.00201092,-0
 .00097178,0.00001866,0.00003076,-0.00002979,-0.00000223,0.00000057,0.0
 0000033,-0.00000281,0.00000021,0.00000054,-0.00000303,0.00001873,-0.00
 000515,0.00000405,0.00001256,-0.00000293,0.00003604,0.00002820,0.00001
 498,0.00760700,-0.01076366,0.04912703,-0.00621850,-0.02083942,-0.01164
 273,-0.00393228,-0.00413800,0.00323294,-0.00085368,0.00111617,-0.00034
 014,-0.00026870,-0.00111136,-0.00063683,0.00008392,0.00020255,-0.00022
 571,0.00009689,-0.00041377,0.00009942,0.00036965,0.00009392,0.00079257
 ,-0.06662775,-0.06288272,-0.02696540,0.00096573,0.00016701,-0.00003898
 ,0.00059672,0.00065523,-0.00073977,-0.00007028,-0.00001382,0.00004712,
 0.00000446,-0.00001898,0.00001298,0.00000572,-0.00011203,0.00003004,-0
 .00000518,-0.00004226,0.00001678,0.00002425,-0.00003810,-0.00000720,0.
 00004819,0.00003355,-0.00000097,0.00855391,0.02179322,0.01033262,0.070
 33722,-0.00147316,-0.01030400,-0.00485267,-0.00211309,-0.00059052,0.00
 143009,-0.00031731,0.00127422,-0.00016868,-0.00025165,-0.00047118,-0.0
 0053417,-0.00000530,0.00013663,-0.00008536,0.00006723,-0.00049416,0.00
 003139,0.00038886,0.00027486,0.00079200,-0.06495643,-0.25307284,-0.091
 39293,0.00033654,0.00020489,0.00017384,-0.00020024,0.00041292,0.000012
 46,-0.00001429,-0.00000778,-0.00002605,0.00000414,-0.00001186,0.000008
 26,0.00000462,-0.00004979,0.00001639,0.00000090,-0.00003716,0.00001205
 ,0.00004048,-0.00001830,-0.00001150,-0.00003316,-0.00000081,0.00000615
 ,-0.00587743,-0.01612582,-0.00713769,0.07241041,0.27328223,0.00358239,
 0.01535359,0.00635705,0.00384635,0.00310334,-0.00135722,0.00038241,-0.
 00057233,0.00020496,0.00021843,0.00045507,0.00053667,-0.00002361,-0.00
 006919,0.00010715,-0.00009560,0.00052856,0.00006871,-0.00002587,0.0001
 2501,-0.00046292,-0.02859164,-0.09348362,-0.08758709,-0.00092143,-0.00
 015335,0.00056661,-0.00040410,-0.00037445,0.00064956,0.00003493,0.0000
 0711,-0.00001388,-0.00000093,0.00000215,-0.00000560,-0.00000158,0.0000
 5038,-0.00001653,0.00000049,0.00001828,-0.00000488,-0.00006000,0.00003
 388,0.00002999,0.00017383,-0.00001368,-0.00000589,0.00100885,0.0023837
 7,-0.00006218,0.02879616,0.09997938,0.09146328,0.00617583,-0.00426034,
 0.02868459,0.00133771,0.00141906,-0.00018944,0.00016575,-0.00033641,-0
 .00005533,0.00001726,0.00024563,-0.00006495,-0.00002644,-0.00002646,0.
 00002150,-0.00008453,-0.00018165,-0.00012368,0.00001435,-0.00005471,0.
 00003239,-0.06647180,0.01029735,-0.06866290,-0.00385736,-0.00259610,0.
 00255902,0.00144381,0.00055398,-0.00064238,-0.00005789,0.00004347,0.00
 000732,-0.00000108,0.00000927,-0.00000064,-0.00000253,0.00001920,-0.00
 000425,0.00000309,0.00000214,-0.00000098,-0.00003694,0.00000756,0.0000
 2743,-0.00063282,-0.00039636,0.00011333,-0.00584391,0.00178499,-0.0236
 0919,-0.00311029,0.00198886,-0.00791908,0.07096777,0.00187305,-0.00388
 965,0.01256644,0.00125975,0.00120514,0.00068734,0.00011001,-0.00033667
 ,-0.00002724,-0.00000962,0.00026827,0.00001491,-0.00001529,-0.00006225
 ,0.00002354,0.00002829,-0.00012572,-0.00008707,-0.00017342,-0.00012599
 ,-0.00027825,0.01066166,-0.05221000,0.03467672,-0.00209141,0.00009961,
 0.00108770,0.00002983,0.00025621,-0.00084881,0.00000328,0.00004053,-0.
 00001754,-0.00000223,0.00000972,-0.00000167,-0.00000262,0.00002044,-0.
 00000203,0.00000313,0.00001245,-0.00000303,-0.00001095,0.00002039,0.00
 000562,-0.00053295,-0.00015530,0.00003805,0.00425057,-0.00272001,0.019
 75214,-0.00686161,0.00559846,-0.02737390,-0.00851947,0.05209437,-0.004
 06959,0.00187889,-0.01723261,-0.00020492,-0.00040818,0.00089055,-0.000
 02965,-0.00032850,0.00004714,0.00022945,0.00005126,0.00032270,0.000042
 79,-0.00001973,0.00000825,-0.00001840,0.00042905,0.00009532,-0.0002668
 5,0.00010891,-0.00020546,-0.06570730,0.03588085,-0.28896247,0.00290413
 ,0.00107369,0.00002502,0.00007278,-0.00022007,0.00069360,0.00002137,-0
 .00005425,0.00000749,0.00000051,-0.00000559,-0.00000112,0.00000042,0.0
 0000645,-0.00000167,-0.00000485,0.00001433,-0.00000356,-0.00001717,0.0
 0002883,0.00000393,0.00027433,0.00003971,-0.00018111,-0.00029138,-0.00
 000977,0.00026106,-0.00276290,0.00174703,-0.01046778,0.06982724,-0.040
 21292,0.31470074\\0.00000881,0.00000795,-0.00001375,0.00000284,0.00000
 242,-0.00000638,-0.00000717,0.00000636,0.00000517,-0.00001041,0.000003
 78,0.00001172,-0.00001748,-0.00000848,0.00002816,0.00000002,-0.0000018
 8,0.00000225,0.00000756,-0.00000343,-0.00000832,0.00001620,-0.00001467
 ,-0.00001476,-0.00000017,0.00000680,-0.00001231,0.00001204,-0.00000111
 ,-0.00000996,-0.00000576,0.00000416,0.00000368,-0.00002289,0.00000493,
 -0.00000415,-0.00001453,0.00000292,0.00002572,0.00000681,0.00000982,0.
 00000485,0.00000011,-0.00000238,0.00000169,0.00000565,-0.00000227,-0.0
 0000724,-0.00000181,-0.00000068,-0.00000089,0.00000907,-0.00000529,-0.
 00000823,0.00001111,-0.00000895,0.00000275\\\@
 The archive entry for this job was punched.


 Ideas are like rabbits. You get a couple and learn
 how to handle them, and pretty soon you have a dozen.
                                    -- John Steinbeck
 Job cpu time:       0 days  0 hours 41 minutes 47.9 seconds.
 Elapsed time:       0 days  0 hours 21 minutes 46.4 seconds.
 File lengths (MBytes):  RWF=    174 Int=      0 D2E=      0 Chk=     20 Scr=      1
 Normal termination of Gaussian 16 at Fri Jun  2 11:44:20 2023.
