 Entering Gaussian System, Link 0=g16
 Input=2CNPyr-CO2_binding-site_index-3-freq.gjf
 Output=2CNPyr-CO2_binding-site_index-3-freq.log
 Initial command:
 /software/commercial/gaussian/g16/AVX/g16/l1.exe "/scratch1/svicchi/G09-659803.pbs02/Gau-1315017.inp" -scrdir="/scratch1/svicchi/G09-659803.pbs02/"
 Entering Link 1 = /software/commercial/gaussian/g16/AVX/g16/l1.exe PID=   1315018.
  
 Copyright (c) 1988-2019, Gaussian, Inc.  All Rights Reserved.
  
 This is part of the Gaussian(R) 16 program.  It is based on
 the Gaussian(R) 09 system (copyright 2009, Gaussian, Inc.),
 the Gaussian(R) 03 system (copyright 2003, Gaussian, Inc.),
 the Gaussian(R) 98 system (copyright 1998, Gaussian, Inc.),
 the Gaussian(R) 94 system (copyright 1995, Gaussian, Inc.),
 the Gaussian 92(TM) system (copyright 1992, Gaussian, Inc.),
 the Gaussian 90(TM) system (copyright 1990, Gaussian, Inc.),
 the Gaussian 88(TM) system (copyright 1988, Gaussian, Inc.),
 the Gaussian 86(TM) system (copyright 1986, Carnegie Mellon
 University), and the Gaussian 82(TM) system (copyright 1983,
 Carnegie Mellon University). Gaussian is a federally registered
 trademark of Gaussian, Inc.
  
 This software contains proprietary and confidential information,
 including trade secrets, belonging to Gaussian, Inc.
  
 This software is provided under written license and may be
 used, copied, transmitted, or stored only in accord with that
 written license.
  
 The following legend is applicable only to US Government
 contracts under FAR:
  
                    RESTRICTED RIGHTS LEGEND
  
 Use, reproduction and disclosure by the US Government is
 subject to restrictions as set forth in subparagraphs (a)
 and (c) of the Commercial Computer Software - Restricted
 Rights clause in FAR 52.227-19.
  
 Gaussian, Inc.
 340 Quinnipiac St., Bldg. 40, Wallingford CT 06492
  
  
 ---------------------------------------------------------------
 Warning -- This program may not be used in any manner that
 competes with the business of Gaussian, Inc. or will provide
 assistance to any competitor of Gaussian, Inc.  The licensee
 of this program is prohibited from giving any competitor of
 Gaussian, Inc. access to this program.  By using this program,
 the user acknowledges that Gaussian, Inc. is engaged in the
 business of creating and licensing software in the field of
 computational chemistry and represents and warrants to the
 licensee that it is not a competitor of Gaussian, Inc. and that
 it will not use this program in any manner prohibited above.
 ---------------------------------------------------------------
  

 Cite this work as:
 Gaussian 16, Revision C.01,
 M. J. Frisch, G. W. Trucks, H. B. Schlegel, G. E. Scuseria, 
 M. A. Robb, J. R. Cheeseman, G. Scalmani, V. Barone, 
 G. A. Petersson, H. Nakatsuji, X. Li, M. Caricato, A. V. Marenich, 
 J. Bloino, B. G. Janesko, R. Gomperts, B. Mennucci, H. P. Hratchian, 
 J. V. Ortiz, A. F. Izmaylov, J. L. Sonnenberg, D. Williams-Young, 
 F. Ding, F. Lipparini, F. Egidi, J. Goings, B. Peng, A. Petrone, 
 T. Henderson, D. Ranasinghe, V. G. Zakrzewski, J. Gao, N. Rega, 
 G. Zheng, W. Liang, M. Hada, M. Ehara, K. Toyota, R. Fukuda, 
 J. Hasegawa, M. Ishida, T. Nakajima, Y. Honda, O. Kitao, H. Nakai, 
 T. Vreven, K. Throssell, J. A. Montgomery, Jr., J. E. Peralta, 
 F. Ogliaro, M. J. Bearpark, J. J. Heyd, E. N. Brothers, K. N. Kudin, 
 V. N. Staroverov, T. A. Keith, R. Kobayashi, J. Normand, 
 K. Raghavachari, A. P. Rendell, J. C. Burant, S. S. Iyengar, 
 J. Tomasi, M. Cossi, J. M. Millam, M. Klene, C. Adamo, R. Cammi, 
 J. W. Ochterski, R. L. Martin, K. Morokuma, O. Farkas, 
 J. B. Foresman, and D. J. Fox, Gaussian, Inc., Wallingford CT, 2019.
 
 ******************************************
 Gaussian 16:  ES64L-G16RevC.01  3-Jul-2019
                 2-Jun-2023 
 ******************************************
 %NProcShared=2
 Will use up to    2 processors via shared memory.
 %mem=55gb
 %chk=/scratch1/svicchi/G09-659803.pbs02/02-freq/2CNPyr-CO2_binding-site_index-3-
 freq.chk
 ----------------------------------------------------------------------
 #p freq=raman scale=0.967 pop=(nbo,full,hirshfeld) guess=read geom=all
 check b3lyp/6-311+G(d,p) int=grid=ultrafine EmpiricalDispersion=GD3BJ 
 SCRF=(Solvent=ethanol) scf=(xqc,intrep,maxconventionalcycle=350) nosym
 m
 ----------------------------------------------------------------------
 1/10=4,29=7,30=1,38=1,114=967000/1,3;
 2/12=2,15=1,40=1/2;
 3/5=4,6=6,7=111,11=2,14=-4,25=1,30=1,70=2201,71=2,72=4,74=-5,75=-5,116=-2,124=41,140=1/1,2,3;
 4/5=1/1;
 5/5=2,8=3,13=1,17=20,38=6,53=4,85=350,98=1/2,8;
 8/6=4,10=90,11=11/1;
 10/13=10,15=4,31=1/2;
 11/6=3,8=1,9=11,15=111,16=1,31=1/1,2,10;
 10/6=1,31=1/2;
 6/7=3,28=1,40=1,79=1/1,7;
 7/8=1,10=1,25=1,30=1/1,2,3,16;
 1/10=4,30=1/3;
 99//99;
 Leave Link    1 at Fri Jun  2 11:57:01 2023, MaxMem=  7381975040 cpu:               2.4 elap:               4.4
 (Enter /software/commercial/gaussian/g16/AVX/g16/l101.exe)
 Structure from the checkpoint file:  "/scratch1/svicchi/G09-659803.pbs02/02-freq/2CNPyr-CO2_binding-site_index-3-freq.chk"
 -----------------------------------
 2CNPyr-CO2_binding-site_index-3.gjf
 -----------------------------------
 Charge = -1 Multiplicity = 1
 No Z-Matrix found in chk file; cartesian coordinates used.
  C                                                -1.394304785356     -0.745738417130     -0.023892705486
  C                                                -0.351860320097      0.173663848586      0.025079482463
  C                                                -2.261398721355      1.327603820563      0.097589633186
  N                                                -0.900705381182      1.447525562189      0.099814060457
  C                                                -2.601478757582     -0.010869231634      0.022803599687
  H                                                -3.603089610160     -0.411056856650      0.004195819084
  H                                                -2.871559628754      2.212477069710      0.150853144242
  H                                                -1.275579754924     -1.816278442951     -0.086495749877
  C                                                 1.025088871194     -0.124211539724     -0.003279431922
  N                                                 2.120417112200     -0.503435845017     -0.035311837939
  C                                                -0.160180005616      2.749290228807      0.180039364432
  O                                                 1.071561552017      2.625703644104      0.190554752324
  O                                                -0.898648570387      3.742660159146      0.224198869349
 Recover connectivity data from disk.
 ITRead=  0  0  0  0  0  0  0  0  0  0  0  0  0
 MicOpt= -1 -1 -1 -1 -1 -1 -1 -1 -1 -1 -1 -1 -1
 NAtoms=     13 NQM=       13 NQMF=       0 NMMI=      0 NMMIF=      0
                NMic=       0 NMicF=      0.
                    Isotopes and Nuclear Properties:
 (Nuclear quadrupole moments (NQMom) in fm**2, nuclear magnetic moments (NMagM)
  in nuclear magnetons)

  Atom         1           2           3           4           5           6           7           8           9          10
 IAtWgt=          12          12          12          14          12           1           1           1          12          14
 AtmWgt=  12.0000000  12.0000000  12.0000000  14.0030740  12.0000000   1.0078250   1.0078250   1.0078250  12.0000000  14.0030740
 NucSpn=           0           0           0           2           0           1           1           1           0           2
 AtZEff=   3.6000000   3.6000000   3.6000000   4.5500000   3.6000000   1.0000000   1.0000000   1.0000000   3.6000000   4.5500000
 NQMom=    0.0000000   0.0000000   0.0000000   2.0440000   0.0000000   0.0000000   0.0000000   0.0000000   0.0000000   2.0440000
 NMagM=    0.0000000   0.0000000   0.0000000   0.4037610   0.0000000   2.7928460   2.7928460   2.7928460   0.0000000   0.4037610
 AtZNuc=   6.0000000   6.0000000   6.0000000   7.0000000   6.0000000   1.0000000   1.0000000   1.0000000   6.0000000   7.0000000

  Atom        11          12          13
 IAtWgt=          12          16          16
 AtmWgt=  12.0000000  15.9949146  15.9949146
 NucSpn=           0           0           0
 AtZEff=   3.6000000   5.6000000   5.6000000
 NQMom=    0.0000000   0.0000000   0.0000000
 NMagM=    0.0000000   0.0000000   0.0000000
 AtZNuc=   6.0000000   8.0000000   8.0000000
 Leave Link  101 at Fri Jun  2 11:57:07 2023, MaxMem=  7381975040 cpu:               0.5 elap:               5.0
 (Enter /software/commercial/gaussian/g16/AVX/g16/l103.exe)

 GradGradGradGradGradGradGradGradGradGradGradGradGradGradGradGradGradGrad
 Berny optimization.
 Initialization pass.
 Trust Radius=3.00D-01 FncErr=1.00D-07 GrdErr=1.00D-07 EigMax=2.50D+02 EigMin=1.00D-04
 Number of steps in this run=      2 maximum allowed number of steps=      2.
 GradGradGradGradGradGradGradGradGradGradGradGradGradGradGradGradGradGrad

 Leave Link  103 at Fri Jun  2 11:57:10 2023, MaxMem=  7381975040 cpu:               0.1 elap:               3.1
 (Enter /software/commercial/gaussian/g16/AVX/g16/l202.exe)
                          Input orientation:                          
 ---------------------------------------------------------------------
 Center     Atomic      Atomic             Coordinates (Angstroms)
 Number     Number       Type             X           Y           Z
 ---------------------------------------------------------------------
      1          6           0       -1.394305   -0.745738   -0.023893
      2          6           0       -0.351860    0.173664    0.025079
      3          6           0       -2.261399    1.327604    0.097590
      4          7           0       -0.900705    1.447526    0.099814
      5          6           0       -2.601479   -0.010869    0.022804
      6          1           0       -3.603090   -0.411057    0.004196
      7          1           0       -2.871560    2.212477    0.150853
      8          1           0       -1.275580   -1.816278   -0.086496
      9          6           0        1.025089   -0.124212   -0.003279
     10          7           0        2.120417   -0.503436   -0.035312
     11          6           0       -0.160180    2.749290    0.180039
     12          8           0        1.071562    2.625704    0.190555
     13          8           0       -0.898649    3.742660    0.224199
 ---------------------------------------------------------------------
                    Distance matrix (angstroms):
                    1          2          3          4          5
     1  C    0.000000
     2  C    1.390823   0.000000
     3  C    2.250635   2.232302   0.000000
     4  N    2.251522   1.389079   1.365969   0.000000
     5  C    1.414031   2.257175   1.383025   2.241757   0.000000
     6  H    2.234173   3.303457   2.198135   3.281212   1.078759
     7  H    3.311172   3.243680   1.076166   2.114716   2.243348
     8  H    1.078921   2.196720   3.299958   3.290541   2.242645
     9  C    2.498036   1.409086   3.594293   2.487905   3.628432
    10  N    3.523083   2.564033   4.750861   3.598846   4.747873
    11  C    3.712126   2.587394   2.538328   1.499802   3.688244
    12  O    4.182476   2.840072   3.578034   2.299168   4.524476
    13  O    4.522493   3.616125   2.775899   2.298504   4.126642
                    6          7          8          9         10
     6  H    0.000000
     7  H    2.727558   0.000000
     8  H    2.720326   4.339857   0.000000
     9  C    4.637065   4.546179   2.857112   0.000000
    10  N    5.724389   5.686007   3.641287   1.159561   0.000000
    11  C    4.676787   2.764163   4.707396   3.113757   3.978408
    12  O    5.577545   3.964913   5.031604   2.757130   3.307964
    13  O    4.961428   2.497843   5.580359   4.324952   5.216458
                   11         12         13
    11  C    0.000000
    12  O    1.237971   0.000000
    13  O    1.238576   2.265050   0.000000
 Symmetry turned off by external request.
 Stoichiometry    C6H3N2O2(1-)
 Framework group  C1[X(C6H3N2O2)]
 Deg. of freedom    33
 Full point group                 C1      NOp   1
 Rotational constants (GHZ):           1.7909840           1.5812779           0.8398483
 Leave Link  202 at Fri Jun  2 11:57:12 2023, MaxMem=  7381975040 cpu:               0.0 elap:               0.7
 (Enter /software/commercial/gaussian/g16/AVX/g16/l301.exe)
 Standard basis: 6-311+G(d,p) (5D, 7F)
 Ernie: Thresh=  0.10000D-02 Tol=  0.10000D-05 Strict=F.
   238 basis functions,   384 primitive gaussians,   248 cartesian basis functions
    35 alpha electrons       35 beta electrons
       nuclear repulsion energy       466.2690476249 Hartrees.
 IExCor=  402 DFT=T Ex+Corr=B3LYP ExCW=0 ScaHFX=  0.200000
 ScaDFX=  0.800000  0.720000  1.000000  0.810000 ScalE2=  1.000000  1.000000
 IRadAn=      5 IRanWt=     -1 IRanGd=            0 ICorTp=0 IEmpDi=141
 NAtoms=   13 NActive=   13 NUniq=   13 SFac= 1.00D+00 NAtFMM=   60 NAOKFM=F Big=F
 Integral buffers will be    131072 words long.
 Raffenetti 2 integral format.
 Two-electron integral symmetry is turned off.
 R6Disp:  Grimme-D3(BJ) Dispersion energy=       -0.0243722736 Hartrees.
 Nuclear repulsion after empirical dispersion term =      466.2446753513 Hartrees.
 Force inversion solution in PCM.
 ------------------------------------------------------------------------------
 Polarizable Continuum Model (PCM)
 =================================
 Model                : PCM.
 Atomic radii         : UFF (Universal Force Field).
 Polarization charges : Total charges.
 Charge compensation  : None.
 Solution method      : Matrix inversion.
 Cavity type          : Scaled VdW (van der Waals Surface) (Alpha=1.100).
 Cavity algorithm     : GePol (No added spheres)
                        Default sphere list used, NSphG=   13.
                        Lebedev-Laikov grids with approx.  5.0 points / Ang**2.
                        Smoothing algorithm: York/Karplus (Gamma=1.0000).
                        Polarization charges: spherical gaussians, with
                                              point-specific exponents (IZeta= 3).
                        Self-potential: point-specific (ISelfS= 7).
                        Self-field    : sphere-specific E.n sum rule (ISelfD= 2).
 1st derivatives      : Analytical E(r).r(x)/FMM algorithm (CHGder, D1EAlg=3).
                        Cavity 1st derivative terms included.
 2nd derivatives      : Analytical E(r).r(xy)/FMM algorithm (CHGder, D2EAlg=3).
                        Cavity 2nd derivative terms included.
 Solvent              : Ethanol, Eps=  24.852000 Eps(inf)=   1.852593
 ------------------------------------------------------------------------------
 Spheres list:
 ISph  on   Nord     Re0    Alpha      Xe            Ye            Ze
    1   C      1    1.9255  1.100     -1.394305     -0.745738     -0.023893
    2   C      2    1.9255  1.100     -0.351860      0.173664      0.025079
    3   C      3    1.9255  1.100     -2.261399      1.327604      0.097590
    4   N      4    1.8300  1.100     -0.900705      1.447526      0.099814
    5   C      5    1.9255  1.100     -2.601479     -0.010869      0.022804
    6   H      6    1.4430  1.100     -3.603090     -0.411057      0.004196
    7   H      7    1.4430  1.100     -2.871560      2.212477      0.150853
    8   H      8    1.4430  1.100     -1.275580     -1.816278     -0.086496
    9   C      9    1.9255  1.100      1.025089     -0.124212     -0.003279
   10   N     10    1.8300  1.100      2.120417     -0.503436     -0.035312
   11   C     11    1.9255  1.100     -0.160180      2.749290      0.180039
   12   O     12    1.7500  1.100      1.071562      2.625704      0.190555
   13   O     13    1.7500  1.100     -0.898649      3.742660      0.224199
 ------------------------------------------------------------------------------
 GePol: Number of generator spheres                  =      13
 GePol: Total number of spheres                      =      13
 GePol: Number of exposed spheres                    =      13 (100.00%)
 GePol: Number of points                             =    1369
 GePol: Average weight of points                     =       0.13
 GePol: Minimum weight of points                     =   0.29D-09
 GePol: Maximum weight of points                     =    0.20577
 GePol: Number of points with low weight             =      55
 GePol: Fraction of low-weight points (<1% of avg)   =       4.02%
 GePol: Cavity surface area                          =    181.330 Ang**2
 GePol: Cavity volume                                =    177.626 Ang**3
 Leave Link  301 at Fri Jun  2 11:57:14 2023, MaxMem=  7381975040 cpu:               1.1 elap:               1.5
 (Enter /software/commercial/gaussian/g16/AVX/g16/l302.exe)
 NPDir=0 NMtPBC=     1 NCelOv=     1 NCel=       1 NClECP=     1 NCelD=      1
         NCelK=      1 NCelE2=     1 NClLst=     1 CellRange=     0.0.
 One-electron integrals computed using PRISM.
 NBasis=   238 RedAO= T EigKep=  3.51D-06  NBF=   238
 NBsUse=   238 1.00D-06 EigRej= -1.00D+00 NBFU=   238
 Precomputing XC quadrature grid using
 IXCGrd= 4 IRadAn=           5 IRanWt=          -1 IRanGd=           0 AccXCQ= 0.00D+00.
 Generated NRdTot=       0 NPtTot=           0 NUsed=           0 NTot=          32
 NSgBfM=   248   248   248   248   248 MxSgAt=    13 MxSgA2=    13.
 Leave Link  302 at Fri Jun  2 11:57:18 2023, MaxMem=  7381975040 cpu:               1.1 elap:               2.9
 (Enter /software/commercial/gaussian/g16/AVX/g16/l303.exe)
 DipDrv:  MaxL=1.
 Leave Link  303 at Fri Jun  2 11:57:22 2023, MaxMem=  7381975040 cpu:               0.1 elap:               2.4
 (Enter /software/commercial/gaussian/g16/AVX/g16/l401.exe)
 Initial guess from the checkpoint file:  "/scratch1/svicchi/G09-659803.pbs02/02-freq/2CNPyr-CO2_binding-site_index-3-freq.chk"
 B after Tr=     0.000000    0.000000    0.000000
         Rot=    1.000000    0.000000    0.000000    0.000000 Ang=   0.00 deg.
 Guess basis will be translated and rotated to current coordinates.
 JPrj=2 DoOrth=T DoCkMO=T.
 Leave Link  401 at Fri Jun  2 11:57:24 2023, MaxMem=  7381975040 cpu:               0.7 elap:               1.6
 (Enter /software/commercial/gaussian/g16/AVX/g16/l502.exe)
 Keep R1 ints in memory in canonical form, NReq=412179461.
 FoFCou: FMM=F IPFlag=           0 FMFlag=           0 FMFlg1=           0
         NFxFlg=           0 DoJE=F BraDBF=F KetDBF=F FulRan=T
         wScrn=  0.000000 ICntrl=       600 IOpCl=  0 I1Cent=           0 NGrid=           0
         NMat0=    1 NMatS0=  28441 NMatT0=    0 NMatD0=    1 NMtDS0=    0 NMtDT0=    0
 Symmetry not used in FoFCou.
 Two-electron integral symmetry not used.
 Closed shell SCF:
 Using DIIS extrapolation, IDIIS=  1040.
 NGot=  7381975040 LenX=  6977389001 LenY=  6977327056
 Requested convergence on RMS density matrix=1.00D-08 within 350 cycles.
 Requested convergence on MAX density matrix=1.00D-06.
 Requested convergence on             energy=1.00D-06.
 No special actions if energy rises.

 Cycle   1  Pass 1  IDiag  1:
 Inv3:  Mode=1 IEnd=     5622483.
 Iteration    1 A*A^-1 deviation from unit magnitude is 4.88D-15 for   1362.
 Iteration    1 A*A^-1 deviation from orthogonality  is 2.66D-15 for   1342   1028.
 Iteration    1 A^-1*A deviation from unit magnitude is 4.66D-15 for   1362.
 Iteration    1 A^-1*A deviation from orthogonality  is 2.40D-15 for   1360   1241.
 E= -490.719185921185    
 DIIS: error= 5.65D-08 at cycle   1 NSaved=   1.
 NSaved= 1 IEnMin= 1 EnMin= -490.719185921185     IErMin= 1 ErrMin= 5.65D-08
 ErrMax= 5.65D-08  0.00D+00 EMaxC= 1.00D-01 BMatC= 1.90D-13 BMatP= 1.90D-13
 IDIUse=1 WtCom= 1.00D+00 WtEn= 0.00D+00
 Coeff-Com:  0.100D+01
 Coeff:      0.100D+01
 Gap=     0.194 Goal=   None    Shift=    0.000
 RMSDP=8.48D-09 MaxDP=5.20D-07              OVMax= 3.89D-07

 Error on total polarization charges =  0.01825
 SCF Done:  E(RB3LYP) =  -490.719185921     A.U. after    1 cycles
            NFock=  1  Conv=0.85D-08     -V/T= 2.0039
 KE= 4.888142536972D+02 PE=-2.092143989640D+03 EE= 6.463658746700D+02
 Leave Link  502 at Fri Jun  2 11:57:46 2023, MaxMem=  7381975040 cpu:              34.8 elap:              19.8
 (Enter /software/commercial/gaussian/g16/AVX/g16/l508.exe)
 QCSCF skips out because SCF is already converged.
 Leave Link  508 at Fri Jun  2 11:57:48 2023, MaxMem=  7381975040 cpu:               0.0 elap:               0.5
 (Enter /software/commercial/gaussian/g16/AVX/g16/l801.exe)
 DoSCS=F DFT=T ScalE2(SS,OS)=  1.000000  1.000000
 Range of M.O.s used for correlation:     1   238
 NBasis=   238 NAE=    35 NBE=    35 NFC=     0 NFV=     0
 NROrb=    238 NOA=    35 NOB=    35 NVA=   203 NVB=   203

 **** Warning!!: The largest alpha MO coefficient is  0.13953199D+03

 Leave Link  801 at Fri Jun  2 11:57:52 2023, MaxMem=  7381975040 cpu:               0.1 elap:               3.1
 (Enter /software/commercial/gaussian/g16/AVX/g16/l1002.exe)
 Minotr:  Closed shell wavefunction.
 NEqPCM:  Using equilibrium solvation (IEInf=0, Eps=  24.8520, EpsInf=   1.8526)
          Direct CPHF calculation.
          Differentiating once with respect to electric field.
                with respect to dipole field.
          Electric field/nuclear overlap derivatives assumed to be zero.
          Requested convergence is 1.0D-08 RMS, and 1.0D-07 maximum.
          Secondary convergence is 1.0D-12 RMS, and 1.0D-12 maximum.
          NewPWx=F KeepS1=T KeepF1=T KeepIn=T MapXYZ=F SortEE=F KeepMc=T.
         4001 words used for storage of precomputed grid.
 Keep R1 ints in memory in canonical form, NReq=412185173.
 FoFCou: FMM=F IPFlag=           0 FMFlag=           0 FMFlg1=           0
         NFxFlg=           0 DoJE=F BraDBF=F KetDBF=F FulRan=T
         wScrn=  0.000000 ICntrl=       600 IOpCl=  0 I1Cent=           0 NGrid=           0
         NMat0=    1 NMatS0=  28441 NMatT0=    0 NMatD0=    1 NMtDS0=    0 NMtDT0=    0
 Symmetry not used in FoFCou.
 Two-electron integral symmetry not used.
          MDV=    7381975040 using IRadAn=       1.
          Solving linear equations simultaneously, MaxMat=       0.
          There are     3 degrees of freedom in the 1st order CPHF.  IDoFFX=0 NUNeed=     3.
      3 vectors produced by pass  0 Test12= 2.37D-13 3.33D-08 XBig12= 1.81D+02 9.28D+00.
 AX will form     3 AO Fock derivatives at one time.
      3 vectors produced by pass  1 Test12= 2.37D-13 3.33D-08 XBig12= 7.83D+01 1.59D+00.
      3 vectors produced by pass  2 Test12= 2.37D-13 3.33D-08 XBig12= 2.20D+01 1.41D+00.
      3 vectors produced by pass  3 Test12= 2.37D-13 3.33D-08 XBig12= 1.13D+01 1.11D+00.
      3 vectors produced by pass  4 Test12= 2.37D-13 3.33D-08 XBig12= 1.03D+00 2.36D-01.
      3 vectors produced by pass  5 Test12= 2.37D-13 3.33D-08 XBig12= 3.42D-01 2.34D-01.
      3 vectors produced by pass  6 Test12= 2.37D-13 3.33D-08 XBig12= 6.37D-02 4.27D-02.
      3 vectors produced by pass  7 Test12= 2.37D-13 3.33D-08 XBig12= 1.17D-02 2.76D-02.
      3 vectors produced by pass  8 Test12= 2.37D-13 3.33D-08 XBig12= 4.97D-04 4.98D-03.
      3 vectors produced by pass  9 Test12= 2.37D-13 3.33D-08 XBig12= 7.84D-05 1.29D-03.
      3 vectors produced by pass 10 Test12= 2.37D-13 3.33D-08 XBig12= 3.13D-06 3.22D-04.
      3 vectors produced by pass 11 Test12= 2.37D-13 3.33D-08 XBig12= 9.42D-08 5.65D-05.
      3 vectors produced by pass 12 Test12= 2.37D-13 3.33D-08 XBig12= 2.35D-09 6.54D-06.
      2 vectors produced by pass 13 Test12= 2.37D-13 3.33D-08 XBig12= 6.40D-11 1.24D-06.
      1 vectors produced by pass 14 Test12= 2.37D-13 3.33D-08 XBig12= 1.09D-12 2.33D-07.
      1 vectors produced by pass 15 Test12= 2.37D-13 3.33D-08 XBig12= 3.99D-14 3.87D-08.
 InvSVY:  IOpt=1 It=  1 EMax= 5.33D-15
 Solved reduced A of dimension    43 with     3 vectors.
 End of Minotr F.D. properties file   721 does not exist.
 End of Minotr F.D. properties file   722 does not exist.
 End of Minotr F.D. properties file   788 does not exist.
 Leave Link 1002 at Fri Jun  2 11:59:43 2023, MaxMem=  7381975040 cpu:             204.8 elap:             110.2
 (Enter /software/commercial/gaussian/g16/AVX/g16/l1101.exe)
 Using compressed storage, NAtomX=    13.
 Will process     14 centers per pass.
 R6Disp: Adding Grimme-D3(BJ) dispersion energy 1st derivatives to the gradient.
 Leave Link 1101 at Fri Jun  2 11:59:47 2023, MaxMem=  7381975040 cpu:               0.7 elap:               3.4
 (Enter /software/commercial/gaussian/g16/AVX/g16/l1102.exe)
 Symmetrizing basis deriv contribution to polar:
 IMax=3 JMax=2 DiffMx= 0.00D+00
 Leave Link 1102 at Fri Jun  2 11:59:52 2023, MaxMem=  7381975040 cpu:               0.1 elap:               3.8
 (Enter /software/commercial/gaussian/g16/AVX/g16/l1110.exe)
 Forming Gx(P) for the SCF density, NAtomX=    13.
 Integral derivatives from FoFJK, PRISM(SPDF).
 Do as many integral derivatives as possible in FoFJK.
 G2DrvN: MDV=    7381973591.
 G2DrvN: will do    14 centers at a time, making    1 passes.
 PxScal for G2LodP:  IOpCl= 0 ISclPx=1 IMOff=     1 NMtTot=     4 NTT=   28441 ScalPx= 3.47D+01
 Calling FoFCou, ICntrl=  3107 FMM=F I1Cent=   0 AccDes= 0.00D+00.
 FoFJK:  IHMeth= 1 ICntrl=    3107 DoSepK=F KAlg= 0 I1Cent=           0 FoldK=F
 IRaf=         0 NMat=       1 IRICut=       1 DoRegI=T DoRafI=F ISym2E= 0 IDoP0=0 IntGTp=1.
 FoFCou: FMM=F IPFlag=           0 FMFlag=      100000 FMFlg1=           0
         NFxFlg=           0 DoJE=F BraDBF=F KetDBF=F FulRan=T
         wScrn=  0.000000 ICntrl=      3107 IOpCl=  0 I1Cent=           0 NGrid=           0
         NMat0=    1 NMatS0=      1 NMatT0=    0 NMatD0=    4 NMtDS0=    3 NMtDT0=    0
 Symmetry not used in FoFCou.
 PxScal for G2LodP:  IOpCl= 0 ISclPx=0 IMOff=     1 NMtTot=     4 NTT=   28441 ScalPx= 1.00D+00
 NEqPCM:  Using equilibrium solvation (IEInf=0, Eps=  24.8520, EpsInf=   1.8526)
 G2PCM: DoFxE=T DoFxN=T DoGrad=T DoDP/DQ/DG/TGxP=TFFF NFrqRd=   0 IEInf=0 SqF1=F DoCFld=F IF1Alg=4.
 GePol: Maximum number of non-zero 1st derivatives   =     237
 End of G2Drv F.D. properties file   721 does not exist.
 End of G2Drv F.D. properties file   722 does not exist.
 End of G2Drv F.D. properties file   788 does not exist.
 Leave Link 1110 at Fri Jun  2 12:03:57 2023, MaxMem=  7381975040 cpu:             471.6 elap:             244.0
 (Enter /software/commercial/gaussian/g16/AVX/g16/l1002.exe)
 Minotr:  Closed shell wavefunction.
          IDoAtm=1111111111111
 NEqPCM:  Using equilibrium solvation (IEInf=0, Eps=  24.8520, EpsInf=   1.8526)
          Direct CPHF calculation.
          Differentiating once with respect to electric field.
                with respect to dipole field.
          Differentiating once with respect to nuclear coordinates.
          Requested convergence is 1.0D-08 RMS, and 1.0D-07 maximum.
          Secondary convergence is 1.0D-12 RMS, and 1.0D-12 maximum.
          NewPWx=T KeepS1=F KeepF1=F KeepIn=T MapXYZ=F SortEE=F KeepMc=T.
         4001 words used for storage of precomputed grid.
 Keep R1 ints in memory in canonical form, NReq=412185472.
 FoFCou: FMM=F IPFlag=           0 FMFlag=           0 FMFlg1=           0
         NFxFlg=           0 DoJE=F BraDBF=F KetDBF=F FulRan=T
         wScrn=  0.000000 ICntrl=       600 IOpCl=  0 I1Cent=           0 NGrid=           0
         NMat0=    1 NMatS0=  28441 NMatT0=    0 NMatD0=    1 NMtDS0=    0 NMtDT0=    0
 Symmetry not used in FoFCou.
 Two-electron integral symmetry not used.
          MDV=    7381975040 using IRadAn=       1.
          Solving linear equations simultaneously, MaxMat=       0.
          There are    42 degrees of freedom in the 1st order CPHF.  IDoFFX=5 NUNeed=    42.
 Will reuse    3 saved solutions.
     36 vectors produced by pass  0 Test12= 1.69D-14 2.38D-09 XBig12= 2.27D-01 1.58D-01.
 AX will form    36 AO Fock derivatives at one time.
     36 vectors produced by pass  1 Test12= 1.69D-14 2.38D-09 XBig12= 7.47D-02 8.04D-02.
     36 vectors produced by pass  2 Test12= 1.69D-14 2.38D-09 XBig12= 2.75D-03 9.28D-03.
     36 vectors produced by pass  3 Test12= 1.69D-14 2.38D-09 XBig12= 2.03D-05 5.92D-04.
     36 vectors produced by pass  4 Test12= 1.69D-14 2.38D-09 XBig12= 7.69D-08 4.65D-05.
     36 vectors produced by pass  5 Test12= 1.69D-14 2.38D-09 XBig12= 2.24D-10 1.97D-06.
     21 vectors produced by pass  6 Test12= 1.69D-14 2.38D-09 XBig12= 4.33D-13 7.79D-08.
      3 vectors produced by pass  7 Test12= 1.69D-14 2.38D-09 XBig12= 5.79D-16 3.12D-09.
 InvSVY:  IOpt=1 It=  1 EMax= 2.00D-15
 Solved reduced A of dimension   240 with    36 vectors.
 FullF1:  Do perturbations      1 to       3.
 Isotropic polarizability for W=    0.000000      125.73 Bohr**3.
 FullF1:  Do perturbations      1 to       6.
 End of Minotr F.D. properties file   721 does not exist.
 End of Minotr F.D. properties file   722 does not exist.
 End of Minotr F.D. properties file   788 does not exist.
 Leave Link 1002 at Fri Jun  2 12:08:12 2023, MaxMem=  7381975040 cpu:             485.1 elap:             253.0
 (Enter /software/commercial/gaussian/g16/AVX/g16/l601.exe)
 Copying SCF densities to generalized density rwf, IOpCl= 0 IROHF=0.

 **********************************************************************

            Population analysis using the SCF Density.

 **********************************************************************

 Alpha  occ. eigenvalues --  -19.07457 -19.07425 -14.36720 -14.30928 -10.29551
 Alpha  occ. eigenvalues --  -10.22588 -10.21741 -10.20266 -10.18067 -10.16932
 Alpha  occ. eigenvalues --   -1.05964  -0.97945  -0.96644  -0.90903  -0.79009
 Alpha  occ. eigenvalues --   -0.75794  -0.62634  -0.60876  -0.58507  -0.48501
 Alpha  occ. eigenvalues --   -0.46902  -0.45601  -0.44467  -0.42281  -0.41168
 Alpha  occ. eigenvalues --   -0.39909  -0.39533  -0.37525  -0.35479  -0.34082
 Alpha  occ. eigenvalues --   -0.27810  -0.26847  -0.26191  -0.25187  -0.23094
 Alpha virt. eigenvalues --   -0.03688   0.00821   0.01926   0.02770   0.03207
 Alpha virt. eigenvalues --    0.03231   0.04613   0.05064   0.05578   0.05697
 Alpha virt. eigenvalues --    0.07554   0.08220   0.08687   0.08913   0.08944
 Alpha virt. eigenvalues --    0.10368   0.11178   0.11733   0.13790   0.14188
 Alpha virt. eigenvalues --    0.14513   0.15322   0.15994   0.16904   0.17273
 Alpha virt. eigenvalues --    0.18440   0.19771   0.20217   0.21420   0.21780
 Alpha virt. eigenvalues --    0.22184   0.22783   0.23037   0.24078   0.24198
 Alpha virt. eigenvalues --    0.24283   0.24989   0.25290   0.26455   0.26469
 Alpha virt. eigenvalues --    0.27106   0.28459   0.29352   0.29446   0.30316
 Alpha virt. eigenvalues --    0.31102   0.32082   0.32564   0.34564   0.37459
 Alpha virt. eigenvalues --    0.38591   0.40354   0.42291   0.42693   0.46753
 Alpha virt. eigenvalues --    0.47177   0.49310   0.52377   0.55516   0.55625
 Alpha virt. eigenvalues --    0.58146   0.60228   0.62247   0.62750   0.62946
 Alpha virt. eigenvalues --    0.65748   0.67092   0.68563   0.70829   0.72123
 Alpha virt. eigenvalues --    0.72173   0.74909   0.75672   0.78148   0.80279
 Alpha virt. eigenvalues --    0.81898   0.84197   0.86534   0.86777   0.87337
 Alpha virt. eigenvalues --    0.89412   0.91052   0.91903   0.92935   0.95270
 Alpha virt. eigenvalues --    0.97915   1.00397   1.05042   1.07288   1.08199
 Alpha virt. eigenvalues --    1.08861   1.10518   1.11813   1.14571   1.15919
 Alpha virt. eigenvalues --    1.16384   1.18429   1.19704   1.23267   1.23818
 Alpha virt. eigenvalues --    1.28290   1.30226   1.30374   1.35107   1.38437
 Alpha virt. eigenvalues --    1.40255   1.44114   1.51001   1.53889   1.54401
 Alpha virt. eigenvalues --    1.55605   1.56009   1.60620   1.64555   1.66143
 Alpha virt. eigenvalues --    1.70208   1.70474   1.74963   1.77345   1.79077
 Alpha virt. eigenvalues --    1.80199   1.83560   1.85591   1.90978   1.94782
 Alpha virt. eigenvalues --    1.95532   1.97470   1.98623   2.02981   2.06299
 Alpha virt. eigenvalues --    2.08625   2.10377   2.10991   2.16385   2.24415
 Alpha virt. eigenvalues --    2.36165   2.37378   2.40570   2.43776   2.48093
 Alpha virt. eigenvalues --    2.50445   2.60416   2.63579   2.64853   2.69179
 Alpha virt. eigenvalues --    2.69961   2.72337   2.73562   2.76562   2.79505
 Alpha virt. eigenvalues --    2.80290   2.84344   2.85074   2.88240   2.89420
 Alpha virt. eigenvalues --    2.94921   2.96043   2.97405   2.97825   3.01800
 Alpha virt. eigenvalues --    3.02246   3.04210   3.12881   3.20695   3.29008
 Alpha virt. eigenvalues --    3.29813   3.30165   3.33601   3.39134   3.44384
 Alpha virt. eigenvalues --    3.48597   3.51287   3.53614   3.64986   3.72334
 Alpha virt. eigenvalues --    3.82493   3.88162   3.90042   3.99478   4.02543
 Alpha virt. eigenvalues --    4.07865   4.08119   4.12668   4.29917   4.63797
 Alpha virt. eigenvalues --    4.88640   5.04702   5.07318   5.12032   5.19695
 Alpha virt. eigenvalues --    5.21590   5.69807   5.90807  23.68683  23.87781
 Alpha virt. eigenvalues --   23.90324  24.06519  24.17453  24.51815  35.55564
 Alpha virt. eigenvalues --   35.89374  49.96260  50.06893
     Molecular Orbital Coefficients:
                           1         2         3         4         5
                           O         O         O         O         O
     Eigenvalues --   -19.07457 -19.07425 -14.36720 -14.30928 -10.29551
   1 1   C  1S          0.00000  -0.00000  -0.00001  -0.00000  -0.00001
   2        2S         -0.00000   0.00001   0.00005   0.00002   0.00002
   3        2PX         0.00001  -0.00000   0.00009  -0.00002  -0.00002
   4        2PY         0.00003  -0.00000   0.00005  -0.00007  -0.00001
   5        2PZ         0.00000  -0.00000   0.00000  -0.00000  -0.00000
   6        3S          0.00001  -0.00010  -0.00034  -0.00028  -0.00025
   7        3PX        -0.00007  -0.00002  -0.00062   0.00004   0.00008
   8        3PY        -0.00022  -0.00002  -0.00082   0.00040   0.00002
   9        3PZ        -0.00001   0.00000  -0.00005   0.00002   0.00000
  10        4S         -0.00185   0.00286   0.00073   0.00664   0.00440
  11        4PX         0.00105   0.00080   0.00266   0.00105   0.00024
  12        4PY        -0.00208   0.00101  -0.00322   0.00351   0.00249
  13        4PZ        -0.00013   0.00005  -0.00020   0.00021   0.00015
  14        5S         -0.00637   0.03116  -0.00639   0.00373  -0.07915
  15        5PX         0.00426  -0.00114  -0.00161  -0.00185  -0.00440
  16        5PY        -0.00207   0.00509  -0.00162   0.00129  -0.01228
  17        5PZ        -0.00013   0.00032  -0.00010   0.00007  -0.00071
  18        6D 0       -0.00003  -0.00002  -0.00012  -0.00007  -0.00002
  19        6D+1       -0.00000  -0.00000  -0.00002   0.00000  -0.00000
  20        6D-1        0.00001   0.00000   0.00003   0.00000   0.00000
  21        6D+2       -0.00004   0.00001  -0.00024   0.00010  -0.00002
  22        6D-2       -0.00005  -0.00004  -0.00038   0.00007  -0.00003
  23 2   C  1S         -0.00000  -0.00000   0.00001   0.00002  -0.00003
  24        2S          0.00001   0.00001   0.00002  -0.00009  -0.00000
  25        2PX         0.00002   0.00002  -0.00019  -0.00009   0.00003
  26        2PY         0.00001   0.00011   0.00046   0.00000   0.00005
  27        2PZ         0.00000   0.00001   0.00003   0.00000   0.00000
  28        3S         -0.00008   0.00006   0.00031  -0.00007  -0.00018
  29        3PX        -0.00012  -0.00004   0.00050   0.00120  -0.00018
  30        3PY         0.00006  -0.00056  -0.00128  -0.00022  -0.00032
  31        3PZ         0.00000  -0.00004  -0.00008  -0.00002  -0.00002
  32        4S          0.00314  -0.00529   0.00344   0.02899  -0.00015
  33        4PX        -0.00430   0.00036  -0.00814   0.02289   0.00613
  34        4PY         0.00349   0.00145   0.00816  -0.00039   0.00021
  35        4PZ         0.00024   0.00009   0.00052  -0.00018  -0.00003
  36        5S          0.05535  -0.03037  -0.00914  -0.01519  -0.02274
  37        5PX         0.01543   0.00290  -0.01079  -0.00211  -0.06257
  38        5PY         0.00814   0.00367  -0.00157  -0.00228  -0.01270
  39        5PZ         0.00041   0.00020   0.00001  -0.00010  -0.00041
  40        6D 0       -0.00002   0.00002   0.00006  -0.00038  -0.00003
  41        6D+1        0.00000   0.00000   0.00004  -0.00002  -0.00000
  42        6D-1        0.00001  -0.00001  -0.00004  -0.00000  -0.00000
  43        6D+2       -0.00007   0.00011   0.00051   0.00073   0.00006
  44        6D-2        0.00003  -0.00001   0.00076  -0.00021   0.00001
  45 3   C  1S         -0.00000  -0.00000   0.00001  -0.00001  -0.00002
  46        2S          0.00001   0.00001   0.00004   0.00003   0.00000
  47        2PX         0.00006  -0.00001   0.00047  -0.00002   0.00002
  48        2PY         0.00005   0.00004   0.00009   0.00002   0.00001
  49        2PZ         0.00000   0.00000   0.00000   0.00000   0.00000
  50        3S          0.00005  -0.00009   0.00027  -0.00057  -0.00034
  51        3PX        -0.00037   0.00011  -0.00131  -0.00001  -0.00026
  52        3PY        -0.00028  -0.00010  -0.00034  -0.00006  -0.00005
  53        3PZ        -0.00002  -0.00000  -0.00001  -0.00001  -0.00000
  54        4S         -0.00421   0.00521   0.00677   0.00253   0.00090
  55        4PX        -0.00130   0.00203   0.00419   0.00098  -0.00028
  56        4PY         0.00105   0.00031  -0.00167  -0.00145   0.00138
  57        4PZ         0.00009  -0.00000  -0.00011  -0.00008   0.00008
  58        5S         -0.01187   0.03170   0.00052   0.01101  -0.00855
  59        5PX        -0.00504   0.00418  -0.00002   0.00106  -0.00286
  60        5PY         0.00018  -0.00536  -0.00127  -0.00259   0.00154
  61        5PZ         0.00006  -0.00030  -0.00008  -0.00016   0.00009
  62        6D 0        0.00003  -0.00006   0.00007  -0.00012  -0.00012
  63        6D+1        0.00000  -0.00000  -0.00000  -0.00000  -0.00000
  64        6D-1        0.00000   0.00001   0.00006   0.00001   0.00002
  65        6D+2       -0.00009  -0.00002  -0.00117   0.00004  -0.00013
  66        6D-2       -0.00008  -0.00001  -0.00014  -0.00007  -0.00005
  67 4   N  1S         -0.00000  -0.00000   0.55736  -0.00001  -0.00002
  68        2S          0.00002   0.00002   0.46569  -0.00003  -0.00007
  69        2PX         0.00004   0.00007  -0.00000  -0.00002   0.00006
  70        2PY         0.00012   0.00010  -0.00016   0.00002   0.00011
  71        2PZ         0.00001   0.00001  -0.00001   0.00000   0.00001
  72        3S          0.00000   0.00005   0.01660   0.00018   0.00039
  73        3PX        -0.00007  -0.00036  -0.00054   0.00016   0.00013
  74        3PY        -0.00053  -0.00036  -0.00071  -0.00004   0.00020
  75        3PZ        -0.00003  -0.00002  -0.00004  -0.00000   0.00001
  76        4S         -0.00135  -0.00166  -0.02072  -0.00140   0.00136
  77        4PX        -0.00311   0.00301   0.00067  -0.00209  -0.00084
  78        4PY         0.00284  -0.00115   0.00326  -0.00098  -0.00183
  79        4PZ         0.00014  -0.00005   0.00017  -0.00005  -0.00009
  80        5S         -0.00646  -0.00628  -0.00150  -0.00006   0.00658
  81        5PX        -0.01021   0.00579   0.00259   0.00276   0.00861
  82        5PY         0.00366  -0.00506   0.00170  -0.00161   0.00533
  83        5PZ         0.00018  -0.00031   0.00007  -0.00009   0.00029
  84        6D 0        0.00003   0.00005  -0.00037   0.00001   0.00015
  85        6D+1       -0.00001  -0.00001  -0.00000  -0.00000  -0.00001
  86        6D-1       -0.00001  -0.00001   0.00003   0.00000  -0.00002
  87        6D+2        0.00009   0.00011   0.00012  -0.00007   0.00013
  88        6D-2       -0.00016  -0.00015  -0.00002  -0.00005  -0.00019
  89 5   C  1S         -0.00000  -0.00000  -0.00001  -0.00000  -0.00001
  90        2S          0.00001   0.00000   0.00005   0.00002   0.00002
  91        2PX        -0.00001   0.00002  -0.00001  -0.00001   0.00002
  92        2PY        -0.00000   0.00002   0.00013  -0.00001   0.00000
  93        2PZ         0.00000   0.00000   0.00001  -0.00000  -0.00000
  94        3S         -0.00002   0.00001  -0.00016  -0.00021  -0.00020
  95        3PX         0.00003  -0.00013  -0.00039  -0.00001  -0.00015
  96        3PY        -0.00003  -0.00012  -0.00105   0.00003  -0.00004
  97        3PZ        -0.00000  -0.00001  -0.00006   0.00000   0.00000
  98        4S          0.00268  -0.00091   0.00011  -0.00140   0.00034
  99        4PX         0.00093  -0.00127  -0.00247   0.00008   0.00008
 100        4PY         0.00010  -0.00044  -0.00138  -0.00041   0.00069
 101        4PZ        -0.00000  -0.00001  -0.00007  -0.00002   0.00003
 102        5S          0.01408  -0.03543  -0.00465  -0.01231   0.01149
 103        5PX         0.00383  -0.00611  -0.00105  -0.00162   0.00296
 104        5PY        -0.00207  -0.00243   0.00061  -0.00093  -0.00151
 105        5PZ        -0.00016  -0.00014   0.00005  -0.00004  -0.00009
 106        6D 0        0.00001  -0.00001   0.00000  -0.00003   0.00001
 107        6D+1       -0.00000   0.00000  -0.00000   0.00000   0.00000
 108        6D-1       -0.00000  -0.00000  -0.00003  -0.00000  -0.00000
 109        6D+2        0.00003   0.00006   0.00047   0.00007   0.00005
 110        6D-2       -0.00003   0.00001  -0.00003   0.00004   0.00001
 111 6   H  1S          0.00001   0.00004   0.00004  -0.00002   0.00001
 112        2S         -0.00005  -0.00050  -0.00142   0.00003  -0.00014
 113        3S          0.00006   0.00025  -0.00061   0.00037   0.00062
 114        4PX        -0.00001  -0.00006  -0.00031  -0.00001  -0.00001
 115        4PY        -0.00001  -0.00002  -0.00013   0.00002  -0.00005
 116        4PZ        -0.00000  -0.00000  -0.00001   0.00000  -0.00000
 117 7   H  1S         -0.00001   0.00005  -0.00013  -0.00002   0.00003
 118        2S         -0.00002  -0.00047  -0.00050   0.00012  -0.00078
 119        3S         -0.00193   0.00075   0.00216   0.00091  -0.00031
 120        4PX        -0.00003  -0.00015  -0.00047  -0.00002  -0.00019
 121        4PY         0.00001  -0.00004   0.00012   0.00002   0.00006
 122        4PZ        -0.00000  -0.00000   0.00001   0.00000   0.00000
 123 8   H  1S          0.00004  -0.00000   0.00001  -0.00002  -0.00001
 124        2S         -0.00062  -0.00006  -0.00163   0.00047   0.00010
 125        3S         -0.00033   0.00014  -0.00110   0.00099   0.00135
 126        4PX        -0.00001  -0.00004  -0.00003  -0.00007  -0.00004
 127        4PY        -0.00009  -0.00003  -0.00039   0.00011  -0.00000
 128        4PZ        -0.00001  -0.00000  -0.00002   0.00001  -0.00000
 129 9   C  1S          0.00000  -0.00000  -0.00001  -0.00006  -0.00001
 130        2S          0.00000   0.00002   0.00007   0.00053  -0.00000
 131        2PX        -0.00002  -0.00000  -0.00000   0.00025  -0.00002
 132        2PY         0.00008  -0.00003   0.00008  -0.00011   0.00003
 133        2PZ         0.00001  -0.00000   0.00001  -0.00001   0.00000
 134        3S         -0.00012  -0.00008  -0.00032   0.00007   0.00004
 135        3PX         0.00020  -0.00006   0.00012  -0.00302   0.00013
 136        3PY        -0.00035   0.00014  -0.00033   0.00118  -0.00011
 137        3PZ        -0.00002   0.00001  -0.00002   0.00010  -0.00001
 138        4S          0.00322  -0.00047   0.00667  -0.00542  -0.00304
 139        4PX        -0.00303  -0.00186  -0.00300   0.03923   0.00355
 140        4PY         0.00078  -0.00054  -0.00097  -0.01228  -0.00178
 141        4PZ         0.00007  -0.00002  -0.00002  -0.00106  -0.00014
 142        5S         -0.04703   0.00825   0.02008   0.01626   0.10361
 143        5PX         0.01087  -0.00258  -0.00359  -0.00231  -0.01862
 144        5PY        -0.00453  -0.00124   0.00232   0.00087   0.01207
 145        5PZ        -0.00041  -0.00006   0.00016   0.00006   0.00094
 146        6D 0       -0.00008   0.00004   0.00005   0.00172   0.00002
 147        6D+1       -0.00000   0.00001   0.00002   0.00015   0.00000
 148        6D-1       -0.00000  -0.00000  -0.00001  -0.00005  -0.00001
 149        6D+2        0.00018  -0.00005  -0.00003  -0.00247   0.00004
 150        6D-2       -0.00003   0.00008   0.00037   0.00173   0.00001
 151 10  N  1S         -0.00000  -0.00000   0.00001   0.55732   0.00000
 152        2S          0.00002   0.00001  -0.00000   0.46558   0.00001
 153        2PX        -0.00001   0.00002   0.00001  -0.00105   0.00001
 154        2PY        -0.00001  -0.00000   0.00003   0.00034   0.00002
 155        2PZ        -0.00000  -0.00000   0.00000   0.00003   0.00000
 156        3S         -0.00012  -0.00011   0.00015   0.01904  -0.00006
 157        3PX         0.00015  -0.00010  -0.00013  -0.00356   0.00000
 158        3PY        -0.00001   0.00002  -0.00012   0.00131  -0.00008
 159        3PZ        -0.00000   0.00000  -0.00000   0.00011  -0.00001
 160        4S          0.00074   0.00160  -0.00018  -0.03484  -0.00104
 161        4PX        -0.00000  -0.00033   0.00056   0.00938   0.00046
 162        4PY        -0.00001   0.00034   0.00050  -0.00360   0.00028
 163        4PZ        -0.00000   0.00003   0.00002  -0.00030   0.00002
 164        5S          0.00305  -0.00042  -0.00070  -0.01169  -0.00649
 165        5PX        -0.00167   0.00039   0.00003   0.00324   0.00186
 166        5PY         0.00062   0.00021  -0.00036  -0.00106  -0.00226
 167        5PZ         0.00007   0.00001  -0.00002  -0.00009  -0.00018
 168        6D 0        0.00005  -0.00001  -0.00000  -0.00070   0.00001
 169        6D+1        0.00000  -0.00000  -0.00000  -0.00006  -0.00000
 170        6D-1       -0.00000   0.00000   0.00000   0.00002   0.00000
 171        6D+2       -0.00006   0.00003   0.00001   0.00096  -0.00002
 172        6D-2        0.00005  -0.00004  -0.00001  -0.00076  -0.00001
 173 11  C  1S         -0.00002  -0.00002   0.00001  -0.00000   0.56309
 174        2S          0.00010   0.00010  -0.00003   0.00001   0.46331
 175        2PX         0.00036  -0.00018  -0.00016   0.00006  -0.00035
 176        2PY        -0.00003   0.00031  -0.00026   0.00002  -0.00061
 177        2PZ         0.00000   0.00002  -0.00002   0.00000  -0.00004
 178        3S          0.00016   0.00028   0.00012  -0.00007   0.01839
 179        3PX        -0.00073   0.00032   0.00030  -0.00035   0.00084
 180        3PY         0.00011  -0.00065   0.00047  -0.00014   0.00141
 181        3PZ        -0.00000  -0.00004   0.00003  -0.00001   0.00009
 182        4S          0.00262   0.00284   0.00239  -0.00000  -0.01279
 183        4PX         0.00928  -0.00739  -0.00147   0.00014  -0.00115
 184        4PY        -0.00414   0.00560  -0.00154  -0.00152   0.00206
 185        4PZ        -0.00012   0.00024  -0.00009  -0.00010   0.00010
 186        5S         -0.00451  -0.00469  -0.00042   0.00054  -0.00710
 187        5PX        -0.00100   0.00144  -0.00088  -0.00037   0.00014
 188        5PY         0.00174   0.00050   0.00034  -0.00038   0.00265
 189        5PZ         0.00009   0.00004   0.00003  -0.00003   0.00016
 190        6D 0        0.00019   0.00021  -0.00007  -0.00001  -0.00154
 191        6D+1       -0.00000   0.00004  -0.00002   0.00001  -0.00003
 192        6D-1        0.00003  -0.00002  -0.00001   0.00001   0.00007
 193        6D+2       -0.00083   0.00012   0.00021  -0.00010   0.00091
 194        6D-2        0.00019   0.00085  -0.00047   0.00014  -0.00155
 195 12  O  1S          0.55092   0.02083   0.00000   0.00000  -0.00007
 196        2S          0.46937   0.01779   0.00002   0.00001  -0.00003
 197        2PX        -0.00111  -0.00008  -0.00005   0.00000  -0.00050
 198        2PY         0.00011   0.00004  -0.00001  -0.00001   0.00001
 199        2PZ        -0.00001   0.00000  -0.00000  -0.00000  -0.00001
 200        3S          0.01403   0.00010  -0.00011  -0.00015   0.00027
 201        3PX        -0.00062   0.00016   0.00027  -0.00002   0.00155
 202        3PY        -0.00001  -0.00010   0.00003   0.00004  -0.00001
 203        3PZ        -0.00001  -0.00000   0.00001   0.00000   0.00002
 204        4S         -0.01291   0.00255  -0.00033   0.00061  -0.00299
 205        4PX         0.00250  -0.00092   0.00011  -0.00029   0.00141
 206        4PY         0.00030  -0.00068   0.00025  -0.00014  -0.00021
 207        4PZ         0.00006  -0.00006   0.00001  -0.00001  -0.00000
 208        5S          0.00290   0.00331   0.00033  -0.00078   0.00673
 209        5PX         0.00052  -0.00093   0.00015   0.00023  -0.00327
 210        5PY        -0.00114  -0.00035   0.00041   0.00067  -0.00041
 211        5PZ        -0.00007  -0.00004   0.00002   0.00005  -0.00005
 212        6D 0       -0.00013   0.00001   0.00002  -0.00005   0.00053
 213        6D+1        0.00000   0.00001  -0.00000   0.00000  -0.00002
 214        6D-1        0.00000   0.00000   0.00000   0.00000  -0.00000
 215        6D+2        0.00020   0.00002  -0.00011   0.00004  -0.00085
 216        6D-2       -0.00007   0.00022  -0.00005  -0.00000   0.00004
 217 13  O  1S         -0.02083   0.55092   0.00000   0.00000  -0.00007
 218        2S         -0.01770   0.46937   0.00002   0.00001  -0.00004
 219        2PX         0.00003   0.00065   0.00003   0.00001   0.00027
 220        2PY         0.00002  -0.00089  -0.00004  -0.00001  -0.00041
 221        2PZ         0.00000  -0.00004  -0.00000   0.00000  -0.00002
 222        3S         -0.00096   0.01401  -0.00006  -0.00010   0.00037
 223        3PX        -0.00023   0.00033  -0.00014  -0.00004  -0.00082
 224        3PY         0.00012  -0.00055   0.00019   0.00003   0.00126
 225        3PZ         0.00000  -0.00002   0.00001  -0.00000   0.00006
 226        4S          0.00353  -0.01275  -0.00064   0.00056  -0.00400
 227        4PX        -0.00001  -0.00115   0.00011   0.00031  -0.00105
 228        4PY        -0.00122   0.00227   0.00053  -0.00028   0.00168
 229        4PZ        -0.00007   0.00010   0.00003  -0.00001   0.00008
 230        5S          0.00347   0.00348  -0.00090   0.00176   0.00233
 231        5PX         0.00065  -0.00087   0.00029   0.00007   0.00047
 232        5PY        -0.00118  -0.00055   0.00033  -0.00047  -0.00191
 233        5PZ        -0.00005  -0.00004   0.00001  -0.00002  -0.00011
 234        6D 0        0.00004  -0.00012   0.00003  -0.00001   0.00053
 235        6D+1        0.00000  -0.00001   0.00001  -0.00000   0.00003
 236        6D-1        0.00001   0.00001  -0.00001   0.00000  -0.00006
 237        6D+2       -0.00019  -0.00005   0.00009  -0.00000   0.00038
 238        6D-2        0.00011  -0.00020   0.00008  -0.00001   0.00077
                           6         7         8         9        10
                           O         O         O         O         O
     Eigenvalues --   -10.22588 -10.21741 -10.20266 -10.18067 -10.16932
   1 1   C  1S          0.00343  -0.00023   0.00005   0.56276  -0.01182
   2        2S          0.00301  -0.00009   0.00005   0.46302  -0.00959
   3        2PX         0.00064   0.00023  -0.00014   0.00007  -0.00059
   4        2PY         0.00053  -0.00000   0.00003  -0.00010   0.00037
   5        2PZ         0.00003  -0.00000   0.00000  -0.00001   0.00002
   6        3S          0.00009  -0.00056   0.00017   0.02009  -0.00035
   7        3PX        -0.00290  -0.00138   0.00088   0.00037   0.00209
   8        3PY        -0.00246  -0.00035  -0.00054   0.00057  -0.00126
   9        3PZ        -0.00013  -0.00001  -0.00004   0.00003  -0.00008
  10        4S         -0.00258   0.01096  -0.01017  -0.02168   0.00514
  11        4PX         0.00276   0.00074  -0.00052   0.00107  -0.00064
  12        4PY        -0.00197   0.00608  -0.00679  -0.01129   0.00367
  13        4PZ        -0.00013   0.00036  -0.00040  -0.00066   0.00021
  14        5S          0.04309   0.02213   0.00187   0.02697   0.03035
  15        5PX        -0.00730  -0.00117   0.00412  -0.00073   0.00329
  16        5PY         0.00717   0.00405  -0.00078   0.00517   0.00495
  17        5PZ         0.00045   0.00023  -0.00005   0.00031   0.00029
  18        6D 0        0.00069  -0.00001  -0.00002  -0.00189   0.00068
  19        6D+1       -0.00011  -0.00004   0.00002  -0.00001   0.00009
  20        6D-1       -0.00006   0.00005   0.00003   0.00025  -0.00006
  21        6D+2       -0.00008  -0.00064  -0.00049  -0.00101  -0.00026
  22        6D-2       -0.00203  -0.00077   0.00033  -0.00002   0.00142
  23 2   C  1S          0.56274  -0.01480   0.00006  -0.00355   0.00007
  24        2S          0.46297  -0.01175   0.00005  -0.00277   0.00008
  25        2PX         0.00060   0.00114  -0.00001  -0.00065   0.00001
  26        2PY         0.00068  -0.00015   0.00001  -0.00050  -0.00006
  27        2PZ         0.00003  -0.00002   0.00000  -0.00003  -0.00000
  28        3S          0.01980  -0.00224   0.00003   0.00013   0.00007
  29        3PX        -0.00108  -0.00657   0.00031   0.00270   0.00034
  30        3PY        -0.00132   0.00070   0.00003   0.00188   0.00041
  31        3PZ        -0.00008   0.00008  -0.00000   0.00010   0.00002
  32        4S         -0.01831   0.02009  -0.00708  -0.00263  -0.01005
  33        4PX        -0.00726   0.02899  -0.01815  -0.01330  -0.00299
  34        4PY         0.00255  -0.00163   0.00108  -0.00044   0.00140
  35        4PZ         0.00019  -0.00029   0.00018   0.00006   0.00012
  36        5S          0.01976   0.04670   0.03350  -0.01429  -0.01569
  37        5PX         0.03927   0.03472   0.02793   0.00701   0.01787
  38        5PY        -0.01142  -0.00213   0.00199   0.00152   0.00709
  39        5PZ        -0.00090  -0.00031  -0.00003   0.00005   0.00035
  40        6D 0       -0.00161   0.00089  -0.00006   0.00083   0.00002
  41        6D+1        0.00001   0.00009  -0.00001  -0.00008  -0.00002
  42        6D-1        0.00011   0.00006   0.00000  -0.00005  -0.00001
  43        6D+2        0.00083  -0.00265   0.00002  -0.00048   0.00020
  44        6D-2        0.00050   0.00109  -0.00019  -0.00150  -0.00039
  45 3   C  1S         -0.00007  -0.00022   0.56289  -0.00016  -0.00509
  46        2S         -0.00006  -0.00010   0.46310  -0.00012  -0.00400
  47        2PX        -0.00011   0.00002   0.00066  -0.00010  -0.00023
  48        2PY         0.00007   0.00004   0.00030  -0.00007  -0.00076
  49        2PZ         0.00000   0.00000   0.00002  -0.00000  -0.00004
  50        3S         -0.00011  -0.00098   0.02053   0.00018  -0.00003
  51        3PX         0.00060  -0.00032  -0.00048   0.00040   0.00091
  52        3PY        -0.00014  -0.00003  -0.00093   0.00078   0.00309
  53        3PZ        -0.00001  -0.00000  -0.00005   0.00004   0.00017
  54        4S          0.00408   0.00228  -0.01599  -0.00593   0.00255
  55        4PX         0.00118   0.00153  -0.00235  -0.00207   0.00111
  56        4PY        -0.00116  -0.00360   0.00631   0.00398  -0.00353
  57        4PZ        -0.00007  -0.00020   0.00037   0.00024  -0.00019
  58        5S          0.02500   0.00956  -0.02301  -0.00382  -0.01009
  59        5PX         0.00750   0.00194  -0.00485  -0.00048  -0.00082
  60        5PY        -0.00285  -0.00191   0.00120   0.00084   0.00140
  61        5PZ        -0.00019  -0.00012   0.00009   0.00005   0.00010
  62        6D 0       -0.00012  -0.00016  -0.00177   0.00002   0.00089
  63        6D+1       -0.00002  -0.00001  -0.00004  -0.00003  -0.00003
  64        6D-1       -0.00000   0.00002   0.00025  -0.00001  -0.00018
  65        6D+2        0.00025  -0.00009  -0.00117   0.00027   0.00166
  66        6D-2       -0.00029  -0.00016  -0.00060  -0.00056  -0.00046
  67 4   N  1S         -0.00004   0.00000  -0.00005   0.00000   0.00000
  68        2S         -0.00006   0.00006  -0.00006   0.00003   0.00003
  69        2PX         0.00009   0.00008  -0.00034   0.00002  -0.00004
  70        2PY        -0.00033  -0.00014  -0.00008  -0.00003   0.00000
  71        2PZ        -0.00002  -0.00001  -0.00000  -0.00000   0.00000
  72        3S          0.00091  -0.00021   0.00082  -0.00009  -0.00003
  73        3PX        -0.00012  -0.00026   0.00039  -0.00004   0.00031
  74        3PY         0.00048   0.00074   0.00023   0.00029   0.00012
  75        3PZ         0.00003   0.00004   0.00001   0.00002   0.00001
  76        4S         -0.00473   0.00046  -0.00355  -0.00186  -0.00250
  77        4PX         0.00160  -0.00317   0.00373  -0.00081   0.00105
  78        4PY         0.00399  -0.00201   0.00126   0.00006  -0.00110
  79        4PZ         0.00021  -0.00010   0.00006  -0.00001  -0.00007
  80        5S          0.00898   0.00077   0.01044   0.00014   0.00061
  81        5PX         0.00619  -0.00171  -0.01431  -0.00300  -0.00936
  82        5PY        -0.01378  -0.00365  -0.00323  -0.01115  -0.00870
  83        5PZ        -0.00078  -0.00020  -0.00018  -0.00066  -0.00052
  84        6D 0        0.00055   0.00014   0.00056   0.00002   0.00005
  85        6D+1        0.00002   0.00002  -0.00001   0.00001   0.00001
  86        6D-1       -0.00008  -0.00002  -0.00002  -0.00000   0.00001
  87        6D+2        0.00045   0.00011  -0.00060   0.00003  -0.00025
  88        6D-2        0.00035   0.00044  -0.00020   0.00020   0.00007
  89 5   C  1S         -0.00001  -0.00007   0.00496   0.01172   0.56275
  90        2S          0.00001   0.00002   0.00428   0.00978   0.46299
  91        2PX         0.00003   0.00005   0.00014   0.00058  -0.00013
  92        2PY        -0.00011  -0.00003   0.00079  -0.00037  -0.00013
  93        2PZ        -0.00001  -0.00000   0.00004  -0.00002  -0.00001
  94        3S         -0.00001  -0.00046   0.00009   0.00048   0.02014
  95        3PX        -0.00053  -0.00049  -0.00054  -0.00195   0.00060
  96        3PY         0.00060   0.00014  -0.00353   0.00146   0.00090
  97        3PZ         0.00004   0.00001  -0.00020   0.00009   0.00005
  98        4S          0.00005  -0.00489   0.00641   0.00887  -0.01623
  99        4PX        -0.00065  -0.00039   0.00258   0.00564  -0.00804
 100        4PY        -0.00215  -0.00057   0.00281   0.00122  -0.00357
 101        4PZ        -0.00012  -0.00003   0.00015   0.00005  -0.00017
 102        5S         -0.02767  -0.00632   0.02730  -0.01031   0.00563
 103        5PX        -0.00634  -0.00070   0.00640  -0.00219   0.00136
 104        5PY         0.00409   0.00060   0.00087   0.00180   0.00160
 105        5PZ         0.00027   0.00004   0.00002   0.00011   0.00007
 106        6D 0       -0.00002   0.00001   0.00078   0.00062  -0.00195
 107        6D+1        0.00003   0.00001  -0.00007   0.00007   0.00003
 108        6D-1        0.00000   0.00000  -0.00016  -0.00001   0.00016
 109        6D+2       -0.00003  -0.00006   0.00157  -0.00106   0.00051
 110        6D-2        0.00056   0.00018  -0.00121   0.00111   0.00088
 111 6   H  1S         -0.00004  -0.00007  -0.00013  -0.00009   0.00024
 112        2S         -0.00067   0.00022  -0.00019   0.00028  -0.00539
 113        3S         -0.00027   0.00038   0.00056   0.00201   0.00038
 114        4PX        -0.00022  -0.00003  -0.00022  -0.00026  -0.00234
 115        4PY         0.00001   0.00003  -0.00034   0.00012  -0.00091
 116        4PZ         0.00000   0.00000  -0.00002   0.00001  -0.00004
 117 7   H  1S         -0.00005  -0.00015   0.00013  -0.00000  -0.00011
 118        2S          0.00018   0.00079  -0.00483  -0.00111   0.00045
 119        3S          0.00123   0.00128   0.00019  -0.00063   0.00076
 120        4PX         0.00005  -0.00000  -0.00158  -0.00012   0.00013
 121        4PY         0.00002   0.00004   0.00189   0.00021   0.00025
 122        4PZ         0.00000   0.00000   0.00011   0.00001   0.00001
 123 8   H  1S         -0.00010  -0.00020  -0.00003   0.00026  -0.00010
 124        2S         -0.00125   0.00016  -0.00123  -0.00573   0.00031
 125        3S         -0.00090   0.00163  -0.00194  -0.00018   0.00104
 126        4PX        -0.00022  -0.00003   0.00010   0.00028   0.00019
 127        4PY        -0.00056  -0.00029  -0.00029  -0.00256  -0.00010
 128        4PZ        -0.00003  -0.00002  -0.00002  -0.00015  -0.00001
 129 9   C  1S          0.01464   0.56257   0.00020   0.00012   0.00005
 130        2S          0.01234   0.46246   0.00024   0.00019   0.00010
 131        2PX        -0.00049  -0.00023   0.00005  -0.00000  -0.00000
 132        2PY         0.00012   0.00010  -0.00001  -0.00000  -0.00000
 133        2PZ         0.00001   0.00001  -0.00000   0.00000  -0.00000
 134        3S          0.00015   0.02341  -0.00077  -0.00051  -0.00052
 135        3PX         0.00146   0.00382  -0.00031   0.00007   0.00011
 136        3PY        -0.00033  -0.00174   0.00009   0.00003   0.00002
 137        3PZ        -0.00003  -0.00014   0.00001   0.00000   0.00000
 138        4S          0.00345  -0.01481   0.01099   0.00663   0.00331
 139        4PX        -0.00682   0.03204  -0.01409  -0.00834  -0.00612
 140        4PY         0.00106  -0.00953   0.00448   0.00309   0.00120
 141        4PZ         0.00013  -0.00084   0.00039   0.00026   0.00011
 142        5S         -0.07155  -0.07314  -0.05571  -0.00944  -0.01892
 143        5PX         0.01668   0.01929   0.01037   0.00209   0.00244
 144        5PY        -0.00417  -0.00652  -0.00353  -0.00166  -0.00281
 145        5PZ        -0.00041  -0.00059  -0.00034  -0.00012  -0.00023
 146        6D 0        0.00102  -0.00369   0.00001   0.00007   0.00000
 147        6D+1        0.00007  -0.00031  -0.00000  -0.00000   0.00000
 148        6D-1       -0.00003   0.00009   0.00000   0.00001  -0.00000
 149        6D+2       -0.00139   0.00537  -0.00003  -0.00033  -0.00001
 150        6D-2        0.00072  -0.00355  -0.00004  -0.00007   0.00005
 151 10  N  1S         -0.00000  -0.00032   0.00000   0.00000   0.00000
 152        2S         -0.00007   0.00015   0.00003   0.00001   0.00001
 153        2PX         0.00002  -0.00085   0.00003   0.00001   0.00001
 154        2PY        -0.00002   0.00031  -0.00002  -0.00003  -0.00000
 155        2PZ        -0.00000   0.00003  -0.00000  -0.00000  -0.00000
 156        3S          0.00059  -0.00204  -0.00042  -0.00020  -0.00018
 157        3PX        -0.00060   0.00640  -0.00011  -0.00009  -0.00004
 158        3PY         0.00025  -0.00232   0.00007   0.00016  -0.00001
 159        3PZ         0.00002  -0.00019   0.00001   0.00001  -0.00000
 160        4S          0.00253  -0.02786   0.00698   0.00424   0.00308
 161        4PX         0.00022   0.00787  -0.00163  -0.00099  -0.00064
 162        4PY         0.00031  -0.00314   0.00060   0.00017   0.00043
 163        4PZ         0.00001  -0.00026   0.00004   0.00002   0.00003
 164        5S          0.00397  -0.00383   0.00672   0.00331   0.00267
 165        5PX        -0.00277  -0.00152  -0.00206  -0.00131  -0.00072
 166        5PY         0.00092   0.00077   0.00082   0.00066   0.00055
 167        5PZ         0.00008   0.00007   0.00009   0.00005   0.00005
 168        6D 0       -0.00009   0.00146  -0.00003  -0.00002   0.00000
 169        6D+1       -0.00001   0.00014  -0.00000  -0.00001  -0.00000
 170        6D-1        0.00001  -0.00005   0.00000   0.00000   0.00000
 171        6D+2        0.00004  -0.00190   0.00002  -0.00000  -0.00000
 172        6D-2       -0.00017   0.00170  -0.00004  -0.00008  -0.00002
 173 11  C  1S          0.00003   0.00001   0.00002   0.00001   0.00001
 174        2S          0.00004   0.00002   0.00004   0.00003   0.00003
 175        2PX        -0.00003   0.00001  -0.00001  -0.00002  -0.00003
 176        2PY        -0.00008  -0.00001  -0.00006  -0.00006  -0.00004
 177        2PZ        -0.00000  -0.00000  -0.00000  -0.00000  -0.00000
 178        3S         -0.00019  -0.00004  -0.00035  -0.00039  -0.00038
 179        3PX         0.00016  -0.00011   0.00010   0.00009   0.00016
 180        3PY         0.00045  -0.00011   0.00039   0.00029   0.00017
 181        3PZ         0.00002  -0.00000   0.00003   0.00002   0.00001
 182        4S         -0.00194   0.00134   0.00073   0.00215   0.00242
 183        4PX         0.00150  -0.00005  -0.00145   0.00066  -0.00228
 184        4PY        -0.00007  -0.00191   0.00105  -0.00304  -0.00115
 185        4PZ         0.00005  -0.00013   0.00002  -0.00016  -0.00010
 186        5S          0.00465   0.00068   0.00758   0.00796   0.00547
 187        5PX        -0.00067  -0.00011  -0.00171  -0.00119  -0.00097
 188        5PY        -0.00107  -0.00049  -0.00185  -0.00226  -0.00151
 189        5PZ        -0.00006  -0.00003  -0.00012  -0.00014  -0.00010
 190        6D 0       -0.00000  -0.00002  -0.00007  -0.00012  -0.00012
 191        6D+1       -0.00001   0.00000  -0.00001  -0.00000   0.00000
 192        6D-1       -0.00000   0.00001  -0.00000   0.00001   0.00000
 193        6D+2        0.00005  -0.00004   0.00013   0.00001   0.00008
 194        6D-2       -0.00013   0.00003  -0.00010  -0.00008  -0.00001
 195 12  O  1S          0.00000   0.00000   0.00000   0.00000   0.00000
 196        2S          0.00001   0.00001   0.00000  -0.00000   0.00000
 197        2PX        -0.00001  -0.00001  -0.00002  -0.00002  -0.00002
 198        2PY        -0.00002  -0.00002  -0.00000  -0.00001   0.00001
 199        2PZ        -0.00000  -0.00000  -0.00000  -0.00000   0.00000
 200        3S         -0.00003  -0.00007  -0.00003   0.00005  -0.00001
 201        3PX         0.00005   0.00005   0.00012   0.00007   0.00011
 202        3PY         0.00007   0.00006  -0.00001   0.00001  -0.00006
 203        3PZ         0.00001   0.00000  -0.00000   0.00000  -0.00000
 204        4S         -0.00020  -0.00000   0.00022  -0.00087   0.00001
 205        4PX         0.00012  -0.00010  -0.00028   0.00026  -0.00013
 206        4PY         0.00004   0.00001  -0.00007   0.00023   0.00024
 207        4PZ        -0.00000  -0.00000  -0.00000   0.00002   0.00002
 208        5S         -0.00287   0.00024   0.00409   0.00032   0.00430
 209        5PX         0.00122   0.00006  -0.00141  -0.00025  -0.00165
 210        5PY         0.00026   0.00032  -0.00052  -0.00006  -0.00067
 211        5PZ         0.00003   0.00002  -0.00006  -0.00000  -0.00007
 212        6D 0        0.00002  -0.00002   0.00003  -0.00000   0.00002
 213        6D+1       -0.00000   0.00000  -0.00000  -0.00000  -0.00000
 214        6D-1       -0.00000   0.00000  -0.00000   0.00000  -0.00000
 215        6D+2       -0.00000   0.00001  -0.00002  -0.00002  -0.00003
 216        6D-2       -0.00001  -0.00001   0.00001  -0.00002   0.00000
 217 13  O  1S          0.00000   0.00000   0.00000   0.00000   0.00000
 218        2S          0.00000   0.00001   0.00001   0.00001   0.00000
 219        2PX         0.00001   0.00001  -0.00001   0.00002  -0.00001
 220        2PY        -0.00002  -0.00001  -0.00002  -0.00001  -0.00002
 221        2PZ        -0.00000  -0.00000  -0.00000  -0.00000  -0.00000
 222        3S         -0.00001  -0.00011   0.00001  -0.00004   0.00002
 223        3PX        -0.00004  -0.00003   0.00003  -0.00011   0.00003
 224        3PY         0.00010   0.00006   0.00008   0.00007   0.00009
 225        3PZ         0.00001   0.00000   0.00000   0.00000   0.00000
 226        4S          0.00010   0.00044  -0.00059   0.00028  -0.00077
 227        4PX         0.00002   0.00024  -0.00016   0.00033  -0.00006
 228        4PY        -0.00032  -0.00026   0.00046  -0.00006   0.00018
 229        4PZ        -0.00002  -0.00001   0.00002   0.00000   0.00001
 230        5S          0.00580   0.00210  -0.00375   0.00508   0.00155
 231        5PX         0.00039   0.00019  -0.00009   0.00045   0.00020
 232        5PY        -0.00255  -0.00053   0.00136  -0.00208  -0.00065
 233        5PZ        -0.00014  -0.00002   0.00007  -0.00010  -0.00004
 234        6D 0        0.00002  -0.00002   0.00003   0.00002  -0.00001
 235        6D+1        0.00000   0.00000   0.00000   0.00000   0.00000
 236        6D-1       -0.00000   0.00000  -0.00000  -0.00000   0.00000
 237        6D+2        0.00000   0.00000   0.00003   0.00002   0.00002
 238        6D-2        0.00002   0.00000   0.00000   0.00002   0.00001
                          11        12        13        14        15
                           O         O         O         O         O
     Eigenvalues --    -1.05964  -0.97945  -0.96644  -0.90903  -0.79009
   1 1   C  1S         -0.00566  -0.02732   0.00028  -0.00033  -0.07467
   2        2S         -0.00865  -0.04186   0.00038  -0.00040  -0.11535
   3        2PX         0.00100   0.00345  -0.00073   0.00537  -0.00732
   4        2PY         0.00586   0.02557   0.00000  -0.00223   0.03226
   5        2PZ         0.00033   0.00145   0.00000  -0.00016   0.00186
   6        3S          0.02178   0.10550  -0.00025   0.00101   0.30035
   7        3PX         0.00230   0.00617  -0.00112   0.00490  -0.01249
   8        3PY         0.00926   0.03623  -0.00080  -0.00498   0.04386
   9        3PZ         0.00052   0.00204  -0.00005  -0.00032   0.00254
  10        4S          0.00597   0.04667  -0.02712  -0.00398   0.16452
  11        4PX        -0.00869  -0.00594   0.00174   0.00134  -0.00259
  12        4PY         0.00968   0.01706  -0.01791  -0.00358   0.01633
  13        4PZ         0.00062   0.00100  -0.00102  -0.00024   0.00092
  14        5S         -0.07423  -0.01439  -0.17190  -0.05315  -0.24347
  15        5PX         0.00155   0.02488  -0.00593  -0.01334   0.00345
  16        5PY        -0.01083  -0.00675  -0.03473  -0.00604  -0.04954
  17        5PZ        -0.00073  -0.00039  -0.00202  -0.00036  -0.00300
  18        6D 0       -0.00137  -0.00656   0.00008   0.00034  -0.01148
  19        6D+1        0.00005   0.00007  -0.00002  -0.00003  -0.00029
  20        6D-1        0.00019   0.00083   0.00000  -0.00006   0.00111
  21        6D+2       -0.00093  -0.00324  -0.00016   0.00046   0.00084
  22        6D-2        0.00098   0.00181  -0.00027  -0.00047  -0.00362
  23 2   C  1S         -0.01558  -0.05080   0.00351  -0.00931  -0.03101
  24        2S         -0.02386  -0.07803   0.00537  -0.01349  -0.04808
  25        2PX        -0.00640  -0.02685  -0.00223   0.02133  -0.02480
  26        2PY         0.01303   0.02936  -0.00254  -0.01066  -0.05600
  27        2PZ         0.00077   0.00172  -0.00015  -0.00078  -0.00319
  28        3S          0.06022   0.20018  -0.01416   0.03565   0.12559
  29        3PX        -0.00985  -0.04082  -0.00253   0.01400  -0.03357
  30        3PY         0.02227   0.04615  -0.00223  -0.01243  -0.08328
  31        3PZ         0.00133   0.00270  -0.00014  -0.00084  -0.00477
  32        4S          0.02729   0.08834   0.03681  -0.04856   0.09097
  33        4PX         0.01820   0.01103  -0.02085  -0.02854   0.00444
  34        4PY        -0.01996  -0.00902   0.00836  -0.00249  -0.02104
  35        4PZ        -0.00133  -0.00062   0.00059   0.00008  -0.00131
  36        5S         -0.03207   0.09525   0.37405  -0.40694  -0.06722
  37        5PX        -0.05107  -0.02367   0.03935  -0.20769  -0.21765
  38        5PY        -0.01363   0.06291  -0.00801   0.00290   0.00422
  39        5PZ        -0.00065   0.00360  -0.00054   0.00163   0.00142
  40        6D 0       -0.00435  -0.01279   0.00056   0.00205  -0.00536
  41        6D+1       -0.00021  -0.00067  -0.00002   0.00023   0.00046
  42        6D-1        0.00061   0.00142  -0.00009   0.00000  -0.00029
  43        6D+2       -0.00261  -0.00200   0.00033  -0.00384   0.01399
  44        6D-2       -0.00326  -0.01008  -0.00019   0.00317   0.00980
  45 3   C  1S         -0.01502  -0.04620  -0.00415   0.01003  -0.00693
  46        2S         -0.02297  -0.07085  -0.00638   0.01543  -0.01078
  47        2PX         0.01607   0.04339   0.00344  -0.00832  -0.03347
  48        2PY        -0.00020  -0.01337   0.00222   0.00189  -0.04887
  49        2PZ        -0.00005  -0.00090   0.00011   0.00013  -0.00270
  50        3S          0.05782   0.18078   0.01667  -0.03981   0.02586
  51        3PX         0.02522   0.06429   0.00358  -0.01247  -0.05140
  52        3PY         0.00086  -0.01915   0.00259   0.00271  -0.06991
  53        3PZ        -0.00003  -0.00129   0.00010   0.00019  -0.00383
  54        4S          0.01533   0.07341  -0.03242  -0.01447   0.02659
  55        4PX        -0.00270   0.00355  -0.01244   0.00077  -0.00641
  56        4PY        -0.00315  -0.00299   0.00900   0.00234  -0.01039
  57        4PZ        -0.00020  -0.00019   0.00071   0.00012  -0.00065
  58        5S         -0.05922   0.04589  -0.18981  -0.01876  -0.02618
  59        5PX         0.00435  -0.00216  -0.01617  -0.00909  -0.00068
  60        5PY         0.01963  -0.00582   0.03750  -0.00409   0.00999
  61        5PZ         0.00095  -0.00020   0.00226  -0.00029   0.00046
  62        6D 0       -0.00421  -0.01203  -0.00084   0.00219  -0.00188
  63        6D+1        0.00001  -0.00031   0.00002   0.00002  -0.00031
  64        6D-1        0.00015   0.00066   0.00006  -0.00011   0.00119
  65        6D+2        0.00467   0.00965   0.00047  -0.00194  -0.01734
  66        6D-2        0.00079  -0.00367   0.00040   0.00003  -0.00602
  67 4   N  1S         -0.04166  -0.08227  -0.00132   0.01314   0.05722
  68        2S         -0.06543  -0.12928  -0.00209   0.02079   0.09074
  69        2PX         0.00318  -0.02113  -0.01176   0.00853  -0.00887
  70        2PY         0.00617  -0.03663   0.00627   0.00055  -0.03907
  71        2PZ         0.00047  -0.00197   0.00026  -0.00004  -0.00239
  72        3S          0.17841   0.35539   0.00581  -0.05804  -0.25910
  73        3PX         0.00781  -0.03143  -0.01588   0.01122  -0.01455
  74        3PY         0.01451  -0.05529   0.00827   0.00205  -0.05925
  75        3PZ         0.00103  -0.00297   0.00032   0.00002  -0.00363
  76        4S          0.13135   0.25778   0.00278  -0.04159  -0.20490
  77        4PX         0.00305  -0.00794  -0.03026   0.01007  -0.01438
  78        4PY        -0.00311  -0.02125   0.01970   0.00169  -0.04223
  79        4PZ        -0.00008  -0.00112   0.00096   0.00003  -0.00253
  80        5S         -0.01555  -0.10878  -0.00431   0.02944  -0.01189
  81        5PX         0.00550   0.00682  -0.04776   0.01299   0.04784
  82        5PY         0.01022   0.04972   0.02818  -0.00601   0.07503
  83        5PZ         0.00073   0.00287   0.00150  -0.00042   0.00437
  84        6D 0       -0.00629  -0.01014  -0.00017   0.00170   0.00258
  85        6D+1        0.00021  -0.00005  -0.00013  -0.00003   0.00006
  86        6D-1        0.00080   0.00103   0.00012  -0.00016  -0.00018
  87        6D+2       -0.00221  -0.00008  -0.00232  -0.00023  -0.00233
  88        6D-2        0.00368   0.00021  -0.00136  -0.00058   0.00088
  89 5   C  1S         -0.00547  -0.02596  -0.00078   0.00477  -0.06324
  90        2S         -0.00836  -0.03974  -0.00117   0.00735  -0.09759
  91        2PX         0.00485   0.02158   0.00027  -0.00283   0.03538
  92        2PY         0.00335   0.01311   0.00081  -0.00352  -0.00479
  93        2PZ         0.00017   0.00066   0.00004  -0.00019  -0.00042
  94        3S          0.02060   0.09925   0.00231  -0.01847   0.25213
  95        3PX         0.00700   0.02959   0.00107  -0.00457   0.04976
  96        3PY         0.00578   0.01911   0.00161  -0.00512  -0.01138
  97        3PZ         0.00031   0.00098   0.00008  -0.00027  -0.00086
  98        4S          0.00108   0.03928   0.02665  -0.00965   0.14142
  99        4PX         0.00419   0.01035   0.01414  -0.00435   0.01611
 100        4PY         0.00300   0.00590   0.00506  -0.00066   0.00363
 101        4PZ         0.00015   0.00030   0.00020  -0.00003   0.00016
 102        5S          0.07875  -0.01423   0.20491  -0.06010   0.06244
 103        5PX         0.00780  -0.00047   0.03121  -0.01114   0.00464
 104        5PY         0.00950  -0.02058   0.02545  -0.00185  -0.00467
 105        5PZ         0.00065  -0.00128   0.00131  -0.00005  -0.00021
 106        6D 0       -0.00155  -0.00648  -0.00021   0.00113  -0.01000
 107        6D+1        0.00007   0.00016   0.00001  -0.00004  -0.00036
 108        6D-1        0.00016   0.00057   0.00003  -0.00012   0.00067
 109        6D+2       -0.00011   0.00108  -0.00028   0.00018   0.00585
 110        6D-2        0.00133   0.00363   0.00012  -0.00070  -0.00467
 111 6   H  1S          0.00067   0.00535   0.00009  -0.00129   0.03138
 112        2S          0.00303   0.00661   0.00221  -0.00240   0.03464
 113        3S         -0.00008   0.00149   0.00136   0.00043  -0.00086
 114        4PX         0.00023   0.00054   0.00017  -0.00027   0.00566
 115        4PY         0.00021   0.00042   0.00008  -0.00026   0.00089
 116        4PZ         0.00001   0.00002   0.00001  -0.00001   0.00003
 117 7   H  1S          0.00514   0.01269   0.00320  -0.00362  -0.00434
 118        2S          0.00675   0.01146   0.00378  -0.00441  -0.00931
 119        3S          0.00061  -0.00713  -0.00836   0.00381   0.00224
 120        4PX         0.00178   0.00226   0.00103  -0.00068  -0.00392
 121        4PY        -0.00038  -0.00118   0.00017   0.00057   0.00102
 122        4PZ        -0.00003  -0.00007  -0.00000   0.00004   0.00008
 123 8   H  1S          0.00078   0.00611   0.00000   0.00148   0.03913
 124        2S          0.00421   0.00870  -0.00282   0.00003   0.04367
 125        3S          0.00273   0.00352  -0.00377   0.00106  -0.00092
 126        4PX         0.00026   0.00030   0.00004   0.00027  -0.00128
 127        4PY         0.00053   0.00111  -0.00024  -0.00017   0.00716
 128        4PZ         0.00003   0.00006  -0.00002  -0.00001   0.00042
 129 9   C  1S         -0.00422  -0.01535   0.00463  -0.08493  -0.00425
 130        2S         -0.00650  -0.02345   0.00706  -0.12938  -0.00659
 131        2PX        -0.00249  -0.00629  -0.00148   0.09541  -0.02633
 132        2PY         0.00175   0.00167  -0.00042  -0.03521  -0.00023
 133        2PZ         0.00012   0.00012  -0.00002  -0.00293   0.00020
 134        3S          0.01697   0.06064  -0.01766   0.32677   0.01819
 135        3PX        -0.00403  -0.00980  -0.00004   0.08602  -0.03071
 136        3PY         0.00376   0.00339  -0.00295  -0.03503  -0.00386
 137        3PZ         0.00025   0.00023  -0.00019  -0.00287   0.00000
 138        4S         -0.00959   0.00364   0.00676   0.12664   0.00600
 139        4PX         0.01246  -0.00087   0.00216  -0.05999   0.00925
 140        4PY         0.00365   0.00422  -0.00005   0.01485  -0.00524
 141        4PZ         0.00013   0.00021  -0.00004   0.00136  -0.00035
 142        5S          0.08660  -0.01636  -0.21069   0.53370   0.35485
 143        5PX        -0.01962   0.00312   0.05451  -0.12121  -0.07039
 144        5PY         0.01200  -0.01580  -0.01308   0.03559   0.03095
 145        5PZ         0.00113  -0.00088  -0.00149   0.00318   0.00271
 146        6D 0       -0.00101  -0.00285   0.00095  -0.01562  -0.00033
 147        6D+1       -0.00012  -0.00031   0.00005  -0.00129   0.00025
 148        6D-1        0.00009   0.00007  -0.00010   0.00038  -0.00013
 149        6D+2        0.00061   0.00411  -0.00027   0.02244   0.00228
 150        6D-2       -0.00174  -0.00443   0.00067  -0.01463   0.00429
 151 10  N  1S         -0.00137  -0.00719   0.00330  -0.09811   0.00856
 152        2S         -0.00210  -0.01114   0.00514  -0.15370   0.01351
 153        2PX        -0.00135  -0.00713   0.00309  -0.09165   0.00619
 154        2PY         0.00065   0.00227  -0.00141   0.03109  -0.00383
 155        2PZ         0.00005   0.00019  -0.00011   0.00264  -0.00028
 156        3S          0.00536   0.02856  -0.01306   0.41050  -0.03679
 157        3PX        -0.00135  -0.00826   0.00439  -0.12108   0.00778
 158        3PY         0.00089   0.00322  -0.00171   0.04027  -0.00623
 159        3PZ         0.00006   0.00025  -0.00014   0.00343  -0.00044
 160        4S         -0.00030   0.02224  -0.01541   0.31190  -0.03488
 161        4PX        -0.00169  -0.00627   0.00461  -0.05689   0.00503
 162        4PY        -0.00088   0.00028  -0.00255   0.01978  -0.00285
 163        4PZ        -0.00003   0.00009  -0.00022   0.00167  -0.00021
 164        5S         -0.00178   0.00528   0.00605  -0.03970  -0.01418
 165        5PX         0.00233  -0.00045  -0.00667   0.02333   0.00613
[...]
               (au)            (10**-30 esu)      (10**-50 SI)
   || (z)    -0.156676D+02     -0.135356D+00     -0.502361D-01
   _|_(z)    -0.522255D+01     -0.451187D-01     -0.167454D-01
   x          0.190426D+04      0.164513D+02      0.610575D+01
   y         -0.110538D+04     -0.954963D+01     -0.354425D+01
   z         -0.783382D+02     -0.676781D+00     -0.251181D+00
   ||         0.440645D+03      0.380683D+01      0.141287D+01
   xxx        0.681637D+03      0.588882D+01      0.218558D+01
   xxy       -0.282686D+03     -0.244219D+01     -0.906393D+00
   yxy        0.141474D+03      0.122222D+01      0.453616D+00
   yyy       -0.366633D+02     -0.316742D+00     -0.117556D+00
   xxz       -0.247356D+02     -0.213696D+00     -0.793112D-01
   yxz        0.208168D+02      0.179841D+00      0.667463D-01
   yyz        0.393248D+01      0.339736D-01      0.126090D-01
   zxz       -0.188358D+03     -0.162727D+01     -0.603944D+00
   zyz       -0.491109D+02     -0.424280D+00     -0.157467D+00
   zzz       -0.530964D+01     -0.458712D-01     -0.170246D-01

 ----------------------------------------------------------------------

 Dipole orientation:
     6         -1.54650913          0.84839732          2.41225783
     6         -0.64753088          0.36424797         -0.00957349
     6         -4.37900843          2.28978613         -0.41405909
     7         -2.41210397          1.26258245         -1.73288100
     6         -3.90897277          2.06858582          2.14733075
     1         -5.12699730          2.71201816          3.65003932
     1         -5.94999631          3.09496626         -1.42373906
     1         -0.58165924          0.36143015          4.14110128
     6          1.64537327         -0.83995441         -0.62837774
     7          3.57272808         -1.85221563         -0.87781099
     6         -2.24310920          1.17025643         -4.56054583
     8         -0.27424823          0.19243895         -5.36077804
     8         -4.10046825          2.08939036         -5.64851298

 Electric dipole moment (dipole orientation):
 (Debye = 10**-18 statcoulomb cm , SI units = C m)
                  (au)            (Debye)         (10**-30 SI)
   Tot        0.509880D+01      0.129599D+02      0.432295D+02
   x          0.000000D+00      0.000000D+00      0.000000D+00
   y          0.000000D+00      0.000000D+00      0.000000D+00
   z          0.509880D+01      0.129599D+02      0.432295D+02

 Dipole polarizability, Alpha (dipole orientation).
 (esu units = cm**3 , SI units = C**2 m**2 J**-1)
 Alpha(0;0):
               (au)            (10**-24 esu)      (10**-40 SI)
   iso        0.125729D+03      0.186311D+02      0.207299D+02
   aniso      0.962027D+02      0.142558D+02      0.158617D+02
   xx         0.154498D+03      0.228943D+02      0.254733D+02
   yx        -0.445590D+02     -0.660296D+01     -0.734678D+01
   yy         0.913229D+02      0.135327D+02      0.150571D+02
   zx        -0.765001D+01     -0.113362D+01     -0.126132D+01
   zy         0.439857D+01      0.651801D+00      0.725226D+00
   zz         0.131367D+03      0.194665D+02      0.216594D+02

 First dipole hyperpolarizability, Beta (dipole orientation).
 ||, _|_  parallel and perpendicular components, (z) with respect to z axis,
 vector components x,y,z.  Values do not include the 1/n! factor of 1/2.
 (esu units = statvolt**-1 cm**4 , SI units = C**3 m**3 J**-2)
 Beta(0;0,0):
               (au)            (10**-30 esu)      (10**-50 SI)
   || (z)     0.345990D+02      0.298908D+00      0.110937D+00
   _|_(z)     0.115330D+02      0.996360D-01      0.369789D-01
   x          0.194778D+04      0.168273D+02      0.624529D+01
   y         -0.101510D+04     -0.876968D+01     -0.325478D+01
   z          0.172995D+03      0.149454D+01      0.554684D+00
   ||         0.440645D+03      0.380683D+01      0.141287D+01
   xxx        0.523668D+03      0.452408D+01      0.167907D+01
   xxy       -0.411431D+03     -0.355444D+01     -0.131920D+01
   yxy        0.119399D+03      0.103151D+01      0.382835D+00
   yyy        0.778832D+02      0.672850D+00      0.249722D+00
   xxz        0.254610D+01      0.219963D-01      0.816372D-02
   yxz        0.669066D+02      0.578021D+00      0.214527D+00
   yyz        0.907617D+02      0.784110D+00      0.291015D+00
   zxz        0.619425D+01      0.535135D-01      0.198610D-01
   zyz       -0.481941D+01     -0.416360D-01     -0.154528D-01
   zzz       -0.356429D+02     -0.307926D+00     -0.114284D+00

 ----------------------------------------------------------------------
 Unable to Open any file for archive entry.
 1\1\GINC-NODE1927\Freq\RB3LYP\6-311+G(d,p)\C6H3N2O2(1-)\SVICCHI\02-Jun
 -2023\0\\#p freq=raman scale=0.967 pop=(nbo,full,hirshfeld) guess=read
  geom=allcheck b3lyp/6-311+G(d,p) int=grid=ultrafine EmpiricalDispersi
 on=GD3BJ SCRF=(Solvent=ethanol) scf=(xqc,intrep,maxconventionalcycle=3
 50) nosymm\\2CNPyr-CO2_binding-site_index-3.gjf\\-1,1\C,-1.3943047854,
 -0.7457384171,-0.0238927055\C,-0.3518603201,0.1736638486,0.0250794825\
 C,-2.2613987214,1.3276038206,0.0975896332\N,-0.9007053812,1.4475255622
 ,0.0998140605\C,-2.6014787576,-0.0108692316,0.0228035997\H,-3.60308961
 02,-0.4110568566,0.0041958191\H,-2.8715596288,2.2124770697,0.150853144
 2\H,-1.2755797549,-1.816278443,-0.0864957499\C,1.0250888712,-0.1242115
 397,-0.0032794319\N,2.1204171122,-0.503435845,-0.0353118379\C,-0.16018
 00056,2.7492902288,0.1800393644\O,1.071561552,2.6257036441,0.190554752
 3\O,-0.8986485704,3.7426601591,0.2241988693\\Version=ES64L-G16RevC.01\
 HF=-490.7191859\RMSD=8.479e-09\RMSF=1.407e-05\ZeroPoint=0.0798878\Ther
 mal=0.0880581\ETot=-490.6311278\HTot=-490.6301836\GTot=-490.6729988\Di
 pole=-3.0949751,-2.4558705,-0.1368386\DipoleDeriv=0.4894759,-0.3710205
 ,-0.0240995,-0.0345503,-0.1377602,0.004258,-0.0027248,0.0045211,-0.213
 4935,-1.0323557,0.2031976,0.0153942,0.1688097,0.6903108,0.0392677,0.00
 921,0.0371539,0.0165301,-0.1371091,0.7620017,0.0455729,0.0957017,0.346
 3559,0.0244953,0.0043234,0.0250754,-0.1015481,-0.3632383,-1.1325366,-0
 .0701775,-0.94052,-1.6376929,-0.0904337,-0.0562872,-0.0904476,-0.06174
 08,-0.1859693,0.054744,0.0027156,0.2589192,-0.5022593,-0.0140196,0.015
 8949,-0.0127273,-0.3036858,-0.0744681,-0.0639609,-0.0024998,-0.054906,
 0.0872509,-0.007427,-0.0016022,-0.0068012,0.2176103,0.0991048,0.033351
 3,0.0027156,0.0485296,0.101679,-0.0061515,0.0030414,-0.006526,0.212394
 5,0.1228831,0.0306822,0.0021602,0.0189653,-0.0550788,-0.015453,0.00131
 32,-0.0155356,0.2078009,1.705473,-0.3596782,-0.0310575,-0.3966256,0.40
 54192,0.0157983,-0.0273444,0.0161438,0.2295234,-1.3120741,0.2643154,0.
 0215413,0.3284314,-0.5945301,-0.010945,0.0270259,-0.0108277,-0.4546941
 ,2.9179091,0.1824428,0.0457178,-0.0297806,3.4360956,0.1634877,0.031611
 7,0.1639798,0.4143791,-2.0089311,-0.1157285,-0.0257707,0.0214396,-1.14
 63127,-0.0327831,-0.0239601,-0.0337358,-0.5710668,-1.2207002,0.5121897
 ,0.0177875,0.515586,-1.9934775,-0.0700941,0.0194981,-0.0702727,-0.5920
 091\Polar=175.7412271,-12.495118,132.9383714,-1.0008827,3.7605593,68.5
 080946\PolarDeriv=-36.8952863,18.6762513,4.575583,1.2524591,0.0680007,
 1.4757633,-12.7087171,-2.8577685,-3.6898954,0.0960963,0.5681823,-5.753
 6448,-0.5923594,-0.0239264,0.5426014,-3.7394812,-6.697026,-1.1114534,6
 9.1533664,-18.1392109,5.7821177,-1.4443359,0.4362555,0.0906014,2.53760
 02,-0.6471104,-8.4972383,-0.3658837,-0.6176006,2.9903429,-0.1077102,-0
 .1974882,-0.0593513,5.9511694,-1.8852389,0.0559698,6.7830982,-8.818285
 8,-9.9030926,-0.57586,-0.5585,0.0843143,19.7356451,-15.1410245,3.84590
 75,-0.4821037,-0.4444647,6.6672668,1.0299337,-0.371304,-0.4424369,-7.9
 63369,6.0730254,1.0680046,-8.1655842,10.0135793,9.9062504,0.6837624,0.
 547024,0.3975879,8.1480657,2.0822222,12.21566,0.0109752,0.6507789,-2.0
 840747,0.4645157,-0.0465108,0.1460878,1.026784,3.2630137,0.1700199,8.1
 743051,-11.3928677,-4.9140531,-0.7678217,0.0741308,-5.6510422,-27.5790
 105,20.0030102,1.008626,1.6769624,0.3928987,-3.0914648,-1.6885831,1.56
 50048,0.4853523,-7.2343968,-3.7715922,-0.4666069,-15.9339537,-4.852577
 9,-3.1909268,-0.2159822,-0.1223701,-0.7531909,-5.0849335,-3.578929,-2.
 9429585,-0.2351081,-0.1677357,-0.2431338,-0.1763419,-0.2050901,-0.1856
 323,0.8904609,0.4783713,0.0472923,-6.9806682,4.922472,-4.1069264,0.296
 7536,-0.1986454,-0.7590614,5.5236418,-4.6768763,7.641052,-0.3484355,0.
 4491687,0.7337756,0.3001432,-0.3458048,0.5025999,1.221193,-0.6120017,-
 0.0318218,-0.8762347,-1.4166325,0.9575236,-0.0759649,0.0666493,0.07274
 48,-0.9297908,-1.1856113,-15.7643116,-0.1169446,-0.9042385,-0.9353673,
 -0.0341634,-0.1129108,-1.0359409,0.7677657,0.5113411,-0.005866,-98.911
 5747,27.9909368,-10.3047871,2.3223911,-0.802046,0.3494596,26.7196909,-
 11.6105485,14.4997299,-0.7843609,0.8801187,0.8245688,2.1270214,-0.8185
 681,0.7883882,-2.3204073,1.0194059,0.1240743,78.7619608,-20.2830313,11
 .0332333,-1.6547232,0.5842789,3.2806093,-20.1888367,16.8747357,-13.365
 5704,0.5823746,-0.7118091,-0.7300675,-1.6738378,0.5818089,-0.5204167,9
 .5229029,-3.0921791,-0.5488649,-3.7725779,-6.0083914,-2.7020995,-0.455
 8574,-0.2946675,0.7772305,2.2549091,-0.3929821,-12.8018342,-0.0709308,
 -0.7622547,2.1760676,0.1107335,-0.0431591,-0.5202404,-0.7302501,-1.076
 5612,0.0156245,15.2335653,5.679268,11.1279475,0.4774128,0.5441758,2.51
 61872,-1.4481158,3.7892646,-2.2319226,-0.0052196,-0.0436535,-1.638142,
 0.1109618,0.0176066,-0.1131669,5.0217167,0.7205348,0.2009019,-6.570416
 ,3.6284902,-8.2607699,0.1577662,-0.3442859,-1.8812039,3.0198517,-2.658
 3821,20.0827555,0.0425784,0.7106094,1.0838732,0.1296864,0.0003418,0.41
 2156,-2.4140883,5.0689068,0.4827258\HyperPolar=681.637449,-282.6859955
 ,141.473716,-36.6632536,-24.7355697,20.8168258,3.9324832,-188.3579002,
 -49.1108918,-5.3096414\Quadrupole=4.930311,-18.1999896,13.2696786,1.54
 14124,-0.005388,-2.0209676\PG=C01 [X(C6H3N2O2)]\NImag=0\\0.56025232,-0
 .00812212,0.83797879,-0.00243971,0.04145240,0.12290817,-0.20428874,-0.
 12974755,-0.00689468,0.79116367,-0.12274857,-0.21009364,-0.00796410,-0
 .01594786,0.56508343,-0.00645580,-0.00789987,-0.06444557,-0.00474387,0
 .02610793,0.11914389,0.02313185,0.01553191,0.00088100,-0.08273553,0.04
 758808,0.00304277,0.64568103,0.06577920,-0.05724966,-0.00415370,0.0201
 0585,-0.02598656,-0.00225180,-0.12039240,0.81672163,0.00376903,-0.0040
 2978,0.01146407,0.00145106,-0.00239445,0.01264801,-0.00875190,0.040132
 91,0.12996499,-0.02140085,-0.00514983,-0.00020252,-0.11679735,0.069217
 97,0.00408561,-0.29591717,-0.00381501,0.00082702,0.66596154,-0.0412987
 6,-0.08380212,-0.00535786,0.03914319,-0.22930649,-0.01029982,0.0071990
 0,-0.11378693,-0.00294831,0.00429369,0.63600686,-0.00214482,-0.0056046
 0,0.01372384,0.00218098,-0.01033906,-0.05496721,0.00111915,-0.00299825
 ,-0.06288394,-0.00018854,0.03068221,0.10738238,-0.24705002,0.09606643,
 0.00632331,-0.07600091,-0.02455138,-0.00103493,-0.12333196,-0.07288473
 ,-0.00389428,-0.04109028,-0.02687390,-0.00138700,0.78563104,0.06294891
 ,-0.15835864,-0.00603434,0.03134678,0.02045495,0.00031975,-0.04443987,
 -0.34226256,-0.01564772,-0.07691074,-0.04356578,-0.00285911,0.12011614
 ,0.62100761,0.00433218,-0.00610687,-0.06018563,0.00215396,0.00058662,0
 .01290069,-0.00214884,-0.01552135,-0.06531013,-0.00434239,-0.00307050,
 0.01192042,0.00410288,0.02831415,0.11815134,-0.01161237,-0.01206476,-0
 .00064086,-0.00291154,0.00268804,0.00019257,0.00071401,0.00238200,0.00
 012660,0.00066065,-0.00038394,-0.00000442,-0.31135750,-0.10298791,-0.0
 0469699,0.32413204,0.01556071,0.01165916,0.00061615,0.00339976,-0.0023
 9395,-0.00038982,-0.02589572,-0.00032411,0.00014339,-0.00179563,-0.006
 74354,-0.00070750,-0.10136267,-0.09795307,-0.00359294,0.11080376,0.093
 05757,0.00092123,0.00073652,-0.00024489,0.00023569,-0.00038087,0.00413
 137,-0.00148541,0.00002628,-0.00090504,-0.00011237,-0.00070892,0.00566
 231,-0.00458524,-0.00359871,-0.02744396,0.00506475,0.00358551,0.022099
 43,-0.00027339,-0.00282398,-0.00013723,-0.00420229,-0.00328394,-0.0001
 6561,-0.15108200,0.13489286,0.00822249,-0.01611537,0.02824178,0.001696
 00,0.01121009,-0.00721922,-0.00044670,-0.00014830,0.00085892,0.0000359
 6,0.15848665,-0.00150261,-0.00404564,-0.00047237,-0.00234214,0.0000608
 1,-0.00010375,0.14578993,-0.26422806,-0.01410008,-0.00294810,0.0080585
 3,0.00050832,0.01537353,-0.00652910,-0.00062404,-0.00040645,0.00044961
 ,0.00020485,-0.15364531,0.26831285,-0.00002127,-0.00046489,0.00432047,
 -0.00010780,-0.00014317,0.00191412,0.00875924,-0.01415826,-0.02948090,
 -0.00010211,0.00036973,-0.00040426,0.00083646,-0.00047389,0.00314032,-
 0.00003549,0.00020105,-0.00313034,-0.00914926,0.01466115,0.02282198,-0
 .06135288,0.03363801,0.00209728,0.00790814,-0.02159243,-0.00128822,-0.
 00526178,0.00299097,0.00020591,-0.00434602,-0.00376791,-0.00020084,0.0
 0677771,0.02289851,0.00131290,0.00063633,-0.00119987,-0.00008288,0.000
 83681,0.00094557,0.00005153,0.05263080,0.03023809,-0.34877437,-0.01866
 974,0.00668041,-0.00867188,-0.00054358,0.00177263,-0.00084489,-0.00029
 818,-0.00219484,-0.00168789,-0.00037705,-0.00348559,-0.00446585,-0.000
 31275,0.00025665,0.00013924,0.00015711,-0.00024797,-0.00006639,-0.0000
 4727,-0.03387498,0.36407426,0.00194991,-0.01869059,-0.02994674,0.00034
 563,-0.00045747,0.00023804,0.00009829,-0.00032647,0.00414980,-0.000057
 01,-0.00035099,0.00465895,-0.00025138,-0.00036045,0.00106901,0.0000003
 3,0.00015982,-0.00257475,-0.00001469,-0.00005195,0.00079954,-0.0021221
 4,0.01997621,0.02317854,-0.05676224,-0.00061332,0.00034733,-0.29140597
 ,0.05610259,0.00521185,0.01772591,0.00857982,0.00046832,-0.03626441,0.
 01860592,0.00121747,0.00499361,-0.02030237,-0.00118625,-0.00006221,0.0
 0035733,0.00001475,-0.00052403,0.00037117,0.00002641,0.00085173,0.0007
 6952,0.00005709,1.39572668,-0.00834642,0.01489297,0.00099264,0.0450268
 7,-0.09642316,-0.00346196,-0.00501385,-0.01113692,-0.00073750,0.040934
 95,-0.00258893,0.00010955,-0.00699510,0.00197364,-0.00009172,-0.000775
 44,0.00104197,-0.00004443,0.00154995,0.00054048,-0.00014865,0.00006391
 ,-0.00031426,0.00018622,-0.41012205,0.24393554,-0.00019786,0.00090805,
 -0.00055108,0.00476179,-0.00360773,-0.04309460,-0.00033408,-0.00077390
 ,0.00183529,0.00246580,0.00035837,-0.00983584,-0.00041669,-0.00004284,
 0.00404569,-0.00003949,-0.00003478,0.00169025,0.00009824,-0.00014985,0
 .00315556,0.00001642,0.00017202,-0.00339794,-0.03558300,0.01227700,0.0
 9182306,0.01764496,0.00620140,0.00028548,-0.03796544,0.01120395,0.0010
 8281,-0.01019459,-0.00261002,-0.00013112,0.00884871,-0.00796711,-0.000
 45573,-0.00449730,0.00951040,0.00057628,-0.00039135,0.00017195,0.00001
 356,-0.00013944,-0.00038713,-0.00002390,0.00002697,-0.00053454,-0.0000
 3643,-1.03321465,0.34057383,0.02881912,1.06030370,-0.00444591,-0.00409
 335,-0.00033198,0.01375950,0.01819726,0.00004522,0.00327419,0.00252979
 ,0.00016086,-0.00538433,0.00082278,-0.00013680,0.00234846,-0.00242207,
 -0.00011711,0.00020662,-0.00025675,0.00000956,-0.00019286,0.00000846,0
 .00004505,0.00009964,0.00031037,-0.00000546,0.34328231,-0.15327264,-0.
 00943956,-0.35488113,0.14358857,-0.00036362,-0.00038999,0.00173974,0.0
 0118002,0.00007122,0.01520225,0.00025271,0.00017331,-0.00033545,-0.000
 32507,-0.00011373,0.00393797,0.00016850,-0.00015899,-0.00065910,0.0000
 1473,0.00000635,-0.00040873,-0.00001112,0.00004912,-0.00078336,0.00000
 717,-0.00000170,0.00042838,0.02893497,-0.00953494,-0.04411429,-0.02965
 226,0.01029689,0.02477738,0.00675579,0.01211089,0.00064980,0.01739445,
 -0.00553696,-0.00031106,-0.02547287,-0.02661473,-0.00156824,-0.0820941
 0,0.01758136,0.00111151,-0.00530691,0.01139408,0.00068374,0.00059588,0
 .00017124,0.00001056,-0.00117357,0.00017105,0.00004773,0.00123707,0.00
 128617,0.00005919,0.00639014,0.00779858,0.00029821,-0.00424431,-0.0032
 4652,-0.00024351,0.84362749,0.01659856,0.00871792,0.00037393,0.0019696
 3,-0.03949819,-0.00177601,-0.04169133,-0.00073156,0.00037837,0.0244995
 4,-0.06128634,-0.00037255,0.00571814,0.02078767,0.00099857,0.00105621,
 0.00248633,-0.00000381,0.00361651,-0.00156976,0.00001845,0.00078392,0.
 00142994,-0.00007534,0.00560794,-0.00159292,-0.00005095,-0.00510715,0.
 00065868,0.00004730,-0.25976627,0.52393280,0.00096350,0.00050891,0.000
 97098,0.00012154,-0.00182497,-0.00788922,-0.00241578,0.00054985,-0.005
 59790,0.00152001,-0.00074964,-0.05279684,0.00041416,0.00106809,0.00248
 286,0.00007214,0.00004368,0.00213267,0.00016298,0.00003959,-0.00214895
 ,0.00006136,-0.00004951,0.00252867,0.00038086,0.00004473,-0.00116524,-
 0.00033787,-0.00004457,0.00026251,-0.00616785,0.01298295,0.22656002,-0
 .00614943,-0.00383926,-0.00020037,-0.00210227,0.00994923,0.00055283,0.
 01268459,-0.00565119,-0.00048485,-0.07496001,-0.03686261,-0.00306417,-
 0.00228187,-0.00761991,-0.00039492,-0.00028259,-0.00121730,-0.00004234
 ,0.00092813,0.00048918,-0.00001310,-0.00019637,-0.00054790,-0.00002282
 ,-0.00561186,-0.00211263,0.00020937,0.00310264,0.00354257,-0.00009439,
 -0.51485315,0.04384152,-0.00379818,0.67138941,-0.00147866,0.00030800,-
 0.00004153,-0.00156818,0.00302450,0.00011282,0.00424948,-0.00439184,-0
 .00058353,-0.05139061,-0.00770443,-0.00189341,-0.00370659,-0.00232895,
 -0.00008143,-0.00031227,-0.00064600,0.00003498,-0.00078174,0.00026980,
 0.00001739,-0.00006728,-0.00019072,0.00001018,-0.00020197,0.00137577,0
 .00031047,0.00161608,-0.00474374,-0.00033729,0.03992394,-0.09383619,-0
 .00016732,-0.05838348,0.11379796,-0.00010657,-0.00003301,0.00047479,-0
 .00007607,0.00025365,0.00031899,0.00032838,-0.00063009,0.00351278,-0.0
 0407326,-0.00174243,0.01725261,-0.00028908,-0.00014585,-0.00033406,-0.
 00002870,-0.00001148,-0.00080490,-0.00003087,0.00000604,0.00016332,-0.
 00000539,-0.00000200,-0.00031173,0.00027317,0.00037033,-0.00052610,-0.
 00027153,-0.00045321,0.00009479,-0.00368890,-0.00017766,-0.08210700,0.
 00568760,0.00355054,0.03218490,0.00110501,-0.00118783,-0.00006881,0.00
 194377,-0.00308875,-0.00016897,-0.00594150,-0.00276262,-0.00024004,0.0
 1351465,0.00208929,0.00012041,0.00230427,0.00126520,0.00005415,0.00002
 694,0.00014753,0.00001175,0.00219670,-0.00190869,-0.00026844,0.0002514
 9,-0.00011765,-0.00000597,-0.00184270,-0.00258260,-0.00009784,0.000720
 11,0.00163746,0.00013188,-0.24285593,0.20287278,0.00902314,-0.08166724
 ,0.07210128,0.00228123,0.31024442,-0.00318242,-0.00713942,-0.00040949,
 -0.01182626,0.00555293,0.00014090,0.01202794,0.00169168,-0.00007597,0.
 01064293,-0.09441572,-0.00601175,0.00023727,-0.00633785,-0.00038063,-0
 .00046252,-0.00051644,-0.00001808,-0.00096500,-0.00126160,0.00012332,-
 0.00091806,-0.00093755,-0.00001372,-0.00243690,0.00156847,0.00007370,0
 .00220947,-0.00132736,-0.00010755,0.20472717,-0.35949838,-0.01240180,0
 .05841177,-0.00493417,-0.00098482,-0.26846541,0.46755541,-0.00020620,-
 0.00038627,-0.00022815,-0.00060826,0.00009239,0.00389924,0.00065447,-0
 .00006854,0.00093842,0.00050483,-0.00606812,0.01634962,0.00001329,-0.0
 0038009,0.00022256,-0.00002516,-0.00001942,-0.00020341,-0.00026018,0.0
 0003298,-0.00036748,-0.00005309,-0.00000357,-0.00081977,-0.00016296,0.
 00003873,0.00013525,0.00013160,-0.00002889,-0.00014208,0.00911880,-0.0
 1234323,-0.08323255,0.00166534,-0.00093187,0.03008161,-0.01077250,0.02
 006590,0.03336675\\-0.00000330,-0.00000393,0.00002674,-0.00000104,-0.0
 0000217,0.00001407,0.00000163,-0.00000125,-0.00000460,-0.00000927,-0.0
 0000570,-0.00000759,-0.00000155,-0.00000300,0.00001555,-0.00000200,-0.
 00000151,0.00000819,0.,0.00000021,-0.00000673,-0.00000280,-0.00000410,
 0.00001699,0.00000959,-0.00000657,0.00001643,-0.00001068,0.00000636,0.
 00002722,0.00001017,0.00000828,-0.00002882,-0.00000385,0.00000516,-0.0
 0002629,0.00001310,0.00000823,-0.00005117\\\@
 The archive entry for this job was punched.


 IF THERE IS ONE WAY BETTER THAN ANOTHER IT IS THE WAY OF NATURE.

                          -- ARISTOTLE
 Job cpu time:       0 days  0 hours 29 minutes 56.4 seconds.
 Elapsed time:       0 days  0 hours 16 minutes 36.2 seconds.
 File lengths (MBytes):  RWF=    126 Int=      0 D2E=      0 Chk=     18 Scr=      1
 Normal termination of Gaussian 16 at Fri Jun  2 12:13:57 2023.
