 Entering Gaussian System, Link 0=g16
 Input=MEA-CO2_binding-site_index-0-freq.gjf
 Output=MEA-CO2_binding-site_index-0-freq.log
 Initial command:
 /software/commercial/gaussian/g16/AVX/g16/l1.exe "/scratch1/svicchi/G09-659877.pbs02/Gau-2274091.inp" -scrdir="/scratch1/svicchi/G09-659877.pbs02/"
 Entering Link 1 = /software/commercial/gaussian/g16/AVX/g16/l1.exe PID=   2274092.
  
 Copyright (c) 1988-2019, Gaussian, Inc.  All Rights Reserved.
  
 This is part of the Gaussian(R) 16 program.  It is based on
 the Gaussian(R) 09 system (copyright 2009, Gaussian, Inc.),
 the Gaussian(R) 03 system (copyright 2003, Gaussian, Inc.),
 the Gaussian(R) 98 system (copyright 1998, Gaussian, Inc.),
 the Gaussian(R) 94 system (copyright 1995, Gaussian, Inc.),
 the Gaussian 92(TM) system (copyright 1992, Gaussian, Inc.),
 the Gaussian 90(TM) system (copyright 1990, Gaussian, Inc.),
 the Gaussian 88(TM) system (copyright 1988, Gaussian, Inc.),
 the Gaussian 86(TM) system (copyright 1986, Carnegie Mellon
 University), and the Gaussian 82(TM) system (copyright 1983,
 Carnegie Mellon University). Gaussian is a federally registered
 trademark of Gaussian, Inc.
  
 This software contains proprietary and confidential information,
 including trade secrets, belonging to Gaussian, Inc.
  
 This software is provided under written license and may be
 used, copied, transmitted, or stored only in accord with that
 written license.
  
 The following legend is applicable only to US Government
 contracts under FAR:
  
                    RESTRICTED RIGHTS LEGEND
  
 Use, reproduction and disclosure by the US Government is
 subject to restrictions as set forth in subparagraphs (a)
 and (c) of the Commercial Computer Software - Restricted
 Rights clause in FAR 52.227-19.
  
 Gaussian, Inc.
 340 Quinnipiac St., Bldg. 40, Wallingford CT 06492
  
  
 ---------------------------------------------------------------
 Warning -- This program may not be used in any manner that
 competes with the business of Gaussian, Inc. or will provide
 assistance to any competitor of Gaussian, Inc.  The licensee
 of this program is prohibited from giving any competitor of
 Gaussian, Inc. access to this program.  By using this program,
 the user acknowledges that Gaussian, Inc. is engaged in the
 business of creating and licensing software in the field of
 computational chemistry and represents and warrants to the
 licensee that it is not a competitor of Gaussian, Inc. and that
 it will not use this program in any manner prohibited above.
 ---------------------------------------------------------------
  

 Cite this work as:
 Gaussian 16, Revision C.01,
 M. J. Frisch, G. W. Trucks, H. B. Schlegel, G. E. Scuseria, 
 M. A. Robb, J. R. Cheeseman, G. Scalmani, V. Barone, 
 G. A. Petersson, H. Nakatsuji, X. Li, M. Caricato, A. V. Marenich, 
 J. Bloino, B. G. Janesko, R. Gomperts, B. Mennucci, H. P. Hratchian, 
 J. V. Ortiz, A. F. Izmaylov, J. L. Sonnenberg, D. Williams-Young, 
 F. Ding, F. Lipparini, F. Egidi, J. Goings, B. Peng, A. Petrone, 
 T. Henderson, D. Ranasinghe, V. G. Zakrzewski, J. Gao, N. Rega, 
 G. Zheng, W. Liang, M. Hada, M. Ehara, K. Toyota, R. Fukuda, 
 J. Hasegawa, M. Ishida, T. Nakajima, Y. Honda, O. Kitao, H. Nakai, 
 T. Vreven, K. Throssell, J. A. Montgomery, Jr., J. E. Peralta, 
 F. Ogliaro, M. J. Bearpark, J. J. Heyd, E. N. Brothers, K. N. Kudin, 
 V. N. Staroverov, T. A. Keith, R. Kobayashi, J. Normand, 
 K. Raghavachari, A. P. Rendell, J. C. Burant, S. S. Iyengar, 
 J. Tomasi, M. Cossi, J. M. Millam, M. Klene, C. Adamo, R. Cammi, 
 J. W. Ochterski, R. L. Martin, K. Morokuma, O. Farkas, 
 J. B. Foresman, and D. J. Fox, Gaussian, Inc., Wallingford CT, 2019.
 
 ******************************************
 Gaussian 16:  ES64L-G16RevC.01  3-Jul-2019
                 2-Jun-2023 
 ******************************************
 %NProcShared=2
 Will use up to    2 processors via shared memory.
 %mem=55gb
 %chk=/scratch1/svicchi/G09-659877.pbs02/02-freq/MEA-CO2_binding-site_index-0-fre
 q.chk
 ----------------------------------------------------------------------
 #p freq=raman scale=0.967 pop=(nbo,full,hirshfeld) guess=read geom=all
 check b3lyp/6-311+G(d,p) int=grid=ultrafine EmpiricalDispersion=GD3BJ 
 SCRF=(Solvent=ethanol) scf=(xqc,intrep,maxconventionalcycle=350) nosym
 m
 ----------------------------------------------------------------------
 1/10=4,29=7,30=1,38=1,114=967000/1,3;
 2/12=2,15=1,40=1/2;
 3/5=4,6=6,7=111,11=2,14=-4,25=1,30=1,70=2201,71=2,72=4,74=-5,75=-5,116=-2,124=41,140=1/1,2,3;
 4/5=1/1;
 5/5=2,8=3,13=1,17=20,38=6,53=4,85=350,98=1/2,8;
 8/6=4,10=90,11=11/1;
 10/13=10,15=4,31=1/2;
 11/6=3,8=1,9=11,15=111,16=1,31=1/1,2,10;
 10/6=1,31=1/2;
 6/7=3,28=1,40=1,79=1/1,7;
 7/8=1,10=1,25=1,30=1/1,2,3,16;
 1/10=4,30=1/3;
 99//99;
 Leave Link    1 at Fri Jun  2 11:35:31 2023, MaxMem=  7381975040 cpu:               1.2 elap:               1.3
 (Enter /software/commercial/gaussian/g16/AVX/g16/l101.exe)
 Structure from the checkpoint file:  "/scratch1/svicchi/G09-659877.pbs02/02-freq/MEA-CO2_binding-site_index-0-freq.chk"
 --------------------------------
 MEA-CO2_binding-site_index-0.gjf
 --------------------------------
 Charge = -1 Multiplicity = 1
 No Z-Matrix found in chk file; cartesian coordinates used.
  O                                                 2.407496296622     -1.155755922538     -0.358825119295
  C                                                 3.259000720487     -0.066901910804      0.003899950007
  C                                                 4.715337412660     -0.337662875559     -0.361083339873
  H                                                 3.174621149754      0.145980534675      1.070614816908
  H                                                 2.889137808640      0.794904387608     -0.560184201890
  N                                                 5.528303931485      0.857642729833     -0.088185053752
  H                                                 4.759843534542     -0.664985262002     -1.409823986829
  H                                                 5.087152275879     -1.156818593097      0.257438708714
  H                                                 5.321194471571      1.584854072198     -0.767172772672
  H                                                 6.514391417834      0.642571417424     -0.193688336727
  C                                                 2.304978783317     -2.246649372451      0.542972139595
  O                                                 1.578088987987     -3.160101924893      0.104560052778
  O                                                 2.922342209219     -2.160534280395      1.621922143038
 Recover connectivity data from disk.
 ITRead=  0  0  0  0  0  0  0  0  0  0  0  0  0
 MicOpt= -1 -1 -1 -1 -1 -1 -1 -1 -1 -1 -1 -1 -1
 NAtoms=     13 NQM=       13 NQMF=       0 NMMI=      0 NMMIF=      0
                NMic=       0 NMicF=      0.
                    Isotopes and Nuclear Properties:
 (Nuclear quadrupole moments (NQMom) in fm**2, nuclear magnetic moments (NMagM)
  in nuclear magnetons)

  Atom         1           2           3           4           5           6           7           8           9          10
 IAtWgt=          16          12          12           1           1          14           1           1           1           1
 AtmWgt=  15.9949146  12.0000000  12.0000000   1.0078250   1.0078250  14.0030740   1.0078250   1.0078250   1.0078250   1.0078250
 NucSpn=           0           0           0           1           1           2           1           1           1           1
 AtZEff=   5.6000000   3.6000000   3.6000000   1.0000000   1.0000000   4.5500000   1.0000000   1.0000000   1.0000000   1.0000000
 NQMom=    0.0000000   0.0000000   0.0000000   0.0000000   0.0000000   2.0440000   0.0000000   0.0000000   0.0000000   0.0000000
 NMagM=    0.0000000   0.0000000   0.0000000   2.7928460   2.7928460   0.4037610   2.7928460   2.7928460   2.7928460   2.7928460
 AtZNuc=   8.0000000   6.0000000   6.0000000   1.0000000   1.0000000   7.0000000   1.0000000   1.0000000   1.0000000   1.0000000

  Atom        11          12          13
 IAtWgt=          12          16          16
 AtmWgt=  12.0000000  15.9949146  15.9949146
 NucSpn=           0           0           0
 AtZEff=   3.6000000   5.6000000   5.6000000
 NQMom=    0.0000000   0.0000000   0.0000000
 NMagM=    0.0000000   0.0000000   0.0000000
 AtZNuc=   6.0000000   8.0000000   8.0000000
 Leave Link  101 at Fri Jun  2 11:35:33 2023, MaxMem=  7381975040 cpu:               0.3 elap:               0.7
 (Enter /software/commercial/gaussian/g16/AVX/g16/l103.exe)

 GradGradGradGradGradGradGradGradGradGradGradGradGradGradGradGradGradGrad
 Berny optimization.
 Initialization pass.
 Trust Radius=3.00D-01 FncErr=1.00D-07 GrdErr=1.00D-07 EigMax=2.50D+02 EigMin=1.00D-04
 Number of steps in this run=      2 maximum allowed number of steps=      2.
 GradGradGradGradGradGradGradGradGradGradGradGradGradGradGradGradGradGrad

 Leave Link  103 at Fri Jun  2 11:35:35 2023, MaxMem=  7381975040 cpu:               0.3 elap:               1.0
 (Enter /software/commercial/gaussian/g16/AVX/g16/l202.exe)
                          Input orientation:                          
 ---------------------------------------------------------------------
 Center     Atomic      Atomic             Coordinates (Angstroms)
 Number     Number       Type             X           Y           Z
 ---------------------------------------------------------------------
      1          8           0        2.407496   -1.155756   -0.358825
      2          6           0        3.259001   -0.066902    0.003900
      3          6           0        4.715337   -0.337663   -0.361083
      4          1           0        3.174621    0.145981    1.070615
      5          1           0        2.889138    0.794904   -0.560184
      6          7           0        5.528304    0.857643   -0.088185
      7          1           0        4.759844   -0.664985   -1.409824
      8          1           0        5.087152   -1.156819    0.257439
      9          1           0        5.321194    1.584854   -0.767173
     10          1           0        6.514391    0.642571   -0.193688
     11          6           0        2.304979   -2.246649    0.542972
     12          8           0        1.578089   -3.160102    0.104560
     13          8           0        2.922342   -2.160534    1.621922
 ---------------------------------------------------------------------
                    Distance matrix (angstroms):
                    1          2          3          4          5
     1  O    0.000000
     2  C    1.429067   0.000000
     3  C    2.448553   1.525595   0.000000
     4  H    2.079975   1.091018   2.158119   0.000000
     5  H    2.019307   1.094395   2.158091   1.778232   0.000000
     6  N    3.723770   2.452142   1.471103   2.718290   2.681775
     7  H    2.622783   2.146823   1.099535   3.053387   2.520457
     8  H    2.749607   2.143441   1.091711   2.452818   3.051065
     9  H    4.020862   2.752362   2.056221   3.171056   2.565495
    10  H    4.486406   3.337658   2.055596   3.605431   3.646915
    11  C    1.419083   2.439684   3.204899   2.599877   3.287742
    12  O    2.218117   3.521858   4.245623   3.796361   4.219337
    13  O    2.279914   2.667327   3.235738   2.384868   3.673868
                    6          7          8          9         10
     6  N    0.000000
     7  H    2.157697   0.000000
     8  H    2.090963   1.768840   0.000000
     9  H    1.016246   2.406220   2.936218   0.000000
    10  H    1.014769   2.503423   2.340584   1.624962   0.000000
    11  C    4.519382   3.513038   3.001625   5.049203   5.158432
    12  O    5.637696   4.317699   4.043518   6.106174   6.238298
    13  O    4.338767   3.847670   2.748757   5.048782   4.904759
                   11         12         13
    11  C    0.000000
    12  O    1.246984   0.000000
    13  O    1.246068   2.260208   0.000000
 Symmetry turned off by external request.
 Stoichiometry    C3H6NO3(1-)
 Framework group  C1[X(C3H6NO3)]
 Deg. of freedom    33
 Full point group                 C1      NOp   1
 Rotational constants (GHZ):           7.3545344           1.3361969           1.2385841
 Leave Link  202 at Fri Jun  2 11:35:37 2023, MaxMem=  7381975040 cpu:               0.1 elap:               0.7
 (Enter /software/commercial/gaussian/g16/AVX/g16/l301.exe)
 Standard basis: 6-311+G(d,p) (5D, 7F)
 Ernie: Thresh=  0.10000D-02 Tol=  0.10000D-05 Strict=F.
   190 basis functions,   300 primitive gaussians,   197 cartesian basis functions
    28 alpha electrons       28 beta electrons
       nuclear repulsion energy       304.7410796646 Hartrees.
 IExCor=  402 DFT=T Ex+Corr=B3LYP ExCW=0 ScaHFX=  0.200000
 ScaDFX=  0.800000  0.720000  1.000000  0.810000 ScalE2=  1.000000  1.000000
 IRadAn=      5 IRanWt=     -1 IRanGd=            0 ICorTp=0 IEmpDi=141
 NAtoms=   13 NActive=   13 NUniq=   13 SFac= 1.00D+00 NAtFMM=   60 NAOKFM=F Big=F
 Integral buffers will be    131072 words long.
 Raffenetti 2 integral format.
 Two-electron integral symmetry is turned off.
 R6Disp:  Grimme-D3(BJ) Dispersion energy=       -0.0156535924 Hartrees.
 Nuclear repulsion after empirical dispersion term =      304.7254260722 Hartrees.
 Force inversion solution in PCM.
 ------------------------------------------------------------------------------
 Polarizable Continuum Model (PCM)
 =================================
 Model                : PCM.
 Atomic radii         : UFF (Universal Force Field).
 Polarization charges : Total charges.
 Charge compensation  : None.
 Solution method      : Matrix inversion.
 Cavity type          : Scaled VdW (van der Waals Surface) (Alpha=1.100).
 Cavity algorithm     : GePol (No added spheres)
                        Default sphere list used, NSphG=   13.
                        Lebedev-Laikov grids with approx.  5.0 points / Ang**2.
                        Smoothing algorithm: York/Karplus (Gamma=1.0000).
                        Polarization charges: spherical gaussians, with
                                              point-specific exponents (IZeta= 3).
                        Self-potential: point-specific (ISelfS= 7).
                        Self-field    : sphere-specific E.n sum rule (ISelfD= 2).
 1st derivatives      : Analytical E(r).r(x)/FMM algorithm (CHGder, D1EAlg=3).
                        Cavity 1st derivative terms included.
 2nd derivatives      : Analytical E(r).r(xy)/FMM algorithm (CHGder, D2EAlg=3).
                        Cavity 2nd derivative terms included.
 Solvent              : Ethanol, Eps=  24.852000 Eps(inf)=   1.852593
 ------------------------------------------------------------------------------
 Spheres list:
 ISph  on   Nord     Re0    Alpha      Xe            Ye            Ze
    1   O      1    1.7500  1.100      2.407496     -1.155756     -0.358825
    2   C      2    1.9255  1.100      3.259001     -0.066902      0.003900
    3   C      3    1.9255  1.100      4.715337     -0.337663     -0.361083
    4   H      4    1.4430  1.100      3.174621      0.145981      1.070615
    5   H      5    1.4430  1.100      2.889138      0.794904     -0.560184
    6   N      6    1.8300  1.100      5.528304      0.857643     -0.088185
    7   H      7    1.4430  1.100      4.759844     -0.664985     -1.409824
    8   H      8    1.4430  1.100      5.087152     -1.156819      0.257439
    9   H      9    1.4430  1.100      5.321194      1.584854     -0.767173
   10   H     10    1.4430  1.100      6.514391      0.642571     -0.193688
   11   C     11    1.9255  1.100      2.304979     -2.246649      0.542972
   12   O     12    1.7500  1.100      1.578089     -3.160102      0.104560
   13   O     13    1.7500  1.100      2.922342     -2.160534      1.621922
 ------------------------------------------------------------------------------
 GePol: Number of generator spheres                  =      13
 GePol: Total number of spheres                      =      13
 GePol: Number of exposed spheres                    =      13 (100.00%)
 GePol: Number of points                             =    1200
 GePol: Average weight of points                     =       0.13
 GePol: Minimum weight of points                     =   0.29D-09
 GePol: Maximum weight of points                     =    0.20577
 GePol: Number of points with low weight             =      62
 GePol: Fraction of low-weight points (<1% of avg)   =       5.17%
 GePol: Cavity surface area                          =    161.532 Ang**2
 GePol: Cavity volume                                =    149.102 Ang**3
 Leave Link  301 at Fri Jun  2 11:35:39 2023, MaxMem=  7381975040 cpu:               0.6 elap:               1.0
 (Enter /software/commercial/gaussian/g16/AVX/g16/l302.exe)
 NPDir=0 NMtPBC=     1 NCelOv=     1 NCel=       1 NClECP=     1 NCelD=      1
         NCelK=      1 NCelE2=     1 NClLst=     1 CellRange=     0.0.
 One-electron integrals computed using PRISM.
 NBasis=   190 RedAO= T EigKep=  6.20D-05  NBF=   190
 NBsUse=   190 1.00D-06 EigRej= -1.00D+00 NBFU=   190
 Precomputing XC quadrature grid using
 IXCGrd= 4 IRadAn=           5 IRanWt=          -1 IRanGd=           0 AccXCQ= 0.00D+00.
 Generated NRdTot=       0 NPtTot=           0 NUsed=           0 NTot=          32
 NSgBfM=   197   197   197   197   197 MxSgAt=    13 MxSgA2=    13.
 Leave Link  302 at Fri Jun  2 11:35:42 2023, MaxMem=  7381975040 cpu:               0.7 elap:               1.4
 (Enter /software/commercial/gaussian/g16/AVX/g16/l303.exe)
 DipDrv:  MaxL=1.
 Leave Link  303 at Fri Jun  2 11:35:43 2023, MaxMem=  7381975040 cpu:               0.2 elap:               0.3
 (Enter /software/commercial/gaussian/g16/AVX/g16/l401.exe)
 Initial guess from the checkpoint file:  "/scratch1/svicchi/G09-659877.pbs02/02-freq/MEA-CO2_binding-site_index-0-freq.chk"
 B after Tr=     0.000000    0.000000    0.000000
         Rot=    1.000000    0.000000    0.000000    0.000000 Ang=   0.00 deg.
 Guess basis will be translated and rotated to current coordinates.
 JPrj=2 DoOrth=T DoCkMO=T.
 Leave Link  401 at Fri Jun  2 11:35:45 2023, MaxMem=  7381975040 cpu:               0.8 elap:               1.0
 (Enter /software/commercial/gaussian/g16/AVX/g16/l502.exe)
 Keep R1 ints in memory in canonical form, NReq=168511657.
 FoFCou: FMM=F IPFlag=           0 FMFlag=           0 FMFlg1=           0
         NFxFlg=           0 DoJE=F BraDBF=F KetDBF=F FulRan=T
         wScrn=  0.000000 ICntrl=       600 IOpCl=  0 I1Cent=           0 NGrid=           0
         NMat0=    1 NMatS0=  18145 NMatT0=    0 NMatD0=    1 NMtDS0=    0 NMtDT0=    0
 Symmetry not used in FoFCou.
 Two-electron integral symmetry not used.
 Closed shell SCF:
 Using DIIS extrapolation, IDIIS=  1040.
 NGot=  7381975040 LenX=  7217264802 LenY=  7217225552
 Requested convergence on RMS density matrix=1.00D-08 within 350 cycles.
 Requested convergence on MAX density matrix=1.00D-06.
 Requested convergence on             energy=1.00D-06.
 No special actions if energy rises.

 Cycle   1  Pass 1  IDiag  1:
 Inv3:  Mode=1 IEnd=     4320000.
 Iteration    1 A*A^-1 deviation from unit magnitude is 2.89D-15 for   1165.
 Iteration    1 A*A^-1 deviation from orthogonality  is 1.49D-15 for   1146    908.
 Iteration    1 A^-1*A deviation from unit magnitude is 2.89D-15 for   1165.
 Iteration    1 A^-1*A deviation from orthogonality  is 1.46D-14 for    943    885.
 E= -398.667470152708    
 DIIS: error= 4.90D-08 at cycle   1 NSaved=   1.
 NSaved= 1 IEnMin= 1 EnMin= -398.667470152708     IErMin= 1 ErrMin= 4.90D-08
 ErrMax= 4.90D-08  0.00D+00 EMaxC= 1.00D-01 BMatC= 1.78D-13 BMatP= 1.78D-13
 IDIUse=1 WtCom= 1.00D+00 WtEn= 0.00D+00
 Coeff-Com:  0.100D+01
 Coeff:      0.100D+01
 Gap=     0.238 Goal=   None    Shift=    0.000
 RMSDP=4.36D-09 MaxDP=9.88D-08              OVMax= 3.18D-07

 Error on total polarization charges =  0.01835
 SCF Done:  E(RB3LYP) =  -398.667470153     A.U. after    1 cycles
            NFock=  1  Conv=0.44D-08     -V/T= 2.0038
 KE= 3.971662210769D+02 PE=-1.556713635057D+03 EE= 4.561545177548D+02
 Leave Link  502 at Fri Jun  2 11:36:00 2023, MaxMem=  7381975040 cpu:              23.0 elap:              13.8
 (Enter /software/commercial/gaussian/g16/AVX/g16/l508.exe)
 QCSCF skips out because SCF is already converged.
 Leave Link  508 at Fri Jun  2 11:36:02 2023, MaxMem=  7381975040 cpu:               0.0 elap:               0.3
 (Enter /software/commercial/gaussian/g16/AVX/g16/l801.exe)
 DoSCS=F DFT=T ScalE2(SS,OS)=  1.000000  1.000000
 Range of M.O.s used for correlation:     1   190
 NBasis=   190 NAE=    28 NBE=    28 NFC=     0 NFV=     0
 NROrb=    190 NOA=    28 NOB=    28 NVA=   162 NVB=   162

 **** Warning!!: The largest alpha MO coefficient is  0.35603114D+02

 Leave Link  801 at Fri Jun  2 11:36:03 2023, MaxMem=  7381975040 cpu:               0.2 elap:               0.8
 (Enter /software/commercial/gaussian/g16/AVX/g16/l1002.exe)
 Minotr:  Closed shell wavefunction.
 NEqPCM:  Using equilibrium solvation (IEInf=0, Eps=  24.8520, EpsInf=   1.8526)
          Direct CPHF calculation.
          Differentiating once with respect to electric field.
                with respect to dipole field.
          Electric field/nuclear overlap derivatives assumed to be zero.
          Requested convergence is 1.0D-08 RMS, and 1.0D-07 maximum.
          Secondary convergence is 1.0D-12 RMS, and 1.0D-12 maximum.
          NewPWx=F KeepS1=T KeepF1=T KeepIn=T MapXYZ=F SortEE=F KeepMc=T.
         4001 words used for storage of precomputed grid.
 Keep R1 ints in memory in canonical form, NReq=169363907.
 FoFCou: FMM=F IPFlag=           0 FMFlag=           0 FMFlg1=           0
         NFxFlg=           0 DoJE=F BraDBF=F KetDBF=F FulRan=T
         wScrn=  0.000000 ICntrl=       600 IOpCl=  0 I1Cent=           0 NGrid=           0
         NMat0=    1 NMatS0=  18145 NMatT0=    0 NMatD0=    1 NMtDS0=    0 NMtDT0=    0
 Symmetry not used in FoFCou.
 Two-electron integral symmetry not used.
          MDV=    7381975040 using IRadAn=       1.
          Solving linear equations simultaneously, MaxMat=       0.
          There are     3 degrees of freedom in the 1st order CPHF.  IDoFFX=0 NUNeed=     3.
      3 vectors produced by pass  0 Test12= 1.51D-13 3.33D-08 XBig12= 4.13D+01 1.30D+00.
 AX will form     3 AO Fock derivatives at one time.
      3 vectors produced by pass  1 Test12= 1.51D-13 3.33D-08 XBig12= 8.57D+00 7.05D-01.
      3 vectors produced by pass  2 Test12= 1.51D-13 3.33D-08 XBig12= 1.74D+00 2.92D-01.
      3 vectors produced by pass  3 Test12= 1.51D-13 3.33D-08 XBig12= 3.12D-01 7.21D-02.
      3 vectors produced by pass  4 Test12= 1.51D-13 3.33D-08 XBig12= 7.18D-02 4.80D-02.
      3 vectors produced by pass  5 Test12= 1.51D-13 3.33D-08 XBig12= 8.75D-03 1.29D-02.
      3 vectors produced by pass  6 Test12= 1.51D-13 3.33D-08 XBig12= 6.77D-04 4.06D-03.
      3 vectors produced by pass  7 Test12= 1.51D-13 3.33D-08 XBig12= 1.48D-05 5.50D-04.
      3 vectors produced by pass  8 Test12= 1.51D-13 3.33D-08 XBig12= 3.86D-07 1.02D-04.
      3 vectors produced by pass  9 Test12= 1.51D-13 3.33D-08 XBig12= 1.16D-08 1.34D-05.
      3 vectors produced by pass 10 Test12= 1.51D-13 3.33D-08 XBig12= 4.63D-10 4.69D-06.
      3 vectors produced by pass 11 Test12= 1.51D-13 3.33D-08 XBig12= 1.12D-11 1.02D-06.
      2 vectors produced by pass 12 Test12= 1.51D-13 3.33D-08 XBig12= 2.41D-13 7.72D-08.
 InvSVY:  IOpt=1 It=  1 EMax= 1.58D-15
 Solved reduced A of dimension    38 with     3 vectors.
 End of Minotr F.D. properties file   721 does not exist.
 End of Minotr F.D. properties file   722 does not exist.
 End of Minotr F.D. properties file   788 does not exist.
 Leave Link 1002 at Fri Jun  2 11:37:12 2023, MaxMem=  7381975040 cpu:             121.1 elap:              67.4
 (Enter /software/commercial/gaussian/g16/AVX/g16/l1101.exe)
 Using compressed storage, NAtomX=    13.
 Will process     14 centers per pass.
 R6Disp: Adding Grimme-D3(BJ) dispersion energy 1st derivatives to the gradient.
 Leave Link 1101 at Fri Jun  2 11:37:14 2023, MaxMem=  7381975040 cpu:               0.7 elap:               0.8
 (Enter /software/commercial/gaussian/g16/AVX/g16/l1102.exe)
 Symmetrizing basis deriv contribution to polar:
 IMax=3 JMax=2 DiffMx= 0.00D+00
 Leave Link 1102 at Fri Jun  2 11:37:16 2023, MaxMem=  7381975040 cpu:               0.3 elap:               0.7
 (Enter /software/commercial/gaussian/g16/AVX/g16/l1110.exe)
 Forming Gx(P) for the SCF density, NAtomX=    13.
 Integral derivatives from FoFJK, PRISM(SPDF).
 Do as many integral derivatives as possible in FoFJK.
 G2DrvN: MDV=    7381973565.
 G2DrvN: will do    14 centers at a time, making    1 passes.
 PxScal for G2LodP:  IOpCl= 0 ISclPx=1 IMOff=     1 NMtTot=     4 NTT=   18145 ScalPx= 6.66D+00
 Calling FoFCou, ICntrl=  3107 FMM=F I1Cent=   0 AccDes= 0.00D+00.
 FoFJK:  IHMeth= 1 ICntrl=    3107 DoSepK=F KAlg= 0 I1Cent=           0 FoldK=F
 IRaf=         0 NMat=       1 IRICut=       1 DoRegI=T DoRafI=F ISym2E= 0 IDoP0=0 IntGTp=1.
 FoFCou: FMM=F IPFlag=           0 FMFlag=      100000 FMFlg1=           0
         NFxFlg=           0 DoJE=F BraDBF=F KetDBF=F FulRan=T
         wScrn=  0.000000 ICntrl=      3107 IOpCl=  0 I1Cent=           0 NGrid=           0
         NMat0=    1 NMatS0=      1 NMatT0=    0 NMatD0=    4 NMtDS0=    3 NMtDT0=    0
 Symmetry not used in FoFCou.
 PxScal for G2LodP:  IOpCl= 0 ISclPx=0 IMOff=     1 NMtTot=     4 NTT=   18145 ScalPx= 1.00D+00
 NEqPCM:  Using equilibrium solvation (IEInf=0, Eps=  24.8520, EpsInf=   1.8526)
 G2PCM: DoFxE=T DoFxN=T DoGrad=T DoDP/DQ/DG/TGxP=TFFF NFrqRd=   0 IEInf=0 SqF1=F DoCFld=F IF1Alg=4.
 GePol: Maximum number of non-zero 1st derivatives   =     226
 End of G2Drv F.D. properties file   721 does not exist.
 End of G2Drv F.D. properties file   722 does not exist.
 End of G2Drv F.D. properties file   788 does not exist.
 Leave Link 1110 at Fri Jun  2 11:40:09 2023, MaxMem=  7381975040 cpu:             338.4 elap:             172.7
 (Enter /software/commercial/gaussian/g16/AVX/g16/l1002.exe)
 Minotr:  Closed shell wavefunction.
          IDoAtm=1111111111111
 NEqPCM:  Using equilibrium solvation (IEInf=0, Eps=  24.8520, EpsInf=   1.8526)
          Direct CPHF calculation.
          Differentiating once with respect to electric field.
                with respect to dipole field.
          Differentiating once with respect to nuclear coordinates.
          Requested convergence is 1.0D-08 RMS, and 1.0D-07 maximum.
          Secondary convergence is 1.0D-12 RMS, and 1.0D-12 maximum.
          NewPWx=T KeepS1=F KeepF1=F KeepIn=T MapXYZ=F SortEE=F KeepMc=T.
         4001 words used for storage of precomputed grid.
 Keep R1 ints in memory in canonical form, NReq=169364206.
 FoFCou: FMM=F IPFlag=           0 FMFlag=           0 FMFlg1=           0
         NFxFlg=           0 DoJE=F BraDBF=F KetDBF=F FulRan=T
         wScrn=  0.000000 ICntrl=       600 IOpCl=  0 I1Cent=           0 NGrid=           0
         NMat0=    1 NMatS0=  18145 NMatT0=    0 NMatD0=    1 NMtDS0=    0 NMtDT0=    0
 Symmetry not used in FoFCou.
 Two-electron integral symmetry not used.
          MDV=    7381975040 using IRadAn=       1.
          Solving linear equations simultaneously, MaxMat=       0.
          There are    42 degrees of freedom in the 1st order CPHF.  IDoFFX=5 NUNeed=    42.
 Will reuse    3 saved solutions.
     36 vectors produced by pass  0 Test12= 1.08D-14 2.38D-09 XBig12= 1.61D-01 7.79D-02.
 AX will form    36 AO Fock derivatives at one time.
     36 vectors produced by pass  1 Test12= 1.08D-14 2.38D-09 XBig12= 8.74D-03 2.63D-02.
     36 vectors produced by pass  2 Test12= 1.08D-14 2.38D-09 XBig12= 3.37D-04 1.94D-03.
     36 vectors produced by pass  3 Test12= 1.08D-14 2.38D-09 XBig12= 1.50D-06 1.43D-04.
     36 vectors produced by pass  4 Test12= 1.08D-14 2.38D-09 XBig12= 3.72D-09 9.53D-06.
     31 vectors produced by pass  5 Test12= 1.08D-14 2.38D-09 XBig12= 7.55D-12 3.46D-07.
     11 vectors produced by pass  6 Test12= 1.08D-14 2.38D-09 XBig12= 9.94D-15 1.11D-08.
 InvSVY:  IOpt=1 It=  1 EMax= 1.33D-15
 Solved reduced A of dimension   222 with    36 vectors.
 FullF1:  Do perturbations      1 to       3.
 Isotropic polarizability for W=    0.000000       77.97 Bohr**3.
 FullF1:  Do perturbations      1 to       6.
 End of Minotr F.D. properties file   721 does not exist.
 End of Minotr F.D. properties file   722 does not exist.
 End of Minotr F.D. properties file   788 does not exist.
 Leave Link 1002 at Fri Jun  2 11:43:05 2023, MaxMem=  7381975040 cpu:             320.9 elap:             173.8
 (Enter /software/commercial/gaussian/g16/AVX/g16/l601.exe)
 Copying SCF densities to generalized density rwf, IOpCl= 0 IROHF=0.

 **********************************************************************

            Population analysis using the SCF Density.

 **********************************************************************

 Alpha  occ. eigenvalues --  -19.12049 -19.05782 -19.05456 -14.29471 -10.28413
 Alpha  occ. eigenvalues --  -10.20181 -10.18394  -1.06719  -0.97492  -0.94329
 Alpha  occ. eigenvalues --   -0.88051  -0.71836  -0.61502  -0.53108  -0.49440
 Alpha  occ. eigenvalues --   -0.45564  -0.45290  -0.43079  -0.42610  -0.40392
 Alpha  occ. eigenvalues --   -0.37619  -0.36382  -0.32325  -0.27234  -0.26570
 Alpha  occ. eigenvalues --   -0.25238  -0.24620  -0.22893
 Alpha virt. eigenvalues --    0.00937   0.02142   0.03491   0.04232   0.06133
 Alpha virt. eigenvalues --    0.07156   0.07529   0.08148   0.08650   0.09161
 Alpha virt. eigenvalues --    0.10604   0.11393   0.13359   0.13914   0.16193
 Alpha virt. eigenvalues --    0.16957   0.17600   0.18333   0.19567   0.20074
 Alpha virt. eigenvalues --    0.21380   0.23005   0.23456   0.23920   0.24164
 Alpha virt. eigenvalues --    0.25743   0.26541   0.27582   0.27790   0.29132
 Alpha virt. eigenvalues --    0.29893   0.30476   0.31375   0.32599   0.32804
 Alpha virt. eigenvalues --    0.33728   0.35377   0.37377   0.38615   0.43980
 Alpha virt. eigenvalues --    0.46024   0.47965   0.52807   0.53742   0.55805
 Alpha virt. eigenvalues --    0.57785   0.60937   0.61933   0.63215   0.65652
 Alpha virt. eigenvalues --    0.68852   0.70738   0.71347   0.72868   0.75344
 Alpha virt. eigenvalues --    0.77719   0.80936   0.83341   0.85572   0.88865
 Alpha virt. eigenvalues --    0.94849   0.96426   1.02909   1.06689   1.10246
 Alpha virt. eigenvalues --    1.12920   1.15814   1.17861   1.18644   1.19543
 Alpha virt. eigenvalues --    1.20532   1.24095   1.27396   1.29419   1.30796
 Alpha virt. eigenvalues --    1.34104   1.37800   1.41376   1.44883   1.49977
 Alpha virt. eigenvalues --    1.55406   1.55611   1.59097   1.61001   1.62531
 Alpha virt. eigenvalues --    1.65099   1.67952   1.69429   1.71818   1.73173
 Alpha virt. eigenvalues --    1.76616   1.78063   1.79519   1.84907   1.86425
 Alpha virt. eigenvalues --    1.91805   1.98027   2.01100   2.05465   2.08301
 Alpha virt. eigenvalues --    2.09899   2.19585   2.25293   2.31718   2.43241
 Alpha virt. eigenvalues --    2.46256   2.52684   2.54103   2.55915   2.59904
 Alpha virt. eigenvalues --    2.60700   2.64719   2.66761   2.67510   2.73984
 Alpha virt. eigenvalues --    2.77760   2.80384   2.86629   2.87491   2.87759
 Alpha virt. eigenvalues --    2.91215   2.91878   2.93977   2.96419   3.00288
 Alpha virt. eigenvalues --    3.02562   3.10228   3.13134   3.17902   3.26147
 Alpha virt. eigenvalues --    3.27781   3.31955   3.44159   3.51408   3.54672
 Alpha virt. eigenvalues --    3.58710   3.70594   3.81579   3.85430   4.02297
 Alpha virt. eigenvalues --    4.05960   4.10582   4.11013   4.28198   4.72454
 Alpha virt. eigenvalues --    4.83404   5.05481   5.08364   5.09837   5.13769
 Alpha virt. eigenvalues --    5.20287   5.28640   5.51888   5.87153   5.90037
 Alpha virt. eigenvalues --   23.83728  23.87054  23.88742  35.58693  49.91482
 Alpha virt. eigenvalues --   49.96987  50.04876
     Molecular Orbital Coefficients:
                           1         2         3         4         5
                           O         O         O         O         O
     Eigenvalues --   -19.12049 -19.05782 -19.05456 -14.29471 -10.28413
   1 1   O  1S          0.55132   0.00004   0.00005   0.00000  -0.00003
   2        2S          0.46974   0.00004   0.00006   0.00001  -0.00009
   3        2PX         0.00063  -0.00001  -0.00001   0.00002  -0.00000
   4        2PY         0.00010  -0.00007  -0.00007   0.00001  -0.00007
   5        2PZ         0.00097   0.00005   0.00005   0.00000   0.00007
   6        3S          0.01382   0.00016   0.00003  -0.00013   0.00075
   7        3PX        -0.00001   0.00009   0.00004  -0.00007  -0.00001
   8        3PY        -0.00005   0.00030   0.00023  -0.00005  -0.00017
   9        3PZ        -0.00004  -0.00016  -0.00019  -0.00002   0.00012
  10        4S         -0.01179  -0.00116  -0.00094   0.00063  -0.00143
  11        4PX        -0.00107  -0.00102   0.00020   0.00035  -0.00025
  12        4PY        -0.00018  -0.00110   0.00043   0.00018   0.00059
  13        4PZ        -0.00127  -0.00058   0.00009   0.00015  -0.00069
  14        5S          0.00468   0.00157  -0.00150   0.00140   0.00378
  15        5PX        -0.00004  -0.00040   0.00026   0.00046   0.00025
  16        5PY        -0.00023  -0.00112   0.00127   0.00002  -0.00209
  17        5PZ        -0.00025   0.00012  -0.00087   0.00032   0.00260
  18        6D 0       -0.00002  -0.00007   0.00004  -0.00000  -0.00003
  19        6D+1       -0.00005  -0.00004   0.00005   0.00000  -0.00003
  20        6D-1       -0.00001   0.00009   0.00010  -0.00001   0.00022
  21        6D+2        0.00000   0.00003   0.00008   0.00001   0.00015
  22        6D-2       -0.00004   0.00000  -0.00003   0.00001  -0.00009
  23 2   C  1S          0.00002  -0.00000  -0.00001   0.00000  -0.00003
  24        2S         -0.00006   0.00001   0.00003   0.00000   0.00001
  25        2PX        -0.00008   0.00003  -0.00001   0.00005   0.00002
  26        2PY        -0.00014   0.00000  -0.00002  -0.00001   0.00006
  27        2PZ        -0.00008   0.00004  -0.00002  -0.00002  -0.00002
  28        3S         -0.00009  -0.00019  -0.00043   0.00016  -0.00053
  29        3PX        -0.00022  -0.00018   0.00007  -0.00034  -0.00002
  30        3PY         0.00007  -0.00007   0.00018   0.00003  -0.00011
  31        3PZ         0.00026  -0.00015   0.00010   0.00009   0.00007
  32        4S          0.00591   0.00326   0.00182  -0.00265   0.00263
  33        4PX        -0.00000   0.00029   0.00021  -0.00052   0.00141
  34        4PY        -0.00233  -0.00080  -0.00146   0.00125  -0.00101
  35        4PZ        -0.00031  -0.00042   0.00153  -0.00001   0.00080
  36        5S         -0.01391  -0.00777  -0.00341   0.00471   0.01407
  37        5PX        -0.00180  -0.00294  -0.00111   0.00052   0.00052
  38        5PY         0.00265   0.00040   0.00012  -0.00022  -0.00330
  39        5PZ         0.00080   0.00085   0.00029  -0.00026  -0.00012
  40        6D 0        0.00012  -0.00003   0.00008   0.00002  -0.00003
  41        6D+1       -0.00014   0.00001  -0.00003   0.00005  -0.00011
  42        6D-1       -0.00002   0.00009   0.00000  -0.00001  -0.00000
  43        6D+2        0.00002   0.00005  -0.00002  -0.00015  -0.00005
  44        6D-2       -0.00008   0.00008   0.00005   0.00004   0.00014
  45 3   C  1S          0.00000   0.00000  -0.00000   0.00001   0.00001
  46        2S         -0.00000  -0.00001   0.00001  -0.00002  -0.00001
  47        2PX        -0.00007  -0.00001  -0.00002   0.00016  -0.00000
  48        2PY         0.00001   0.00000  -0.00002   0.00030  -0.00002
  49        2PZ         0.00001  -0.00001   0.00001   0.00008   0.00001
  50        3S          0.00024   0.00022   0.00005   0.00001   0.00034
  51        3PX         0.00034   0.00004   0.00007  -0.00012  -0.00002
  52        3PY        -0.00008  -0.00003   0.00009  -0.00071   0.00006
  53        3PZ        -0.00005   0.00010  -0.00009  -0.00023  -0.00003
  54        4S         -0.00299  -0.00189  -0.00147   0.00552  -0.00300
  55        4PX         0.00099   0.00083  -0.00033   0.00037   0.00144
  56        4PY        -0.00016  -0.00004  -0.00023   0.00161   0.00026
  57        4PZ        -0.00060  -0.00035  -0.00125   0.00103  -0.00121
  58        5S          0.01085   0.01028   0.00256  -0.00841  -0.00398
  59        5PX        -0.00311  -0.00281  -0.00073   0.00006   0.00126
  60        5PY        -0.00008  -0.00044  -0.00018  -0.00238  -0.00055
  61        5PZ         0.00061   0.00062  -0.00027  -0.00103   0.00018
  62        6D 0        0.00006   0.00001   0.00003   0.00032   0.00004
  63        6D+1        0.00007   0.00002   0.00003  -0.00007   0.00004
  64        6D-1        0.00005  -0.00001   0.00006  -0.00015   0.00004
  65        6D+2       -0.00015  -0.00006   0.00002   0.00013  -0.00005
  66        6D-2       -0.00004  -0.00001  -0.00004  -0.00040  -0.00004
  67 4   H  1S          0.00010   0.00006   0.00006   0.00002   0.00001
  68        2S         -0.00167  -0.00057  -0.00093   0.00006  -0.00064
  69        3S          0.00140   0.00047   0.00011  -0.00065  -0.00231
  70        4PX         0.00008   0.00005  -0.00006  -0.00011  -0.00003
  71        4PY         0.00026   0.00013   0.00007  -0.00009   0.00019
  72        4PZ         0.00032   0.00001   0.00012   0.00008   0.00003
  73 5   H  1S          0.00003   0.00003  -0.00004   0.00005  -0.00003
  74        2S         -0.00073  -0.00032   0.00037  -0.00033   0.00041
  75        3S          0.00064   0.00049   0.00037  -0.00074  -0.00016
  76        4PX         0.00002  -0.00002   0.00007  -0.00016  -0.00003
  77        4PY         0.00020   0.00003   0.00001   0.00001  -0.00008
  78        4PZ        -0.00004   0.00002  -0.00003  -0.00008   0.00003
  79 6   N  1S         -0.00000  -0.00000  -0.00000   0.55739   0.00000
  80        2S          0.00001   0.00000   0.00001   0.46575   0.00000
  81        2PX        -0.00003  -0.00001  -0.00001   0.00016   0.00000
  82        2PY        -0.00000  -0.00000  -0.00001  -0.00046   0.00000
  83        2PZ         0.00001   0.00001  -0.00000  -0.00110   0.00001
  84        3S         -0.00014  -0.00004  -0.00009   0.01559  -0.00005
  85        3PX         0.00012   0.00005   0.00005   0.00054   0.00000
  86        3PY         0.00001   0.00000   0.00004   0.00033  -0.00002
  87        3PZ        -0.00004  -0.00002   0.00000  -0.00066  -0.00003
  88        4S          0.00072   0.00018   0.00056  -0.00869   0.00020
  89        4PX        -0.00059  -0.00024  -0.00033   0.00190  -0.00005
  90        4PY        -0.00020  -0.00025  -0.00054   0.00194  -0.00036
  91        4PZ         0.00001   0.00012   0.00011  -0.00037   0.00039
  92        5S         -0.00036  -0.00004   0.00036   0.00755  -0.00074
  93        5PX         0.00025   0.00002  -0.00044  -0.00133  -0.00000
  94        5PY        -0.00017   0.00027   0.00012  -0.00138   0.00059
  95        5PZ        -0.00000  -0.00005   0.00025   0.00020  -0.00025
  96        6D 0       -0.00001  -0.00001  -0.00003  -0.00029  -0.00003
  97        6D+1        0.00002   0.00000   0.00000   0.00003  -0.00001
  98        6D-1       -0.00003   0.00001  -0.00001  -0.00056   0.00001
  99        6D+2       -0.00000   0.00001  -0.00000   0.00025   0.00001
 100        6D-2       -0.00000   0.00001   0.00001  -0.00032   0.00001
 101 7   H  1S          0.00000  -0.00006   0.00003  -0.00000  -0.00001
 102        2S          0.00005   0.00040  -0.00030  -0.00102   0.00008
 103        3S         -0.00055  -0.00064  -0.00048  -0.00012  -0.00074
 104        4PX         0.00007  -0.00004   0.00003  -0.00006  -0.00002
 105        4PY         0.00001  -0.00001  -0.00003  -0.00023  -0.00003
 106        4PZ        -0.00008   0.00006  -0.00005  -0.00035  -0.00001
 107 8   H  1S          0.00004   0.00002  -0.00005  -0.00000  -0.00000
 108        2S          0.00007   0.00015   0.00049  -0.00123   0.00045
 109        3S         -0.00012  -0.00054   0.00052  -0.00040  -0.00064
 110        4PX         0.00012   0.00009  -0.00003   0.00010   0.00007
 111        4PY        -0.00002   0.00000   0.00009  -0.00030   0.00008
 112        4PZ         0.00006  -0.00002  -0.00002   0.00013  -0.00004
 113 9   H  1S         -0.00001  -0.00002  -0.00001   0.00000  -0.00003
 114        2S         -0.00013   0.00013   0.00005  -0.00184   0.00032
 115        3S          0.00013  -0.00011   0.00016   0.00061  -0.00015
 116        4PX         0.00002   0.00002   0.00002  -0.00047   0.00003
 117        4PY         0.00002  -0.00002   0.00001   0.00112  -0.00004
 118        4PZ        -0.00002   0.00001   0.00003  -0.00112   0.00003
 119 10  H  1S         -0.00000   0.00001   0.00001  -0.00003   0.00001
 120        2S          0.00002  -0.00007  -0.00008  -0.00185  -0.00010
 121        3S          0.00003   0.00021   0.00057   0.00047   0.00019
 122        4PX         0.00004   0.00003   0.00001   0.00158   0.00004
 123        4PY         0.00005   0.00004   0.00003  -0.00051   0.00005
 124        4PZ         0.00001  -0.00001  -0.00001  -0.00015  -0.00003
 125 11  C  1S          0.00002  -0.00002  -0.00002  -0.00000   0.56311
 126        2S         -0.00007   0.00007   0.00009   0.00001   0.46336
 127        2PX        -0.00002   0.00019  -0.00024   0.00001   0.00006
 128        2PY         0.00011   0.00002  -0.00030   0.00001   0.00054
 129        2PZ        -0.00014   0.00032  -0.00012   0.00000  -0.00044
 130        3S          0.00033   0.00045   0.00024  -0.00004   0.01792
 131        3PX         0.00016  -0.00040   0.00057  -0.00004  -0.00007
 132        3PY         0.00017  -0.00008   0.00071  -0.00002  -0.00117
 133        3PZ         0.00007  -0.00068   0.00028  -0.00002   0.00106
 134        4S          0.00317   0.00103   0.00398  -0.00102  -0.01187
 135        4PX        -0.00010   0.00308  -0.00367   0.00035  -0.00090
 136        4PY         0.00125   0.00108  -0.00335   0.00032  -0.00161
 137        4PZ        -0.00133   0.00474  -0.00336   0.00044  -0.00003
 138        5S          0.00034  -0.00561  -0.00182  -0.00125  -0.01071
 139        5PX        -0.00024  -0.00151   0.00049   0.00012  -0.00168
 140        5PY         0.00013  -0.00157   0.00067  -0.00011  -0.00315
 141        5PZ         0.00013  -0.00022   0.00050   0.00055   0.00081
 142        6D 0       -0.00002  -0.00054   0.00037   0.00001   0.00049
 143        6D+1        0.00021  -0.00057  -0.00018   0.00002   0.00164
 144        6D-1        0.00023  -0.00020  -0.00057  -0.00001   0.00072
 145        6D+2        0.00001  -0.00032   0.00000   0.00002   0.00000
 146        6D-2        0.00023   0.00010  -0.00052  -0.00002   0.00118
 147 12  O  1S         -0.00005  -0.00172   0.55131   0.00000  -0.00007
 148        2S         -0.00002  -0.00143   0.46973   0.00001  -0.00005
 149        2PX         0.00002   0.00002   0.00062   0.00001   0.00027
 150        2PY         0.00003   0.00002   0.00078   0.00001   0.00036
 151        2PZ         0.00002   0.00003   0.00037   0.00000   0.00014
 152        3S         -0.00007  -0.00031   0.01373  -0.00007   0.00042
 153        3PX        -0.00011  -0.00012   0.00037  -0.00004  -0.00079
 154        3PY        -0.00015  -0.00015   0.00050  -0.00004  -0.00106
 155        3PZ        -0.00008  -0.00012   0.00020  -0.00002  -0.00042
 156        4S         -0.00051   0.00136  -0.01093   0.00041  -0.00375
 157        4PX        -0.00010   0.00001  -0.00115   0.00023  -0.00109
 158        4PY        -0.00036   0.00068  -0.00164   0.00025  -0.00145
 159        4PZ         0.00027  -0.00053  -0.00047   0.00009  -0.00053
 160        5S         -0.00085   0.00197   0.00251   0.00102   0.00340
 161        5PX        -0.00008   0.00063  -0.00012  -0.00010   0.00112
 162        5PY        -0.00059   0.00059  -0.00002   0.00013   0.00189
 163        5PZ         0.00010   0.00012  -0.00044  -0.00005  -0.00000
 164        6D 0        0.00006  -0.00007  -0.00007  -0.00000   0.00034
 165        6D+1        0.00002  -0.00013   0.00010   0.00001  -0.00030
 166        6D-1       -0.00002  -0.00013   0.00012   0.00000  -0.00035
 167        6D+2        0.00003  -0.00009  -0.00004  -0.00000   0.00024
 168        6D-2       -0.00006  -0.00002   0.00019   0.00001  -0.00075
 169 13  O  1S         -0.00004   0.55131   0.00173   0.00000  -0.00007
 170        2S         -0.00003   0.46972   0.00151   0.00000  -0.00005
 171        2PX        -0.00003  -0.00054  -0.00004  -0.00000  -0.00025
 172        2PY        -0.00001  -0.00007  -0.00003   0.00001  -0.00002
 173        2PZ        -0.00004  -0.00094  -0.00005  -0.00000  -0.00043
 174        3S          0.00005   0.01377  -0.00023  -0.00003   0.00047
 175        3PX         0.00015  -0.00026   0.00016   0.00001   0.00075
 176        3PY         0.00005   0.00003   0.00008  -0.00003   0.00006
 177        3PZ         0.00018  -0.00056   0.00021   0.00002   0.00130
 178        4S         -0.00064  -0.01081   0.00135  -0.00008  -0.00349
 179        4PX        -0.00016   0.00074   0.00007  -0.00006   0.00063
 180        4PY        -0.00059  -0.00025   0.00060   0.00005  -0.00006
 181        4PZ         0.00039   0.00174  -0.00050  -0.00006   0.00143
 182        5S          0.00031   0.00323   0.00190  -0.00007   0.00582
 183        5PX         0.00015   0.00043  -0.00024   0.00021  -0.00112
 184        5PY        -0.00009   0.00049  -0.00001   0.00004   0.00007
 185        5PZ         0.00025   0.00011  -0.00041  -0.00002  -0.00221
 186        6D 0       -0.00010   0.00015   0.00003   0.00000  -0.00066
 187        6D+1       -0.00004   0.00018  -0.00009   0.00001  -0.00073
 188        6D-1        0.00009   0.00005  -0.00016  -0.00001   0.00002
 189        6D+2        0.00000   0.00007  -0.00004  -0.00001  -0.00016
 190        6D-2        0.00004   0.00001  -0.00010   0.00001  -0.00005
                           6         7         8         9        10
                           O         O         O         O         O
     Eigenvalues --   -10.20181 -10.18394  -1.06719  -0.97492  -0.94329
   1 1   O  1S         -0.00002   0.00000  -0.07557  -0.08105   0.00659
   2        2S         -0.00007   0.00000  -0.12086  -0.12986   0.01059
   3        2PX         0.00006   0.00001   0.01232   0.02123   0.00686
   4        2PY         0.00007   0.00002  -0.00933   0.01596   0.00801
   5        2PZ         0.00004   0.00000   0.02933   0.01898   0.00479
   6        3S          0.00048   0.00009   0.34799   0.37739  -0.03133
   7        3PX         0.00013  -0.00005   0.01985   0.03425   0.00994
   8        3PY         0.00019  -0.00005  -0.01601   0.02611   0.01169
   9        3PZ         0.00002  -0.00001   0.04870   0.03065   0.00688
  10        4S          0.00025  -0.00073   0.26597   0.29817  -0.02455
  11        4PX        -0.00009  -0.00053   0.01559   0.01814   0.00840
  12        4PY        -0.00057  -0.00062  -0.00070   0.01052   0.01018
  13        4PZ        -0.00017  -0.00004   0.02384   0.01710   0.00584
  14        5S          0.00679   0.00263  -0.03449  -0.02313  -0.00907
  15        5PX         0.00312   0.00105  -0.00334  -0.00579   0.00131
  16        5PY         0.00423   0.00023   0.00181  -0.00286   0.00842
  17        5PZ         0.00009   0.00185  -0.00362  -0.00317  -0.00537
  18        6D 0        0.00006   0.00001  -0.00002  -0.00161   0.00242
  19        6D+1       -0.00007  -0.00003   0.00187   0.00232   0.00162
  20        6D-1       -0.00007  -0.00003  -0.00461  -0.00004   0.00030
  21        6D+2        0.00009   0.00002  -0.00395  -0.00198   0.00158
  22        6D-2       -0.00017  -0.00007   0.00410   0.00508  -0.00147
  23 2   C  1S          0.56303  -0.00357  -0.02316  -0.03435  -0.00207
  24        2S          0.46325  -0.00293  -0.03555  -0.05294  -0.00311
  25        2PX        -0.00044   0.00051  -0.01483  -0.01978   0.00039
  26        2PY        -0.00083  -0.00015  -0.02125  -0.02695  -0.00138
  27        2PZ        -0.00041  -0.00012  -0.00465  -0.00956   0.00184
  28        3S          0.01928  -0.00010   0.09258   0.13752   0.00663
  29        3PX        -0.00029  -0.00126  -0.02238  -0.03056   0.00140
  30        3PY         0.00185   0.00053  -0.03766  -0.04778  -0.00101
  31        3PZ         0.00102   0.00038  -0.00840  -0.01763   0.00385
  32        4S         -0.01722   0.00485  -0.00477   0.03503   0.00410
  33        4PX        -0.00121   0.00312  -0.00404  -0.00631   0.00331
  34        4PY         0.00266  -0.00055   0.00720  -0.00292  -0.00731
  35        4PZ         0.00022  -0.00046   0.00055   0.00262   0.01017
  36        5S         -0.02292   0.01787   0.09750   0.05194  -0.00193
  37        5PX        -0.00336   0.00404   0.01952   0.00197   0.00366
  38        5PY         0.00243  -0.00172  -0.01367  -0.00987  -0.00023
  39        5PZ         0.00061  -0.00121  -0.00566  -0.00143  -0.00003
  40        6D 0        0.00087   0.00041  -0.00659  -0.00852   0.00060
  41        6D+1        0.00008   0.00035   0.00254   0.00402  -0.00064
  42        6D-1       -0.00037  -0.00005   0.00319   0.00608  -0.00100
  43        6D+2       -0.00028  -0.00057  -0.00382  -0.00339  -0.00059
  44        6D-2       -0.00071   0.00028   0.01098   0.01433  -0.00009
  45 3   C  1S          0.00354   0.56300  -0.00475  -0.00974  -0.00137
  46        2S          0.00292   0.46327  -0.00732  -0.01502  -0.00209
  47        2PX        -0.00046   0.00027  -0.00414  -0.00681  -0.00042
  48        2PY         0.00017   0.00068  -0.00070   0.00040  -0.00004
  49        2PZ         0.00013   0.00015   0.00067   0.00092   0.00065
  50        3S          0.00003   0.01891   0.01719   0.03798   0.00536
  51        3PX         0.00110   0.00020  -0.01026  -0.01425  -0.00067
  52        3PY        -0.00065  -0.00217   0.00009   0.00298   0.00052
  53        3PZ        -0.00035  -0.00054   0.00212   0.00277   0.00072
  54        4S          0.00596  -0.01582   0.02738   0.02688  -0.00203
  55        4PX        -0.00200   0.00215  -0.00812  -0.00904  -0.00127
  56        4PY         0.00032  -0.00079   0.00138  -0.00104   0.00144
  57        4PZ         0.00119  -0.00110   0.00472  -0.00159  -0.00508
  58        5S          0.01564  -0.02339  -0.08651  -0.02927  -0.01039
  59        5PX        -0.00348   0.00314   0.02500   0.00779   0.00301
  60        5PY         0.00055  -0.00100   0.00279  -0.00307   0.00214
  61        5PZ         0.00120  -0.00098  -0.00523  -0.00377  -0.00306
  62        6D 0        0.00036   0.00077  -0.00151  -0.00219  -0.00017
  63        6D+1        0.00039   0.00023  -0.00107  -0.00110  -0.00013
  64        6D-1       -0.00011  -0.00028  -0.00031   0.00014   0.00013
  65        6D+2       -0.00061  -0.00039   0.00268   0.00345   0.00026
  66        6D-2        0.00030  -0.00060   0.00020   0.00028   0.00004
  67 4   H  1S          0.00004  -0.00006   0.00906   0.01305   0.00315
  68        2S         -0.00270  -0.00106   0.01979   0.01987   0.00019
  69        3S          0.00495  -0.00062  -0.00904  -0.00965  -0.00038
  70        4PX        -0.00011   0.00001  -0.00022  -0.00013  -0.00033
  71        4PY         0.00022   0.00009  -0.00191  -0.00139  -0.00049
  72        4PZ         0.00218   0.00033  -0.00421  -0.00582   0.00043
  73 5   H  1S          0.00006  -0.00011   0.00792   0.01489   0.00010
  74        2S         -0.00287  -0.00063   0.01488   0.02266   0.00349
  75        3S          0.00264  -0.00030  -0.00610  -0.00488   0.00293
  76        4PX        -0.00069  -0.00007   0.00068   0.00162   0.00015
  77        4PY         0.00161   0.00021  -0.00386  -0.00518  -0.00018
  78        4PZ        -0.00123  -0.00016   0.00183   0.00264   0.00003
  79 6   N  1S          0.00000  -0.00003  -0.00120  -0.00473  -0.00096
  80        2S          0.00000  -0.00005  -0.00190  -0.00742  -0.00149
  81        2PX        -0.00002  -0.00013  -0.00048  -0.00134  -0.00018
  82        2PY        -0.00004  -0.00020  -0.00055  -0.00174  -0.00034
  83        2PZ        -0.00002  -0.00005  -0.00032  -0.00143  -0.00026
  84        3S          0.00012   0.00042   0.00548   0.02008   0.00398
  85        3PX         0.00006   0.00011  -0.00158  -0.00267  -0.00028
  86        3PY         0.00017   0.00015  -0.00131  -0.00309  -0.00056
  87        3PZ         0.00006   0.00011  -0.00045  -0.00228  -0.00038
  88        4S         -0.00138   0.00027  -0.00013   0.01274   0.00351
  89        4PX         0.00005  -0.00028   0.00268  -0.00070  -0.00060
  90        4PY         0.00074  -0.00050   0.00165  -0.00229  -0.00117
  91        4PZ        -0.00026   0.00019  -0.00045  -0.00047   0.00042
  92        5S          0.00078   0.00930  -0.00401   0.00251  -0.00368
  93        5PX        -0.00075   0.00001   0.00036  -0.00084  -0.00104
  94        5PY         0.00008  -0.00179   0.00028   0.00154   0.00057
  95        5PZ        -0.00032  -0.00088   0.00052   0.00076   0.00140
  96        6D 0        0.00006   0.00015  -0.00013  -0.00051  -0.00012
  97        6D+1       -0.00000  -0.00010   0.00008   0.00024   0.00002
  98        6D-1       -0.00004  -0.00007   0.00009   0.00006  -0.00005
  99        6D+2        0.00005   0.00018  -0.00003  -0.00003  -0.00004
 100        6D-2       -0.00008  -0.00027   0.00030   0.00067   0.00010
 101 7   H  1S         -0.00008   0.00008   0.00235   0.00517   0.00063
 102        2S         -0.00076  -0.00270   0.00203   0.00478  -0.00066
 103        3S         -0.00029   0.00380   0.00483  -0.00215  -0.00128
 104        4PX        -0.00004   0.00004  -0.00053  -0.00067   0.00009
 105        4PY        -0.00005  -0.00048   0.00001   0.00021  -0.00007
 106        4PZ        -0.00032  -0.00204   0.00113   0.00172   0.00008
 107 8   H  1S         -0.00007   0.00007   0.00250   0.00440   0.00108
 108        2S         -0.00115  -0.00290   0.00167   0.00537   0.00415
 109        3S         -0.00013   0.00444   0.00223  -0.00065   0.00487
 110        4PX         0.00005   0.00074  -0.00106  -0.00085  -0.00074
 111        4PY        -0.00029  -0.00155   0.00029   0.00131   0.00033
 112        4PZ         0.00026   0.00138  -0.00053  -0.00115   0.00003
 113 9   H  1S          0.00002  -0.00014   0.00077   0.00324   0.00065
 114        2S         -0.00022   0.00061   0.00064   0.00320   0.00063
 115        3S         -0.00100  -0.00068   0.00093  -0.00016   0.00135
 116        4PX         0.00004  -0.00008  -0.00012   0.00012   0.00007
 117        4PY         0.00006  -0.00022  -0.00020  -0.00063  -0.00010
 118        4PZ        -0.00005   0.00004   0.00012   0.00052   0.00015
 119 10  H  1S         -0.00004  -0.00012   0.00053   0.00279   0.00063
 120        2S          0.00038   0.00030   0.00075   0.00258   0.00049
 121        3S          0.00026  -0.00233  -0.00065   0.00120   0.00243
 122        4PX        -0.00011   0.00002  -0.00040  -0.00092  -0.00020
 123        4PY        -0.00006  -0.00003  -0.00026  -0.00001   0.00002
 124        4PZ         0.00003  -0.00003  -0.00001  -0.00006  -0.00003
 125 11  C  1S          0.00003  -0.00000  -0.07117   0.03662   0.00126
 126        2S          0.00006  -0.00002  -0.10893   0.05570   0.00206
 127        2PX         0.00000   0.00002   0.00190   0.01015   0.08062
 128        2PY         0.00001  -0.00001   0.00314   0.06171   0.05680
 129        2PZ         0.00003  -0.00001   0.00056  -0.04392   0.09412
 130        3S         -0.00042   0.00026   0.29137  -0.15389  -0.00701
 131        3PX        -0.00007  -0.00000   0.00310   0.01424   0.10432
 132        3PY        -0.00014   0.00012   0.01263   0.08709   0.07303
 133        3PZ        -0.00010   0.00006  -0.00638  -0.06203   0.12213
 134        4S         -0.00125  -0.00181   0.06911  -0.03808   0.00730
 135        4PX         0.00212   0.00040   0.00558  -0.00016  -0.00218
 136        4PY         0.00262  -0.00063   0.00534  -0.00188   0.00165
 137        4PZ         0.00181   0.00107   0.00337   0.00124  -0.00597
 138        5S          0.00093   0.00001   0.02725  -0.01955   0.01282
 139        5PX        -0.00066   0.00017   0.00522   0.00064   0.01168
 140        5PY         0.00038  -0.00045   0.00238   0.00162   0.01221
 141        5PZ        -0.00049  -0.00015  -0.00063  -0.00059   0.00724
 142        6D 0       -0.00005   0.00002   0.00486  -0.00441   0.01757
 143        6D+1       -0.00000  -0.00001   0.01287  -0.01902   0.00788
 144        6D-1       -0.00009   0.00003  -0.00481  -0.02130  -0.00505
 145        6D+2       -0.00007   0.00003  -0.00695  -0.00889   0.00777
 146        6D-2        0.00007  -0.00007   0.01232  -0.01011  -0.01244
 147 12  O  1S          0.00000   0.00000  -0.04657   0.05613   0.08057
 148        2S          0.00003   0.00001  -0.07427   0.08967   0.12894
 149        2PX         0.00001  -0.00000   0.02143  -0.02275  -0.02698
 150        2PY         0.00002  -0.00000   0.02808  -0.02357  -0.03854
 151        2PZ         0.00002  -0.00001   0.01177  -0.01887  -0.01156
 152        3S         -0.00028  -0.00008   0.21214  -0.25731  -0.37031
 153        3PX        -0.00006   0.00001   0.03247  -0.03271  -0.03999
 154        3PY        -0.00010   0.00001   0.04217  -0.03294  -0.05767
 155        3PZ        -0.00007   0.00003   0.01836  -0.02813  -0.01656
 156        4S          0.00176   0.00056   0.14340  -0.18023  -0.27620
 157        4PX         0.00051   0.00015   0.01162  -0.01184  -0.01402
 158        4PY         0.00078   0.00024   0.01533  -0.00922  -0.02354
 159        4PZ         0.00027  -0.00005   0.00570  -0.01285  -0.00263
 160        5S          0.00497   0.00025  -0.00993   0.01009   0.00858
 161        5PX         0.00120  -0.00006  -0.00189   0.00109  -0.00137
 162        5PY         0.00165   0.00034   0.00004   0.00139   0.00035
 163        5PZ         0.00012   0.00004  -0.00009   0.00002  -0.00218
 164        6D 0       -0.00002  -0.00001  -0.00290   0.00083   0.00545
 165        6D+1       -0.00001   0.00000   0.00255  -0.00419  -0.00197
 166        6D-1       -0.00001   0.00001   0.00395  -0.00513  -0.00413
 167        6D+2       -0.00001  -0.00001  -0.00125  -0.00061   0.00317
 168        6D-2        0.00001   0.00002   0.00592  -0.00460  -0.00874
 169 13  O  1S          0.00000  -0.00000  -0.04994   0.05240  -0.08249
 170        2S          0.00001  -0.00001  -0.07966   0.08370  -0.13199
 171        2PX         0.00002  -0.00000  -0.01861   0.01994  -0.02191
 172        2PY         0.00005  -0.00001  -0.00046   0.00947   0.00214
 173        2PZ        -0.00003   0.00000  -0.03472   0.02793  -0.04360
 174        3S         -0.00003   0.00010   0.22743  -0.24040   0.37854
 175        3PX        -0.00007   0.00001  -0.02880   0.02868  -0.03206
 176        3PY        -0.00020   0.00005  -0.00158   0.01465   0.00386
 177        3PZ         0.00012  -0.00002  -0.05263   0.03919  -0.06446
 178        4S         -0.00089  -0.00027   0.15109  -0.16679   0.28527
 179        4PX         0.00005  -0.00005  -0.00820   0.01148  -0.01067
 180        4PY         0.00013  -0.00021   0.00185   0.00861   0.00558
 181        4PZ        -0.00019   0.00022  -0.01762   0.01269  -0.02621
 182        5S         -0.00055  -0.00227  -0.02391   0.00658  -0.00848
 183        5PX         0.00066   0.00021   0.00046  -0.00080  -0.00245
 184        5PY        -0.00013  -0.00009  -0.00042   0.00052  -0.00420
 185        5PZ         0.00093   0.00077   0.00252  -0.00171   0.00089
 186        6D 0        0.00002  -0.00000   0.00561  -0.00284   0.00824
 187        6D+1        0.00004  -0.00000   0.00628  -0.00540   0.00770
 188        6D-1       -0.00001   0.00001   0.00077  -0.00361  -0.00082
 189        6D+2       -0.00000   0.00000   0.00201  -0.00213   0.00234
 190        6D-2        0.00004  -0.00002   0.00004  -0.00161  -0.00110
                          11        12        13        14        15
                           O         O         O         O         O
     Eigenvalues --    -0.88051  -0.71836  -0.61502  -0.53108  -0.49440
   1 1   O  1S          0.01273   0.02752  -0.00290   0.02604   0.00881
   2        2S          0.02046   0.04448  -0.00471   0.04226   0.01431
   3        2PX         0.00194   0.03464  -0.02534  -0.04537   0.00846
   4        2PY         0.00411   0.06338  -0.10683  -0.10992   0.02248
   5        2PZ        -0.00450  -0.01700   0.01864   0.08032   0.05060
   6        3S         -0.06038  -0.13435   0.01434  -0.12887  -0.04344
   7        3PX         0.00261   0.05059  -0.03764  -0.06746   0.01227
   8        3PY         0.00631   0.09465  -0.15794  -0.16159   0.03379
   9        3PZ        -0.00722  -0.02652   0.02761   0.11688   0.07394
  10        4S         -0.05000  -0.11977   0.01025  -0.13789  -0.05163
  11        4PX         0.00129   0.03049  -0.01981  -0.04465   0.00420
  12        4PY         0.00250   0.05036  -0.09869  -0.10338   0.01777
  13        4PZ        -0.00341  -0.01237   0.01476   0.08475   0.06094
  14        5S          0.00106  -0.01801   0.01041  -0.01095  -0.00144
  15        5PX        -0.00422  -0.01271   0.00051   0.00761   0.01091
  16        5PY        -0.00369  -0.01249   0.00950   0.01440   0.00810
  17        5PZ         0.00089  -0.00027   0.00022  -0.01062  -0.00289
  18        6D 0       -0.00044  -0.00340   0.00273   0.00714   0.00389
  19        6D+1        0.00000   0.00214  -0.00165   0.00014   0.00388
  20        6D-1        0.00069   0.00635  -0.00915  -0.00751   0.00380
  21        6D+2        0.00079   0.00259   0.00071  -0.00341   0.00025
  22        6D-2        0.00015   0.00425  -0.00514  -0.00443   0.00050
  23 2   C  1S         -0.01446  -0.07757   0.04719  -0.03160  -0.01131
  24        2S         -0.02232  -0.12075   0.07407  -0.04918  -0.01793
  25        2PX         0.01976   0.02900   0.06750   0.04375  -0.02809
  26        2PY         0.00643   0.00850  -0.01652   0.07762  -0.02278
  27        2PZ        -0.00186  -0.00735   0.00143   0.07658   0.08303
  28        3S          0.05764   0.32594  -0.20533   0.13420   0.04872
  29        3PX         0.03380   0.04342   0.10654   0.06609  -0.04190
  30        3PY         0.00762   0.00236  -0.01597   0.11382  -0.03569
  31        3PZ        -0.00430  -0.01629   0.00555   0.11543   0.12205
  32        4S          0.04292   0.19752  -0.12181   0.10426   0.07405
  33        4PX         0.01126   0.01139   0.04389   0.02740  -0.00861
  34        4PY        -0.00125   0.00150  -0.02104   0.05699  -0.02240
  35        4PZ        -0.00123  -0.00237  -0.00245   0.06499   0.06507
  36        5S         -0.03648   0.02359  -0.10298  -0.16114  -0.01094
  37        5PX        -0.00469  -0.00360  -0.01201  -0.01490  -0.00500
  38        5PY         0.00556  -0.00094   0.00924   0.03913  -0.00009
  39        5PZ         0.00298   0.00485   0.00690   0.01454   0.00424
  40        6D 0       -0.00167  -0.00174  -0.00200   0.01057   0.00257
  41        6D+1       -0.00252  -0.00139  -0.00953  -0.00970   0.00335
  42        6D-1       -0.00056   0.00184  -0.00150  -0.01312   0.00051
  43        6D+2        0.00561   0.00483   0.00638   0.00154  -0.00135
  44        6D-2       -0.00223  -0.00405  -0.01200  -0.01188   0.00310
  45 3   C  1S         -0.05453  -0.05749  -0.06962   0.01415   0.00707
  46        2S         -0.08409  -0.08927  -0.10867   0.02224   0.01099
  47        2PX         0.02148  -0.04760   0.02448  -0.03584   0.04780
  48        2PY         0.03444  -0.01429  -0.03291   0.04813  -0.04533
  49        2PZ         0.00641   0.00592  -0.00340   0.03773   0.07923
  50        3S          0.22006   0.23872   0.29702  -0.06090  -0.02822
  51        3PX         0.03377  -0.07538   0.03974  -0.05377   0.06929
  52        3PY         0.06126  -0.01562  -0.04191   0.06976  -0.06801
  53        3PZ         0.01175   0.01178  -0.00328   0.05559   0.11775
  54        4S          0.08163   0.14899   0.18898  -0.03988  -0.04027
  55        4PX         0.00934  -0.02049   0.02331  -0.02810   0.06698
  56        4PY         0.00768  -0.00294  -0.02724   0.04653  -0.04356
  57        4PZ        -0.00473  -0.00221  -0.00883   0.02403   0.07349
  58        5S          0.07124   0.02530   0.09321   0.10451   0.01862
  59        5PX        -0.00636  -0.00270  -0.01448  -0.02452   0.01025
  60        5PY         0.00940  -0.00193   0.00566   0.01179   0.00452
  61        5PZ         0.00496  -0.00544  -0.00094   0.00153   0.00989
  62        6D 0       -0.00970  -0.00060   0.00517  -0.00413  -0.00030
  63        6D+1        0.00173  -0.00386   0.00363  -0.00737   0.00328
  64        6D-1        0.00325   0.00051  -0.00071   0.00366  -0.00270
  65        6D+2       -0.00417   0.00738  -0.00500  -0.00253   0.00878
  66        6D-2        0.01294  -0.00967   0.00062  -0.00499   0.00318
  67 4   H  1S          0.00842   0.05405  -0.04405   0.09055   0.06862
  68        2S          0.00819   0.06360  -0.05671   0.10444   0.08118
  69        3S         -0.00051  -0.00736   0.00262   0.03058   0.02337
  70        4PX         0.00111   0.00221   0.00255   0.00298  -0.00033
  71        4PY         0.00019  -0.00129   0.00038   0.00207  -0.00234
  72        4PZ        -0.00218  -0.01161   0.00874  -0.00933  -0.00625
  73 5   H  1S          0.00923   0.05870  -0.06263   0.03769  -0.02795
  74        2S          0.01064   0.06913  -0.07824   0.04984  -0.03805
  75        3S          0.00108   0.00034  -0.00270   0.01572  -0.00993
  76        4PX         0.00210   0.00585  -0.00185   0.00392  -0.00440
  77        4PY        -0.00132  -0.00872   0.00756  -0.00099   0.00211
  78        4PZ         0.00124   0.00601  -0.00623   0.00648   0.00267
  79 6   N  1S         -0.10100   0.04122   0.02356  -0.00293  -0.00434
  80        2S         -0.15863   0.06512   0.03733  -0.00469  -0.00695
  81        2PX         0.00026  -0.03754  -0.03402  -0.04644   0.11537
  82        2PY        -0.01904  -0.02393  -0.06089   0.02565  -0.08534
  83        2PZ        -0.03426   0.01863   0.01555   0.00092   0.07048
  84        3S          0.43483  -0.18289  -0.10582   0.01392   0.02050
  85        3PX        -0.00242  -0.05544  -0.05017  -0.06731   0.16711
  86        3PY        -0.03284  -0.03522  -0.09013   0.03761  -0.12449
  87        3PZ        -0.05284   0.02753   0.02240   0.00174   0.10311
  88        4S          0.30146  -0.14172  -0.08334   0.00597   0.01743
  89        4PX        -0.00689  -0.02574  -0.02519  -0.04405   0.10463
  90        4PY        -0.01739  -0.01465  -0.05086   0.02748  -0.07548
  91        4PZ        -0.01966   0.01311   0.00967   0.00611   0.06907
  92        5S         -0.03149  -0.04647  -0.04673  -0.04312  -0.02751
  93        5PX         0.01397   0.00297  -0.00197   0.00574   0.00615
  94        5PY         0.01056   0.00170   0.00237   0.00211   0.00088
  95        5PZ        -0.00110   0.00919   0.00935   0.00718   0.00437
  96        6D 0       -0.00534  -0.00082  -0.00254   0.00087  -0.01133
  97        6D+1        0.00215   0.00193   0.00190   0.00232  -0.01095
  98        6D-1       -0.00196   0.00417   0.00760  -0.00442   0.00585
  99        6D+2       -0.00026  -0.00193  -0.00551   0.00080   0.00443
 100        6D-2        0.00269   0.00561   0.00566   0.00271  -0.00439
 101 7   H  1S          0.02650   0.04119   0.06768  -0.04986  -0.05180
 102        2S          0.03279   0.04633   0.08258  -0.06515  -0.05984
 103        3S         -0.00974  -0.00452   0.00308  -0.01152  -0.01299
 104        4PX         0.00026  -0.00258   0.00053  -0.00048   0.00261
 105        4PY         0.00328   0.00172   0.00182  -0.00016  -0.00429
 106        4PZ         0.00762   0.00813   0.01114  -0.00635  -0.00314
 107 8   H  1S          0.02685   0.04204   0.07909  -0.03202   0.06261
 108        2S          0.03584   0.04926   0.09587  -0.03643   0.07626
 109        3S         -0.00607  -0.00049   0.00890   0.00101   0.00899
 110        4PX        -0.00194  -0.00516  -0.00391  -0.00083  -0.00146
 111        4PY         0.00709   0.00579   0.00863  -0.00120   0.00535
 112        4PZ        -0.00411  -0.00450  -0.00820   0.00513  -0.00174
 113 9   H  1S          0.07871  -0.04775  -0.05490   0.02478  -0.10159
 114        2S          0.07420  -0.05274  -0.06571   0.03107  -0.13060
 115        3S         -0.00400   0.01042   0.00071   0.01975  -0.03202
 116        4PX         0.00371  -0.00454  -0.00445  -0.00226   0.00481
 117        4PY        -0.01429   0.00613   0.00439  -0.00194   0.01018
 118        4PZ         0.01003  -0.00570  -0.00624   0.00315  -0.00720
 119 10  H  1S          0.07809  -0.05540  -0.03692  -0.03530   0.10397
 120        2S          0.07498  -0.05856  -0.04660  -0.04001   0.13607
 121        3S         -0.00697   0.00570   0.00336  -0.00427   0.04203
 122        4PX        -0.01771   0.00924   0.00506   0.00415  -0.01253
 123        4PY         0.00260  -0.00392  -0.00606   0.00108  -0.00266
 124        4PZ        -0.00023   0.00024   0.00049  -0.00021   0.00586
 125 11  C  1S          0.00087   0.01627  -0.02398  -0.04039   0.00446
 126        2S          0.00145   0.02590  -0.03819  -0.06429   0.00718
 127        2PX        -0.00255  -0.00518   0.00849  -0.00285  -0.00108
 128        2PY        -0.01025  -0.04193   0.04330   0.05939   0.01582
 129        2PZ         0.00478   0.02843  -0.04133  -0.04315   0.00406
 130        3S         -0.00378  -0.07499   0.11242   0.19069  -0.02402
 131        3PX        -0.00360  -0.00770   0.01298  -0.00439  -0.00150
 132        3PY        -0.01526  -0.06436   0.06593   0.08992   0.02208
 133        3PZ         0.00790   0.04466  -0.06279  -0.06467   0.00832
 134        4S         -0.00179  -0.04614   0.08181   0.14853  -0.02282
 135        4PX        -0.00134  -0.00475   0.00920   0.01326   0.00390
 136        4PY        -0.00324  -0.01444   0.01604   0.04800   0.01477
 137        4PZ        -0.00110   0.00197  -0.01030  -0.00655   0.01413
 138        5S          0.00201  -0.02442   0.02390   0.05681   0.00286
 139        5PX        -0.00099  -0.00171   0.00395   0.00882   0.00128
 140        5PY        -0.00006  -0.00870   0.00812   0.02348   0.00440
 141        5PZ        -0.00146   0.00505  -0.00445  -0.00606   0.00315
 142        6D 0       -0.00044  -0.00451   0.00519   0.00152  -0.00750
 143        6D+1        0.00128   0.00186  -0.00089   0.00279  -0.00121
 144        6D-1        0.00357   0.01375  -0.01180  -0.00586   0.00443
 145        6D+2        0.00160   0.00543  -0.00270  -0.00551  -0.00267
 146        6D-2        0.00102   0.00388  -0.00185   0.00164   0.00418
 147 12  O  1S         -0.00577  -0.01626   0.01672   0.02084  -0.00814
 148        2S         -0.00924  -0.02613   0.02695   0.03379  -0.01311
 149        2PX         0.00181   0.00123   0.00574   0.01356  -0.01322
 150        2PY         0.00123  -0.00677   0.01740   0.04123  -0.01158
 151        2PZ         0.00206   0.00821  -0.01083  -0.00719  -0.00244
 152        3S          0.02674   0.07646  -0.07925  -0.10100   0.03830
 153        3PX         0.00260   0.00105   0.00881   0.01798  -0.01985
 154        3PY         0.00156  -0.01086   0.02552   0.05792  -0.01698
 155        3PZ         0.00299   0.01146  -0.01558  -0.01120  -0.00409
 156        4S          0.01910   0.06403  -0.07832  -0.10369   0.05082
 157        4PX         0.00022   0.00037   0.00403   0.01222  -0.01040
 158        4PY        -0.00027  -0.00696   0.01485   0.04050  -0.00744
 159        4PZ         0.00119   0.00712  -0.01109  -0.00847  -0.00107
 160        5S         -0.00609   0.00234  -0.01054  -0.00318   0.02808
 161        5PX        -0.00035  -0.00048  -0.00047   0.00404   0.00154
 162        5PY        -0.00217  -0.00146   0.00031   0.00415   0.00298
 163        5PZ         0.00027  -0.00044   0.00006   0.00239  -0.00010
 164        6D 0        0.00005   0.00111  -0.00197  -0.00287   0.00050
 165        6D+1        0.00040   0.00116  -0.00123  -0.00126  -0.00094
 166        6D-1        0.00045   0.00107  -0.00116  -0.00015  -0.00042
 167        6D+2        0.00018   0.00133  -0.00142  -0.00310  -0.00033
 168        6D-2        0.00027  -0.00051   0.00164   0.00262  -0.00171
 169 13  O  1S         -0.00196  -0.00599   0.00970   0.02052   0.00377
 170        2S         -0.00314  -0.00960   0.01565   0.03324   0.00611
 171        2PX        -0.00047   0.00096   0.00278  -0.00953   0.00470
 172        2PY        -0.00112  -0.00447   0.00810   0.02690   0.01971
 173        2PZ        -0.00026   0.00411  -0.01175  -0.03150  -0.00105
 174        3S          0.00900   0.02723  -0.04559  -0.09856  -0.01902
 175        3PX        -0.00057   0.00154   0.00447  -0.01272   0.00653
 176        3PY        -0.00158  -0.00699   0.01273   0.03958   0.02823
 177        3PZ        -0.00011   0.00684  -0.01729  -0.04373  -0.00149
 178        4S          0.00724   0.03013  -0.05138  -0.11869  -0.01866
 179        4PX         0.00000   0.00021   0.00505  -0.00622   0.00511
 180        4PY        -0.00112  -0.00352   0.00670   0.02763   0.02190
 181        4PZ         0.00011   0.00131  -0.00754  -0.02441  -0.00148
 182        5S          0.00267   0.01720  -0.02135  -0.03798  -0.01229
 183        5PX        -0.00150  -0.00236   0.00233   0.00365   0.00278
 184        5PY        -0.00023   0.00202  -0.00084   0.00351   0.00070
 185        5PZ        -0.00060  -0.00515   0.00546   0.00382   0.00025
 186        6D 0       -0.00023  -0.00133   0.00195   0.00227  -0.00044
 187        6D+1        0.00003  -0.00018  -0.00055   0.00126  -0.00022
 188        6D-1        0.00042   0.00163  -0.00202  -0.00362  -0.00179
 189        6D+2        0.00006  -0.00011  -0.00004  -0.00017  -0.00043
 190        6D-2        0.00030   0.00137  -0.00130  -0.00199  -0.00044
                          16        17        18        19        20
                           O         O         O         O         O
     Eigenvalues --    -0.45564  -0.45290  -0.43079  -0.42610  -0.40392
   1 1   O  1S         -0.02112   0.00217   0.00430  -0.01018   0.00564
   2        2S         -0.03438   0.00354   0.00702  -0.01655   0.00915
   3        2PX        -0.10094   0.06646  -0.02558   0.06422   0.02841
   4        2PY         0.00142  -0.02623  -0.09309  -0.03279  -0.04610
   5        2PZ        -0.03451   0.02959  -0.04511  -0.09192   0.01796
   6        3S          0.10564  -0.01077  -0.02271   0.05042  -0.02747
   7        3PX        -0.14678   0.09767  -0.03763   0.09489   0.04147
   8        3PY         0.00243  -0.03839  -0.13590  -0.04841  -0.06810
   9        3PZ        -0.04944   0.04348  -0.06643  -0.13468   0.02619
  10        4S          0.11828  -0.01147  -0.02970   0.06681  -0.03882
  11        4PX        -0.12302   0.07806  -0.02412   0.08458   0.03827
  12        4PY         0.00756  -0.03771  -0.10351  -0.04261  -0.04957
  13        4PZ        -0.03973   0.03260  -0.05949  -0.11097   0.01535
  14        5S          0.02530  -0.00542  -0.03843   0.02462  -0.01991
  15        5PX         0.00155  -0.00466  -0.01151  -0.00412   0.00239
  16        5PY        -0.00865   0.00507  -0.01231  -0.00176  -0.00365
  17        5PZ        -0.00008  -0.00459  -0.00257   0.00112   0.00304
  18        6D 0        0.00072   0.00115  -0.00439  -0.00910   0.00144
  19        6D+1       -0.00697   0.00692  -0.00353   0.00239   0.00242
  20        6D-1        0.00064   0.00076  -0.00612  -0.00167  -0.00543
  21        6D+2       -0.00400   0.00504  -0.00302   0.00125  -0.00159
  22        6D-2        0.00007  -0.00131  -0.00252  -0.00251  -0.00449
  23 2   C  1S          0.01233   0.00311  -0.01527  -0.00220  -0.00166
  24        2S          0.01960   0.00487  -0.02376  -0.00347  -0.00241
  25        2PX        -0.01945   0.04729   0.03022   0.04825  -0.00879
  26        2PY         0.06014  -0.07799   0.07212  -0.01094   0.05078
  27        2PZ         0.00697   0.05695  -0.02838  -0.03087  -0.04945
  28        3S         -0.05748  -0.01344   0.06278   0.01140   0.00396
  29        3PX        -0.02772   0.06766   0.04659   0.07071  -0.01107
  30        3PY         0.09249  -0.11681   0.10751  -0.01562   0.07628
  31        3PZ         0.01069   0.08379  -0.04211  -0.04674  -0.07000
  32        4S         -0.03589  -0.01655   0.08823   0.00474   0.02103
  33        4PX        -0.02325   0.04645   0.01671   0.05027  -0.00165
  34        4PY         0.04747  -0.07831   0.05923   0.00340   0.03951
  35        4PZ        -0.00252   0.06803  -0.04346  -0.03953  -0.04329
  36        5S          0.05806  -0.08348   0.12424   0.09105  -0.00581
  37        5PX        -0.00164   0.00084   0.03347   0.02640  -0.00519
  38        5PY        -0.01895   0.01063  -0.00364  -0.00836  -0.00061
  39        5PZ        -0.00762   0.01818  -0.01282  -0.00559   0.00310
  40        6D 0        0.00220  -0.00172   0.00944  -0.00533   0.00026
  41        6D+1        0.00580  -0.00538  -0.00404   0.00915  -0.00314
  42        6D-1       -0.00534   0.00750  -0.00637   0.00542  -0.00878
  43        6D+2        0.00897  -0.00334  -0.00409  -0.00137  -0.00667
  44        6D-2        0.00203   0.00310  -0.02073  -0.00184  -0.00151
  45 3   C  1S         -0.00471   0.00232   0.00494   0.00887   0.00377
  46        2S         -0.00754   0.00373   0.00803   0.01390   0.00588
  47        2PX         0.05840  -0.04268  -0.05122  -0.02338   0.01053
  48        2PY         0.07486  -0.02605  -0.05705   0.05658   0.06493
  49        2PZ         0.03495   0.03282  -0.05253   0.09842  -0.04964
  50        3S          0.02335  -0.01025  -0.02657  -0.03519  -0.01480
  51        3PX         0.08790  -0.06348  -0.07448  -0.03193   0.01740
  52        3PY         0.11234  -0.03822  -0.08608   0.08470   0.09583
  53        3PZ         0.05112   0.04785  -0.07803   0.14407  -0.07200
  54        4S          0.02094  -0.02025  -0.02398  -0.05153  -0.02955
  55        4PX         0.05195  -0.04335  -0.03879  -0.02298   0.01077
  56        4PY         0.06781  -0.01827  -0.05492   0.03477   0.06027
  57        4PZ         0.02994   0.02364  -0.03347   0.10136  -0.05942
  58        5S         -0.01985   0.06003  -0.12552  -0.07697   0.00914
  59        5PX         0.03628  -0.02985   0.01421   0.02288   0.00194
  60        5PY         0.02440  -0.00224  -0.01723   0.01141   0.01326
  61        5PZ         0.00314   0.00286  -0.00352   0.00099  -0.00971
  62        6D 0       -0.00587   0.00036   0.00693  -0.01358  -0.00288
  63        6D+1        0.00556  -0.00762  -0.00221   0.00440   0.00309
  64        6D-1        0.00568  -0.00407  -0.00217   0.00267   0.00781
  65        6D+2       -0.00920  -0.00284   0.01163   0.00124   0.00411
  66        6D-2        0.00679  -0.00196  -0.01285   0.00321   0.00553
  67 4   H  1S          0.00503   0.02730   0.00736  -0.02851  -0.02918
  68        2S          0.01085   0.02875   0.01400  -0.03173  -0.04141
  69        3S          0.00437   0.00862   0.00387  -0.02802  -0.01531
  70        4PX        -0.00059   0.00309   0.00086   0.00330  -0.00128
  71        4PY         0.00191  -0.00491   0.00210  -0.00011   0.00388
  72        4PZ         0.00002   0.00012  -0.00079   0.00092   0.00207
  73 5   H  1S          0.02590  -0.08580   0.06857  -0.00543   0.05942
  74        2S          0.02937  -0.10610   0.08592  -0.01304   0.08281
  75        3S          0.01160  -0.02308   0.02336  -0.00877   0.03845
  76        4PX         0.00008  -0.00149   0.00387   0.00175   0.00237
  77        4PY         0.00072   0.00542  -0.00295   0.00060  -0.00420
  78        4PZ         0.00229  -0.00354   0.00246  -0.00248   0.00149
  79 6   N  1S         -0.00425  -0.00295   0.00944  -0.01286   0.00006
  80        2S         -0.00694  -0.00468   0.01526  -0.02068   0.00007
  81        2PX        -0.08339  -0.03551   0.12758  -0.03246   0.01481
  82        2PY        -0.08150   0.08335   0.03453  -0.04145  -0.07826
  83        2PZ         0.02406  -0.02223  -0.00143   0.05734   0.01075
  84        3S          0.02314   0.01266  -0.04795   0.06211   0.00066
[...]
 (esu units = statvolt**-1 cm**4 , SI units = C**3 m**3 J**-2)
 Beta(0;0,0):
               (au)            (10**-30 esu)      (10**-50 SI)
   || (z)     0.424581D+02      0.366805D+00      0.136136D+00
   _|_(z)     0.141527D+02      0.122268D+00      0.453787D-01
   x          0.217741D+03      0.188111D+01      0.698157D+00
   y          0.436708D+03      0.377282D+01      0.140024D+01
   z          0.212291D+03      0.183403D+01      0.680681D+00
   ||         0.106432D+03      0.919487D+00      0.341258D+00
   xxx        0.683415D+02      0.590417D+00      0.219128D+00
   xxy        0.571665D+02      0.493874D+00      0.183297D+00
   yxy        0.276014D+02      0.238455D+00      0.885000D-01
   yyy        0.946060D+02      0.817322D+00      0.303341D+00
   xxz        0.598596D+01      0.517141D-01      0.191932D-01
   yxz        0.155482D+02      0.134324D+00      0.498531D-01
   yyz        0.709703D+02      0.613128D+00      0.227557D+00
   zxz       -0.233625D+02     -0.201834D+00     -0.749085D-01
   zyz       -0.620325D+01     -0.535912D-01     -0.198899D-01
   zzz       -0.619273D+01     -0.535003D-01     -0.198561D-01

 ----------------------------------------------------------------------

 Dipole orientation:
     8          3.14473264          0.14420327         -4.00222595
     6          4.69797812         -1.99455305         -3.44896842
     6          7.02218158         -2.10419989         -5.15117231
     1          3.61376559         -3.73967327         -3.62144026
     1          5.28203776         -1.76010265         -1.47895059
     7          8.67867143         -4.18845070         -4.35102436
     1          7.95776595         -0.24922603         -5.11813368
     1          6.41193403         -2.46263161         -7.08901482
     1          9.53283503         -3.75404138         -2.68677435
     1         10.08693441         -4.44297523         -5.62747843
     6          1.38180606         -0.07291895         -6.01129196
     8          0.19823979          1.92923485         -6.39003719
     8          1.22666602         -2.15500561         -7.10014040

 Electric dipole moment (dipole orientation):
 (Debye = 10**-18 statcoulomb cm , SI units = C m)
                  (au)            (Debye)         (10**-30 SI)
   Tot        0.663356D+01      0.168608D+02      0.562417D+02
   x          0.000000D+00      0.000000D+00      0.000000D+00
   y          0.000000D+00      0.000000D+00      0.000000D+00
   z          0.663356D+01      0.168608D+02      0.562417D+02

 Dipole polarizability, Alpha (dipole orientation).
 (esu units = cm**3 , SI units = C**2 m**2 J**-1)
 Alpha(0;0):
               (au)            (10**-24 esu)      (10**-40 SI)
   iso        0.779695D+02      0.115539D+02      0.128554D+02
   aniso      0.255995D+02      0.379345D+01      0.422078D+01
   xx         0.783366D+02      0.116083D+02      0.129160D+02
   yx        -0.975813D+01     -0.144601D+01     -0.160890D+01
   yy         0.846638D+02      0.125459D+02      0.139592D+02
   zx         0.867214D+01      0.128508D+01      0.142984D+01
   zy        -0.782180D+00     -0.115907D+00     -0.128964D+00
   zz         0.709082D+02      0.105075D+02      0.116912D+02

 First dipole hyperpolarizability, Beta (dipole orientation).
 ||, _|_  parallel and perpendicular components, (z) with respect to z axis,
 vector components x,y,z.  Values do not include the 1/n! factor of 1/2.
 (esu units = statvolt**-1 cm**4 , SI units = C**3 m**3 J**-2)
 Beta(0;0,0):
               (au)            (10**-30 esu)      (10**-50 SI)
   || (z)     0.331157D+02      0.286094D+00      0.106181D+00
   _|_(z)     0.110386D+02      0.953647D-01      0.353937D-01
   x          0.198001D+03      0.171057D+01      0.634862D+00
   y         -0.465373D+03     -0.402046D+01     -0.149215D+01
   z          0.165579D+03      0.143047D+01      0.530905D+00
   ||         0.106432D+03      0.919487D+00      0.341258D+00
   xxx        0.273108D+02      0.235944D+00      0.875684D-01
   xxy       -0.589071D+02     -0.508911D+00     -0.188877D+00
   yxy        0.600101D+02      0.518441D+00      0.192414D+00
   yyy       -0.680432D+02     -0.587840D+00     -0.218171D+00
   xxz       -0.271657D+02     -0.234690D+00     -0.871029D-01
   yxz       -0.314424D+01     -0.271638D-01     -0.100816D-01
   yyz        0.608232D+02      0.525465D+00      0.195021D+00
   zxz       -0.213206D+02     -0.184194D+00     -0.683617D-01
   zyz       -0.281740D+02     -0.243401D+00     -0.903359D-01
   zzz        0.215353D+02      0.186049D+00      0.690501D-01

 ----------------------------------------------------------------------
 Unable to Open any file for archive entry.
 1\1\GINC-NODE1919\Freq\RB3LYP\6-311+G(d,p)\C3H6N1O3(1-)\SVICCHI\02-Jun
 -2023\0\\#p freq=raman scale=0.967 pop=(nbo,full,hirshfeld) guess=read
  geom=allcheck b3lyp/6-311+G(d,p) int=grid=ultrafine EmpiricalDispersi
 on=GD3BJ SCRF=(Solvent=ethanol) scf=(xqc,intrep,maxconventionalcycle=3
 50) nosymm\\MEA-CO2_binding-site_index-0.gjf\\-1,1\O,2.4074962966,-1.1
 557559225,-0.3588251193\C,3.2590007205,-0.0669019108,0.00389995\C,4.71
 53374127,-0.3376628756,-0.3610833399\H,3.1746211498,0.1459805347,1.070
 6148169\H,2.8891378086,0.7949043876,-0.5601842019\N,5.5283039315,0.857
 6427298,-0.0881850538\H,4.7598435345,-0.664985262,-1.4098239868\H,5.08
 71522759,-1.1568185931,0.2574387087\H,5.3211944716,1.5848540722,-0.767
 1727727\H,6.5143914178,0.6425714174,-0.1936883367\C,2.3049787833,-2.24
 66493725,0.5429721396\O,1.578088988,-3.1601019249,0.1045600528\O,2.922
 3422092,-2.1605342804,1.621922143\\Version=ES64L-G16RevC.01\HF=-398.66
 74702\RMSD=4.362e-09\RMSF=9.800e-06\ZeroPoint=0.0965491\Thermal=0.1042
 162\ETot=-398.5632539\HTot=-398.5623097\GTot=-398.6037232\Dipole=2.695
 6122,3.1609036,-1.5595565\DipoleDeriv=-0.7824668,-0.4120445,0.0032775,
 -0.588642,-1.6989741,0.4851721,0.1031612,0.5926779,-0.9468883,0.637016
 5,0.2769247,-0.0018421,0.291405,0.800094,-0.0502876,0.0716032,0.113204
 ,0.3760886,0.3298628,0.2493968,0.0685056,0.2609636,0.428392,0.1377358,
 0.0187142,0.0040169,0.394812,-0.0007236,-0.0351027,0.0346024,-0.014920
 8,0.0349182,-0.0421547,0.0229185,-0.1488401,-0.12022,-0.0269073,0.0378
 215,-0.0318912,0.0267074,-0.1909945,0.1098163,-0.0461688,0.1601643,0.0
 011954,-0.5874568,-0.2323246,0.0079515,-0.2219573,-0.6309779,-0.191032
 2,-0.0151988,-0.15772,-0.5794516,-0.0196867,-0.0683304,-0.0097249,-0.0
 537051,-0.0670966,-0.1255519,0.0038321,-0.1709269,-0.2519468,0.0119973
 ,0.0733354,-0.0423062,0.0400471,-0.0857473,0.0599038,-0.0735042,0.0903
 14,0.0108101,0.1870799,-0.0196002,-0.0752025,-0.0467849,0.1662759,0.09
 2775,-0.0634805,0.1822927,0.1410854,0.0342629,-0.009745,0.052135,0.034
 1555,0.1390485,0.014749,0.1400819,0.0261894,0.3082871,1.418097,1.01044
 95,0.8943024,1.2473954,2.6548258,-0.2212933,0.6874663,-0.4844319,2.358
 2048,-1.2253131,-0.6833489,-0.3536123,-0.779573,-1.6370435,-0.3203975,
 -0.3164534,-0.2431688,-0.9857248,-0.9757622,-0.1874317,-0.5461952,-0.1
 950908,-0.9127208,0.0505652,-0.5329719,0.0362285,-1.7062521\Polar=74.3
 152754,12.9231488,83.9513259,4.9145047,-0.0897328,75.6420472\PolarDeri
 v=-5.2119201,-2.3408738,-2.8759596,-2.3651953,0.9686105,-0.4517683,-2.
 3089693,-3.9735767,0.7834456,0.6053262,-0.873129,3.099868,-2.6135399,-
 0.246174,-3.2787349,-1.5649005,2.0612276,-4.8287409,-2.3964929,2.32626
 98,5.7605912,2.5688977,-3.0408042,0.6801648,2.1514161,6.972612,-3.0404
 75,-0.9445862,1.6946509,-3.2393661,2.2723575,-1.0197674,2.9998975,2.83
 87574,-7.5070399,-8.3135088,4.0476428,-0.9424112,-3.6402671,-2.1738964
 ,1.6030903,0.0143465,-1.3331261,-4.7484617,4.0732165,1.3934594,-0.6748
 915,4.3615121,-2.8696506,1.4448732,-0.9672675,-1.003541,9.790198,10.80
 42616,-0.06138,0.4757601,-0.7913984,1.4856407,0.7463549,-0.1550866,-0.
 4262843,-1.2775177,1.0913416,0.3850625,2.5034685,1.6073379,2.3891866,0
 .3764684,3.6199973,-1.9077549,3.3776556,9.9509833,-1.7798207,2.202362,
 -2.5118162,-1.7137686,0.8996267,-1.0907922,1.8105838,-2.720291,10.3294
 588,0.7089099,-3.6065857,1.8071278,-2.7687285,0.532006,-5.5173917,-1.3
 851504,3.847469,-2.5498202,-5.5341245,3.2356911,1.4988731,2.8367645,-0
 .7117019,1.032099,3.9196481,2.9381519,0.6054735,-0.2707964,3.1403875,-
 4.4325627,2.8983252,0.7913738,4.4869254,2.2370297,-3.7702952,0.2355375
 ,-1.0984406,-0.8993344,0.0856548,-1.8964845,-0.5081161,-0.6307066,0.20
 70875,0.4717278,-2.9605393,-0.0523197,-3.0276944,-2.5804969,-2.1395701
 ,-1.077542,-3.8000763,0.6869832,-5.3150825,-12.619635,1.8341383,-2.175
 4049,1.7332907,1.8975938,-0.5458657,1.2149532,-1.8761653,2.4601267,-6.
 8538824,-0.5537083,2.7277963,-1.7366762,2.9936126,-0.7025599,4.0446256
 ,1.1795801,-3.4255731,2.2173031,-1.216178,0.8593406,-1.2610119,-0.6289
 685,0.6470692,-1.5827119,0.79561,0.2972928,6.8755414,-0.1520917,-3.780
 6224,4.6945376,-1.2685605,0.0294664,-4.9570834,-0.2512869,3.9740363,-1
 .9577294,13.827597,0.6590058,1.7141979,-1.68994,-0.0930851,1.2087898,-
 1.6392348,1.237159,-0.4978215,-0.1504851,0.2690163,-0.1576659,-0.35925
 7,-0.4444101,0.2969184,0.102717,0.9649475,1.4390592,0.5992305,2.357491
 8,0.8284079,-0.479719,1.1671696,-1.5663876,2.2751241,1.8589001,-0.2200
 937,0.7907539,1.5331829,-2.0884446,-0.7650205,0.3772287,2.6260421,-0.9
 000792,0.227287,-3.3419272,-8.9780713,-5.688192,-3.2766119,-1.5638708,
 0.1418288,-1.5370741,-3.1212735,-4.8881008,-11.0908295,-0.7783172,-2.1
 814517,-2.0583389,-1.5056429,-1.1150751,-3.8297239,-2.5392566,-3.35562
 24,-3.8496838,5.9678196,-0.0697048,2.7360496,3.7229464,-1.274177,2.864
 174,-0.4544164,1.3719776,0.9051639,-0.9812074,2.2758722,0.7231679,3.73
 64881,1.0541121,4.2758713,2.5069019,-0.869208,12.8139005\HyperPolar=68
 .3415102,57.1665152,27.6013913,94.6060363,5.9859643,15.5481929,70.9703
 28,-23.3624773,-6.20325,-6.192727\Quadrupole=4.7437808,-13.4449818,8.7
 01201,18.2553036,-14.7012393,4.2939792\PG=C01 [X(C3H6N1O3)]\NImag=0\\0
 .19677198,0.14555546,0.34779304,0.07838392,-0.03812780,0.24999941,-0.1
 0998014,-0.05919384,-0.02794200,0.45064242,-0.04641437,-0.13178351,-0.
 01208870,-0.05024095,0.51767870,-0.03521369,-0.02646013,-0.10426827,0.
 00535532,-0.03975145,0.60975588,-0.02054130,-0.00886732,-0.00089272,-0
 .16870117,0.04143130,0.03172597,0.47699089,-0.03808636,-0.00680788,0.0
 0735530,0.04052134,-0.08390809,-0.00799515,-0.04464892,0.53537597,-0.0
 1251129,-0.00310193,0.00360815,0.03363475,-0.00631003,-0.09042459,0.02
 126968,-0.03403219,0.57630705,-0.00299310,-0.01327189,-0.02371838,-0.0
 5159730,0.00528087,0.02513422,-0.00487094,0.00638461,0.03299064,0.0596
 2791,-0.00612503,-0.01638096,-0.02849800,0.00568750,-0.05338714,-0.036
 08139,0.00244787,-0.00077474,-0.00861644,0.00028629,0.06113694,-0.0067
 4329,-0.01104836,-0.00553128,0.02448756,-0.04465406,-0.29962284,0.0007
 6561,-0.00176358,-0.00816128,-0.02221101,0.05163524,0.32489617,0.00366
 773,-0.02675309,0.01343825,-0.08027245,0.07525791,-0.04900641,-0.01361
 484,0.02576294,-0.01813401,0.00191393,-0.00217114,0.00200327,0.0916024
 0,-0.00350805,-0.03488680,0.01561697,0.06975154,-0.19179357,0.10058415
 ,0.00413700,-0.00592379,0.00495411,-0.00153663,0.00618838,-0.00162923,
 -0.06932299,0.22316466,0.00151408,-0.01053016,0.00675235,-0.04650152,0
 .10611337,-0.12597901,0.00540936,-0.00701687,0.00490464,-0.01111390,0.
 02353066,-0.01327928,0.05124720,-0.11235396,0.12681425,-0.01185992,-0.
 00482416,0.00394884,-0.02013224,-0.03440039,-0.00850431,-0.12445602,-0
 .05370471,-0.03647546,0.00212560,-0.00040918,-0.00040639,0.00234307,-0
 .00010671,-0.00087477,0.62565188,0.00163668,0.00207064,-0.00000617,-0.
 00482277,-0.00062446,0.00166318,-0.03734994,-0.16822747,-0.03115902,0.
 00037457,0.00051128,0.00084811,0.00029982,0.00136885,-0.00058438,-0.04
 682675,0.50240846,0.00100548,-0.00008077,0.00147318,0.00023009,0.00413
 743,0.00185350,-0.01076252,0.00283122,-0.07359401,-0.00085520,0.000815
 47,0.00133712,0.00014382,-0.00048167,0.00021148,0.04589011,-0.17075492
 ,0.29213425,0.00275353,0.00068361,-0.00120889,-0.00511013,0.00828489,0
 .03353183,-0.05068529,0.00607227,0.01219518,-0.00598057,0.00112984,0.0
 0122543,0.00161477,-0.00011031,-0.00079663,-0.00193408,-0.01393610,-0.
 02114281,0.05663276,-0.00049459,0.00053496,0.00113963,0.00160939,-0.00
 199792,-0.00865751,0.00761657,-0.06509538,-0.05451816,0.00085055,-0.00
 003033,-0.00049732,-0.00049745,0.00033389,-0.00015244,-0.00804533,-0.0
 1824006,-0.02908543,-0.00061124,0.07445580,-0.00042790,0.00132173,0.00
 155614,-0.00008048,-0.00270150,-0.01027974,0.01486682,-0.05443059,-0.2
 7024826,0.00173255,-0.00091838,0.00079602,0.00028720,-0.00026310,0.001
 03039,-0.00443530,-0.00790825,-0.00010341,-0.01295832,0.06944255,0.292
 86806,0.00262038,-0.00140373,0.00084891,-0.01366305,0.02657345,-0.0188
 4096,-0.07979361,0.06944294,-0.05486704,0.00169827,-0.00059135,-0.0000
 3757,-0.00595092,0.00082869,0.00188693,0.00616469,-0.02061337,0.012265
 09,0.00134931,-0.00122296,0.00154262,0.08807421,0.00039099,0.00138315,
 -0.00067748,0.00361322,-0.00589225,0.00353858,0.06490459,-0.18707859,0
 .10624162,-0.00012138,0.00014887,0.00005800,0.00075217,0.00056422,-0.0
 0032692,0.00691311,-0.02653576,0.01505952,-0.00281408,0.00797904,-0.00
 433876,-0.06913784,0.21265102,-0.00112172,-0.00018706,0.00011216,0.003
 62374,-0.00702396,0.00490092,-0.05503662,0.11359840,-0.14060866,-0.000
 49616,-0.00026357,0.00090373,0.00195867,-0.00071310,0.00083681,0.00347
 803,-0.00634428,0.00547772,-0.01092928,0.02181433,-0.01778454,0.058125
 53,-0.11967916,0.14512029,-0.00026625,0.00073468,-0.00060901,0.0015319
 1,-0.00209594,0.00114411,0.00545438,-0.01615348,0.01637143,-0.00007192
 ,0.00004366,-0.00009641,-0.00076316,0.00055432,-0.00042323,-0.07460933
 ,0.04345821,-0.05161457,0.00035689,0.00022104,-0.00046540,-0.00196307,
 -0.00355124,-0.00043855,0.07847777,0.00010005,0.00035945,-0.00041855,0
 .00037420,0.00047195,0.00017699,0.00621523,-0.02555319,0.02235662,0.00
 008064,0.00005257,-0.00007604,-0.00082771,0.00023131,0.00016170,0.0480
 9890,-0.21867912,0.16994333,0.00164011,0.00182604,-0.00021845,-0.00431
 967,-0.00351361,-0.00201957,-0.05261229,0.25115489,0.00021495,-0.00013
 731,0.00012873,0.00022296,0.00071382,-0.00008930,0.00064362,-0.0124098
 7,0.00239439,-0.00003775,0.00004188,-0.00006132,0.00037353,0.00012793,
 -0.00002505,-0.07066226,0.21592680,-0.20565581,0.00072258,-0.00050580,
 0.00195911,-0.00052226,-0.00138275,0.00122760,0.06474740,-0.19682026,0
 .20081499,-0.00150063,-0.00049665,0.00074075,0.00083734,-0.00447915,-0
 .00156148,-0.01844092,0.00665737,0.00531139,0.00023778,0.00006579,0.00
 008994,0.00040320,0.00002717,-0.00015796,-0.40277888,0.07767616,0.0246
 8799,0.00078421,0.00089950,-0.00056163,0.00115645,0.00021566,0.0005105
 8,-0.00812118,0.00126373,0.00432748,0.42754836,-0.00276629,-0.00119885
 ,0.00063758,0.00018666,-0.00475982,-0.00179949,-0.03614563,0.00541806,
 0.00276602,0.00005353,0.00000885,0.00018158,-0.00011877,0.00028064,-0.
 00023527,0.09100307,-0.07443096,0.00750898,0.00015333,0.00034199,-0.00
 023148,0.00052251,0.00098254,0.00052127,0.02935477,-0.00633495,-0.0055
 2154,-0.08215329,0.07920699,0.00068049,0.00033260,0.00040531,0.0005756
 5,0.00024967,-0.00017509,-0.00969130,-0.00280337,-0.00367784,-0.000435
 78,0.00004012,0.00027857,0.00010982,-0.00019992,-0.00004863,0.07071748
 ,-0.00196855,-0.02267960,-0.00059968,0.00071794,0.00038329,0.00055152,
 0.00035798,0.00029201,-0.02888834,0.00672671,-0.00063951,-0.03293987,-
 0.00333669,0.02565296,-0.07358298,-0.00072810,-0.02539072,-0.00697556,
 -0.01508304,0.01622295,-0.00110778,-0.00433568,0.00119395,0.00093826,-
 0.00108530,-0.00152888,-0.00008475,0.00111025,-0.00165047,-0.00045828,
 0.00131245,-0.00055155,0.00036278,0.00021233,-0.00051487,-0.00187737,0
 .00030144,-0.00001035,0.00021027,0.00029994,0.00001199,-0.00014557,-0.
 00007379,-0.00014368,0.48884119,-0.00873526,-0.06661750,-0.00409093,-0
 .01726262,-0.05061431,0.00147994,-0.00211427,0.00588386,0.00338693,0.0
 0249481,0.00264949,0.00428099,-0.00016171,0.00422820,-0.00119729,0.006
 08934,0.00088621,-0.00000238,-0.00004598,0.00014197,-0.00055004,-0.000
 61795,-0.00025852,0.00041200,-0.00007502,-0.00002106,0.00002390,0.0009
 6653,0.00124001,-0.00051296,0.19963601,0.49197607,-0.01706722,0.012836
 93,-0.10155074,0.01769450,0.01180252,0.02110694,0.00233616,-0.00468564
 ,-0.00212990,-0.00258324,-0.00586866,-0.00458017,-0.00413346,-0.008244
 69,-0.00310275,-0.00480367,0.00036129,-0.00082418,0.00013877,0.0003655
 4,-0.00047583,-0.00226985,0.00120596,-0.00007917,0.00048208,0.00030065
 ,-0.00006293,-0.00081747,-0.00088188,0.00047085,0.26097296,0.11738689,
 0.61403859,-0.00258057,-0.04203527,0.00566321,0.00709882,0.00068786,0.
 00244598,0.00112751,0.00006744,-0.00027327,-0.00045818,-0.00004052,0.0
 0023934,-0.00136365,-0.00236615,0.00009170,-0.00088024,-0.00031031,0.0
 0004023,-0.00020966,-0.00004958,0.00028730,0.00032949,0.00007540,-0.00
 014322,0.00004117,-0.00000826,-0.00003541,-0.00012435,-0.00015729,0.00
 010603,-0.22072777,-0.16537581,-0.08164433,0.24076649,-0.05077328,-0.0
 8599320,0.01027604,0.00520093,0.00630342,0.01068157,0.00140743,-0.0032
 2380,-0.00157610,-0.00056462,-0.00033286,-0.00087657,-0.00215443,-0.00
 378894,0.00011029,-0.00291589,-0.00025147,0.00009759,-0.00010722,-0.00
 003746,0.00050992,0.00036293,0.00008651,-0.00020666,0.00012037,0.00001
 641,-0.00004601,-0.00050327,-0.00057845,0.00024922,-0.16292408,-0.2935
 6368,-0.09758526,0.25129435,0.38022777,0.01462802,0.02606281,0.0169449
 5,-0.00239550,0.00233450,-0.00065969,-0.00038133,0.00007992,-0.0000045
 4,0.00040663,0.00128120,0.00084439,0.00061542,0.00077853,0.00086719,0.
 00031876,-0.00024425,0.00022943,0.00004994,-0.00010343,0.00020771,0.00
 072541,-0.00025379,-0.00005617,-0.00011262,-0.00008095,0.00000351,0.00
 007748,0.00002873,-0.00006772,-0.08404832,-0.10257584,-0.14150728,0.13
 309334,0.12113573,0.16175626,0.01749127,0.01060031,-0.02326218,-0.0036
 7845,-0.00480244,-0.00243354,-0.00136092,0.00202025,-0.00070596,-0.000
 56973,0.00076157,0.00221241,0.00050467,0.00054188,0.00136921,0.0008237
 5,-0.00089866,0.00066383,0.00006549,-0.00048823,0.00072740,0.00185522,
 -0.00154205,0.00047933,-0.00027748,-0.00030487,-0.00000681,0.00014420,
 0.00014119,-0.00004234,-0.18539243,-0.01479806,-0.16830524,-0.02301906
 ,-0.03844321,-0.06297723,0.19341349,0.00922006,-0.00847253,0.04888212,
 0.00457542,0.00030700,0.00262072,0.00096609,-0.00008496,-0.00039143,-0
 .00031134,0.00020967,0.00354124,-0.00006554,0.00003294,0.00248128,-0.0
 0087130,-0.00025613,0.00001162,-0.00033911,-0.00021255,0.00028636,0.00
 017634,-0.00051663,0.00009136,0.00000091,-0.00001068,-0.00001077,-0.00
 013957,-0.00017606,0.00014724,-0.01864243,-0.09593074,-0.02699365,-0.0
 4178187,0.00113575,-0.04844317,0.04721233,0.10397492,-0.02334185,0.049
 11946,-0.06963008,-0.00890506,-0.01282160,-0.00611870,-0.00025275,0.00
 127245,0.00163483,0.00118737,0.00290187,0.00218016,0.00109671,0.001823
 98,0.00101762,0.00180892,0.00017043,0.00014033,-0.00022812,0.00004011,
 0.00009107,0.00059166,0.00019720,-0.00034269,-0.00009690,-0.00003217,0
 .00000558,0.00029281,0.00036218,-0.00019460,-0.16456300,-0.01804121,-0
 .38130343,-0.05987091,-0.04276975,-0.03855802,0.25228111,0.01777707,0.
 49107794\\0.00000548,0.00002454,-0.00001621,0.00000407,0.00000353,-0.0
 0000340,-0.00000245,0.00000164,0.00000126,-0.00000045,0.00000591,-0.00
 000021,-0.00000154,-0.00000706,-0.00000668,-0.00000622,-0.00000077,-0.
 00000989,0.00000335,-0.00000728,-0.00001003,0.00000636,-0.00001045,0.0
 0000770,0.00000284,-0.00000775,-0.00000429,0.00000274,-0.00000386,-0.0
 0000293,-0.00000672,-0.00002279,0.00002814,-0.00000171,0.00001461,0.00
 001832,-0.00000576,0.00000974,-0.00000177\\\@
 The archive entry for this job was punched.


 WISDOM IS KNOWING WHAT TO DO,
 SKILL IS KNOWING HOW TO DO IT,
 AND VIRTUE IS NOT DOING IT.
 Job cpu time:       0 days  0 hours 19 minutes 24.9 seconds.
 Elapsed time:       0 days  0 hours 10 minutes 27.1 seconds.
 File lengths (MBytes):  RWF=    114 Int=      0 D2E=      0 Chk=     14 Scr=      1
 Normal termination of Gaussian 16 at Fri Jun  2 11:46:24 2023.
