 Entering Gaussian System, Link 0=g16
 Input=MEA-H_dissociation-site_index-0-freq.gjf
 Output=MEA-H_dissociation-site_index-0-freq.log
 Initial command:
 /software/commercial/gaussian/g16/AVX/g16/l1.exe "/scratch1/svicchi/G09-659878.pbs02/Gau-2430840.inp" -scrdir="/scratch1/svicchi/G09-659878.pbs02/"
 Entering Link 1 = /software/commercial/gaussian/g16/AVX/g16/l1.exe PID=   2430841.
  
 Copyright (c) 1988-2019, Gaussian, Inc.  All Rights Reserved.
  
 This is part of the Gaussian(R) 16 program.  It is based on
 the Gaussian(R) 09 system (copyright 2009, Gaussian, Inc.),
 the Gaussian(R) 03 system (copyright 2003, Gaussian, Inc.),
 the Gaussian(R) 98 system (copyright 1998, Gaussian, Inc.),
 the Gaussian(R) 94 system (copyright 1995, Gaussian, Inc.),
 the Gaussian 92(TM) system (copyright 1992, Gaussian, Inc.),
 the Gaussian 90(TM) system (copyright 1990, Gaussian, Inc.),
 the Gaussian 88(TM) system (copyright 1988, Gaussian, Inc.),
 the Gaussian 86(TM) system (copyright 1986, Carnegie Mellon
 University), and the Gaussian 82(TM) system (copyright 1983,
 Carnegie Mellon University). Gaussian is a federally registered
 trademark of Gaussian, Inc.
  
 This software contains proprietary and confidential information,
 including trade secrets, belonging to Gaussian, Inc.
  
 This software is provided under written license and may be
 used, copied, transmitted, or stored only in accord with that
 written license.
  
 The following legend is applicable only to US Government
 contracts under FAR:
  
                    RESTRICTED RIGHTS LEGEND
  
 Use, reproduction and disclosure by the US Government is
 subject to restrictions as set forth in subparagraphs (a)
 and (c) of the Commercial Computer Software - Restricted
 Rights clause in FAR 52.227-19.
  
 Gaussian, Inc.
 340 Quinnipiac St., Bldg. 40, Wallingford CT 06492
  
  
 ---------------------------------------------------------------
 Warning -- This program may not be used in any manner that
 competes with the business of Gaussian, Inc. or will provide
 assistance to any competitor of Gaussian, Inc.  The licensee
 of this program is prohibited from giving any competitor of
 Gaussian, Inc. access to this program.  By using this program,
 the user acknowledges that Gaussian, Inc. is engaged in the
 business of creating and licensing software in the field of
 computational chemistry and represents and warrants to the
 licensee that it is not a competitor of Gaussian, Inc. and that
 it will not use this program in any manner prohibited above.
 ---------------------------------------------------------------
  

 Cite this work as:
 Gaussian 16, Revision C.01,
 M. J. Frisch, G. W. Trucks, H. B. Schlegel, G. E. Scuseria, 
 M. A. Robb, J. R. Cheeseman, G. Scalmani, V. Barone, 
 G. A. Petersson, H. Nakatsuji, X. Li, M. Caricato, A. V. Marenich, 
 J. Bloino, B. G. Janesko, R. Gomperts, B. Mennucci, H. P. Hratchian, 
 J. V. Ortiz, A. F. Izmaylov, J. L. Sonnenberg, D. Williams-Young, 
 F. Ding, F. Lipparini, F. Egidi, J. Goings, B. Peng, A. Petrone, 
 T. Henderson, D. Ranasinghe, V. G. Zakrzewski, J. Gao, N. Rega, 
 G. Zheng, W. Liang, M. Hada, M. Ehara, K. Toyota, R. Fukuda, 
 J. Hasegawa, M. Ishida, T. Nakajima, Y. Honda, O. Kitao, H. Nakai, 
 T. Vreven, K. Throssell, J. A. Montgomery, Jr., J. E. Peralta, 
 F. Ogliaro, M. J. Bearpark, J. J. Heyd, E. N. Brothers, K. N. Kudin, 
 V. N. Staroverov, T. A. Keith, R. Kobayashi, J. Normand, 
 K. Raghavachari, A. P. Rendell, J. C. Burant, S. S. Iyengar, 
 J. Tomasi, M. Cossi, J. M. Millam, M. Klene, C. Adamo, R. Cammi, 
 J. W. Ochterski, R. L. Martin, K. Morokuma, O. Farkas, 
 J. B. Foresman, and D. J. Fox, Gaussian, Inc., Wallingford CT, 2019.
 
 ******************************************
 Gaussian 16:  ES64L-G16RevC.01  3-Jul-2019
                 2-Jun-2023 
 ******************************************
 %NProcShared=2
 Will use up to    2 processors via shared memory.
 %mem=55gb
 %chk=/scratch1/svicchi/G09-659878.pbs02/02-freq/MEA-H_dissociation-site_index-0-
 freq.chk
 ----------------------------------------------------------------------
 #p freq=raman scale=0.967 pop=(nbo,full,hirshfeld) guess=read geom=all
 check b3lyp/6-311+G(d,p) int=grid=ultrafine EmpiricalDispersion=GD3BJ 
 SCRF=(Solvent=ethanol) scf=(xqc,intrep,maxconventionalcycle=350) nosym
 m
 ----------------------------------------------------------------------
 1/10=4,29=7,30=1,38=1,114=967000/1,3;
 2/12=2,15=1,40=1/2;
 3/5=4,6=6,7=111,11=2,14=-4,25=1,30=1,70=2201,71=2,72=4,74=-5,75=-5,116=-2,124=41,140=1/1,2,3;
 4/5=1/1;
 5/5=2,8=3,13=1,17=20,38=6,53=4,85=350,98=1/2,8;
 8/6=4,10=90,11=11/1;
 10/13=10,15=4,31=1/2;
 11/6=3,8=1,9=11,15=111,16=1,31=1/1,2,10;
 10/6=1,31=1/2;
 6/7=3,28=1,40=1,79=1/1,7;
 7/8=1,10=1,25=1,30=1/1,2,3,16;
 1/10=4,30=1/3;
 99//99;
 Leave Link    1 at Fri Jun  2 11:28:41 2023, MaxMem=  7381975040 cpu:               1.7 elap:               1.9
 (Enter /software/commercial/gaussian/g16/AVX/g16/l101.exe)
 Structure from the checkpoint file:  "/scratch1/svicchi/G09-659878.pbs02/02-freq/MEA-H_dissociation-site_index-0-freq.chk"
 -----------------------------------
 MEA-H_dissociation-site_index-0.gjf
 -----------------------------------
 Charge = -1 Multiplicity = 1
 No Z-Matrix found in chk file; cartesian coordinates used.
  O                                                 2.073989640704     -0.749391158292      0.068411461551
  C                                                 3.057397111960      0.205001769497      0.054220487388
  C                                                 4.489211285932     -0.362018217176     -0.048445456250
  H                                                 3.057794409822      0.861262935216      0.959726368784
  H                                                 2.963246902474      0.925868121894     -0.801904971024
  N                                                 5.500528752285      0.713464757509     -0.100805402615
  H                                                 4.529396598397     -1.028773233310     -0.924382461322
  H                                                 4.690792081120     -0.977558753290      0.835405763407
  H                                                 5.363620429253      1.265209663209     -0.943816798913
  H                                                 6.434986788053      0.321474114744     -0.170442991007
 Recover connectivity data from disk.
 ITRead=  0  0  0  0  0  0  0  0  0  0
 MicOpt= -1 -1 -1 -1 -1 -1 -1 -1 -1 -1
 NAtoms=     10 NQM=       10 NQMF=       0 NMMI=      0 NMMIF=      0
                NMic=       0 NMicF=      0.
                    Isotopes and Nuclear Properties:
 (Nuclear quadrupole moments (NQMom) in fm**2, nuclear magnetic moments (NMagM)
  in nuclear magnetons)

  Atom         1           2           3           4           5           6           7           8           9          10
 IAtWgt=          16          12          12           1           1          14           1           1           1           1
 AtmWgt=  15.9949146  12.0000000  12.0000000   1.0078250   1.0078250  14.0030740   1.0078250   1.0078250   1.0078250   1.0078250
 NucSpn=           0           0           0           1           1           2           1           1           1           1
 AtZEff=   5.6000000   3.6000000   3.6000000   1.0000000   1.0000000   4.5500000   1.0000000   1.0000000   1.0000000   1.0000000
 NQMom=    0.0000000   0.0000000   0.0000000   0.0000000   0.0000000   2.0440000   0.0000000   0.0000000   0.0000000   0.0000000
 NMagM=    0.0000000   0.0000000   0.0000000   2.7928460   2.7928460   0.4037610   2.7928460   2.7928460   2.7928460   2.7928460
 AtZNuc=   8.0000000   6.0000000   6.0000000   1.0000000   1.0000000   7.0000000   1.0000000   1.0000000   1.0000000   1.0000000
 Leave Link  101 at Fri Jun  2 11:28:43 2023, MaxMem=  7381975040 cpu:               0.6 elap:               1.3
 (Enter /software/commercial/gaussian/g16/AVX/g16/l103.exe)

 GradGradGradGradGradGradGradGradGradGradGradGradGradGradGradGradGradGrad
 Berny optimization.
 Initialization pass.
 Trust Radius=3.00D-01 FncErr=1.00D-07 GrdErr=1.00D-07 EigMax=2.50D+02 EigMin=1.00D-04
 Number of steps in this run=      2 maximum allowed number of steps=      2.
 GradGradGradGradGradGradGradGradGradGradGradGradGradGradGradGradGradGrad

 Leave Link  103 at Fri Jun  2 11:28:46 2023, MaxMem=  7381975040 cpu:               0.2 elap:               1.2
 (Enter /software/commercial/gaussian/g16/AVX/g16/l202.exe)
                          Input orientation:                          
 ---------------------------------------------------------------------
 Center     Atomic      Atomic             Coordinates (Angstroms)
 Number     Number       Type             X           Y           Z
 ---------------------------------------------------------------------
      1          8           0        2.073990   -0.749391    0.068411
      2          6           0        3.057397    0.205002    0.054220
      3          6           0        4.489211   -0.362018   -0.048445
      4          1           0        3.057794    0.861263    0.959726
      5          1           0        2.963247    0.925868   -0.801905
      6          7           0        5.500529    0.713465   -0.100805
      7          1           0        4.529397   -1.028773   -0.924382
      8          1           0        4.690792   -0.977559    0.835406
      9          1           0        5.363620    1.265210   -0.943817
     10          1           0        6.434987    0.321474   -0.170443
 ---------------------------------------------------------------------
                    Distance matrix (angstroms):
                    1          2          3          4          5
     1  O    0.000000
     2  C    1.370459   0.000000
     3  C    2.448879   1.543420   0.000000
     4  H    2.087228   1.118311   2.135833   0.000000
     5  H    2.086797   1.123149   2.134226   1.765349   0.000000
     6  N    3.729578   2.500292   1.477216   2.667119   2.640919
     7  H    2.663216   2.155608   1.101564   3.047575   2.507678
     8  H    2.736420   2.162563   1.095773   2.462398   3.047660
     9  H    3.988094   2.727414   2.052840   3.017198   2.428391
    10  H    4.496899   3.387056   2.065935   3.601955   3.580086
                    6          7          8          9         10
     6  N    0.000000
     7  H    2.157955   0.000000
     8  H    2.095644   1.767916   0.000000
     9  H    1.016777   2.441038   2.940806   0.000000
    10  H    1.015735   2.454153   2.396129   1.623752   0.000000
 Symmetry turned off by external request.
 Stoichiometry    C2H6NO(1-)
 Framework group  C1[X(C2H6NO)]
 Deg. of freedom    24
 Full point group                 C1      NOp   1
 Rotational constants (GHZ):          30.4311466           3.9633567           3.7039077
 Leave Link  202 at Fri Jun  2 11:28:48 2023, MaxMem=  7381975040 cpu:               0.1 elap:               0.8
 (Enter /software/commercial/gaussian/g16/AVX/g16/l301.exe)
 Standard basis: 6-311+G(d,p) (5D, 7F)
 Ernie: Thresh=  0.10000D-02 Tol=  0.10000D-05 Strict=F.
   124 basis functions,   192 primitive gaussians,   128 cartesian basis functions
    17 alpha electrons       17 beta electrons
       nuclear repulsion energy       121.6577807756 Hartrees.
 IExCor=  402 DFT=T Ex+Corr=B3LYP ExCW=0 ScaHFX=  0.200000
 ScaDFX=  0.800000  0.720000  1.000000  0.810000 ScalE2=  1.000000  1.000000
 IRadAn=      5 IRanWt=     -1 IRanGd=            0 ICorTp=0 IEmpDi=141
 NAtoms=   10 NActive=   10 NUniq=   10 SFac= 1.00D+00 NAtFMM=   60 NAOKFM=F Big=F
 Integral buffers will be    131072 words long.
 Raffenetti 2 integral format.
 Two-electron integral symmetry is turned off.
 R6Disp:  Grimme-D3(BJ) Dispersion energy=       -0.0094534881 Hartrees.
 Nuclear repulsion after empirical dispersion term =      121.6483272875 Hartrees.
 Force inversion solution in PCM.
 ------------------------------------------------------------------------------
 Polarizable Continuum Model (PCM)
 =================================
 Model                : PCM.
 Atomic radii         : UFF (Universal Force Field).
 Polarization charges : Total charges.
 Charge compensation  : None.
 Solution method      : Matrix inversion.
 Cavity type          : Scaled VdW (van der Waals Surface) (Alpha=1.100).
 Cavity algorithm     : GePol (No added spheres)
                        Default sphere list used, NSphG=   10.
                        Lebedev-Laikov grids with approx.  5.0 points / Ang**2.
                        Smoothing algorithm: York/Karplus (Gamma=1.0000).
                        Polarization charges: spherical gaussians, with
                                              point-specific exponents (IZeta= 3).
                        Self-potential: point-specific (ISelfS= 7).
                        Self-field    : sphere-specific E.n sum rule (ISelfD= 2).
 1st derivatives      : Analytical E(r).r(x)/FMM algorithm (CHGder, D1EAlg=3).
                        Cavity 1st derivative terms included.
 2nd derivatives      : Analytical E(r).r(xy)/FMM algorithm (CHGder, D2EAlg=3).
                        Cavity 2nd derivative terms included.
 Solvent              : Ethanol, Eps=  24.852000 Eps(inf)=   1.852593
 ------------------------------------------------------------------------------
 Spheres list:
 ISph  on   Nord     Re0    Alpha      Xe            Ye            Ze
    1   O      1    1.7500  1.100      2.073990     -0.749391      0.068411
    2   C      2    1.9255  1.100      3.057397      0.205002      0.054220
    3   C      3    1.9255  1.100      4.489211     -0.362018     -0.048445
    4   H      4    1.4430  1.100      3.057794      0.861263      0.959726
    5   H      5    1.4430  1.100      2.963247      0.925868     -0.801905
    6   N      6    1.8300  1.100      5.500529      0.713465     -0.100805
    7   H      7    1.4430  1.100      4.529397     -1.028773     -0.924382
    8   H      8    1.4430  1.100      4.690792     -0.977559      0.835406
    9   H      9    1.4430  1.100      5.363620      1.265210     -0.943817
   10   H     10    1.4430  1.100      6.434987      0.321474     -0.170443
 ------------------------------------------------------------------------------
 GePol: Number of generator spheres                  =      10
 GePol: Total number of spheres                      =      10
 GePol: Number of exposed spheres                    =      10 (100.00%)
 GePol: Number of points                             =     912
 GePol: Average weight of points                     =       0.14
 GePol: Minimum weight of points                     =   0.82D-08
 GePol: Maximum weight of points                     =    0.20577
 GePol: Number of points with low weight             =      44
 GePol: Fraction of low-weight points (<1% of avg)   =       4.82%
 GePol: Cavity surface area                          =    124.103 Ang**2
 GePol: Cavity volume                                =    106.804 Ang**3
 Leave Link  301 at Fri Jun  2 11:28:50 2023, MaxMem=  7381975040 cpu:               0.4 elap:               0.8
 (Enter /software/commercial/gaussian/g16/AVX/g16/l302.exe)
 NPDir=0 NMtPBC=     1 NCelOv=     1 NCel=       1 NClECP=     1 NCelD=      1
         NCelK=      1 NCelE2=     1 NClLst=     1 CellRange=     0.0.
 One-electron integrals computed using PRISM.
 NBasis=   124 RedAO= T EigKep=  1.10D-04  NBF=   124
 NBsUse=   124 1.00D-06 EigRej= -1.00D+00 NBFU=   124
 Precomputing XC quadrature grid using
 IXCGrd= 4 IRadAn=           5 IRanWt=          -1 IRanGd=           0 AccXCQ= 0.00D+00.
 Generated NRdTot=       0 NPtTot=           0 NUsed=           0 NTot=          32
 NSgBfM=   128   128   128   128   128 MxSgAt=    10 MxSgA2=    10.
 Leave Link  302 at Fri Jun  2 11:28:53 2023, MaxMem=  7381975040 cpu:               0.7 elap:               1.3
 (Enter /software/commercial/gaussian/g16/AVX/g16/l303.exe)
 DipDrv:  MaxL=1.
 Leave Link  303 at Fri Jun  2 11:28:54 2023, MaxMem=  7381975040 cpu:               0.1 elap:               0.7
 (Enter /software/commercial/gaussian/g16/AVX/g16/l401.exe)
 Initial guess from the checkpoint file:  "/scratch1/svicchi/G09-659878.pbs02/02-freq/MEA-H_dissociation-site_index-0-freq.chk"
 B after Tr=     0.000000    0.000000    0.000000
         Rot=    1.000000    0.000000    0.000000    0.000000 Ang=   0.00 deg.
 Guess basis will be translated and rotated to current coordinates.
 JPrj=2 DoOrth=T DoCkMO=T.
 Leave Link  401 at Fri Jun  2 11:28:57 2023, MaxMem=  7381975040 cpu:               1.2 elap:               2.4
 (Enter /software/commercial/gaussian/g16/AVX/g16/l502.exe)
 Keep R1 ints in memory in canonical form, NReq=31947375.
 FoFCou: FMM=F IPFlag=           0 FMFlag=           0 FMFlg1=           0
         NFxFlg=           0 DoJE=F BraDBF=F KetDBF=F FulRan=T
         wScrn=  0.000000 ICntrl=       600 IOpCl=  0 I1Cent=           0 NGrid=           0
         NMat0=    1 NMatS0=   7750 NMatT0=    0 NMatD0=    1 NMtDS0=    0 NMtDT0=    0
 Symmetry not used in FoFCou.
 Two-electron integral symmetry not used.
 Closed shell SCF:
 Using DIIS extrapolation, IDIIS=  1040.
 NGot=  7381975040 LenX=  7351905033 LenY=  7351888208
 Requested convergence on RMS density matrix=1.00D-08 within 350 cycles.
 Requested convergence on MAX density matrix=1.00D-06.
 Requested convergence on             energy=1.00D-06.
 No special actions if energy rises.

 Cycle   1  Pass 1  IDiag  1:
 Inv3:  Mode=1 IEnd=     2495232.
 Iteration    1 A*A^-1 deviation from unit magnitude is 2.44D-15 for    891.
 Iteration    1 A*A^-1 deviation from orthogonality  is 1.15D-15 for    873     55.
 Iteration    1 A^-1*A deviation from unit magnitude is 2.00D-15 for    911.
 Iteration    1 A^-1*A deviation from orthogonality  is 1.11D-15 for    681    127.
 E= -209.965626410004    
 DIIS: error= 4.28D-09 at cycle   1 NSaved=   1.
 NSaved= 1 IEnMin= 1 EnMin= -209.965626410004     IErMin= 1 ErrMin= 4.28D-09
 ErrMax= 4.28D-09  0.00D+00 EMaxC= 1.00D-01 BMatC= 1.85D-15 BMatP= 1.85D-15
 IDIUse=1 WtCom= 1.00D+00 WtEn= 0.00D+00
 Coeff-Com:  0.100D+01
 Coeff:      0.100D+01
 Gap=     0.183 Goal=   None    Shift=    0.000
 RMSDP=1.03D-09 MaxDP=2.58D-08              OVMax= 2.33D-08

 Error on total polarization charges =  0.02393
 SCF Done:  E(RB3LYP) =  -209.965626410     A.U. after    1 cycles
            NFock=  1  Conv=0.10D-08     -V/T= 2.0045
 KE= 2.090224877869D+02 PE=-7.422934338278D+02 EE= 2.016569923433D+02
 Leave Link  502 at Fri Jun  2 11:29:08 2023, MaxMem=  7381975040 cpu:              10.6 elap:               8.3
 (Enter /software/commercial/gaussian/g16/AVX/g16/l508.exe)
 QCSCF skips out because SCF is already converged.
 Leave Link  508 at Fri Jun  2 11:29:12 2023, MaxMem=  7381975040 cpu:               0.0 elap:               1.3
 (Enter /software/commercial/gaussian/g16/AVX/g16/l801.exe)
 DoSCS=F DFT=T ScalE2(SS,OS)=  1.000000  1.000000
 Range of M.O.s used for correlation:     1   124
 NBasis=   124 NAE=    17 NBE=    17 NFC=     0 NFV=     0
 NROrb=    124 NOA=    17 NOB=    17 NVA=   107 NVB=   107

 **** Warning!!: The largest alpha MO coefficient is  0.36045472D+02

 Leave Link  801 at Fri Jun  2 11:29:14 2023, MaxMem=  7381975040 cpu:               0.1 elap:               1.3
 (Enter /software/commercial/gaussian/g16/AVX/g16/l1002.exe)
 Minotr:  Closed shell wavefunction.
 NEqPCM:  Using equilibrium solvation (IEInf=0, Eps=  24.8520, EpsInf=   1.8526)
          Direct CPHF calculation.
          Differentiating once with respect to electric field.
                with respect to dipole field.
          Electric field/nuclear overlap derivatives assumed to be zero.
          Requested convergence is 1.0D-08 RMS, and 1.0D-07 maximum.
          Secondary convergence is 1.0D-12 RMS, and 1.0D-12 maximum.
          NewPWx=F KeepS1=T KeepF1=T KeepIn=T MapXYZ=F SortEE=F KeepMc=T.
         3044 words used for storage of precomputed grid.
 Keep R1 ints in memory in canonical form, NReq=33410768.
 FoFCou: FMM=F IPFlag=           0 FMFlag=           0 FMFlg1=           0
         NFxFlg=           0 DoJE=F BraDBF=F KetDBF=F FulRan=T
         wScrn=  0.000000 ICntrl=       600 IOpCl=  0 I1Cent=           0 NGrid=           0
         NMat0=    1 NMatS0=   7750 NMatT0=    0 NMatD0=    1 NMtDS0=    0 NMtDT0=    0
 Symmetry not used in FoFCou.
 Two-electron integral symmetry not used.
          MDV=    7381975040 using IRadAn=       1.
          Solving linear equations simultaneously, MaxMat=       0.
          There are     3 degrees of freedom in the 1st order CPHF.  IDoFFX=0 NUNeed=     3.
      3 vectors produced by pass  0 Test12= 6.06D-14 3.33D-08 XBig12= 3.94D+01 2.41D+00.
 AX will form     3 AO Fock derivatives at one time.
      3 vectors produced by pass  1 Test12= 6.06D-14 3.33D-08 XBig12= 5.34D+00 8.23D-01.
      3 vectors produced by pass  2 Test12= 6.06D-14 3.33D-08 XBig12= 1.16D+00 3.07D-01.
      3 vectors produced by pass  3 Test12= 6.06D-14 3.33D-08 XBig12= 1.37D-01 1.17D-01.
      3 vectors produced by pass  4 Test12= 6.06D-14 3.33D-08 XBig12= 3.70D-02 5.18D-02.
      3 vectors produced by pass  5 Test12= 6.06D-14 3.33D-08 XBig12= 1.25D-03 8.64D-03.
      3 vectors produced by pass  6 Test12= 6.06D-14 3.33D-08 XBig12= 3.46D-05 1.10D-03.
      3 vectors produced by pass  7 Test12= 6.06D-14 3.33D-08 XBig12= 1.10D-06 2.30D-04.
      3 vectors produced by pass  8 Test12= 6.06D-14 3.33D-08 XBig12= 2.38D-08 2.91D-05.
      3 vectors produced by pass  9 Test12= 6.06D-14 3.33D-08 XBig12= 6.34D-10 3.76D-06.
      3 vectors produced by pass 10 Test12= 6.06D-14 3.33D-08 XBig12= 1.16D-11 4.69D-07.
      1 vectors produced by pass 11 Test12= 6.06D-14 3.33D-08 XBig12= 1.43D-13 9.18D-08.
 InvSVY:  IOpt=1 It=  1 EMax= 2.66D-15
 Solved reduced A of dimension    34 with     3 vectors.
 End of Minotr F.D. properties file   721 does not exist.
 End of Minotr F.D. properties file   722 does not exist.
 End of Minotr F.D. properties file   788 does not exist.
 Leave Link 1002 at Fri Jun  2 11:29:44 2023, MaxMem=  7381975040 cpu:              47.0 elap:              28.9
 (Enter /software/commercial/gaussian/g16/AVX/g16/l1101.exe)
 Using compressed storage, NAtomX=    10.
 Will process     11 centers per pass.
 R6Disp: Adding Grimme-D3(BJ) dispersion energy 1st derivatives to the gradient.
 Leave Link 1101 at Fri Jun  2 11:29:46 2023, MaxMem=  7381975040 cpu:               0.6 elap:               1.2
 (Enter /software/commercial/gaussian/g16/AVX/g16/l1102.exe)
 Symmetrizing basis deriv contribution to polar:
 IMax=3 JMax=2 DiffMx= 0.00D+00
 Leave Link 1102 at Fri Jun  2 11:29:48 2023, MaxMem=  7381975040 cpu:               0.2 elap:               0.8
 (Enter /software/commercial/gaussian/g16/AVX/g16/l1110.exe)
 Forming Gx(P) for the SCF density, NAtomX=    10.
 Integral derivatives from FoFJK, PRISM(SPDF).
 Do as many integral derivatives as possible in FoFJK.
 G2DrvN: MDV=    7381973874.
 G2DrvN: will do    11 centers at a time, making    1 passes.
 PxScal for G2LodP:  IOpCl= 0 ISclPx=1 IMOff=     1 NMtTot=     4 NTT=    7750 ScalPx= 2.18D+01
 Calling FoFCou, ICntrl=  3107 FMM=F I1Cent=   0 AccDes= 0.00D+00.
 FoFJK:  IHMeth= 1 ICntrl=    3107 DoSepK=F KAlg= 0 I1Cent=           0 FoldK=F
 IRaf=         0 NMat=       1 IRICut=       1 DoRegI=T DoRafI=F ISym2E= 0 IDoP0=0 IntGTp=1.
 FoFCou: FMM=F IPFlag=           0 FMFlag=      100000 FMFlg1=           0
         NFxFlg=           0 DoJE=F BraDBF=F KetDBF=F FulRan=T
         wScrn=  0.000000 ICntrl=      3107 IOpCl=  0 I1Cent=           0 NGrid=           0
         NMat0=    1 NMatS0=      1 NMatT0=    0 NMatD0=    4 NMtDS0=    3 NMtDT0=    0
 Symmetry not used in FoFCou.
 PxScal for G2LodP:  IOpCl= 0 ISclPx=0 IMOff=     1 NMtTot=     4 NTT=    7750 ScalPx= 1.00D+00
 NEqPCM:  Using equilibrium solvation (IEInf=0, Eps=  24.8520, EpsInf=   1.8526)
 G2PCM: DoFxE=T DoFxN=T DoGrad=T DoDP/DQ/DG/TGxP=TFFF NFrqRd=   0 IEInf=0 SqF1=F DoCFld=F IF1Alg=4.
 GePol: Maximum number of non-zero 1st derivatives   =     229
 End of G2Drv F.D. properties file   721 does not exist.
 End of G2Drv F.D. properties file   722 does not exist.
 End of G2Drv F.D. properties file   788 does not exist.
 Leave Link 1110 at Fri Jun  2 11:30:50 2023, MaxMem=  7381975040 cpu:             117.7 elap:              61.3
 (Enter /software/commercial/gaussian/g16/AVX/g16/l1002.exe)
 Minotr:  Closed shell wavefunction.
          IDoAtm=1111111111
 NEqPCM:  Using equilibrium solvation (IEInf=0, Eps=  24.8520, EpsInf=   1.8526)
          Direct CPHF calculation.
          Differentiating once with respect to electric field.
                with respect to dipole field.
          Differentiating once with respect to nuclear coordinates.
          Requested convergence is 1.0D-08 RMS, and 1.0D-07 maximum.
          Secondary convergence is 1.0D-12 RMS, and 1.0D-12 maximum.
          NewPWx=T KeepS1=F KeepF1=F KeepIn=T MapXYZ=F SortEE=F KeepMc=T.
         3044 words used for storage of precomputed grid.
 Keep R1 ints in memory in canonical form, NReq=33410998.
 FoFCou: FMM=F IPFlag=           0 FMFlag=           0 FMFlg1=           0
         NFxFlg=           0 DoJE=F BraDBF=F KetDBF=F FulRan=T
         wScrn=  0.000000 ICntrl=       600 IOpCl=  0 I1Cent=           0 NGrid=           0
         NMat0=    1 NMatS0=   7750 NMatT0=    0 NMatD0=    1 NMtDS0=    0 NMtDT0=    0
 Symmetry not used in FoFCou.
 Two-electron integral symmetry not used.
          MDV=    7381975040 using IRadAn=       1.
          Solving linear equations simultaneously, MaxMat=       0.
          There are    33 degrees of freedom in the 1st order CPHF.  IDoFFX=5 NUNeed=    33.
 Will reuse    3 saved solutions.
     27 vectors produced by pass  0 Test12= 5.51D-15 3.03D-09 XBig12= 8.79D-02 8.02D-02.
 AX will form    27 AO Fock derivatives at one time.
     27 vectors produced by pass  1 Test12= 5.51D-15 3.03D-09 XBig12= 8.95D-03 1.79D-02.
     27 vectors produced by pass  2 Test12= 5.51D-15 3.03D-09 XBig12= 1.72D-04 3.41D-03.
     27 vectors produced by pass  3 Test12= 5.51D-15 3.03D-09 XBig12= 5.48D-07 1.23D-04.
     27 vectors produced by pass  4 Test12= 5.51D-15 3.03D-09 XBig12= 1.17D-09 7.30D-06.
     23 vectors produced by pass  5 Test12= 5.51D-15 3.03D-09 XBig12= 1.56D-12 2.55D-07.
      9 vectors produced by pass  6 Test12= 5.51D-15 3.03D-09 XBig12= 1.78D-15 8.00D-09.
 InvSVY:  IOpt=1 It=  1 EMax= 2.11D-15
 Solved reduced A of dimension   167 with    27 vectors.
 FullF1:  Do perturbations      1 to       3.
 Isotropic polarizability for W=    0.000000       63.13 Bohr**3.
 FullF1:  Do perturbations      1 to       6.
 End of Minotr F.D. properties file   721 does not exist.
 End of Minotr F.D. properties file   722 does not exist.
 End of Minotr F.D. properties file   788 does not exist.
 Leave Link 1002 at Fri Jun  2 11:32:02 2023, MaxMem=  7381975040 cpu:             123.6 elap:              70.7
 (Enter /software/commercial/gaussian/g16/AVX/g16/l601.exe)
 Copying SCF densities to generalized density rwf, IOpCl= 0 IROHF=0.

 **********************************************************************

            Population analysis using the SCF Density.

 **********************************************************************

 Alpha  occ. eigenvalues --  -18.99006 -14.28336 -10.16262 -10.16152  -0.88317
 Alpha  occ. eigenvalues --   -0.85797  -0.66181  -0.55230  -0.46775  -0.43403
 Alpha  occ. eigenvalues --   -0.40597  -0.34969  -0.33054  -0.31692  -0.23693
 Alpha  occ. eigenvalues --   -0.17210  -0.16876
 Alpha virt. eigenvalues --    0.01376   0.03167   0.03725   0.04870   0.07729
 Alpha virt. eigenvalues --    0.08478   0.08608   0.10986   0.13037   0.13538
 Alpha virt. eigenvalues --    0.15016   0.18810   0.19826   0.20573   0.21425
 Alpha virt. eigenvalues --    0.21895   0.23718   0.24728   0.25011   0.26396
 Alpha virt. eigenvalues --    0.28372   0.29318   0.31537   0.34481   0.37068
 Alpha virt. eigenvalues --    0.43953   0.46686   0.50274   0.55118   0.57345
 Alpha virt. eigenvalues --    0.60000   0.63529   0.65607   0.67440   0.69220
 Alpha virt. eigenvalues --    0.69985   0.71633   0.78095   0.83561   0.84405
 Alpha virt. eigenvalues --    0.91392   0.96537   1.05745   1.09543   1.15319
 Alpha virt. eigenvalues --    1.18050   1.20070   1.22402   1.30877   1.35565
 Alpha virt. eigenvalues --    1.41430   1.51792   1.56383   1.58264   1.58541
 Alpha virt. eigenvalues --    1.62600   1.65440   1.67556   1.67891   1.70652
 Alpha virt. eigenvalues --    1.77895   1.81654   1.83188   1.84802   1.94422
 Alpha virt. eigenvalues --    2.04477   2.06575   2.09160   2.20789   2.23655
 Alpha virt. eigenvalues --    2.31523   2.42166   2.46717   2.49217   2.50794
 Alpha virt. eigenvalues --    2.53314   2.58478   2.62886   2.66617   2.68088
 Alpha virt. eigenvalues --    2.73663   2.76525   2.81855   2.90508   2.96348
 Alpha virt. eigenvalues --    2.99350   2.99494   3.06047   3.12892   3.24331
 Alpha virt. eigenvalues --    3.34526   3.35752   3.56305   3.76883   3.84603
 Alpha virt. eigenvalues --    4.04273   4.10836   4.24409   4.72742   4.83682
 Alpha virt. eigenvalues --    5.13148   5.18525   5.69389  23.84775  23.87406
 Alpha virt. eigenvalues --   35.59187  50.00239
     Molecular Orbital Coefficients:
                           1         2         3         4         5
                           O         O         O         O         O
     Eigenvalues --   -18.99006 -14.28336 -10.16262 -10.16152  -0.88317
   1 1   O  1S          0.55136   0.00000  -0.00003   0.00000  -0.08739
   2        2S          0.46979   0.00001  -0.00007   0.00001  -0.13965
   3        2PX         0.00073   0.00002   0.00017   0.00001   0.03502
   4        2PY         0.00070   0.00001   0.00016   0.00001   0.03235
   5        2PZ        -0.00001  -0.00000  -0.00000  -0.00000  -0.00063
   6        3S          0.01317  -0.00010   0.00060  -0.00000   0.40193
   7        3PX         0.00012  -0.00008  -0.00020  -0.00011   0.05389
   8        3PY         0.00008  -0.00003  -0.00019  -0.00009   0.05001
   9        3PZ        -0.00000   0.00000   0.00001   0.00001  -0.00095
  10        4S         -0.00951   0.00041  -0.00075  -0.00055   0.30449
  11        4PX        -0.00110   0.00031  -0.00008  -0.00025   0.02434
  12        4PY        -0.00087   0.00011  -0.00029  -0.00012   0.02128
  13        4PZ         0.00004  -0.00000  -0.00001  -0.00000  -0.00065
  14        5S          0.00587   0.00087   0.00553  -0.00018  -0.01458
  15        5PX         0.00041   0.00043   0.00205   0.00001  -0.00625
  16        5PY         0.00027   0.00039   0.00138   0.00016  -0.00327
  17        5PZ        -0.00000   0.00000  -0.00004   0.00005   0.00015
  18        6D 0       -0.00004   0.00001   0.00022  -0.00001  -0.00508
  19        6D+1       -0.00000  -0.00000   0.00000  -0.00000  -0.00018
  20        6D-1        0.00000   0.00000   0.00001   0.00000  -0.00016
  21        6D+2        0.00000   0.00001   0.00001  -0.00000   0.00063
  22        6D-2        0.00004  -0.00001  -0.00038  -0.00007   0.00856
  23 2   C  1S          0.00001  -0.00000   0.56072  -0.05169  -0.05727
  24        2S         -0.00005   0.00001   0.46141  -0.04252  -0.08834
  25        2PX        -0.00017   0.00006  -0.00014   0.00047  -0.02641
  26        2PY        -0.00022  -0.00002  -0.00041  -0.00019  -0.03516
  27        2PZ         0.00000  -0.00001  -0.00005  -0.00003  -0.00039
  28        3S          0.00018   0.00003   0.01784  -0.00159   0.23391
  29        3PX         0.00003  -0.00035   0.00004  -0.00104  -0.03763
  30        3PY         0.00042   0.00014   0.00185   0.00050  -0.06020
  31        3PZ         0.00001   0.00005   0.00014   0.00010  -0.00103
  32        4S          0.00462  -0.00185  -0.01316   0.00487   0.07067
  33        4PX        -0.00022  -0.00010  -0.00067   0.00195  -0.00567
  34        4PY        -0.00175   0.00089   0.00130  -0.00052  -0.00237
  35        4PZ        -0.00014  -0.00004   0.00005  -0.00017   0.00112
  36        5S         -0.01169   0.00288  -0.00875   0.00744   0.06971
  37        5PX        -0.00114   0.00070  -0.00189   0.00182   0.01051
  38        5PY         0.00259  -0.00001  -0.00062  -0.00055  -0.00930
  39        5PZ         0.00017   0.00002   0.00004  -0.00029  -0.00074
  40        6D 0        0.00023   0.00004   0.00063   0.00031  -0.01325
  41        6D+1        0.00000   0.00001   0.00008   0.00008  -0.00074
  42        6D-1        0.00000   0.00000   0.00002  -0.00003  -0.00015
  43        6D+2       -0.00004  -0.00013  -0.00055  -0.00044   0.00316
  44        6D-2       -0.00036   0.00010   0.00004   0.00055   0.01715
  45 3   C  1S          0.00000   0.00001   0.05166   0.56063  -0.03758
  46        2S          0.00000  -0.00003   0.04251   0.46138  -0.05797
  47        2PX        -0.00006   0.00019  -0.00036   0.00069   0.00048
  48        2PY         0.00002   0.00028   0.00030   0.00049   0.01436
  49        2PZ         0.00000  -0.00000   0.00002  -0.00004  -0.00081
  50        3S          0.00017   0.00004   0.00175   0.01840   0.14992
  51        3PX         0.00028  -0.00016   0.00092  -0.00027  -0.00234
  52        3PY        -0.00014  -0.00073  -0.00104  -0.00212   0.02941
  53        3PZ        -0.00001  -0.00002  -0.00000   0.00012  -0.00136
  54        4S         -0.00230   0.00478   0.00288  -0.01365   0.07585
  55        4PX         0.00118   0.00071  -0.00122   0.00078  -0.00705
  56        4PY        -0.00031   0.00163   0.00075  -0.00180   0.00399
  57        4PZ         0.00004   0.00016   0.00016  -0.00006  -0.00249
  58        5S          0.00980  -0.00696   0.00428  -0.01423  -0.03643
  59        5PX        -0.00264  -0.00050  -0.00003   0.00010   0.01514
  60        5PY         0.00063  -0.00200   0.00117  -0.00146  -0.00283
  61        5PZ         0.00015  -0.00017   0.00013   0.00023  -0.00142
  62        6D 0        0.00005   0.00034   0.00053   0.00086  -0.00707
  63        6D+1        0.00003   0.00004   0.00014   0.00021  -0.00145
  64        6D-1        0.00001   0.00006  -0.00004   0.00002  -0.00113
  65        6D+2       -0.00018  -0.00001  -0.00049  -0.00045   0.00485
  66        6D-2        0.00006  -0.00041   0.00047  -0.00044   0.00437
  67 4   H  1S          0.00001   0.00005   0.00014  -0.00008   0.02384
  68        2S         -0.00093  -0.00031  -0.00268  -0.00044   0.03354
  69        3S          0.00033  -0.00048   0.00356  -0.00024  -0.00842
  70        4PX         0.00012  -0.00014  -0.00001   0.00010  -0.00058
  71        4PY         0.00030   0.00001   0.00104  -0.00001  -0.00565
  72        4PZ         0.00018   0.00012   0.00171   0.00009  -0.00641
  73 5   H  1S          0.00002   0.00004   0.00016  -0.00009   0.02411
  74        2S         -0.00100  -0.00030  -0.00260  -0.00039   0.03484
  75        3S          0.00032  -0.00046   0.00348  -0.00042  -0.00746
  76        4PX         0.00010  -0.00014  -0.00017   0.00011   0.00037
  77        4PY         0.00032   0.00000   0.00111  -0.00001  -0.00616
  78        4PZ        -0.00018  -0.00009  -0.00157  -0.00010   0.00605
  79 6   N  1S         -0.00000   0.55739  -0.00000  -0.00002  -0.04831
  80        2S          0.00001   0.46576   0.00000  -0.00005  -0.07585
  81        2PX        -0.00004   0.00007  -0.00004  -0.00016  -0.00459
  82        2PY         0.00001  -0.00070  -0.00005  -0.00018  -0.01354
  83        2PZ         0.00001  -0.00094  -0.00000  -0.00000  -0.01318
  84        3S         -0.00011   0.01550   0.00011   0.00041   0.20771
  85        3PX         0.00014   0.00053   0.00011   0.00014  -0.00949
  86        3PY        -0.00001   0.00003   0.00015   0.00013  -0.02261
  87        3PZ        -0.00004  -0.00077   0.00001   0.00008  -0.01973
  88        4S          0.00045  -0.00833  -0.00110   0.00046   0.14039
  89        4PX        -0.00055   0.00212   0.00003  -0.00049  -0.00437
  90        4PY         0.00009   0.00139   0.00035  -0.00042  -0.01004
  91        4PZ        -0.00010  -0.00074  -0.00014   0.00011  -0.00669
  92        5S         -0.00089   0.00625   0.00055   0.01082  -0.00906
  93        5PX         0.00019  -0.00140  -0.00111  -0.00046   0.00689
  94        5PY        -0.00018  -0.00095   0.00049  -0.00215   0.00355
  95        5PZ         0.00007   0.00051  -0.00028  -0.00063  -0.00126
  96        6D 0        0.00002  -0.00003   0.00005   0.00015  -0.00217
  97        6D+1        0.00001   0.00001   0.00002  -0.00002   0.00036
  98        6D-1       -0.00003  -0.00055  -0.00000   0.00005  -0.00193
  99        6D+2       -0.00000   0.00029   0.00003   0.00006   0.00096
 100        6D-2       -0.00000  -0.00043  -0.00010  -0.00030   0.00203
 101 7   H  1S          0.00000   0.00001  -0.00006   0.00010   0.01933
 102        2S          0.00010  -0.00113  -0.00103  -0.00288   0.02211
 103        3S         -0.00056   0.00006   0.00064   0.00348  -0.00412
 104        4PX         0.00007  -0.00008  -0.00005   0.00009  -0.00068
 105        4PY        -0.00003  -0.00032  -0.00026  -0.00113   0.00365
 106        4PZ        -0.00008  -0.00026  -0.00042  -0.00179   0.00477
 107 8   H  1S          0.00002   0.00001  -0.00006   0.00008   0.01900
 108        2S          0.00004  -0.00116  -0.00116  -0.00294   0.02337
 109        3S         -0.00061  -0.00001   0.00078   0.00346  -0.00193
 110        4PX         0.00007   0.00004   0.00004   0.00042  -0.00138
 111        4PY        -0.00003  -0.00023  -0.00026  -0.00107   0.00350
 112        4PZ         0.00007   0.00023   0.00045   0.00186  -0.00465
 113 9   H  1S          0.00001  -0.00001  -0.00001  -0.00014   0.03725
 114        2S         -0.00027  -0.00179  -0.00000   0.00054   0.03526
 115        3S          0.00022   0.00070  -0.00082  -0.00125  -0.00177
 116        4PX         0.00001  -0.00036   0.00005  -0.00012   0.00079
 117        4PY         0.00001   0.00086   0.00000  -0.00017  -0.00554
 118        4PZ        -0.00005  -0.00137  -0.00002   0.00009   0.00642
 119 10  H  1S         -0.00000  -0.00002  -0.00004  -0.00011   0.03593
 120        2S          0.00005  -0.00190   0.00030   0.00030   0.03461
 121        3S          0.00012   0.00073   0.00066  -0.00245  -0.00416
 122        4PX         0.00004   0.00148  -0.00009   0.00000  -0.00826
 123        4PY         0.00004  -0.00078  -0.00001  -0.00003   0.00229
 124        4PZ         0.00002  -0.00007   0.00002  -0.00000  -0.00022
                           6         7         8         9        10
                           O         O         O         O         O
     Eigenvalues --    -0.85797  -0.66181  -0.55230  -0.46775  -0.43403
   1 1   O  1S          0.05813   0.04165   0.03304   0.01266   0.01709
   2        2S          0.09295   0.06697   0.05329   0.02043   0.02762
   3        2PX        -0.02013   0.00925   0.01191   0.00793   0.03355
   4        2PY        -0.02036  -0.00109   0.03023   0.02465   0.01689
   5        2PZ         0.00023  -0.00045  -0.00051   0.01548  -0.02651
   6        3S         -0.26823  -0.19683  -0.15785  -0.06018  -0.08199
   7        3PX        -0.03090   0.01271   0.01608   0.01097   0.04777
   8        3PY        -0.03135  -0.00224   0.04303   0.03568   0.02424
   9        3PZ         0.00037  -0.00060  -0.00076   0.02270  -0.03900
  10        4S         -0.20641  -0.17642  -0.15173  -0.07077  -0.09809
  11        4PX        -0.01412   0.00698   0.01082   0.00434   0.03111
  12        4PY        -0.01326  -0.00154   0.02869   0.02202   0.01169
  13        4PZ         0.00004  -0.00066  -0.00052   0.01732  -0.02802
  14        5S          0.00625  -0.02382  -0.02557  -0.02240  -0.04827
  15        5PX         0.00101  -0.00402   0.00206   0.00433  -0.00081
  16        5PY         0.00075  -0.00025   0.00084   0.00175   0.00180
  17        5PZ        -0.00007  -0.00005   0.00030   0.00001  -0.00098
  18        6D 0        0.00298  -0.00007  -0.00100  -0.00096  -0.00165
  19        6D+1        0.00005  -0.00010  -0.00004   0.00204  -0.00306
  20        6D-1        0.00006  -0.00003  -0.00013   0.00174  -0.00265
  21        6D+2        0.00011   0.00160  -0.00241  -0.00200   0.00123
  22        6D-2       -0.00511  -0.00030   0.00246   0.00184   0.00232
  23 2   C  1S          0.02140  -0.04769  -0.06797  -0.02332  -0.01645
  24        2S          0.03306  -0.07407  -0.10624  -0.03669  -0.02602
  25        2PX         0.03568   0.06621   0.00892  -0.02246  -0.00775
  26        2PY         0.02362   0.01689   0.07263   0.03204  -0.01988
  27        2PZ        -0.00140  -0.00218  -0.00218   0.04755  -0.06600
  28        3S         -0.08936   0.19947   0.29313   0.10106   0.07446
  29        3PX         0.05636   0.09922   0.00723  -0.03398  -0.01255
  30        3PY         0.03668   0.01788   0.09949   0.04500  -0.03270
  31        3PZ        -0.00205  -0.00359  -0.00327   0.06987  -0.09761
  32        4S         -0.00979   0.13224   0.18429   0.11328   0.06886
  33        4PX         0.01452   0.03207   0.00472  -0.00764  -0.01159
  34        4PY         0.00065   0.00503   0.05823   0.02097  -0.02058
  35        4PZ         0.00033   0.00099  -0.00011   0.02698  -0.05765
  36        5S         -0.07147  -0.01902   0.05398   0.03803   0.05122
  37        5PX        -0.01100  -0.00119   0.01432   0.00155   0.01457
  38        5PY         0.01088   0.00849   0.00466  -0.00436  -0.00178
  39        5PZ         0.00083   0.00339   0.00027  -0.00102  -0.01072
  40        6D 0        0.00559   0.00025   0.00828   0.00460   0.00064
  41        6D+1       -0.00035  -0.00051   0.00002   0.00452  -0.00355
  42        6D-1        0.00020   0.00052  -0.00067   0.00101  -0.00155
  43        6D+2        0.00321   0.00432  -0.00302  -0.00281  -0.00679
  44        6D-2       -0.01367  -0.01485   0.00036   0.00156  -0.00514
  45 3   C  1S         -0.03710  -0.07985   0.04656   0.01295   0.00017
  46        2S         -0.05720  -0.12421   0.07286   0.02030   0.00043
  47        2PX         0.03389  -0.03500  -0.05661   0.02190  -0.05921
  48        2PY         0.02565  -0.01018   0.06150  -0.01396  -0.10916
  49        2PZ        -0.00370   0.00740  -0.00753   0.08038  -0.08906
  50        3S          0.15016   0.33449  -0.20056  -0.05548  -0.00506
  51        3PX         0.05621  -0.05280  -0.08785   0.03139  -0.08971
  52        3PY         0.04472  -0.00602   0.08660  -0.02221  -0.16247
  53        3PZ        -0.00663   0.01109  -0.01078   0.11896  -0.12988
  54        4S          0.04455   0.21005  -0.13024  -0.05515   0.00029
  55        4PX         0.01687  -0.00790  -0.04887   0.03943  -0.04167
  56        4PY         0.00258  -0.00190   0.05244  -0.02016  -0.08855
  57        4PZ        -0.00460  -0.00302  -0.00649   0.08450  -0.07434
  58        5S          0.08794   0.05449  -0.05654  -0.02325  -0.06832
  59        5PX        -0.01151  -0.00536   0.00601   0.01735  -0.00921
  60        5PY         0.01182   0.00189  -0.00254   0.00214  -0.02366
  61        5PZ         0.00144  -0.00534  -0.00214   0.00963   0.00144
  62        6D 0       -0.00698   0.00034  -0.00762  -0.00107   0.01105
  63        6D+1       -0.00142   0.00133  -0.00322   0.00461  -0.00029
  64        6D-1       -0.00223   0.00121  -0.00036   0.00036   0.00604
  65        6D+2       -0.00216   0.00000   0.00119   0.01284   0.00814
  66        6D-2        0.01373  -0.00968  -0.00938  -0.00261  -0.01583
  67 4   H  1S         -0.00652   0.03992   0.08406   0.06364  -0.03362
  68        2S         -0.01179   0.04640   0.10484   0.08212  -0.04358
  69        3S          0.00399   0.00059   0.01576   0.03091  -0.01355
  70        4PX         0.00151   0.00307   0.00043  -0.00070  -0.00197
  71        4PY         0.00243  -0.00398  -0.00467  -0.00420   0.00175
  72        4PZ         0.00189  -0.00642  -0.01203  -0.00561   0.00065
  73 5   H  1S         -0.00599   0.03879   0.08911   0.00948   0.04524
  74        2S         -0.01005   0.04549   0.11383   0.00655   0.06195
  75        3S          0.00446   0.00488   0.02101  -0.00231   0.01552
  76        4PX         0.00155   0.00355   0.00294  -0.00303   0.00063
  77        4PY         0.00246  -0.00445  -0.00606   0.00101  -0.00559
  78        4PZ        -0.00185   0.00580   0.01179   0.00383   0.00170
  79 6   N  1S         -0.09159   0.04047  -0.01004  -0.00468   0.01485
  80        2S         -0.14392   0.06402  -0.01591  -0.00748   0.02396
  81        2PX         0.00044  -0.05783   0.00040   0.12651   0.15067
  82        2PY        -0.02190  -0.02816   0.06420  -0.08807   0.02181
  83        2PZ        -0.02728   0.03113  -0.03418   0.10038  -0.05409
  84        3S          0.39529  -0.18040   0.04493   0.02149  -0.07389
  85        3PX        -0.00199  -0.08555   0.00133   0.18301   0.22014
  86        3PY        -0.03630  -0.04216   0.09500  -0.12732   0.03387
  87        3PZ        -0.04099   0.04587  -0.04957   0.14645  -0.07885
  88        4S          0.27514  -0.14690   0.03446   0.02033  -0.07577
  89        4PX        -0.00589  -0.04185  -0.00088   0.11612   0.14930
  90        4PY        -0.01724  -0.01859   0.05891  -0.07707   0.01783
  91        4PZ        -0.01449   0.02190  -0.02643   0.09590  -0.06466
  92        5S         -0.01800  -0.06850   0.01112  -0.01586   0.09091
  93        5PX         0.01137   0.00557   0.00500   0.01027   0.01418
  94        5PY         0.00572   0.00551  -0.00209  -0.00263  -0.01814
  95        5PZ        -0.00395   0.01082  -0.00190   0.00571  -0.01891
  96        6D 0       -0.00290  -0.00416   0.00634  -0.01486   0.00276
  97        6D+1        0.00042   0.00174   0.00102  -0.01039  -0.00339
  98        6D-1       -0.00385   0.00349  -0.00449   0.00418   0.00476
  99        6D+2        0.00122  -0.00235   0.00574   0.00396   0.00345
 100        6D-2        0.00140   0.00949  -0.00361  -0.00979  -0.01358
 101 7   H  1S          0.01748   0.06185  -0.06393  -0.05443   0.10568
 102        2S          0.02304   0.07245  -0.08145  -0.06541   0.14086
 103        3S         -0.00800   0.00013  -0.01157  -0.01383   0.04872
 104        4PX         0.00110  -0.00206  -0.00194   0.00110  -0.00334
 105        4PY         0.00396   0.00637  -0.00336  -0.00490   0.00443
 106        4PZ         0.00397   0.00972  -0.00909  -0.00234   0.00786
 107 8   H  1S          0.01766   0.06603  -0.07610   0.04448  -0.01599
 108        2S          0.02519   0.08039  -0.09480   0.04983  -0.02162
 109        3S         -0.00572   0.00583  -0.01100   0.00834  -0.01439
 110        4PX         0.00037  -0.00432  -0.00018  -0.00019  -0.00196
 111        4PY         0.00392   0.00658  -0.00371   0.00320  -0.00779
 112        4PZ        -0.00422  -0.00976   0.01013  -0.00113  -0.00285
 113 9   H  1S          0.07331  -0.05662   0.05816  -0.11658   0.01417
 114        2S          0.07012  -0.06473   0.07257  -0.15349   0.01687
 115        3S         -0.00478   0.01007   0.01631  -0.04558  -0.01369
 116        4PX         0.00229  -0.00567   0.00085   0.00645   0.01086
 117        4PY        -0.01066   0.00480  -0.00256   0.00822  -0.00062
 118        4PZ         0.01229  -0.00781   0.00694  -0.01098  -0.00234
 119 10  H  1S          0.07366  -0.06462  -0.00637   0.12441   0.09727
 120        2S          0.07077  -0.07150  -0.00381   0.16721   0.13179
 121        3S         -0.00645   0.00322  -0.00502   0.05501   0.02100
 122        4PX        -0.01549   0.00870   0.00198  -0.01371  -0.00654
 123        4PY         0.00518  -0.00694   0.00461   0.00205   0.00797
 124        4PZ        -0.00055   0.00150  -0.00240   0.00793  -0.00411
                          11        12        13        14        15
                           O         O         O         O         O
     Eigenvalues --    -0.40597  -0.34969  -0.33054  -0.31692  -0.23693
   1 1   O  1S          0.00685  -0.00061  -0.00323  -0.03345   0.00161
   2        2S          0.01108  -0.00099  -0.00521  -0.05404   0.00264
   3        2PX         0.03744  -0.05547  -0.05023  -0.15297  -0.00952
   4        2PY        -0.01309   0.04573   0.01583  -0.16228   0.02946
   5        2PZ         0.04337   0.05380  -0.06390   0.00859   0.00054
   6        3S         -0.03309   0.00245   0.01437   0.15582  -0.00873
   7        3PX         0.05382  -0.08038  -0.07265  -0.21749  -0.01455
   8        3PY        -0.01954   0.06738   0.02356  -0.23139   0.04184
   9        3PZ         0.06357   0.07875  -0.09340   0.01239   0.00077
  10        4S         -0.03961   0.00551   0.02754   0.23918  -0.00272
  11        4PX         0.03967  -0.06332  -0.05481  -0.15547  -0.00940
  12        4PY        -0.01694   0.05352   0.02410  -0.16681   0.04165
  13        4PZ         0.04824   0.06128  -0.07480   0.01019   0.00222
  14        5S         -0.02019  -0.00520   0.02240   0.14940   0.01385
  15        5PX        -0.00048  -0.00958  -0.00823  -0.03793   0.00090
  16        5PY        -0.00096   0.00684   0.00231  -0.04239   0.01230
  17        5PZ         0.00407   0.00777  -0.01069   0.00182  -0.00273
  18        6D 0       -0.00108   0.00037   0.00094   0.00777  -0.00046
  19        6D+1        0.00448   0.00453  -0.00470   0.00064  -0.00005
  20        6D-1        0.00435   0.00473  -0.00570   0.00080   0.00079
  21        6D+2        0.00470  -0.00898  -0.00566   0.00045  -0.00235
  22        6D-2        0.00089  -0.00021  -0.00153  -0.01365   0.00058
  23 2   C  1S         -0.00247   0.00650   0.00857   0.01605   0.00719
  24        2S         -0.00392   0.01028   0.01372   0.02628   0.01150
  25        2PX         0.03819  -0.09725  -0.05399   0.12337  -0.03298
  26        2PY        -0.06008   0.09808   0.06544   0.10437   0.00751
  27        2PZ         0.10171   0.09795  -0.10690   0.00897   0.01378
  28        3S          0.01258  -0.03219  -0.04349  -0.08597  -0.03510
  29        3PX         0.05515  -0.14188  -0.07936   0.18937  -0.05134
  30        3PY        -0.09031   0.14348   0.09585   0.16286   0.00950
  31        3PZ         0.14909   0.14124  -0.15185   0.01254   0.01803
  32        4S          0.00074  -0.01852  -0.03168  -0.07273  -0.04942
  33        4PX         0.02830  -0.09412  -0.04118   0.12337  -0.02205
  34        4PY        -0.04925   0.09227   0.07241   0.10816   0.02923
  35        4PZ         0.08693   0.10640  -0.11802   0.00785  -0.00190
  36        5S          0.00929  -0.02756  -0.03844   0.01603  -0.05100
  37        5PX         0.01373  -0.02774  -0.02178   0.00748  -0.01943
  38        5PY         0.00093   0.00899   0.00942   0.00516   0.00831
  39        5PZ         0.00745   0.01817  -0.02333   0.00212   0.01260
  40        6D 0       -0.00472   0.01142   0.00492   0.01472   0.00012
  41        6D+1        0.00087  -0.00545   0.01427  -0.00154  -0.00416
  42        6D-1        0.00557   0.00701  -0.01292   0.00190   0.00673
  43        6D+2       -0.00309  -0.00267  -0.00220  -0.00232  -0.00018
  44        6D-2       -0.00551   0.00282  -0.00388  -0.02451   0.00053
  45 3   C  1S         -0.00167   0.00110   0.00227  -0.00425   0.00451
  46        2S         -0.00249   0.00185   0.00377  -0.00658   0.00725
  47        2PX        -0.08241   0.10706   0.04564  -0.05553  -0.00976
  48        2PY        -0.07161  -0.07935  -0.07856  -0.00180  -0.04827
  49        2PZ         0.08881  -0.05073   0.11498  -0.01336  -0.06731
  50        3S          0.00508  -0.00899  -0.01493   0.01723  -0.02467
  51        3PX        -0.12377   0.15710   0.06610  -0.08019  -0.01506
  52        3PY        -0.10512  -0.11654  -0.11522  -0.00269  -0.07165
  53        3PZ         0.12895  -0.07347   0.16354  -0.01863  -0.09237
  54        4S          0.01135  -0.00695   0.00073   0.01461   0.02169
  55        4PX        -0.07320   0.10467   0.05790  -0.05168   0.00488
  56        4PY        -0.05462  -0.08593  -0.07763  -0.00070  -0.04365
  57        4PZ         0.09898  -0.05651   0.12291  -0.01063  -0.06608
  58        5S         -0.02079   0.04553   0.08207   0.00443   0.10218
  59        5PX        -0.01679   0.00295   0.01059  -0.00248   0.01616
  60        5PY        -0.01471  -0.00033   0.00932  -0.00196   0.00932
  61        5PZ         0.01415  -0.00487   0.01882  -0.00193  -0.04208
  62        6D 0        0.00958   0.01240   0.01018   0.00277   0.00542
  63        6D+1       -0.00513  -0.01029   0.01561  -0.00075   0.01108
  64        6D-1       -0.00683   0.00386  -0.01864   0.00443   0.02744
  65        6D+2       -0.00197  -0.01072  -0.01090  -0.00369  -0.01537
  66        6D-2       -0.01397   0.00230  -0.00613  -0.01390   0.00140
  67 4   H  1S          0.04011   0.11033  -0.05111   0.04359   0.01689
  68        2S          0.05438   0.15473  -0.07386   0.05706   0.03447
  69        3S          0.02235   0.08378  -0.03969   0.03906   0.04057
  70        4PX         0.00273  -0.00509  -0.00334   0.00559   0.00027
  71        4PY        -0.00704  -0.00265   0.00754   0.00266   0.00034
  72        4PZ         0.00077  -0.00782   0.00028  -0.00235  -0.00007
  73 5   H  1S         -0.08999  -0.00834   0.10779   0.02651  -0.01520
  74        2S         -0.12125  -0.00661   0.15465   0.03209  -0.03529
  75        3S         -0.05472  -0.00250   0.09998   0.02163  -0.02365
  76        4PX         0.00007  -0.00529  -0.00058   0.00579  -0.00275
  77        4PY         0.00545   0.00641  -0.00452   0.00385   0.00191
  78        4PZ        -0.00522   0.00476   0.00506   0.00150  -0.00012
  79 6   N  1S          0.00137   0.01191  -0.00048   0.00746  -0.02986
  80        2S          0.00230   0.01919  -0.00075   0.01207  -0.04824
  81        2PX         0.04487  -0.02348  -0.00735   0.05535  -0.01729
  82        2PY         0.12736  -0.01274   0.07486   0.01810   0.13746
  83        2PZ        -0.05049  -0.07484   0.00247   0.00526   0.19494
  84        3S         -0.00908  -0.05822   0.00162  -0.03770   0.14181
  85        3PX         0.06578  -0.03230  -0.00917   0.08104  -0.02500
  86        3PY         0.18685  -0.02020   0.10771   0.02829   0.19877
  87        3PZ        -0.07060  -0.10919   0.00659   0.00814   0.28051
  88        4S         -0.01116  -0.05731  -0.00821  -0.04662   0.20764
  89        4PX         0.05111  -0.02524  -0.00503   0.06016  -0.02193
  90        4PY         0.13267  -0.02482   0.08710   0.02465   0.21532
  91        4PZ        -0.04892  -0.09526   0.01940   0.00422   0.29566
  92        5S          0.05190   0.02486  -0.07698  -0.00746  -0.09507
  93        5PX         0.01187  -0.01703  -0.00019   0.01092   0.00036
  94        5PY         0.00549  -0.00655   0.03103   0.00575   0.10999
  95        5PZ        -0.01796  -0.02646   0.00785   0.00067   0.14388
  96        6D 0        0.01141   0.00618   0.00508  -0.00167  -0.00738
  97        6D+1       -0.00394   0.00275  -0.00206  -0.00241   0.00383
  98        6D-1       -0.01225   0.00312  -0.01191   0.00093  -0.00728
  99        6D+2        0.00265  -0.01000  -0.00480   0.00589   0.00236
 100        6D-2       -0.00600   0.00174  -0.00038  -0.00478   0.00161
 101 7   H  1S         -0.02371   0.08213  -0.04167   0.01757   0.09558
 102        2S         -0.02538   0.11522  -0.05967   0.02820   0.15674
 103        3S         -0.00734   0.05835  -0.03364   0.01744   0.15952
 104        4PX        -0.00359   0.00759   0.00242  -0.00280  -0.00127
 105        4PY        -0.00537   0.00166  -0.00773   0.00112   0.00217
 106        4PZ         0.00242   0.00551   0.00234   0.00020   0.00297
 107 8   H  1S          0.08430   0.02095   0.13707  -0.01094  -0.04198
 108        2S          0.11240   0.03246   0.19888  -0.01657  -0.07738
 109        3S          0.03904   0.01046   0.12323  -0.01259  -0.04818
 110        4PX        -0.00660   0.00552   0.00155  -0.00264   0.00118
 111        4PY         0.00281  -0.00317   0.00486  -0.00116  -0.00533
 112        4PZ        -0.00492  -0.00541  -0.00732   0.00121  -0.00003
 113 9   H  1S          0.09078   0.03970   0.04705  -0.00952  -0.04310
 114        2S          0.12880   0.05303   0.08503  -0.01482  -0.06295
 115        3S          0.04131   0.00732   0.06404  -0.00665   0.00742
 116        4PX         0.00764  -0.00032  -0.00010   0.00332  -0.00422
 117        4PY         0.00023  -0.00533   0.00232   0.00234   0.01858
 118        4PZ         0.00990  -0.00061   0.00709  -0.00127   0.01062
 119 10  H  1S         -0.00541  -0.02863  -0.03366   0.03685  -0.03943
 120        2S         -0.00570  -0.04892  -0.04798   0.05850  -0.05672
 121        3S         -0.01871  -0.03101  -0.00944   0.03468   0.00852
 122        4PX         0.00458   0.00183   0.00443  -0.00052   0.00716
 123        4PY         0.00950  -0.00435   0.00309   0.00429   0.00884
 124        4PZ        -0.00383  -0.00652   0.00059   0.00036   0.01894
                          16        17        18        19        20
                           O         O         V         V         V
     Eigenvalues --    -0.17210  -0.16876   0.01376   0.03167   0.03725
   1 1   O  1S          0.00058   0.00005  -0.00006   0.02244  -0.00395
   2        2S          0.00101   0.00009   0.00007   0.03737  -0.00672
   3        2PX         0.18525   0.02307   0.00857   0.00625   0.01775
   4        2PY        -0.18648  -0.01834   0.02458   0.01309  -0.01630
   5        2PZ        -0.03046   0.26412  -0.00036  -0.00058  -0.00099
   6        3S         -0.00472  -0.00064  -0.00355  -0.13098   0.02636
   7        3PX         0.26462   0.03303   0.01289   0.01049   0.02791
   8        3PY        -0.26748  -0.02660   0.03178   0.01680  -0.02846
   9        3PZ        -0.04361   0.37947   0.00012  -0.00145  -0.00051
  10        4S          0.01202   0.00416   0.02904  -0.12831  -0.01274
  11        4PX         0.27129   0.03419   0.00644  -0.02638   0.01639
  12        4PY        -0.26153  -0.02361   0.05352   0.00313   0.00133
  13        4PZ        -0.04334   0.36947  -0.00363   0.00242  -0.00565
  14        5S         -0.01254   0.00944  -0.32081  -1.69108   0.42136
  15        5PX         0.11338   0.01924  -0.04995  -0.28915   0.18149
  16        5PY        -0.14183  -0.01439  -0.07050  -0.29866  -0.11252
  17        5PZ        -0.02218   0.21425   0.00896  -0.00952   0.01440
  18        6D 0        0.00033  -0.00029   0.00069   0.00000   0.00004
  19        6D+1       -0.00085   0.00713   0.00019  -0.00017   0.00015
  20        6D-1       -0.00066   0.00573   0.00020  -0.00022   0.00027
  21        6D+2        0.00961   0.00101   0.00102   0.00087   0.00261
  22        6D-2       -0.00009   0.00007   0.00043  -0.00027  -0.00087
  23 2   C  1S          0.00139   0.00088   0.01227   0.00857   0.01853
  24        2S          0.00233   0.00145   0.02043   0.01508   0.03032
  25        2PX        -0.03684  -0.00633   0.01238  -0.01384   0.00069
  26        2PY         0.03491   0.00336  -0.03837  -0.04870  -0.03372
  27        2PZ         0.00648  -0.05546   0.00553  -0.00508   0.00735
  28        3S         -0.01211  -0.00495  -0.06935  -0.07369  -0.09496
  29        3PX        -0.05135  -0.00991   0.01688  -0.00239   0.00153
  30        3PY         0.04633   0.00421  -0.05958  -0.05755  -0.05950
  31        3PZ         0.00897  -0.07493   0.00864  -0.00885   0.01139
  32        4S          0.01484  -0.00681  -0.05393   0.19826  -0.18489
  33        4PX         0.00017   0.00768   0.03557  -0.22799   0.05520
  34        4PY         0.05224   0.00875  -0.08301  -0.27548  -0.07987
  35        4PZ         0.00420  -0.01302   0.01955  -0.00486   0.01515
  36        5S          0.37921   0.01551   0.82958  -0.43512  -3.77282
  37        5PX         0.15009   0.00790  -0.00343  -1.53364  -1.21629
  38        5PY         0.02647   0.00214  -0.06623  -0.22182   1.25751
  39        5PZ        -0.00678   0.00795  -0.03084   0.11220   0.00163
  40        6D 0        0.01070   0.00019   0.00019   0.00449  -0.00732
  41        6D+1        0.00523  -0.02506  -0.00013   0.00027  -0.00071
  42        6D-1        0.00308  -0.04237   0.00082  -0.00039   0.00171
  43        6D+2       -0.04722  -0.00524   0.00436   0.00149  -0.00310
  44        6D-2        0.00818  -0.00097   0.00750  -0.01194  -0.00515
  45 3   C  1S          0.02322   0.00139   0.01036   0.01044  -0.02132
  46        2S          0.03730   0.00227   0.01808   0.01706  -0.03514
  47        2PX         0.08365   0.00355   0.00099  -0.02961   0.00805
  48        2PY        -0.03292  -0.00440   0.05579   0.01001  -0.03320
  49        2PZ        -0.00670  -0.00326   0.00312  -0.00014   0.00371
  50        3S         -0.11043  -0.00822  -0.07952  -0.04603   0.11236
  51        3PX         0.12343   0.00513  -0.01313  -0.04097   0.00954
  52        3PY        -0.04463  -0.00667   0.07476   0.02294  -0.05540
  53        3PZ        -0.00920  -0.00575   0.00520  -0.00056   0.00614
  54        4S         -0.23231  -0.00194   0.04635  -0.16750   0.23077
  55        4PX         0.10949   0.00530   0.10171  -0.10226   0.10038
  56        4PY        -0.10834  -0.00895   0.18230   0.00873  -0.07882
  57        4PZ        -0.00974  -0.06643  -0.01305   0.00012   0.01142
  58        5S         -0.35035   0.00839   2.88640   2.42532   4.03519
  59        5PX         0.03405   0.01267   0.94550  -0.87769  -1.47757
  60        5PY        -0.12336  -0.00075   0.81563   0.01755   1.39555
  61        5PZ        -0.01072  -0.01627  -0.13632   0.10693   0.09036
  62        6D 0       -0.00272  -0.00068   0.00500  -0.00191   0.00944
  63        6D+1        0.00024   0.00578   0.00045  -0.00059   0.00125
  64        6D-1        0.00165  -0.00446   0.00012  -0.00133  -0.00080
  65        6D+2       -0.00243  -0.00111   0.00128  -0.00016   0.00336
  66        6D-2        0.00629  -0.00007  -0.00445   0.01504   0.00532
  67 4   H  1S          0.04802  -0.07721  -0.01092  -0.01023  -0.00295
  68        2S          0.08367  -0.14385   0.01587   0.02579   0.05128
  69        3S          0.07617  -0.21347  -0.20982  -0.14864  -0.16557
  70        4PX        -0.00194  -0.00217   0.00396  -0.00500  -0.00312
  71        4PY         0.00240   0.00290   0.00196   0.00232   0.00636
  72        4PZ        -0.00107  -0.00011   0.00699   0.00965   0.00336
  73 5   H  1S          0.03973   0.08174  -0.01686  -0.00699  -0.00630
  74        2S          0.06867   0.15117   0.01825   0.02216   0.06155
  75        3S          0.05885   0.22960  -0.24332  -0.10701  -0.22215
  76        4PX        -0.00189   0.00222   0.00363  -0.00638  -0.00368
  77        4PY         0.00256  -0.00261   0.00299   0.00262   0.00752
  78        4PZ         0.00168  -0.00074  -0.00828  -0.00841  -0.00389
  79 6   N  1S         -0.00559  -0.00185   0.03050  -0.01806   0.00623
  80        2S         -0.00898  -0.00299   0.05026  -0.02955   0.01029
  81        2PX        -0.02735  -0.00036  -0.03531   0.00427   0.02841
  82        2PY        -0.00973   0.00745  -0.01817  -0.01879  -0.02637
  83        2PZ         0.01059   0.02301   0.02525  -0.01167   0.00775
  84        3S          0.02451   0.00967  -0.16571   0.09187  -0.03428
  85        3PX        -0.03766  -0.00007  -0.04762   0.00611   0.04186
  86        3PY        -0.01430   0.01039  -0.01796  -0.02843  -0.04127
  87        3PZ         0.01446   0.03286   0.03827  -0.01940   0.01075
  88        4S          0.08062   0.00359  -0.30818   0.21523  -0.03940
  89        4PX        -0.04886  -0.00310  -0.08723   0.03171   0.06269
  90        4PY        -0.03391   0.01003  -0.04824  -0.04734  -0.03794
  91        4PZ         0.01944   0.05520   0.09313  -0.04360   0.03116
  92        5S          0.11286  -0.07212  -2.59442   0.19270  -0.73312
  93        5PX         0.00027   0.00341   0.52643  -0.34823   0.36539
  94        5PY        -0.02085   0.01659   0.52426  -0.07284  -0.00145
  95        5PZ         0.01552   0.02152  -0.03022   0.05112  -0.06865
  96        6D 0        0.00055  -0.00184  -0.00037   0.00265  -0.00135
  97        6D+1        0.00162   0.00130   0.00142   0.00021  -0.00151
  98        6D-1       -0.00025  -0.00090   0.00162   0.00025   0.00094
  99        6D+2       -0.00658   0.00020   0.00148   0.00210  -0.00332
 100        6D-2       -0.00031   0.00008   0.00029  -0.00349   0.00197
 101 7   H  1S          0.00851  -0.00375  -0.01218  -0.01011   0.00632
 102        2S          0.02080  -0.02754   0.03649   0.02026  -0.04693
 103        3S         -0.00302  -0.04368  -0.25489  -0.24415   0.16959
 104        4PX         0.00244   0.00185   0.00312  -0.00727  -0.00445
 105        4PY        -0.00221  -0.00124  -0.00141  -0.00313   0.00863
 106        4PZ         0.00023  -0.00020  -0.01175  -0.00239   0.00366
 107 8   H  1S          0.00325   0.00731  -0.01190  -0.00891   0.00671
 108        2S          0.01128   0.03062   0.02817   0.03609  -0.06545
 109        3S         -0.01593   0.05694  -0.18252  -0.27591   0.20636
 110        4PX         0.00363  -0.00122   0.00518  -0.00700  -0.00477
 111        4PY        -0.00166   0.00025   0.00001  -0.00311   0.00813
 112        4PZ        -0.00099  -0.00020   0.01050   0.00396  -0.00343
 113 9   H  1S          0.00168  -0.00707   0.00277  -0.00426  -0.00106
 114        2S          0.00383   0.00154   0.08063  -0.04535   0.02851
 115        3S          0.01290   0.03113   0.16145  -0.04035   0.03586
 116        4PX        -0.00363  -0.00253  -0.00391  -0.00147   0.00061
 117        4PY         0.00106   0.00111   0.00487  -0.00519   0.00442
 118        4PZ         0.00049   0.00144  -0.01327   0.00134  -0.00605
 119 10  H  1S         -0.02052  -0.00159   0.00697   0.00076   0.00199
 120        2S         -0.04091   0.00145   0.07671  -0.05559  -0.00328
 121        3S         -0.05905   0.01745   0.17435   0.12010  -0.06450
 122        4PX         0.00068   0.00002   0.01426  -0.00619  -0.00372
 123        4PY        -0.00373   0.00073  -0.00838   0.00052   0.00422
 124        4PZ         0.00125   0.00211  -0.00178   0.00088  -0.00008
                          21        22        23        24        25
                           V         V         V         V         V
     Eigenvalues --     0.04870   0.07729   0.08478   0.08608   0.10986
   1 1   O  1S         -0.00271   0.01154   0.00141  -0.00635   0.00549
   2        2S         -0.00450   0.01935   0.00239  -0.01065   0.00892
   3        2PX         0.00153   0.01453   0.00400  -0.04098  -0.01047
   4        2PY        -0.00111  -0.01740  -0.00482   0.03806   0.03157
   5        2PZ        -0.01888  -0.00342   0.00813   0.00392  -0.01089
   6        3S          0.01567  -0.07083  -0.00908   0.03909  -0.02656
   7        3PX         0.00243   0.02159   0.00690  -0.06132  -0.02323
   8        3PY        -0.00251  -0.02308  -0.00766   0.06449   0.03868
   9        3PZ        -0.03297  -0.00611   0.02188   0.00711  -0.01353
  10        4S          0.01698  -0.03645   0.00064  -0.00021  -0.07304
  11        4PX         0.00437   0.01310   0.00086  -0.06640   0.01804
  12        4PY         0.00640  -0.04747  -0.00466   0.01156   0.07181
  13        4PZ        -0.00200   0.00105  -0.03898  -0.00098  -0.02633
  14        5S          0.21316  -1.15083  -0.13357  -0.06554  -0.14330
  15        5PX         0.05694  -0.13016   0.03857  -0.40663  -0.34601
  16        5PY         0.01301  -0.13665  -0.04244   0.28375  -0.18340
  17        5PZ        -0.17669  -0.03136   0.32530   0.04906   0.05470
  18        6D 0        0.00017   0.00066  -0.00029   0.00240  -0.00191
  19        6D+1       -0.00292  -0.00035   0.00362   0.00044   0.00034
  20        6D-1       -0.00293  -0.00045   0.00127   0.00007  -0.00055
  21        6D+2        0.00019  -0.00061   0.00045  -0.00190  -0.00313
  22        6D-2       -0.00030   0.00299   0.00024  -0.00073   0.00079
  23 2   C  1S          0.00355  -0.00949  -0.00173   0.01249  -0.00565
  24        2S          0.00584  -0.01553  -0.00276   0.01972  -0.00829
  25        2PX         0.00036  -0.03410   0.00118   0.00175  -0.01669
  26        2PY        -0.00225   0.01942  -0.00103  -0.01043   0.01376
  27        2PZ        -0.06432  -0.00700   0.05793   0.00335   0.00467
  28        3S         -0.01803   0.04244   0.00713  -0.04800   0.00349
  29        3PX        -0.00431  -0.04405   0.00049   0.01752  -0.00805
  30        3PY        -0.00694   0.04145  -0.00052  -0.02323   0.02347
  31        3PZ        -0.10559  -0.01098   0.10441   0.00355   0.00727
  32        4S         -0.04976   0.18627   0.03650  -0.26891   0.37608
  33        4PX         0.04447  -0.16260   0.01153  -0.13649  -0.13262
  34        4PY         0.02056  -0.04800  -0.00826  -0.11117   0.09936
  35        4PZ        -0.15593  -0.03303   0.14303   0.03063  -0.03207
  36        5S         -0.09547  -2.61359   0.38755   0.18074   1.98518
  37        5PX         0.05915  -1.49082  -0.29165   2.11403   1.30765
  38        5PY         0.19101  -2.12339  -0.23457   0.23338   0.60013
  39        5PZ         0.83457   0.24011  -2.63369  -0.22639  -0.33115
  40        6D 0       -0.00174   0.01658   0.00178   0.00758  -0.00547
  41        6D+1       -0.00080   0.00118  -0.00242   0.00060  -0.00063
  42        6D-1       -0.00516  -0.00112   0.00650  -0.00039  -0.00230
  43        6D+2       -0.00067  -0.00401  -0.00112   0.00569   0.00382
  44        6D-2        0.00022  -0.00297  -0.00063   0.00855   0.00028
  45 3   C  1S         -0.00162  -0.00571  -0.00125   0.01650  -0.01528
  46        2S         -0.00239  -0.00938  -0.00193   0.02659  -0.02449
  47        2PX        -0.00408   0.03944  -0.00026  -0.01143   0.02022
  48        2PY         0.00136  -0.00820  -0.00217   0.01136   0.01598
  49        2PZ        -0.06482  -0.00621  -0.05600  -0.00759  -0.00734
  50        3S          0.00086   0.02525   0.00156  -0.07383   0.06004
  51        3PX        -0.01046   0.05818  -0.00091  -0.04119   0.02376
  52        3PY        -0.00258  -0.01890  -0.00423   0.02233   0.03344
  53        3PZ        -0.11019  -0.01041  -0.10466  -0.00820  -0.01870
  54        4S          0.07044   0.13588   0.05382  -0.29732   0.43078
  55        4PX         0.02411   0.10051   0.00747   0.08570   0.04372
  56        4PY         0.02218   0.05052   0.00031   0.14729  -0.08510
  57        4PZ        -0.23846  -0.00646  -0.17237  -0.06680   0.08384
  58        5S          0.49965   3.74086  -0.24903   1.05197  -3.71836
  59        5PX         0.20059  -0.16011   0.54811  -1.87655  -1.21796
  60        5PY         0.21061   2.72569   0.17270   0.15723  -2.28352
  61        5PZ         0.78955   0.01826   2.66466   0.19726   0.78668
  62        6D 0        0.00070   0.01305  -0.00009   0.00955  -0.00862
  63        6D+1       -0.00186   0.00296  -0.00620   0.00096  -0.00401
  64        6D-1        0.00510   0.00026   0.00747   0.00078  -0.00454
  65        6D+2       -0.00101   0.00125  -0.00079   0.00118  -0.00287
  66        6D-2       -0.00020   0.00063   0.00072   0.00894   0.00880
  67 4   H  1S         -0.01035   0.01415   0.01969   0.00625  -0.00946
  68        2S          0.07680  -0.01673  -0.05936   0.05899  -0.01614
  69        3S         -0.34704   0.36894   0.45061  -0.32050  -0.17060
  70        4PX        -0.00130  -0.00044   0.00280   0.00907   0.00034
  71        4PY         0.00325  -0.00842  -0.00335  -0.00028   0.00057
  72        4PZ         0.00584   0.00342  -0.00440   0.00558  -0.00350
  73 5   H  1S          0.00718   0.01601  -0.01700   0.00270  -0.00786
  74        2S         -0.06167  -0.04236   0.04748   0.06232  -0.04547
  75        3S          0.23753   0.41710  -0.35372  -0.31320  -0.21650
  76        4PX         0.00188   0.00020  -0.00449   0.00829  -0.00054
  77        4PY        -0.00109  -0.00879   0.00223   0.00018   0.00508
  78        4PZ         0.00427  -0.00270  -0.00412  -0.00745   0.00278
  79 6   N  1S          0.00294   0.00921   0.00147  -0.00580   0.00805
  80        2S          0.00495   0.01532   0.00242  -0.00949   0.01279
  81        2PX        -0.00658  -0.00304  -0.00676   0.05131   0.00289
  82        2PY         0.00376   0.00111   0.00279  -0.04351  -0.05211
  83        2PZ        -0.04010   0.01657  -0.01589   0.00105   0.00864
  84        3S         -0.01780  -0.05378  -0.00571   0.02850  -0.01980
  85        3PX        -0.00934  -0.00474  -0.00962   0.06506   0.00394
  86        3PY         0.00499   0.00187   0.00236  -0.06576  -0.05951
  87        3PZ        -0.06059   0.02570  -0.02782  -0.00566   0.02594
  88        4S         -0.00509  -0.06821  -0.02772   0.05099  -0.26010
  89        4PX        -0.01896   0.02153  -0.01602   0.21026  -0.03871
  90        4PY         0.02000  -0.00660   0.00671  -0.06425  -0.18819
  91        4PZ        -0.06104   0.05191   0.01533   0.02264   0.02341
  92        5S         -0.64491  -1.36405  -0.19038  -0.81916   4.43626
  93        5PX         0.13688   0.42812  -0.05073   0.59210   0.60850
  94        5PY         0.08304   0.30001   0.10470  -0.59636   0.78513
  95        5PZ        -0.05675  -0.13477  -0.38582   0.21923  -1.16607
  96        6D 0        0.00112   0.00180  -0.00063   0.00672  -0.01068
  97        6D+1        0.00290   0.00065   0.00470  -0.00015  -0.00331
  98        6D-1        0.00492  -0.00076   0.00215  -0.00042   0.01073
  99        6D+2        0.00059  -0.00379   0.00006   0.00062  -0.00365
 100        6D-2        0.00061   0.00807   0.00101  -0.00572   0.01268
 101 7   H  1S          0.00680   0.01061   0.01656   0.00737  -0.01150
 102        2S         -0.10777  -0.00803  -0.08315   0.05929  -0.01390
 103        3S          0.29578   0.17276   0.45231  -0.31519  -0.18570
 104        4PX        -0.00011  -0.00085  -0.00256  -0.00900  -0.00414
 105        4PY         0.00080   0.00837   0.00214  -0.00057  -0.00140
 106        4PZ         0.00348  -0.00323   0.00384  -0.00729   0.00659
 107 8   H  1S         -0.00614   0.00999  -0.01701   0.00355  -0.01273
 108        2S          0.09956  -0.01025   0.06395   0.08779  -0.06419
 109        3S         -0.22640   0.16820  -0.36405  -0.36082  -0.21901
 110        4PX         0.00118   0.00043   0.00418  -0.00712  -0.00657
 111        4PY        -0.00052   0.00763  -0.00200   0.00013  -0.00834
 112        4PZ         0.00458   0.00379   0.00290   0.00955  -0.00189
 113 9   H  1S         -0.00333   0.00575   0.00116   0.00597  -0.02719
 114        2S         -0.01086   0.05966   0.03084  -0.02569   0.09064
 115        3S          0.02785  -0.06090  -0.08296   0.52953  -1.28336
 116        4PX         0.00026   0.00606  -0.00414  -0.00529   0.01244
 117        4PY        -0.00432   0.00083  -0.00225  -0.00365   0.00696
 118        4PZ         0.00639  -0.00707   0.00593  -0.01079   0.00635
 119 10  H  1S          0.00065  -0.01837  -0.00070   0.00220  -0.00445
 120        2S          0.01291  -0.02972   0.00849  -0.01277   0.08350
 121        3S          0.06567  -0.18784   0.06318  -0.50465  -0.80956
 122        4PX         0.00157   0.00665   0.00119  -0.01160  -0.00675
 123        4PY        -0.00084   0.00594  -0.00051   0.00197   0.01624
 124        4PZ        -0.00072  -0.00017   0.00588   0.00290  -0.00534
                          26        27        28        29        30
                           V         V         V         V         V
     Eigenvalues --     0.13037   0.13538   0.15016   0.18810   0.19826
   1 1   O  1S         -0.00613  -0.00022  -0.00438   0.00080  -0.00330
   2        2S         -0.01066  -0.00048  -0.00703   0.00126  -0.00535
   3        2PX         0.00994  -0.00327  -0.01752  -0.02737   0.01916
   4        2PY        -0.02889  -0.00721  -0.01107  -0.05822   0.00488
   5        2PZ        -0.01057   0.04750  -0.01208  -0.00453   0.05132
   6        3S          0.04764   0.00402   0.01785  -0.00170   0.01536
   7        3PX         0.01785  -0.00637  -0.01687  -0.02986   0.02607
   8        3PY        -0.04163  -0.01286  -0.00862  -0.06150   0.00780
   9        3PZ        -0.01337   0.05791  -0.01438  -0.00460   0.06036
  10        4S         -0.06540  -0.01699   0.09729  -0.06388   0.06123
  11        4PX        -0.00445   0.01181  -0.03242  -0.11168   0.04026
  12        4PY        -0.04456   0.00883  -0.02701  -0.21380   0.00315
  13        4PZ        -0.02454   0.12531  -0.03490  -0.01610   0.16959
  14        5S          1.98040   0.73150   0.57484   0.14538  -0.25430
  15        5PX         0.52809   0.09564   0.32917   0.62467  -0.05564
  16        5PY         0.20156   0.06637   0.42436   0.87043  -0.06317
  17        5PZ         0.01779  -0.17664   0.05942   0.03727   0.04114
  18        6D 0       -0.00213  -0.00041   0.00217   0.00541   0.00039
  19        6D+1       -0.00035  -0.00017   0.00056   0.00024  -0.00319
  20        6D-1       -0.00012   0.00175  -0.00028  -0.00050  -0.00063
  21        6D+2        0.00050  -0.00172  -0.00338   0.00215  -0.00020
  22        6D-2       -0.00283  -0.00115  -0.00471  -0.00524   0.00086
  23 2   C  1S         -0.01285  -0.00218   0.01950   0.00067   0.00121
  24        2S         -0.02156  -0.00338   0.03045  -0.00025   0.00238
  25        2PX         0.01314  -0.01003  -0.02576   0.01673  -0.00502
  26        2PY         0.03550   0.02242   0.02265  -0.00762   0.01229
  27        2PZ         0.00265  -0.02033   0.01030  -0.00294  -0.11419
  28        3S          0.07062   0.00435  -0.05342   0.04001  -0.01846
  29        3PX         0.00902  -0.02388  -0.05999  -0.02313   0.00113
  30        3PY         0.05150   0.02622   0.01199  -0.03068   0.01923
  31        3PZ         0.00486  -0.02480   0.01528   0.00045  -0.11144
  32        4S         -0.00026   0.03748  -0.98778  -0.53804   0.13327
  33        4PX         0.12343   0.09867  -0.05049   0.19399  -0.06001
  34        4PY         0.11109   0.17146   0.27527  -0.13476   0.03291
  35        4PZ        -0.03010   0.03433   0.01206  -0.03109  -0.75066
  36        5S        -34.92614  -8.90028  -2.46035   9.40784   0.34249
  37        5PX        -9.71966  -1.82270   0.51630   2.03033  -0.16521
  38        5PY         3.87654   1.49438   1.42018  -1.91765  -0.07479
  39        5PZ         0.54729   0.48747  -0.19091  -0.28407  -0.86929
  40        6D 0       -0.00402   0.00008   0.00199   0.01086   0.00110
  41        6D+1       -0.00123   0.00154  -0.00084  -0.00005  -0.02077
  42        6D-1       -0.00008   0.00674  -0.00170   0.00131   0.03034
  43        6D+2       -0.00297   0.00189   0.00612  -0.00335   0.00165
  44        6D-2        0.00050  -0.00653  -0.01345  -0.01773   0.01167
  45 3   C  1S          0.01312  -0.00338  -0.00153  -0.00732   0.00269
  46        2S          0.02159  -0.00455  -0.00302  -0.01066   0.00370
  47        2PX        -0.00316   0.00315  -0.03314   0.00254   0.00387
  48        2PY         0.03218   0.02379   0.03410  -0.01223   0.02082
  49        2PZ        -0.00942   0.03185  -0.00620  -0.01189  -0.10906
  50        3S         -0.05761  -0.00552   0.02154  -0.01458   0.00305
  51        3PX        -0.01283  -0.00878  -0.02200  -0.01828   0.01568
  52        3PY         0.05599   0.01557   0.04489  -0.04733   0.03441
  53        3PZ        -0.01852   0.05641  -0.01503  -0.01429  -0.11139
  54        4S         -0.19968   0.31850  -0.08598   0.82891  -0.27891
  55        4PX         0.07638   0.08328  -0.38042   0.36236  -0.01072
  56        4PY         0.16065   0.14334   0.24760   0.24580   0.12244
  57        4PZ         0.00930  -0.06515   0.05142  -0.08865  -0.85218
  58        5S         36.04547   9.73793   0.85401  -6.41076  -0.72304
  59        5PX        -8.17536  -3.02955  -3.40105   4.49367  -0.03109
  60        5PY         4.44792   1.04263  -0.54268   0.01495  -0.06108
  61        5PZ         1.07519  -1.25236   0.70356  -0.22810  -0.76670
  62        6D 0       -0.00034   0.00065   0.00466  -0.00492   0.00510
  63        6D+1       -0.00023   0.00239  -0.00156  -0.00457   0.01916
  64        6D-1        0.00008   0.00273  -0.00508  -0.00876  -0.03525
  65        6D+2        0.00157  -0.00214  -0.00992   0.00895  -0.00520
  66        6D-2       -0.00059   0.00711   0.01331   0.01170  -0.01097
  67 4   H  1S          0.00371  -0.00179   0.00389   0.01454   0.04431
[...]
     Eigenvalues ---    0.27657   0.42673   0.53909   0.61770   0.63697
     Eigenvalues ---    0.71200   0.75459   0.83120   0.97774
 Angle between quadratic step and forces=  80.30 degrees.
 Linear search not attempted -- first point.
 B after Tr=     0.000093    0.000088    0.000393
         Rot=    1.000000    0.000013   -0.000021    0.000011 Ang=   0.00 deg.
 Variable       Old X    -DE/DX   Delta X   Delta X   Delta X     New X
                                 (Linear)    (Quad)   (Total)
    X1        3.91927  -0.00003   0.00000   0.00014   0.00021   3.91948
    Y1       -1.41614   0.00009   0.00000  -0.00009  -0.00008  -1.41623
    Z1        0.12928  -0.00002   0.00000   0.00062   0.00088   0.13016
    X2        5.77764  -0.00000   0.00000  -0.00004   0.00007   5.77771
    Y2        0.38740   0.00004   0.00000   0.00008   0.00005   0.38744
    Z2        0.10246   0.00000   0.00000  -0.00032  -0.00018   0.10228
    X3        8.48338  -0.00002   0.00000  -0.00001   0.00006   8.48344
    Y3       -0.68412  -0.00003   0.00000  -0.00003  -0.00012  -0.68424
    Z3       -0.09155  -0.00002   0.00000  -0.00024  -0.00018  -0.09173
    X4        5.77839   0.00000   0.00000  -0.00009   0.00011   5.77851
    Y4        1.62755   0.00000   0.00000   0.00069   0.00071   1.62826
    Z4        1.81362   0.00000   0.00000  -0.00080  -0.00069   1.81293
    X5        5.59973   0.00001   0.00000  -0.00044  -0.00037   5.59935
    Y5        1.74964   0.00002   0.00000  -0.00059  -0.00066   1.74897
    Z5       -1.51538   0.00001   0.00000  -0.00083  -0.00071  -1.51609
    X6       10.39449   0.00025   0.00000   0.00042   0.00054  10.39503
    Y6        1.34825  -0.00017   0.00000  -0.00046  -0.00060   1.34766
    Z6       -0.19049  -0.00003   0.00000   0.00016   0.00009  -0.19041
    X7        8.55932  -0.00003   0.00000  -0.00019  -0.00021   8.55911
    Y7       -1.94410  -0.00000   0.00000  -0.00010  -0.00024  -1.94434
    Z7       -1.74683  -0.00001   0.00000  -0.00020  -0.00011  -1.74694
    X8        8.86431  -0.00002   0.00000  -0.00036  -0.00024   8.86407
    Y8       -1.84732  -0.00001   0.00000  -0.00005  -0.00011  -1.84742
    Z8        1.57869  -0.00001   0.00000  -0.00019  -0.00012   1.57857
    X9       10.13577  -0.00000   0.00000  -0.00035  -0.00028  10.13550
    Y9        2.39090   0.00001   0.00000   0.00154   0.00136   2.39226
    Z9       -1.78356   0.00002   0.00000   0.00161   0.00152  -1.78204
   X10       12.16036  -0.00016   0.00000   0.00001   0.00011  12.16047
   Y10        0.60750   0.00003   0.00000  -0.00013  -0.00030   0.60719
   Z10       -0.32209   0.00005   0.00000  -0.00038  -0.00050  -0.32259
         Item               Value     Threshold  Converged?
 Maximum Force            0.000252     0.000450     YES
 RMS     Force            0.000068     0.000300     YES
 Maximum Displacement     0.001519     0.001800     YES
 RMS     Displacement     0.000530     0.001200     YES
 Predicted change in Energy=-1.059207D-07
 Optimization completed.
    -- Stationary point found.
 GradGradGradGradGradGradGradGradGradGradGradGradGradGradGradGradGradGrad

 Leave Link  103 at Fri Jun  2 11:33:35 2023, MaxMem=  7381975040 cpu:               2.8 elap:               4.0
 (Enter /software/commercial/gaussian/g16/AVX/g16/l9999.exe)

 ----------------------------------------------------------------------

 Electric dipole moment (input orientation):
 (Debye = 10**-18 statcoulomb cm , SI units = C m)
                  (au)            (Debye)         (10**-30 SI)
   Tot        0.414026D+01      0.105235D+02      0.351026D+02
   x         -0.395135D+01     -0.100433D+02     -0.335009D+02
   y          0.102270D+01      0.259945D+01      0.867084D+01
   z         -0.694780D+00     -0.176595D+01     -0.589059D+01

 Dipole polarizability, Alpha (input orientation).
 (esu units = cm**3 , SI units = C**2 m**2 J**-1)
 Alpha(0;0):
               (au)            (10**-24 esu)      (10**-40 SI)
   iso        0.631307D+02      0.935501D+01      0.104088D+02
   aniso      0.121034D+02      0.179353D+01      0.199558D+01
   xx         0.639827D+02      0.948125D+01      0.105493D+02
   yx         0.425401D+01      0.630380D+00      0.701392D+00
   yy         0.680943D+02      0.100905D+02      0.112272D+02
   zx        -0.437691D+00     -0.648591D-01     -0.721654D-01
   zy         0.975066D+00      0.144490D+00      0.160767D+00
   zz         0.573152D+02      0.849324D+01      0.945000D+01

 First dipole hyperpolarizability, Beta (input orientation).
 ||, _|_  parallel and perpendicular components, (z) with respect to z axis,
 vector components x,y,z.  Values do not include the 1/n! factor of 1/2.
 (esu units = statvolt**-1 cm**4 , SI units = C**3 m**3 J**-2)
 Beta(0;0,0):
               (au)            (10**-30 esu)      (10**-50 SI)
   || (z)    -0.343758D+01     -0.296980D-01     -0.110221D-01
   _|_(z)    -0.114586D+01     -0.989934D-02     -0.367404D-02
   x          0.172715D+04      0.149213D+02      0.553787D+01
   y          0.334515D+03      0.288995D+01      0.107258D+01
   z         -0.171879D+02     -0.148490D+00     -0.551106D-01
   ||         0.351867D+03      0.303985D+01      0.112821D+01
   xxx        0.209204D+03      0.180736D+01      0.670783D+00
   xxy        0.949275D+01      0.820100D-01      0.304372D-01
   yxy        0.251107D+03      0.216937D+01      0.805139D+00
   yyy        0.125144D+03      0.108114D+01      0.401256D+00
   xxz        0.593893D+01      0.513077D-01      0.190424D-01
   yxz       -0.141866D+02     -0.122561D+00     -0.454874D-01
   yyz       -0.152616D+02     -0.131848D+00     -0.489342D-01
   zxz        0.115407D+03      0.997026D+00      0.370036D+00
   zyz       -0.231313D+02     -0.199837D+00     -0.741675D-01
   zzz        0.359336D+01      0.310438D-01      0.115216D-01

 ----------------------------------------------------------------------

 Dipole orientation:
     8          0.45321650          0.51904518         -4.11194116
     6          1.25183721         -1.55878495         -5.43551552
     6          1.81611251         -1.04153432         -8.24991334
     1         -0.13073002         -3.15697489         -5.41704681
     1          3.03169867         -2.41430435         -4.65773205
     7          2.74137009         -3.32906576         -9.55519585
     1          3.15822545          0.54616635         -8.35584794
     1          0.07110185         -0.42857665         -9.18107515
     1          4.41528385         -3.87150049         -8.78340088
     1          3.10602208         -2.95097976        -11.40138418

 Electric dipole moment (dipole orientation):
 (Debye = 10**-18 statcoulomb cm , SI units = C m)
                  (au)            (Debye)         (10**-30 SI)
   Tot        0.414026D+01      0.105235D+02      0.351026D+02
   x          0.000000D+00      0.000000D+00      0.000000D+00
   y          0.000000D+00      0.000000D+00      0.000000D+00
   z          0.414026D+01      0.105235D+02      0.351026D+02

 Dipole polarizability, Alpha (dipole orientation).
 (esu units = cm**3 , SI units = C**2 m**2 J**-1)
 Alpha(0;0):
               (au)            (10**-24 esu)      (10**-40 SI)
   iso        0.631307D+02      0.935501D+01      0.104088D+02
   aniso      0.121034D+02      0.179353D+01      0.199558D+01
   xx         0.582634D+02      0.863375D+01      0.960634D+01
   yx        -0.264622D+01     -0.392130D+00     -0.436303D+00
   yy         0.693097D+02      0.102706D+02      0.114276D+02
   zx        -0.209651D+01     -0.310671D+00     -0.345668D+00
   zy         0.237429D+01      0.351834D+00      0.391468D+00
   zz         0.618190D+02      0.916063D+01      0.101926D+02

 First dipole hyperpolarizability, Beta (dipole orientation).
 ||, _|_  parallel and perpendicular components, (z) with respect to z axis,
 vector components x,y,z.  Values do not include the 1/n! factor of 1/2.
 (esu units = statvolt**-1 cm**4 , SI units = C**3 m**3 J**-2)
 Beta(0;0,0):
               (au)            (10**-30 esu)      (10**-50 SI)
   || (z)    -0.312566D+03     -0.270033D+01     -0.100220D+01
   _|_(z)    -0.104189D+03     -0.900109D+00     -0.334066D+00
   x          0.464006D+03      0.400865D+01      0.148777D+01
   y         -0.661448D+03     -0.571440D+01     -0.212084D+01
   z         -0.156283D+04     -0.135016D+02     -0.501100D+01
   ||         0.351867D+03      0.303985D+01      0.112821D+01
   xxx        0.683705D+02      0.590667D+00      0.219220D+00
   xxy       -0.344084D+02     -0.297261D+00     -0.110326D+00
   yxy        0.109857D+03      0.949077D+00      0.352241D+00
   yyy       -0.232255D+03     -0.200650D+01     -0.744694D+00
   xxz       -0.112433D+03     -0.971332D+00     -0.360500D+00
   yxz        0.147220D+02      0.127187D+00      0.472041D-01
   yyz       -0.175657D+03     -0.151754D+01     -0.563220D+00
   zxz       -0.235584D+02     -0.203526D+00     -0.755368D-01
   zyz        0.461808D+02      0.398966D+00      0.148072D+00
   zzz       -0.232853D+03     -0.201167D+01     -0.746612D+00

 ----------------------------------------------------------------------
 Unable to Open any file for archive entry.
 1\1\GINC-NODE1924\Freq\RB3LYP\6-311+G(d,p)\C2H6N1O1(1-)\SVICCHI\02-Jun
 -2023\0\\#p freq=raman scale=0.967 pop=(nbo,full,hirshfeld) guess=read
  geom=allcheck b3lyp/6-311+G(d,p) int=grid=ultrafine EmpiricalDispersi
 on=GD3BJ SCRF=(Solvent=ethanol) scf=(xqc,intrep,maxconventionalcycle=3
 50) nosymm\\MEA-H_dissociation-site_index-0.gjf\\-1,1\O,2.0739896407,-
 0.7493911583,0.0684114616\C,3.057397112,0.2050017695,0.0542204874\C,4.
 4892112859,-0.3620182172,-0.0484454563\H,3.0577944098,0.8612629352,0.9
 597263688\H,2.9632469025,0.9258681219,-0.801904971\N,5.5005287523,0.71
 34647575,-0.1008054026\H,4.5293965984,-1.0287732333,-0.9243824613\H,4.
 6907920811,-0.9775587533,0.8354057634\H,5.3636204293,1.2652096632,-0.9
 438167989\H,6.4349867881,0.3214741147,-0.170442991\\Version=ES64L-G16R
 evC.01\HF=-209.9656264\RMSD=1.031e-09\RMSF=6.771e-05\ZeroPoint=0.08054
 58\Thermal=0.085612\ETot=-209.8800144\HTot=-209.8790702\GTot=-209.9123
 611\Dipole=3.345008,0.9897482,-0.7617281\DipoleDeriv=-1.6003546,-0.529
 9781,0.0305242,-0.5205828,-1.4329595,0.0285931,0.0122303,0.0193354,-0.
 9493558,1.0821571,0.6010192,-0.0078995,0.6213658,1.2291852,-0.0342751,
 -0.0141707,-0.0618271,0.7343308,0.240809,0.287855,0.0424034,0.2766341,
 0.5321146,0.073921,-0.0508063,-0.0148094,0.3866081,-0.0689937,-0.06202
 49,-0.049096,-0.0585142,-0.3324575,-0.2715967,-0.0660106,-0.3552482,-0
 .3463948,-0.0817559,-0.0475096,0.0320602,-0.047159,-0.4023144,0.290174
 8,0.0602724,0.3913149,-0.3392251,-0.7429708,-0.2336215,-0.0032613,-0.2
 550184,-0.6515376,-0.1576137,0.0057375,-0.1287856,-0.4827805,-0.031765
 7,-0.0641299,0.0044626,-0.0572177,-0.2167158,-0.1822505,0.0099528,-0.2
 346724,-0.1903615,0.0073597,0.0238667,-0.045609,0.0040683,-0.1073248,0
 .1320163,-0.0708601,0.1752492,-0.1518753,0.1932637,-0.0102856,-0.06277
 32,-0.0498158,0.2328724,0.0883464,-0.0241456,0.176307,0.0464793,0.0022
 512,0.0348088,0.0591887,0.0862397,0.1491374,0.0326843,0.1378002,0.0331
 361,0.2925747\Polar=63.9826509,4.2540145,68.0942817,-0.4376906,0.97506
 57,57.3151909\PolarDeriv=-9.1244191,-1.2337316,9.305682,0.2295892,0.20
 53673,1.1691615,-4.0760927,-0.9302212,4.9523335,0.274835,0.2221957,3.1
 790587,-0.3296461,0.0001056,-0.045813,-3.443052,-1.4920998,0.3172291,-
 6.10829,0.5292111,-9.8202529,0.5051588,-2.4485632,-0.2976319,8.2922013
 ,-4.0478336,-23.3460862,-0.4967645,1.2634704,-12.3914176,1.3613489,-0.
 6264046,1.6548184,-2.5218177,-24.263379,-1.4735994,2.6760078,-4.923672
 4,3.4688857,-0.2610812,2.2558696,-1.1067289,-6.5551396,-2.6463723,10.5
 48142,1.8670019,1.7144595,9.1441855,-0.9927914,2.5810681,3.3727304,-0.
 9592488,16.3495766,0.8039545,1.0542888,1.485036,0.7808267,2.1000776,1.
 3484613,0.1184884,-1.2247055,1.3495186,7.761373,0.808065,6.2982505,3.3
 99714,1.2402681,1.7650621,8.0706165,1.5152337,11.2223164,10.3974976,0.
 8799059,1.6997396,-0.4288462,-2.2052785,-0.0103828,-0.7469907,-1.25833
 13,1.1394312,9.9982241,-0.7600726,-7.222377,3.1989714,-1.9815964,-1.46
 25921,-9.6509003,0.9876265,11.331633,-9.1140163,-1.8912508,6.1082157,-
 1.8002493,1.6758489,-1.178583,1.0240781,8.1144551,0.5670755,-0.8331605
 ,-0.3751907,0.458243,-5.7999108,2.7075665,0.7867851,0.9013259,0.688167
 7,-5.5779884,4.1113144,-1.1310495,-1.0021015,-1.5950835,-1.5883609,-1.
 2097043,-0.8811972,-0.1856173,0.1282409,-7.4299796,-0.2039779,-4.51106
 74,-3.3885238,-2.3250856,-0.8986754,-6.5352432,0.5447381,-7.3217687,-8
 .1018436,0.8230284,-0.8346922,-0.3730989,1.7247677,0.2994923,1.017227,
 -0.0497956,2.0275023,-4.9542599,-0.6964549,3.4778887,-2.9776516,2.4606
 746,-1.0931095,4.2310125,1.9844915,-6.4114552,7.6930874,-1.7240862,0.0
 484968,-0.543001,-0.4550164,0.3529989,-1.03286,0.5383354,0.7957321,4.0
 010674,-0.4313968,-2.5422624,5.8294687,-1.6434307,-0.4728116,-3.799535
 8,0.7100804,4.9494389,-5.8338839,14.5458648,-1.8765014,1.0051375,-1.72
 57052,0.3850439,0.7364536,-3.5953098,1.6169265,-0.6976539,0.0139554,0.
 8411991,-0.1938946,-0.4973077,-0.5794277,1.8009886,0.4937807,1.2137261
 ,1.2002602\HyperPolar=209.2036692,9.4927536,251.1068696,125.1437144,5.
 9389296,-14.1866054,-15.2615863,115.4069395,-23.1313492,3.5933552\Quad
 rupole=-9.0695185,2.4297362,6.6397823,0.8117185,-6.4127139,-1.6202081\
 PG=C01 [X(C2H6N1O1)]\NImag=0\\0.21102229,0.14973895,0.19806494,-0.0033
 0796,-0.00211522,0.05016448,-0.15699456,-0.08552067,0.00076370,0.40740
 870,-0.07017841,-0.15386371,0.00028684,-0.00506799,0.46182795,0.000768
 39,-0.00047145,-0.07874442,0.00445868,0.00829863,0.49362422,-0.0342950
 3,-0.01269599,0.00262138,-0.12199500,0.05717603,0.00403775,0.42437721,
 -0.03489996,0.00769710,0.00162833,0.04295206,-0.09902707,-0.00378917,-
 0.02212811,0.50833997,0.00106875,0.00043403,0.00345545,0.00617167,-0.0
 0422477,-0.07196224,0.01789395,-0.01825686,0.57990215,-0.00640351,-0.0
 2625428,-0.02009051,-0.04599645,0.00715847,0.00766662,-0.00587892,0.01
 732217,0.02505332,0.05695489,-0.02136489,-0.02779005,-0.01853876,0.015
 38101,-0.09358742,-0.07829646,0.00441791,-0.00957045,-0.01640612,0.000
 53480,0.12131187,-0.01423962,-0.01209633,0.01089808,0.01818693,-0.0741
 3140,-0.17995641,-0.00150178,-0.00318286,-0.00630210,-0.00710810,0.099
 06943,0.19814083,-0.00328046,-0.02737393,0.02015113,-0.05027126,0.0180
 4394,-0.02067708,-0.00902946,0.01900352,-0.02406176,0.00285171,-0.0001
 3664,0.00296845,0.06181670,-0.02186733,-0.03131007,0.01821518,0.025908
 12,-0.09943140,0.07533070,0.00616922,-0.01058980,0.01641315,-0.0008385
 1,0.00955091,-0.01017330,-0.01181605,0.13088149,0.01537308,0.01364657,
 0.00916545,-0.02955685,0.07078992,-0.15788713,0.00165000,0.00105890,-0
 .00293870,-0.00594347,0.01354461,-0.02723034,0.02093619,-0.09830705,0.
 17436947,-0.01384429,0.00083611,0.00073097,-0.02202945,-0.03282428,0.0
 0136846,-0.13369339,-0.05747625,-0.02180778,0.00220474,-0.00076468,0.0
 0013865,0.00172264,-0.00045811,-0.00020921,0.59352502,0.00258483,0.003
 00625,-0.00015135,0.00037072,0.00592255,0.00098100,-0.03691020,-0.1473
 3651,-0.00304098,0.00003760,0.00113681,0.00137488,0.00085525,0.0009470
 9,-0.00096489,-0.07624641,0.41340103,0.00033131,0.00013354,0.00183929,
 0.00039189,0.00081456,-0.00091630,0.00455169,0.02628911,-0.07193295,-0
 .00003884,0.00111601,0.00107666,-0.00058286,-0.00047911,0.00090798,0.0
 1852428,-0.19913516,0.38915511,0.00307798,-0.00004462,-0.00169160,-0.0
 0440555,0.01732178,0.02482230,-0.04722637,0.00951132,0.01130582,-0.005
 53231,0.00267116,0.00119100,0.00159017,-0.00080837,-0.00055171,-0.0055
 5638,-0.02353240,-0.01872005,0.05496055,-0.00061402,0.00270353,0.00227
 382,0.00099356,-0.00940061,-0.01353448,0.01099774,-0.12252198,-0.10534
 597,0.00254670,-0.00174357,-0.00087475,-0.00057260,0.00044532,0.000216
 07,-0.00994847,-0.02283600,-0.01770562,-0.00394857,0.14143968,0.000333
 74,0.00227255,0.00140959,-0.00241716,-0.00278642,-0.00394147,0.0123807
 1,-0.10458471,-0.20633656,0.00121807,-0.00106273,0.00150105,0.00043231
 ,-0.00027372,0.00143603,-0.00230547,0.00000434,0.00750883,-0.01033739,
 0.12121423,0.21858233,0.00304726,-0.00050051,0.00140840,-0.00738654,0.
 01747399,-0.02478094,-0.05480215,0.02801332,-0.04310322,0.00163598,-0.
 00107005,0.00034722,-0.00573813,0.00275954,-0.00014468,0.00250696,-0.0
 1968184,0.02095706,0.00119895,-0.00026567,0.00227400,0.06225450,-0.001
 16886,0.00173327,-0.00137530,0.00343436,-0.00909809,0.01166794,0.02370
 888,-0.11794725,0.10503924,-0.00049631,0.00038932,-0.00008703,0.002625
 08,-0.00136442,0.00047603,0.00209777,-0.01866620,0.02036961,-0.0028456
 1,0.01032802,-0.01459565,-0.02364200,0.13691232,-0.00123543,-0.0016510
 6,0.00091679,0.00214152,-0.00072014,0.00044677,-0.03925169,0.11018990,
 -0.21760335,-0.00043606,0.00021289,0.00163838,0.00005738,0.00017478,0.
 00178139,0.00152165,0.00154190,0.00148276,-0.00568815,0.01306206,-0.02
 243385,0.04182350,-0.12242183,0.23204693,0.00000543,0.00127067,-0.0007
 9288,0.00110549,-0.00221745,0.00240420,0.00476154,-0.01523656,0.023857
 07,-0.00023285,0.00007935,-0.00024681,-0.00019455,0.00089157,-0.001300
 14,-0.06661526,0.02310613,-0.04024925,0.00053459,0.00019577,-0.0005038
 4,-0.00346465,-0.00381642,0.00060309,0.06956704,0.00053210,0.00006325,
 -0.00043887,0.00050517,0.00106758,-0.00019132,0.00187130,-0.01890728,0
 .02546574,0.00009809,-0.00000676,-0.00019986,-0.00058930,0.00049978,-0
 .00005333,0.02247913,-0.12805454,0.15358913,0.00155242,0.00083388,-0.0
 0011709,-0.00393606,-0.00292011,-0.00068230,-0.02498344,0.15713277,-0.
 00003674,-0.00017918,0.00016341,-0.00040511,-0.00019923,-0.00004850,-0
 .00163891,-0.00399964,-0.00338182,0.00008345,0.00003927,-0.00000997,0.
 00067258,-0.00026354,0.00005844,-0.05280675,0.20064176,-0.29938974,0.0
 0000270,-0.00043600,0.00179162,0.00098534,0.00092050,0.00177809,0.0497
 8497,-0.19125259,0.29959894,-0.00233511,0.00054426,0.00020738,0.000564
 61,-0.00688608,-0.00006837,-0.02221842,0.01293849,0.00362218,0.0003967
 3,0.00025202,0.00026406,0.00053264,0.00005992,-0.00025320,-0.35822060,
 0.12941633,0.01483478,0.00135837,0.00061556,-0.00107498,0.00074782,0.0
 0010311,0.00046419,-0.00546678,0.00247061,0.00335846,0.38464074,-0.002
 76241,-0.00030452,0.00021533,0.00104367,-0.00440979,0.00000460,-0.0326
 0677,0.00986328,-0.00007747,-0.00010874,0.00030934,0.00030121,-0.00003
 926,0.00037110,-0.00040683,0.15230518,-0.10752047,0.01500794,0.0001229
 0,0.00075173,-0.00007080,0.00084927,0.00063313,0.00029380,0.02071038,-
 0.00970857,-0.00527136,-0.13951422,0.11001478,0.00094448,0.00002654,0.
 00073187,0.00026473,0.00187202,-0.00061452,-0.00074309,-0.00535300,-0.
 00289988,-0.00040448,0.00032184,0.00024383,0.00010367,-0.00063710,0.00
 033740,0.05484521,-0.00125150,-0.02973162,-0.00033291,0.00113065,0.000
 48243,0.00023331,0.00000649,-0.00005392,-0.03355640,0.01388049,-0.0005
 6048,-0.02135452,-0.00999642,0.03206489\\0.00003186,-0.00009179,0.0000
 1853,0.00000107,-0.00004339,-0.00000247,0.00002027,0.00002815,0.000021
 24,-0.00000269,-0.00000198,-0.00000435,-0.00000678,-0.00002254,-0.0000
 1168,-0.00025164,0.00016516,0.00002772,0.00002523,0.00000334,0.0000073
 9,0.00001669,0.00001041,0.00001204,0.00000170,-0.00001435,-0.00002313,
 0.00016427,-0.00003301,-0.00004530\\\@
 The archive entry for this job was punched.


 THE SCIENTIFIC THEORIST IS NOT TO BE ENVIED. FOR NATURE, OR MORE
 PRECISELY EXPERIMENT, IS AN INEXORABLE AND NOT VERY FRIENDLY JUDGE OF HIS
 WORK.  IT NEVER SAYS "YES" TO A THEORY. IN THE MOST FAVORABLE CASES
 IT SAYS "MAYBE", AND IN THE GREAT MAJORITY OF CASES SIMPLY "NO"...
 PROBABLY EVERY THEORY WILL SOME DAY EXPERIENCE ITS "NO" - MOST
 THEORIES, SOON AFTER CONCEPTION.  -- A.EINSTEIN, NOV 11, 1922.
 Job cpu time:       0 days  0 hours  7 minutes 31.9 seconds.
 Elapsed time:       0 days  0 hours  4 minutes 31.7 seconds.
 File lengths (MBytes):  RWF=     72 Int=      0 D2E=      0 Chk=      8 Scr=      1
 Normal termination of Gaussian 16 at Fri Jun  2 11:33:38 2023.
