 Entering Gaussian System, Link 0=g16
 Input=choline-CO2_binding-site_index-17-freq.gjf
 Output=choline-CO2_binding-site_index-17-freq.log
 Initial command:
 /software/commercial/gaussian/g16/AVX/g16/l1.exe "/scratch1/svicchi/G09-659737.pbs02/Gau-421662.inp" -scrdir="/scratch1/svicchi/G09-659737.pbs02/"
 Entering Link 1 = /software/commercial/gaussian/g16/AVX/g16/l1.exe PID=    421663.
  
 Copyright (c) 1988-2019, Gaussian, Inc.  All Rights Reserved.
  
 This is part of the Gaussian(R) 16 program.  It is based on
 the Gaussian(R) 09 system (copyright 2009, Gaussian, Inc.),
 the Gaussian(R) 03 system (copyright 2003, Gaussian, Inc.),
 the Gaussian(R) 98 system (copyright 1998, Gaussian, Inc.),
 the Gaussian(R) 94 system (copyright 1995, Gaussian, Inc.),
 the Gaussian 92(TM) system (copyright 1992, Gaussian, Inc.),
 the Gaussian 90(TM) system (copyright 1990, Gaussian, Inc.),
 the Gaussian 88(TM) system (copyright 1988, Gaussian, Inc.),
 the Gaussian 86(TM) system (copyright 1986, Carnegie Mellon
 University), and the Gaussian 82(TM) system (copyright 1983,
 Carnegie Mellon University). Gaussian is a federally registered
 trademark of Gaussian, Inc.
  
 This software contains proprietary and confidential information,
 including trade secrets, belonging to Gaussian, Inc.
  
 This software is provided under written license and may be
 used, copied, transmitted, or stored only in accord with that
 written license.
  
 The following legend is applicable only to US Government
 contracts under FAR:
  
                    RESTRICTED RIGHTS LEGEND
  
 Use, reproduction and disclosure by the US Government is
 subject to restrictions as set forth in subparagraphs (a)
 and (c) of the Commercial Computer Software - Restricted
 Rights clause in FAR 52.227-19.
  
 Gaussian, Inc.
 340 Quinnipiac St., Bldg. 40, Wallingford CT 06492
  
  
 ---------------------------------------------------------------
 Warning -- This program may not be used in any manner that
 competes with the business of Gaussian, Inc. or will provide
 assistance to any competitor of Gaussian, Inc.  The licensee
 of this program is prohibited from giving any competitor of
 Gaussian, Inc. access to this program.  By using this program,
 the user acknowledges that Gaussian, Inc. is engaged in the
 business of creating and licensing software in the field of
 computational chemistry and represents and warrants to the
 licensee that it is not a competitor of Gaussian, Inc. and that
 it will not use this program in any manner prohibited above.
 ---------------------------------------------------------------
  

 Cite this work as:
 Gaussian 16, Revision C.01,
 M. J. Frisch, G. W. Trucks, H. B. Schlegel, G. E. Scuseria, 
 M. A. Robb, J. R. Cheeseman, G. Scalmani, V. Barone, 
 G. A. Petersson, H. Nakatsuji, X. Li, M. Caricato, A. V. Marenich, 
 J. Bloino, B. G. Janesko, R. Gomperts, B. Mennucci, H. P. Hratchian, 
 J. V. Ortiz, A. F. Izmaylov, J. L. Sonnenberg, D. Williams-Young, 
 F. Ding, F. Lipparini, F. Egidi, J. Goings, B. Peng, A. Petrone, 
 T. Henderson, D. Ranasinghe, V. G. Zakrzewski, J. Gao, N. Rega, 
 G. Zheng, W. Liang, M. Hada, M. Ehara, K. Toyota, R. Fukuda, 
 J. Hasegawa, M. Ishida, T. Nakajima, Y. Honda, O. Kitao, H. Nakai, 
 T. Vreven, K. Throssell, J. A. Montgomery, Jr., J. E. Peralta, 
 F. Ogliaro, M. J. Bearpark, J. J. Heyd, E. N. Brothers, K. N. Kudin, 
 V. N. Staroverov, T. A. Keith, R. Kobayashi, J. Normand, 
 K. Raghavachari, A. P. Rendell, J. C. Burant, S. S. Iyengar, 
 J. Tomasi, M. Cossi, J. M. Millam, M. Klene, C. Adamo, R. Cammi, 
 J. W. Ochterski, R. L. Martin, K. Morokuma, O. Farkas, 
 J. B. Foresman, and D. J. Fox, Gaussian, Inc., Wallingford CT, 2019.
 
 ******************************************
 Gaussian 16:  ES64L-G16RevC.01  3-Jul-2019
                 2-Jun-2023 
 ******************************************
 %NProcShared=2
 Will use up to    2 processors via shared memory.
 %mem=55gb
 %chk=/scratch1/svicchi/G09-659737.pbs02/02-freq/choline-CO2_binding-site_index-1
 7-freq.chk
 ----------------------------------------------------------------------
 #p freq=raman scale=0.967 pop=(nbo,full,hirshfeld) guess=read geom=all
 check b3lyp/6-311+G(d,p) int=grid=ultrafine EmpiricalDispersion=GD3BJ 
 SCRF=(Solvent=ethanol) scf=(xqc,intrep,maxconventionalcycle=350) nosym
 m
 ----------------------------------------------------------------------
 1/10=4,29=7,30=1,38=1,114=967000/1,3;
 2/12=2,15=1,40=1/2;
 3/5=4,6=6,7=111,11=2,14=-4,25=1,30=1,70=2201,71=2,72=4,74=-5,75=-5,116=-2,124=41,140=1/1,2,3;
 4/5=1/1;
 5/5=2,8=3,13=1,17=20,38=6,53=4,85=350,98=1/2,8;
 8/6=4,10=90,11=11/1;
 10/13=10,15=4,31=1/2;
 11/6=3,8=1,9=11,15=111,16=1,31=1/1,2,10;
 10/6=1,31=1/2;
 6/7=3,28=1,40=1,79=1/1,7;
 7/8=1,10=1,25=1,30=1/1,2,3,16;
 1/10=4,30=1/3;
 99//99;
 Leave Link    1 at Fri Jun  2 14:16:46 2023, MaxMem=  7381975040 cpu:               3.5 elap:               3.5
 (Enter /software/commercial/gaussian/g16/AVX/g16/l101.exe)
 Structure from the checkpoint file:  "/scratch1/svicchi/G09-659737.pbs02/02-freq/choline-CO2_binding-site_index-17-freq.chk"
 -------------------------------------
 choline-CO2_binding-site_index-17.gjf
 -------------------------------------
 Charge =  0 Multiplicity = 1
 No Z-Matrix found in chk file; cartesian coordinates used.
  N                                                -4.781376218095      1.731018831324      0.070736797472
  C                                                -6.086236378417      1.783556726168     -0.674853155803
  H                                                -6.259147187217      2.804413553108     -1.008416789027
  H                                                -6.881704883101      1.468991006316     -0.003466622897
  H                                                -6.029333054195      1.112921575357     -1.529087105026
  C                                                -4.889096291683      2.615029505855      1.283955141300
  H                                                -5.771049884590      2.311653047236      1.843794050942
  H                                                -4.988394302277      3.646722344346      0.956074750297
  H                                                -4.002278816007      2.487136477947      1.892692145361
  C                                                -4.521625981780      0.316325934766      0.510543100731
  H                                                -3.622977023169      0.306105825738      1.122861458599
  H                                                -4.401892386449     -0.305975420594     -0.373968277451
  H                                                -5.379804290969     -0.019379616430      1.088733242286
  C                                                -3.695791111125      2.219487349820     -0.882036279086
  C                                                -2.248675379826      2.065541786729     -0.441048407235
  H                                                -3.924005958738      3.265639446566     -1.084673320777
  H                                                -3.835451208528      1.649381034474     -1.800912993042
  O                                                -1.854336862236      2.998268211717      0.554749316056
  H                                                -1.653851826515      2.275575379889     -1.334696384582
  H                                                -2.027348989217      1.049908723678     -0.117688358943
  C                                                -1.572960554660      2.510070117875      1.871558879702
  O                                                -1.823990163529      1.308558469683      2.088642505328
  O                                                -1.133906247678      3.396150688432      2.617270305794
 Recover connectivity data from disk.
 ITRead=  0  0  0  0  0  0  0  0  0  0  0  0  0  0  0  0  0  0  0  0
 ITRead=  0  0  0
 MicOpt= -1 -1 -1 -1 -1 -1 -1 -1 -1 -1 -1 -1 -1 -1 -1 -1 -1 -1 -1 -1
 MicOpt= -1 -1 -1
 NAtoms=     23 NQM=       23 NQMF=       0 NMMI=      0 NMMIF=      0
                NMic=       0 NMicF=      0.
                    Isotopes and Nuclear Properties:
 (Nuclear quadrupole moments (NQMom) in fm**2, nuclear magnetic moments (NMagM)
  in nuclear magnetons)

  Atom         1           2           3           4           5           6           7           8           9          10
 IAtWgt=          14          12           1           1           1          12           1           1           1          12
 AtmWgt=  14.0030740  12.0000000   1.0078250   1.0078250   1.0078250  12.0000000   1.0078250   1.0078250   1.0078250  12.0000000
 NucSpn=           2           0           1           1           1           0           1           1           1           0
 AtZEff=   4.5500000   3.6000000   1.0000000   1.0000000   1.0000000   3.6000000   1.0000000   1.0000000   1.0000000   3.6000000
 NQMom=    2.0440000   0.0000000   0.0000000   0.0000000   0.0000000   0.0000000   0.0000000   0.0000000   0.0000000   0.0000000
 NMagM=    0.4037610   0.0000000   2.7928460   2.7928460   2.7928460   0.0000000   2.7928460   2.7928460   2.7928460   0.0000000
 AtZNuc=   7.0000000   6.0000000   1.0000000   1.0000000   1.0000000   6.0000000   1.0000000   1.0000000   1.0000000   6.0000000

  Atom        11          12          13          14          15          16          17          18          19          20
 IAtWgt=           1           1           1          12          12           1           1          16           1           1
 AtmWgt=   1.0078250   1.0078250   1.0078250  12.0000000  12.0000000   1.0078250   1.0078250  15.9949146   1.0078250   1.0078250
 NucSpn=           1           1           1           0           0           1           1           0           1           1
 AtZEff=   1.0000000   1.0000000   1.0000000   3.6000000   3.6000000   1.0000000   1.0000000   5.6000000   1.0000000   1.0000000
 NQMom=    0.0000000   0.0000000   0.0000000   0.0000000   0.0000000   0.0000000   0.0000000   0.0000000   0.0000000   0.0000000
 NMagM=    2.7928460   2.7928460   2.7928460   0.0000000   0.0000000   2.7928460   2.7928460   0.0000000   2.7928460   2.7928460
 AtZNuc=   1.0000000   1.0000000   1.0000000   6.0000000   6.0000000   1.0000000   1.0000000   8.0000000   1.0000000   1.0000000

  Atom        21          22          23
 IAtWgt=          12          16          16
 AtmWgt=  12.0000000  15.9949146  15.9949146
 NucSpn=           0           0           0
 AtZEff=   3.6000000   5.6000000   5.6000000
 NQMom=    0.0000000   0.0000000   0.0000000
 NMagM=    0.0000000   0.0000000   0.0000000
 AtZNuc=   6.0000000   8.0000000   8.0000000
 Leave Link  101 at Fri Jun  2 14:16:50 2023, MaxMem=  7381975040 cpu:               0.4 elap:               2.2
 (Enter /software/commercial/gaussian/g16/AVX/g16/l103.exe)

 GradGradGradGradGradGradGradGradGradGradGradGradGradGradGradGradGradGrad
 Berny optimization.
 Initialization pass.
 Trust Radius=3.00D-01 FncErr=1.00D-07 GrdErr=1.00D-07 EigMax=2.50D+02 EigMin=1.00D-04
 Number of steps in this run=      2 maximum allowed number of steps=      2.
 GradGradGradGradGradGradGradGradGradGradGradGradGradGradGradGradGradGrad

 Leave Link  103 at Fri Jun  2 14:16:51 2023, MaxMem=  7381975040 cpu:               0.1 elap:               0.9
 (Enter /software/commercial/gaussian/g16/AVX/g16/l202.exe)
                          Input orientation:                          
 ---------------------------------------------------------------------
 Center     Atomic      Atomic             Coordinates (Angstroms)
 Number     Number       Type             X           Y           Z
 ---------------------------------------------------------------------
      1          7           0       -4.781376    1.731019    0.070737
      2          6           0       -6.086236    1.783557   -0.674853
      3          1           0       -6.259147    2.804414   -1.008417
      4          1           0       -6.881705    1.468991   -0.003467
      5          1           0       -6.029333    1.112922   -1.529087
      6          6           0       -4.889096    2.615030    1.283955
      7          1           0       -5.771050    2.311653    1.843794
      8          1           0       -4.988394    3.646722    0.956075
      9          1           0       -4.002279    2.487136    1.892692
     10          6           0       -4.521626    0.316326    0.510543
     11          1           0       -3.622977    0.306106    1.122861
     12          1           0       -4.401892   -0.305975   -0.373968
     13          1           0       -5.379804   -0.019380    1.088733
     14          6           0       -3.695791    2.219487   -0.882036
     15          6           0       -2.248675    2.065542   -0.441048
     16          1           0       -3.924006    3.265639   -1.084673
     17          1           0       -3.835451    1.649381   -1.800913
     18          8           0       -1.854337    2.998268    0.554749
     19          1           0       -1.653852    2.275575   -1.334696
     20          1           0       -2.027349    1.049909   -0.117688
     21          6           0       -1.572961    2.510070    1.871559
     22          8           0       -1.823990    1.308558    2.088643
     23          8           0       -1.133906    3.396151    2.617270
 ---------------------------------------------------------------------
                    Distance matrix (angstroms):
                    1          2          3          4          5
     1  N    0.000000
     2  C    1.503770   0.000000
     3  H    2.121451   1.087801   0.000000
     4  H    2.117911   1.087420   1.783496   0.000000
     5  H    2.121056   1.087522   1.784673   1.783491   0.000000
     6  C    1.504984   2.441602   2.677289   2.634644   3.386691
     7  H    2.111947   2.592646   2.935329   2.314305   3.588871
     8  H    2.120519   2.708610   2.486669   3.041029   3.698612
     9  H    2.120903   3.380857   3.689248   3.594876   4.207848
    10  C    1.504080   2.450701   3.393641   2.676344   2.658540
    11  H    2.116420   3.388552   4.211090   3.638712   3.670740
    12  H    2.119225   2.700683   3.677831   3.072010   2.448700
    13  H    2.111475   2.619134   3.625616   2.379885   2.925231
    14  C    1.524753   2.438686   2.632281   3.388979   2.662439
    15  C    2.605456   3.855004   4.117247   4.691728   4.047800
    16  H    2.103596   2.653255   2.381476   3.625595   3.043698
    17  H    2.098693   2.520327   2.799366   3.541612   2.274818
    18  O    3.226104   4.571260   4.677972   5.284385   5.032643
    19  H    3.471771   4.508160   4.647028   5.454649   4.531488
    20  H    2.843252   4.162120   4.666883   4.873751   4.244042
    21  C    3.760826   5.232752   5.508289   5.725586   5.777168
    22  O    3.605073   5.101889   5.612484   5.475686   5.550779
    23  O    4.749898   6.161502   6.305859   6.604498   6.809598
                    6          7          8          9         10
     6  C    0.000000
     7  H    1.087795   0.000000
     8  H    1.087086   1.784098   0.000000
     9  H    1.083219   1.778127   1.787265   0.000000
    10  C    2.453006   2.705540   3.392331   2.625353   0.000000
    11  H    2.638207   3.025918   3.612741   2.343801   1.087478
    12  H    3.393869   3.693919   4.211510   3.619242   1.088097
    13  H    2.686823   2.481311   3.689323   2.970951   1.087875
    14  C    2.504386   3.427148   2.662043   2.804405   2.498660
    15  C    3.201468   4.205734   3.458055   2.949443   3.021852
    16  H    2.639146   3.591320   2.332981   3.078457   3.405924
    17  H    3.399861   4.179598   3.594389   3.791093   2.755123
    18  O    3.144579   4.180158   3.225503   2.581666   3.782750
    19  H    4.176047   5.201483   4.271633   3.996987   3.932899
    20  H    3.550184   4.410749   4.082180   3.163479   2.674740
    21  C    3.369429   4.202867   3.714199   2.429518   3.919120
    22  O    3.427720   4.079881   4.094285   2.484428   3.279049
    23  O    4.060706   4.824676   4.204692   3.094977   5.039868
                   11         12         13         14         15
    11  H    0.000000
    12  H    1.794952   0.000000
    13  H    1.787050   1.782679   0.000000
    14  C    2.772354   2.671081   3.425253   0.000000
    15  C    2.725827   3.203894   4.060923   1.520629   0.000000
    16  H    3.704412   3.672861   4.199333   1.089761   2.158986
    17  H    3.224592   2.486050   3.676934   1.090349   2.130793
    18  O    3.270868   4.274410   4.671216   2.462074   1.420245
    19  H    3.714277   3.890903   5.002255   2.092263   1.093863
    20  H    2.153656   2.746372   3.719918   2.176199   1.088604
    21  C    3.101705   4.579886   4.637132   3.489002   2.449969
    22  O    2.274642   3.913662   3.925182   3.627446   2.674456
    23  O    4.239942   5.773472   5.659498   4.493655   3.516610
                   16         17         18         19         20
    16  H    0.000000
    17  H    1.770066   0.000000
    18  O    2.653813   3.360574   0.000000
    19  H    2.489244   2.317079   2.032851   0.000000
    20  H    3.072756   2.542016   2.068384   1.767164   0.000000
    21  C    3.851962   4.398488   1.432305   3.215836   2.509112
    22  O    4.279038   4.392127   2.282295   3.561365   2.230729
    23  O    4.637464   5.465336   2.220658   4.140540   3.712558
                   21         22         23
    21  C    0.000000
    22  O    1.246504   0.000000
    23  O    1.238545   2.261350   0.000000
 Symmetry turned off by external request.
 Stoichiometry    C6H13NO3
 Framework group  C1[X(C6H13NO3)]
 Deg. of freedom    63
 Full point group                 C1      NOp   1
 Rotational constants (GHZ):           2.4550613           0.8052609           0.7700990
 Leave Link  202 at Fri Jun  2 14:16:53 2023, MaxMem=  7381975040 cpu:               0.1 elap:               1.6
 (Enter /software/commercial/gaussian/g16/AVX/g16/l301.exe)
 Standard basis: 6-311+G(d,p) (5D, 7F)
 Ernie: Thresh=  0.10000D-02 Tol=  0.10000D-05 Strict=F.
   298 basis functions,   464 primitive gaussians,   308 cartesian basis functions
    40 alpha electrons       40 beta electrons
       nuclear repulsion energy       600.7950939331 Hartrees.
 IExCor=  402 DFT=T Ex+Corr=B3LYP ExCW=0 ScaHFX=  0.200000
 ScaDFX=  0.800000  0.720000  1.000000  0.810000 ScalE2=  1.000000  1.000000
 IRadAn=      5 IRanWt=     -1 IRanGd=            0 ICorTp=0 IEmpDi=141
 NAtoms=   23 NActive=   23 NUniq=   23 SFac= 1.00D+00 NAtFMM=   60 NAOKFM=F Big=F
 Integral buffers will be    131072 words long.
 Raffenetti 2 integral format.
 Two-electron integral symmetry is turned off.
 R6Disp:  Grimme-D3(BJ) Dispersion energy=       -0.0386048643 Hartrees.
 Nuclear repulsion after empirical dispersion term =      600.7564890688 Hartrees.
 Force inversion solution in PCM.
 ------------------------------------------------------------------------------
 Polarizable Continuum Model (PCM)
 =================================
 Model                : PCM.
 Atomic radii         : UFF (Universal Force Field).
 Polarization charges : Total charges.
 Charge compensation  : None.
 Solution method      : Matrix inversion.
 Cavity type          : Scaled VdW (van der Waals Surface) (Alpha=1.100).
 Cavity algorithm     : GePol (No added spheres)
                        Default sphere list used, NSphG=   23.
                        Lebedev-Laikov grids with approx.  5.0 points / Ang**2.
                        Smoothing algorithm: York/Karplus (Gamma=1.0000).
                        Polarization charges: spherical gaussians, with
                                              point-specific exponents (IZeta= 3).
                        Self-potential: point-specific (ISelfS= 7).
                        Self-field    : sphere-specific E.n sum rule (ISelfD= 2).
 1st derivatives      : Analytical E(r).r(x)/FMM algorithm (CHGder, D1EAlg=3).
                        Cavity 1st derivative terms included.
 2nd derivatives      : Analytical E(r).r(xy)/FMM algorithm (CHGder, D2EAlg=3).
                        Cavity 2nd derivative terms included.
 Solvent              : Ethanol, Eps=  24.852000 Eps(inf)=   1.852593
 ------------------------------------------------------------------------------
 GePol: Number of generator spheres                  =      23
 GePol: Total number of spheres                      =      23
 GePol: Number of exposed spheres                    =      22 ( 95.65%)
 GePol: Number of points                             =    1591
 GePol: Average weight of points                     =       0.13
 GePol: Minimum weight of points                     =   0.13D-11
 GePol: Maximum weight of points                     =    0.20577
 GePol: Number of points with low weight             =      97
 GePol: Fraction of low-weight points (<1% of avg)   =       6.10%
 GePol: Cavity surface area                          =    210.526 Ang**2
 GePol: Cavity volume                                =    219.998 Ang**3
 Leave Link  301 at Fri Jun  2 14:16:56 2023, MaxMem=  7381975040 cpu:               0.3 elap:               1.9
 (Enter /software/commercial/gaussian/g16/AVX/g16/l302.exe)
 NPDir=0 NMtPBC=     1 NCelOv=     1 NCel=       1 NClECP=     1 NCelD=      1
         NCelK=      1 NCelE2=     1 NClLst=     1 CellRange=     0.0.
 One-electron integrals computed using PRISM.
 NBasis=   298 RedAO= T EigKep=  2.02D-05  NBF=   298
 NBsUse=   298 1.00D-06 EigRej= -1.00D+00 NBFU=   298
 Precomputing XC quadrature grid using
 IXCGrd= 4 IRadAn=           5 IRanWt=          -1 IRanGd=           0 AccXCQ= 0.00D+00.
 Generated NRdTot=       0 NPtTot=           0 NUsed=           0 NTot=          32
 NSgBfM=   308   308   308   308   308 MxSgAt=    23 MxSgA2=    23.
 Leave Link  302 at Fri Jun  2 14:16:58 2023, MaxMem=  7381975040 cpu:               1.8 elap:               1.8
 (Enter /software/commercial/gaussian/g16/AVX/g16/l303.exe)
 DipDrv:  MaxL=1.
 Leave Link  303 at Fri Jun  2 14:17:01 2023, MaxMem=  7381975040 cpu:               0.1 elap:               1.9
 (Enter /software/commercial/gaussian/g16/AVX/g16/l401.exe)
 Initial guess from the checkpoint file:  "/scratch1/svicchi/G09-659737.pbs02/02-freq/choline-CO2_binding-site_index-17-freq.chk"
 B after Tr=     0.000000    0.000000    0.000000
         Rot=    1.000000    0.000000    0.000000    0.000000 Ang=   0.00 deg.
 Guess basis will be translated and rotated to current coordinates.
 JPrj=2 DoOrth=T DoCkMO=T.
 Leave Link  401 at Fri Jun  2 14:17:04 2023, MaxMem=  7381975040 cpu:               0.8 elap:               1.9
 (Enter /software/commercial/gaussian/g16/AVX/g16/l502.exe)
 Keep R1 ints in memory in canonical form, NReq=1007171342.
 FoFCou: FMM=F IPFlag=           0 FMFlag=           0 FMFlg1=           0
         NFxFlg=           0 DoJE=F BraDBF=F KetDBF=F FulRan=T
         wScrn=  0.000000 ICntrl=       600 IOpCl=  0 I1Cent=           0 NGrid=           0
         NMat0=    1 NMatS0=  44551 NMatT0=    0 NMatD0=    1 NMtDS0=    0 NMtDT0=    0
 Symmetry not used in FoFCou.
 Two-electron integral symmetry not used.
 Closed shell SCF:
 Using DIIS extrapolation, IDIIS=  1040.
 NGot=  7381975040 LenX=  6389362440 LenY=  6389267135
 Requested convergence on RMS density matrix=1.00D-08 within 350 cycles.
 Requested convergence on MAX density matrix=1.00D-06.
 Requested convergence on             energy=1.00D-06.
 No special actions if energy rises.

 Cycle   1  Pass 1  IDiag  1:
 Inv3:  Mode=1 IEnd=     7593843.
 Iteration    1 A*A^-1 deviation from unit magnitude is 4.88D-15 for   1587.
 Iteration    1 A*A^-1 deviation from orthogonality  is 3.52D-15 for   1588     24.
 Iteration    1 A^-1*A deviation from unit magnitude is 5.00D-15 for   1587.
 Iteration    1 A^-1*A deviation from orthogonality  is 3.80D-15 for   1582    455.
 E= -517.092875073488    
 DIIS: error= 9.67D-09 at cycle   1 NSaved=   1.
 NSaved= 1 IEnMin= 1 EnMin= -517.092875073488     IErMin= 1 ErrMin= 9.67D-09
 ErrMax= 9.67D-09  0.00D+00 EMaxC= 1.00D-01 BMatC= 3.00D-14 BMatP= 3.00D-14
 IDIUse=1 WtCom= 1.00D+00 WtEn= 0.00D+00
 Coeff-Com:  0.100D+01
 Coeff:      0.100D+01
 Gap=     0.242 Goal=   None    Shift=    0.000
 RMSDP=1.37D-09 MaxDP=4.09D-08              OVMax= 9.80D-08

 Error on total polarization charges =  0.01448
 SCF Done:  E(RB3LYP) =  -517.092875073     A.U. after    1 cycles
            NFock=  1  Conv=0.14D-08     -V/T= 2.0041
 KE= 5.149673106708D+02 PE=-2.410575970219D+03 EE= 7.777592954059D+02
 Leave Link  502 at Fri Jun  2 14:17:50 2023, MaxMem=  7381975040 cpu:              80.8 elap:              43.8
 (Enter /software/commercial/gaussian/g16/AVX/g16/l508.exe)
 QCSCF skips out because SCF is already converged.
 Leave Link  508 at Fri Jun  2 14:17:54 2023, MaxMem=  7381975040 cpu:               0.0 elap:               1.6
 (Enter /software/commercial/gaussian/g16/AVX/g16/l801.exe)
 DoSCS=F DFT=T ScalE2(SS,OS)=  1.000000  1.000000
 Range of M.O.s used for correlation:     1   298
 NBasis=   298 NAE=    40 NBE=    40 NFC=     0 NFV=     0
 NROrb=    298 NOA=    40 NOB=    40 NVA=   258 NVB=   258

 **** Warning!!: The largest alpha MO coefficient is  0.42162165D+02

 Leave Link  801 at Fri Jun  2 14:17:57 2023, MaxMem=  7381975040 cpu:               0.2 elap:               2.8
 (Enter /software/commercial/gaussian/g16/AVX/g16/l1002.exe)
 Minotr:  Closed shell wavefunction.
 NEqPCM:  Using equilibrium solvation (IEInf=0, Eps=  24.8520, EpsInf=   1.8526)
          Direct CPHF calculation.
          Differentiating once with respect to electric field.
                with respect to dipole field.
          Electric field/nuclear overlap derivatives assumed to be zero.
          Requested convergence is 1.0D-08 RMS, and 1.0D-07 maximum.
          Secondary convergence is 1.0D-12 RMS, and 1.0D-12 maximum.
          NewPWx=F KeepS1=T KeepF1=T KeepIn=T MapXYZ=F SortEE=F KeepMc=T.
         7079 words used for storage of precomputed grid.
 Keep R1 ints in memory in canonical form, NReq=1007180922.
 FoFCou: FMM=F IPFlag=           0 FMFlag=           0 FMFlg1=           0
         NFxFlg=           0 DoJE=F BraDBF=F KetDBF=F FulRan=T
         wScrn=  0.000000 ICntrl=       600 IOpCl=  0 I1Cent=           0 NGrid=           0
         NMat0=    1 NMatS0=  44551 NMatT0=    0 NMatD0=    1 NMtDS0=    0 NMtDT0=    0
 Symmetry not used in FoFCou.
 Two-electron integral symmetry not used.
          MDV=    7381975040 using IRadAn=       1.
          Solving linear equations simultaneously, MaxMat=       0.
          There are     3 degrees of freedom in the 1st order CPHF.  IDoFFX=0 NUNeed=     3.
      3 vectors produced by pass  0 Test12= 3.44D-13 3.33D-08 XBig12= 6.02D+01 2.58D+00.
 AX will form     3 AO Fock derivatives at one time.
      3 vectors produced by pass  1 Test12= 3.44D-13 3.33D-08 XBig12= 1.81D+01 7.12D-01.
      3 vectors produced by pass  2 Test12= 3.44D-13 3.33D-08 XBig12= 5.18D+00 3.51D-01.
      3 vectors produced by pass  3 Test12= 3.44D-13 3.33D-08 XBig12= 7.55D-01 9.87D-02.
      3 vectors produced by pass  4 Test12= 3.44D-13 3.33D-08 XBig12= 1.72D-01 5.85D-02.
      3 vectors produced by pass  5 Test12= 3.44D-13 3.33D-08 XBig12= 2.46D-02 2.55D-02.
      3 vectors produced by pass  6 Test12= 3.44D-13 3.33D-08 XBig12= 4.93D-03 1.18D-02.
      3 vectors produced by pass  7 Test12= 3.44D-13 3.33D-08 XBig12= 5.66D-04 3.72D-03.
      3 vectors produced by pass  8 Test12= 3.44D-13 3.33D-08 XBig12= 2.86D-05 6.71D-04.
      3 vectors produced by pass  9 Test12= 3.44D-13 3.33D-08 XBig12= 1.85D-06 1.98D-04.
      3 vectors produced by pass 10 Test12= 3.44D-13 3.33D-08 XBig12= 3.61D-08 4.66D-05.
      3 vectors produced by pass 11 Test12= 3.44D-13 3.33D-08 XBig12= 8.98D-10 8.17D-06.
      3 vectors produced by pass 12 Test12= 3.44D-13 3.33D-08 XBig12= 2.26D-11 1.22D-06.
      3 vectors produced by pass 13 Test12= 3.44D-13 3.33D-08 XBig12= 7.84D-13 2.09D-07.
      1 vectors produced by pass 14 Test12= 3.44D-13 3.33D-08 XBig12= 2.09D-14 3.46D-08.
 InvSVY:  IOpt=1 It=  1 EMax= 3.36D-15
 Solved reduced A of dimension    43 with     3 vectors.
 End of Minotr F.D. properties file   721 does not exist.
 End of Minotr F.D. properties file   722 does not exist.
 End of Minotr F.D. properties file   788 does not exist.
 Leave Link 1002 at Fri Jun  2 14:21:59 2023, MaxMem=  7381975040 cpu:             465.9 elap:             241.1
 (Enter /software/commercial/gaussian/g16/AVX/g16/l1101.exe)
 Using compressed storage, NAtomX=    23.
 Will process     24 centers per pass.
 R6Disp: Adding Grimme-D3(BJ) dispersion energy 1st derivatives to the gradient.
 Leave Link 1101 at Fri Jun  2 14:22:03 2023, MaxMem=  7381975040 cpu:               0.9 elap:               2.7
 (Enter /software/commercial/gaussian/g16/AVX/g16/l1102.exe)
 Symmetrizing basis deriv contribution to polar:
 IMax=3 JMax=2 DiffMx= 0.00D+00
 Leave Link 1102 at Fri Jun  2 14:22:05 2023, MaxMem=  7381975040 cpu:               0.1 elap:               1.3
 (Enter /software/commercial/gaussian/g16/AVX/g16/l1110.exe)
 Forming Gx(P) for the SCF density, NAtomX=    23.
 Integral derivatives from FoFJK, PRISM(SPDF).
 Do as many integral derivatives as possible in FoFJK.
 G2DrvN: MDV=    7381972535.
 G2DrvN: will do    24 centers at a time, making    1 passes.
 PxScal for G2LodP:  IOpCl= 0 ISclPx=1 IMOff=     1 NMtTot=     4 NTT=   44551 ScalPx= 7.39D+00
 Calling FoFCou, ICntrl=  3107 FMM=F I1Cent=   0 AccDes= 0.00D+00.
 FoFJK:  IHMeth= 1 ICntrl=    3107 DoSepK=F KAlg= 0 I1Cent=           0 FoldK=F
 IRaf=         0 NMat=       1 IRICut=       1 DoRegI=T DoRafI=F ISym2E= 0 IDoP0=0 IntGTp=1.
 FoFCou: FMM=F IPFlag=           0 FMFlag=      100000 FMFlg1=           0
         NFxFlg=           0 DoJE=F BraDBF=F KetDBF=F FulRan=T
         wScrn=  0.000000 ICntrl=      3107 IOpCl=  0 I1Cent=           0 NGrid=           0
         NMat0=    1 NMatS0=      1 NMatT0=    0 NMatD0=    4 NMtDS0=    3 NMtDT0=    0
 Symmetry not used in FoFCou.
 PxScal for G2LodP:  IOpCl= 0 ISclPx=0 IMOff=     1 NMtTot=     4 NTT=   44551 ScalPx= 1.00D+00
 NEqPCM:  Using equilibrium solvation (IEInf=0, Eps=  24.8520, EpsInf=   1.8526)
 G2PCM: DoFxE=T DoFxN=T DoGrad=T DoDP/DQ/DG/TGxP=TFFF NFrqRd=   0 IEInf=0 SqF1=F DoCFld=F IF1Alg=4.
 GePol: Maximum number of non-zero 1st derivatives   =     228
 End of G2Drv F.D. properties file   721 does not exist.
 End of G2Drv F.D. properties file   722 does not exist.
 End of G2Drv F.D. properties file   788 does not exist.
 Leave Link 1110 at Fri Jun  2 14:33:43 2023, MaxMem=  7381975040 cpu:            1383.4 elap:             697.5
 (Enter /software/commercial/gaussian/g16/AVX/g16/l1002.exe)
 Minotr:  Closed shell wavefunction.
          IDoAtm=11111111111111111111111
 NEqPCM:  Using equilibrium solvation (IEInf=0, Eps=  24.8520, EpsInf=   1.8526)
          Direct CPHF calculation.
          Differentiating once with respect to electric field.
                with respect to dipole field.
          Differentiating once with respect to nuclear coordinates.
          Requested convergence is 1.0D-08 RMS, and 1.0D-07 maximum.
          Secondary convergence is 1.0D-12 RMS, and 1.0D-12 maximum.
          NewPWx=T KeepS1=F KeepF1=F KeepIn=T MapXYZ=F SortEE=F KeepMc=T.
         7079 words used for storage of precomputed grid.
 Keep R1 ints in memory in canonical form, NReq=1007181451.
 FoFCou: FMM=F IPFlag=           0 FMFlag=           0 FMFlg1=           0
         NFxFlg=           0 DoJE=F BraDBF=F KetDBF=F FulRan=T
         wScrn=  0.000000 ICntrl=       600 IOpCl=  0 I1Cent=           0 NGrid=           0
         NMat0=    1 NMatS0=  44551 NMatT0=    0 NMatD0=    1 NMtDS0=    0 NMtDT0=    0
 Symmetry not used in FoFCou.
 Two-electron integral symmetry not used.
          MDV=    7381975040 using IRadAn=       1.
          Solving linear equations simultaneously, MaxMat=       0.
          There are    72 degrees of freedom in the 1st order CPHF.  IDoFFX=5 NUNeed=    72.
 Will reuse    3 saved solutions.
     66 vectors produced by pass  0 Test12= 1.43D-14 1.39D-09 XBig12= 2.20D-01 1.31D-01.
 AX will form    66 AO Fock derivatives at one time.
     66 vectors produced by pass  1 Test12= 1.43D-14 1.39D-09 XBig12= 4.25D-03 8.88D-03.
     66 vectors produced by pass  2 Test12= 1.43D-14 1.39D-09 XBig12= 5.29D-05 1.70D-03.
     66 vectors produced by pass  3 Test12= 1.43D-14 1.39D-09 XBig12= 1.92D-07 5.47D-05.
     66 vectors produced by pass  4 Test12= 1.43D-14 1.39D-09 XBig12= 4.12D-10 2.16D-06.
     55 vectors produced by pass  5 Test12= 1.43D-14 1.39D-09 XBig12= 6.31D-13 1.00D-07.
      3 vectors produced by pass  6 Test12= 1.43D-14 1.39D-09 XBig12= 7.31D-16 3.69D-09.
 InvSVY:  IOpt=1 It=  1 EMax= 3.33D-16
 Solved reduced A of dimension   388 with    72 vectors.
 FullF1:  Do perturbations      1 to       3.
 Isotropic polarizability for W=    0.000000      114.31 Bohr**3.
 FullF1:  Do perturbations      1 to       6.
 End of Minotr F.D. properties file   721 does not exist.
 End of Minotr F.D. properties file   722 does not exist.
 End of Minotr F.D. properties file   788 does not exist.
 Leave Link 1002 at Fri Jun  2 14:45:21 2023, MaxMem=  7381975040 cpu:            1361.9 elap:             696.8
 (Enter /software/commercial/gaussian/g16/AVX/g16/l601.exe)
 Copying SCF densities to generalized density rwf, IOpCl= 0 IROHF=0.

 **********************************************************************

            Population analysis using the SCF Density.

 **********************************************************************

 Alpha  occ. eigenvalues --  -19.13669 -19.07451 -19.06947 -14.45805 -10.29958
 Alpha  occ. eigenvalues --  -10.24026 -10.23435 -10.23220 -10.22856 -10.22600
 Alpha  occ. eigenvalues --   -1.08451  -1.03318  -0.99326  -0.96198  -0.79314
 Alpha  occ. eigenvalues --   -0.76395  -0.76095  -0.69090  -0.62919  -0.56220
 Alpha  occ. eigenvalues --   -0.54680  -0.53447  -0.52607  -0.47704  -0.46894
 Alpha  occ. eigenvalues --   -0.45655  -0.45376  -0.44574  -0.42422  -0.42077
 Alpha  occ. eigenvalues --   -0.41879  -0.41645  -0.41423  -0.39962  -0.39218
 Alpha  occ. eigenvalues --   -0.34497  -0.29038  -0.28273  -0.26636  -0.24502
 Alpha virt. eigenvalues --   -0.00284   0.01721   0.01897   0.02199   0.02935
 Alpha virt. eigenvalues --    0.03749   0.04110   0.04462   0.05023   0.05702
 Alpha virt. eigenvalues --    0.06422   0.07475   0.07978   0.08295   0.08718
 Alpha virt. eigenvalues --    0.08953   0.10121   0.10214   0.11406   0.11896
 Alpha virt. eigenvalues --    0.12157   0.12628   0.13672   0.13865   0.14872
 Alpha virt. eigenvalues --    0.15066   0.15603   0.16012   0.16366   0.16579
 Alpha virt. eigenvalues --    0.17242   0.18549   0.19019   0.19519   0.20143
 Alpha virt. eigenvalues --    0.21529   0.22059   0.22778   0.23406   0.24102
 Alpha virt. eigenvalues --    0.24263   0.24866   0.25110   0.25854   0.26364
 Alpha virt. eigenvalues --    0.27123   0.27524   0.29284   0.29822   0.30057
 Alpha virt. eigenvalues --    0.30819   0.31141   0.31255   0.32123   0.32986
 Alpha virt. eigenvalues --    0.34127   0.34700   0.36395   0.37133   0.37896
 Alpha virt. eigenvalues --    0.39872   0.41010   0.41403   0.45410   0.46301
 Alpha virt. eigenvalues --    0.49528   0.49945   0.50665   0.51255   0.52044
 Alpha virt. eigenvalues --    0.53665   0.54325   0.55755   0.56081   0.58225
 Alpha virt. eigenvalues --    0.59445   0.60355   0.61832   0.62642   0.64064
 Alpha virt. eigenvalues --    0.64929   0.66133   0.66563   0.68522   0.69009
 Alpha virt. eigenvalues --    0.70175   0.70980   0.72619   0.74690   0.75138
 Alpha virt. eigenvalues --    0.75438   0.77122   0.78661   0.78825   0.79706
 Alpha virt. eigenvalues --    0.80257   0.83984   0.87696   0.92698   0.95073
 Alpha virt. eigenvalues --    0.95855   1.00350   1.03418   1.03996   1.08872
 Alpha virt. eigenvalues --    1.09398   1.10854   1.11631   1.14098   1.16747
 Alpha virt. eigenvalues --    1.18036   1.19497   1.21317   1.22649   1.24070
 Alpha virt. eigenvalues --    1.26608   1.29372   1.30102   1.37115   1.40032
 Alpha virt. eigenvalues --    1.40218   1.42016   1.42360   1.44528   1.45096
 Alpha virt. eigenvalues --    1.46425   1.46641   1.48442   1.49377   1.50659
 Alpha virt. eigenvalues --    1.51227   1.54146   1.55083   1.57048   1.58266
 Alpha virt. eigenvalues --    1.58814   1.61843   1.62844   1.64122   1.64692
 Alpha virt. eigenvalues --    1.66347   1.66921   1.67688   1.69006   1.70803
 Alpha virt. eigenvalues --    1.74376   1.74543   1.76855   1.78133   1.79981
 Alpha virt. eigenvalues --    1.81840   1.83008   1.85104   1.87164   1.89017
 Alpha virt. eigenvalues --    1.90017   1.93376   1.95432   1.98772   2.00695
 Alpha virt. eigenvalues --    2.01485   2.02955   2.03986   2.09100   2.11149
 Alpha virt. eigenvalues --    2.12586   2.16279   2.19961   2.20798   2.23054
 Alpha virt. eigenvalues --    2.24824   2.27900   2.39458   2.42404   2.45412
 Alpha virt. eigenvalues --    2.46020   2.46192   2.47574   2.48333   2.48740
 Alpha virt. eigenvalues --    2.49982   2.51859   2.53077   2.54674   2.55787
 Alpha virt. eigenvalues --    2.59784   2.61157   2.61846   2.62677   2.65506
 Alpha virt. eigenvalues --    2.67915   2.68693   2.70402   2.71258   2.72711
 Alpha virt. eigenvalues --    2.74255   2.76374   2.80222   2.80625   2.82328
 Alpha virt. eigenvalues --    2.86113   2.88394   2.89527   2.90607   2.91306
 Alpha virt. eigenvalues --    2.95987   2.98301   2.99987   3.05027   3.08534
 Alpha virt. eigenvalues --    3.14132   3.15485   3.20213   3.27699   3.29434
 Alpha virt. eigenvalues --    3.31770   3.44228   3.50296   3.52901   3.53768
 Alpha virt. eigenvalues --    3.57934   3.60973   3.65114   3.71214   3.74250
 Alpha virt. eigenvalues --    3.75170   3.75888   3.78856   3.80497   3.80632
 Alpha virt. eigenvalues --    3.82250   3.88535   4.02349   4.07552   4.10256
 Alpha virt. eigenvalues --    4.20381   4.68139   4.69428   4.71070   5.06827
 Alpha virt. eigenvalues --    5.09947   5.12381   5.14928   5.21234   5.27850
 Alpha virt. eigenvalues --    5.52121   5.88209   5.89723  23.82746  23.87714
 Alpha virt. eigenvalues --   23.89289  23.91222  23.93727  23.94676  35.39361
 Alpha virt. eigenvalues --   49.91175  49.97592  50.04889
     Molecular Orbital Coefficients:
                           1         2         3         4         5
                           O         O         O         O         O
     Eigenvalues --   -19.13669 -19.07451 -19.06947 -14.45805 -10.29958
   1 1   N  1S          0.00000   0.00000  -0.00000   0.55746  -0.00000
   2        2S         -0.00002  -0.00001   0.00000   0.46575   0.00001
   3        2PX        -0.00005  -0.00003  -0.00001  -0.00006  -0.00003
   4        2PY         0.00000  -0.00001   0.00000  -0.00000   0.00001
   5        2PZ        -0.00001  -0.00001  -0.00001   0.00001  -0.00002
   6        3S          0.00015   0.00010  -0.00003   0.01642  -0.00013
   7        3PX         0.00026   0.00014   0.00007   0.00004   0.00016
   8        3PY        -0.00002   0.00003  -0.00001   0.00002  -0.00005
   9        3PZ         0.00007   0.00005   0.00005  -0.00002   0.00013
  10        4S         -0.00004  -0.00017   0.00058  -0.01913   0.00149
  11        4PX        -0.00109  -0.00070  -0.00003  -0.00036  -0.00056
  12        4PY         0.00013  -0.00028  -0.00011  -0.00032   0.00057
  13        4PZ        -0.00073  -0.00025  -0.00048   0.00047  -0.00102
  14        5S         -0.00218   0.00084   0.00476  -0.01006   0.00009
  15        5PX        -0.00088   0.00055   0.00057   0.00287  -0.00239
  16        5PY         0.00224  -0.00100   0.00050   0.00029   0.00056
  17        5PZ        -0.00055   0.00071   0.00080   0.00093  -0.00122
  18        6D 0       -0.00002  -0.00001  -0.00001   0.00000  -0.00001
  19        6D+1        0.00004   0.00003  -0.00000   0.00003   0.00002
  20        6D-1        0.00000  -0.00000  -0.00001   0.00001   0.00000
  21        6D+2        0.00005   0.00002   0.00001  -0.00003   0.00004
  22        6D-2       -0.00001  -0.00001   0.00000  -0.00003   0.00002
  23 2   C  1S         -0.00000  -0.00000  -0.00000   0.00002  -0.00000
  24        2S          0.00000   0.00000   0.00000  -0.00005   0.00000
  25        2PX         0.00002   0.00001   0.00001   0.00018   0.00002
  26        2PY         0.00001  -0.00000  -0.00000  -0.00002   0.00001
  27        2PZ         0.00000   0.00000  -0.00000   0.00011   0.00000
  28        3S          0.00010   0.00003  -0.00004   0.00013   0.00010
  29        3PX        -0.00006  -0.00003  -0.00008  -0.00007  -0.00011
  30        3PY        -0.00003   0.00001   0.00001   0.00004  -0.00002
  31        3PZ        -0.00001  -0.00002  -0.00002  -0.00009  -0.00002
  32        4S         -0.00156  -0.00074  -0.00050   0.00676  -0.00197
  33        4PX        -0.00062  -0.00043  -0.00016   0.00265  -0.00091
  34        4PY        -0.00003   0.00001  -0.00007  -0.00021  -0.00002
  35        4PZ        -0.00031  -0.00016  -0.00026   0.00160  -0.00036
  36        5S          0.00340   0.00639   0.00344   0.00199   0.00480
  37        5PX         0.00096   0.00153   0.00069   0.00047   0.00113
  38        5PY         0.00040   0.00001   0.00016   0.00011  -0.00008
  39        5PZ         0.00015   0.00100   0.00061   0.00000   0.00086
  40        6D 0       -0.00000   0.00000   0.00001   0.00002   0.00002
  41        6D+1       -0.00001  -0.00001  -0.00001  -0.00024  -0.00003
  42        6D-1       -0.00001   0.00001   0.00001   0.00002  -0.00003
  43        6D+2       -0.00001  -0.00001  -0.00002  -0.00019  -0.00004
  44        6D-2       -0.00000   0.00001   0.00001   0.00003  -0.00002
  45 3   H  1S         -0.00004  -0.00002  -0.00000  -0.00002  -0.00002
  46        2S          0.00034   0.00018   0.00001  -0.00082   0.00025
  47        3S         -0.00077  -0.00068  -0.00061   0.00125  -0.00097
  48        4PX         0.00001   0.00000  -0.00001  -0.00008   0.00001
  49        4PY        -0.00004  -0.00001   0.00000   0.00019  -0.00001
  50        4PZ         0.00000  -0.00000  -0.00001  -0.00008   0.00001
  51 4   H  1S         -0.00002  -0.00001  -0.00001   0.00000  -0.00003
  52        2S          0.00021   0.00010   0.00002  -0.00094   0.00024
  53        3S         -0.00023  -0.00069  -0.00041   0.00151  -0.00122
  54        4PX         0.00003   0.00000  -0.00001  -0.00018   0.00001
  55        4PY         0.00001  -0.00000   0.00001  -0.00006   0.00000
  56        4PZ        -0.00000  -0.00000   0.00000   0.00011  -0.00000
  57 5   H  1S         -0.00003  -0.00002   0.00001  -0.00001  -0.00004
  58        2S          0.00030   0.00014  -0.00011  -0.00088   0.00035
  59        3S         -0.00040  -0.00049  -0.00036   0.00137  -0.00138
  60        4PX         0.00000  -0.00000  -0.00001  -0.00002   0.00001
  61        4PY         0.00001   0.00001  -0.00001  -0.00012   0.00002
  62        4PZ         0.00003  -0.00000  -0.00002  -0.00018   0.00002
  63 6   C  1S          0.00000   0.00000  -0.00000   0.00002   0.00001
  64        2S         -0.00001  -0.00001   0.00001  -0.00005  -0.00001
  65        2PX        -0.00003  -0.00004   0.00002   0.00002  -0.00000
  66        2PY         0.00001   0.00003   0.00000  -0.00012   0.00002
  67        2PZ         0.00001   0.00001   0.00002  -0.00016  -0.00000
  68        3S         -0.00005  -0.00003  -0.00014   0.00016   0.00015
  69        3PX         0.00015   0.00015  -0.00015  -0.00004   0.00004
  70        3PY        -0.00001  -0.00011  -0.00002   0.00008  -0.00011
  71        3PZ         0.00000  -0.00006  -0.00007   0.00002   0.00001
  72        4S          0.00123   0.00103   0.00049   0.00637  -0.00058
  73        4PX         0.00020   0.00019   0.00069   0.00063  -0.00043
  74        4PY        -0.00064   0.00033   0.00025  -0.00123  -0.00034
  75        4PZ        -0.00004   0.00034   0.00049  -0.00215   0.00039
  76        5S         -0.00499   0.00567   0.00125   0.00044  -0.00636
  77        5PX        -0.00008   0.00249   0.00163   0.00020   0.00035
  78        5PY         0.00090  -0.00078   0.00022   0.00009   0.00180
  79        5PZ         0.00151   0.00009   0.00070   0.00012   0.00193
  80        6D 0       -0.00003  -0.00003  -0.00001  -0.00016   0.00003
  81        6D+1       -0.00002  -0.00000  -0.00003   0.00005  -0.00007
  82        6D-1        0.00004  -0.00002  -0.00001  -0.00030   0.00003
  83        6D+2        0.00000   0.00001   0.00000   0.00007  -0.00000
  84        6D-2       -0.00006  -0.00004   0.00002  -0.00001  -0.00000
  85 7   H  1S          0.00006   0.00002   0.00001  -0.00002   0.00002
  86        2S         -0.00032  -0.00009  -0.00011  -0.00071  -0.00024
  87        3S          0.00017  -0.00071  -0.00030   0.00125   0.00026
  88        4PX        -0.00004  -0.00001  -0.00005  -0.00014  -0.00001
  89        4PY         0.00003  -0.00001   0.00000  -0.00006   0.00000
  90        4PZ         0.00001  -0.00000   0.00000   0.00011   0.00000
  91 8   H  1S          0.00002   0.00001   0.00001   0.00001  -0.00004
  92        2S         -0.00011  -0.00014  -0.00014  -0.00111   0.00041
  93        3S          0.00036  -0.00108  -0.00085   0.00062   0.00022
  94        4PX        -0.00001  -0.00001  -0.00002  -0.00008   0.00005
  95        4PY         0.00003   0.00002   0.00002   0.00026  -0.00006
  96        4PZ        -0.00000  -0.00002   0.00000  -0.00004   0.00001
  97 9   H  1S          0.00011   0.00010  -0.00005   0.00000  -0.00003
  98        2S         -0.00066  -0.00058   0.00025  -0.00094  -0.00007
  99        3S          0.00059  -0.00174  -0.00247  -0.00023   0.00059
 100        4PX        -0.00007  -0.00013   0.00005   0.00014  -0.00002
 101        4PY        -0.00005   0.00006  -0.00004   0.00002   0.00004
 102        4PZ         0.00010   0.00009   0.00000   0.00016  -0.00005
 103 10  C  1S          0.00000   0.00000   0.00000   0.00002   0.00000
 104        2S         -0.00001  -0.00001  -0.00001  -0.00006  -0.00000
 105        2PX        -0.00004  -0.00001  -0.00001  -0.00004  -0.00003
 106        2PY        -0.00005  -0.00003  -0.00002   0.00020  -0.00004
 107        2PZ        -0.00001  -0.00000   0.00001  -0.00005  -0.00001
 108        3S          0.00005   0.00007   0.00011   0.00023  -0.00007
 109        3PX         0.00016   0.00007   0.00002   0.00000   0.00014
 110        3PY         0.00024   0.00011   0.00011  -0.00008   0.00020
 111        3PZ         0.00006   0.00003  -0.00003  -0.00004   0.00005
 112        4S          0.00086  -0.00013  -0.00048   0.00578   0.00180
 113        4PX        -0.00043   0.00033   0.00014  -0.00036   0.00017
 114        4PY         0.00018  -0.00047  -0.00082   0.00231  -0.00022
 115        4PZ        -0.00024   0.00012   0.00048  -0.00087   0.00047
 116        5S          0.00691  -0.00703  -0.00220  -0.00229   0.00515
 117        5PX         0.00063   0.00039   0.00006  -0.00031   0.00123
 118        5PY         0.00214  -0.00214  -0.00072  -0.00090   0.00170
 119        5PZ        -0.00045   0.00068   0.00045   0.00019   0.00123
 120        6D 0       -0.00005   0.00000  -0.00000   0.00015  -0.00002
 121        6D+1       -0.00000   0.00000  -0.00002  -0.00003   0.00000
 122        6D-1       -0.00002   0.00001   0.00002   0.00017   0.00003
 123        6D+2       -0.00004  -0.00000   0.00002   0.00022   0.00003
 124        6D-2        0.00005   0.00003   0.00001   0.00011   0.00004
 125 11  H  1S         -0.00004   0.00001   0.00003  -0.00002   0.00006
 126        2S          0.00021  -0.00027  -0.00005  -0.00080  -0.00038
 127        3S          0.00046  -0.00094  -0.00155   0.00045  -0.00245
 128        4PX        -0.00001  -0.00002  -0.00004   0.00015  -0.00001
 129        4PY        -0.00000  -0.00003  -0.00002  -0.00004  -0.00013
 130        4PZ         0.00004   0.00002   0.00002   0.00009   0.00006
 131 12  H  1S         -0.00002   0.00002  -0.00000  -0.00000  -0.00001
 132        2S          0.00019  -0.00015   0.00004  -0.00094   0.00001
 133        3S         -0.00045   0.00013  -0.00016   0.00095  -0.00086
 134        4PX         0.00003  -0.00001   0.00000  -0.00001   0.00001
 135        4PY         0.00004   0.00001   0.00003  -0.00018   0.00002
 136        4PZ         0.00004  -0.00000  -0.00000  -0.00018  -0.00000
 137 13  H  1S          0.00002   0.00001   0.00001  -0.00002   0.00000
 138        2S         -0.00004  -0.00004  -0.00004  -0.00074  -0.00014
 139        3S         -0.00027   0.00018  -0.00051   0.00123  -0.00097
 140        4PX         0.00002   0.00001  -0.00002  -0.00014  -0.00002
 141        4PY        -0.00000   0.00001   0.00001  -0.00006   0.00000
 142        4PZ         0.00001  -0.00001  -0.00001   0.00011   0.00001
 143 14  C  1S         -0.00000   0.00000   0.00000   0.00001   0.00002
 144        2S          0.00001  -0.00001  -0.00001  -0.00003  -0.00000
 145        2PX         0.00007   0.00001   0.00001  -0.00010  -0.00001
 146        2PY         0.00001   0.00002  -0.00001  -0.00006   0.00001
 147        2PZ         0.00003  -0.00004  -0.00001   0.00013  -0.00002
 148        3S          0.00005   0.00007   0.00017  -0.00011   0.00032
 149        3PX        -0.00034  -0.00004  -0.00006  -0.00024   0.00010
 150        3PY        -0.00000  -0.00007   0.00000   0.00002  -0.00007
 151        3PZ        -0.00018   0.00016   0.00007  -0.00012   0.00015
 152        4S         -0.00147  -0.00076  -0.00084   0.00719  -0.00274
 153        4PX        -0.00088  -0.00068   0.00112  -0.00171  -0.00024
 154        4PY        -0.00064   0.00024   0.00040  -0.00124   0.00038
 155        4PZ        -0.00043  -0.00011  -0.00129   0.00234  -0.00121
 156        5S          0.01202   0.00981   0.00767   0.00276  -0.00359
 157        5PX         0.00498   0.00363   0.00233   0.00253  -0.00066
 158        5PY         0.00132  -0.00127  -0.00086  -0.00020  -0.00031
 159        5PZ         0.00222   0.00087   0.00075  -0.00010   0.00024
 160        6D 0        0.00006   0.00002  -0.00001  -0.00003   0.00002
 161        6D+1       -0.00009  -0.00002  -0.00002   0.00016  -0.00002
 162        6D-1        0.00005  -0.00003   0.00003   0.00007  -0.00002
 163        6D+2       -0.00013  -0.00005   0.00001  -0.00007  -0.00003
 164        6D-2       -0.00003  -0.00002   0.00002  -0.00011   0.00001
 165 15  C  1S          0.00002  -0.00000  -0.00001   0.00000  -0.00004
 166        2S         -0.00006   0.00001   0.00003   0.00001   0.00000
 167        2PX        -0.00002  -0.00001   0.00001  -0.00007  -0.00002
 168        2PY         0.00014  -0.00006   0.00002   0.00001  -0.00003
 169        2PZ         0.00010   0.00001   0.00003  -0.00001  -0.00005
 170        3S         -0.00002  -0.00005  -0.00040  -0.00008  -0.00038
 171        3PX         0.00046   0.00005  -0.00004   0.00040   0.00002
 172        3PY        -0.00017   0.00034  -0.00021  -0.00006   0.00009
 173        3PZ         0.00016   0.00006  -0.00022   0.00009   0.00007
 174        4S          0.00480   0.00201   0.00129   0.00133   0.00023
 175        4PX        -0.00110  -0.00027   0.00064   0.00113  -0.00118
 176        4PY         0.00124   0.00063  -0.00113   0.00102  -0.00113
 177        4PZ         0.00150  -0.00040   0.00239   0.00047   0.00030
 178        5S         -0.02203  -0.00216  -0.00434  -0.00164   0.01586
 179        5PX         0.00433   0.00299   0.00190   0.00061  -0.00151
 180        5PY        -0.00174   0.00027   0.00002  -0.00022   0.00165
 181        5PZ        -0.00215   0.00348   0.00162   0.00165   0.00301
 182        6D 0       -0.00001  -0.00000  -0.00000   0.00016   0.00009
 183        6D+1        0.00003   0.00003   0.00007  -0.00005   0.00020
 184        6D-1       -0.00018   0.00014  -0.00009  -0.00004   0.00003
 185        6D+2        0.00002   0.00003  -0.00011  -0.00012  -0.00005
 186        6D-2       -0.00015   0.00004  -0.00006   0.00001  -0.00005
 187 16  H  1S          0.00001  -0.00000  -0.00002  -0.00000  -0.00005
 188        2S          0.00013  -0.00003   0.00014  -0.00091   0.00043
 189        3S         -0.00032  -0.00069  -0.00139   0.00098  -0.00102
 190        4PX        -0.00005   0.00003  -0.00002  -0.00002   0.00003
 191        4PY         0.00006   0.00000  -0.00001   0.00018  -0.00005
 192        4PZ        -0.00005  -0.00001   0.00004  -0.00008   0.00008
 193 17  H  1S          0.00001  -0.00002   0.00000  -0.00002  -0.00001
 194        2S         -0.00034   0.00021  -0.00002  -0.00082   0.00022
 195        3S          0.00073  -0.00092  -0.00106   0.00072  -0.00115
 196        4PX         0.00003   0.00003  -0.00001   0.00002  -0.00000
 197        4PY        -0.00002   0.00002  -0.00003  -0.00008   0.00000
 198        4PZ        -0.00006   0.00001   0.00003  -0.00017   0.00006
 199 18  O  1S          0.55132   0.00004   0.00006  -0.00000  -0.00003
 200        2S          0.46972   0.00004   0.00006  -0.00002  -0.00009
 201        2PX        -0.00016   0.00002   0.00001   0.00003   0.00003
 202        2PY        -0.00117  -0.00002  -0.00002   0.00002  -0.00005
 203        2PZ         0.00011   0.00006   0.00007   0.00001   0.00006
 204        3S          0.01395   0.00015  -0.00000   0.00016   0.00070
 205        3PX        -0.00006  -0.00011  -0.00001  -0.00011  -0.00001
 206        3PY         0.00008   0.00003   0.00009  -0.00011  -0.00002
 207        3PZ         0.00002  -0.00026  -0.00023  -0.00006   0.00030
 208        4S         -0.01227  -0.00092  -0.00084  -0.00046  -0.00105
 209        4PX         0.00059   0.00054  -0.00042   0.00024   0.00024
 210        4PY         0.00154   0.00105  -0.00036   0.00071   0.00004
 211        4PZ        -0.00014   0.00049  -0.00062   0.00023  -0.00079
 212        5S          0.00776   0.00086  -0.00302  -0.00479   0.00692
 213        5PX        -0.00069   0.00079  -0.00004   0.00096  -0.00065
 214        5PY        -0.00038   0.00066   0.00099   0.00136  -0.00290
 215        5PZ         0.00002   0.00179  -0.00197   0.00039   0.00298
 216        6D 0       -0.00001  -0.00005  -0.00013  -0.00002  -0.00018
 217        6D+1       -0.00002  -0.00001  -0.00006  -0.00001  -0.00011
 218        6D-1        0.00000   0.00010   0.00003  -0.00002   0.00009
 219        6D+2        0.00005   0.00006  -0.00004   0.00002   0.00004
 220        6D-2       -0.00002  -0.00000   0.00003  -0.00003  -0.00001
 221 19  H  1S          0.00002   0.00002  -0.00001   0.00000  -0.00003
 222        2S         -0.00074  -0.00028   0.00027  -0.00040   0.00058
 223        3S          0.00092  -0.00008   0.00014   0.00048  -0.00091
 224        4PX         0.00008   0.00006  -0.00007  -0.00002  -0.00002
 225        4PY        -0.00005  -0.00002   0.00003  -0.00003   0.00002
 226        4PZ        -0.00020   0.00002  -0.00006  -0.00011   0.00009
 227 20  H  1S          0.00011  -0.00001   0.00008   0.00002  -0.00005
 228        2S         -0.00172   0.00006  -0.00116  -0.00004  -0.00038
 229        3S          0.00256  -0.00056  -0.00072  -0.00040  -0.00342
 230        4PX         0.00004  -0.00004   0.00008   0.00008   0.00006
 231        4PY        -0.00040   0.00009  -0.00017  -0.00012  -0.00002
 232        4PZ        -0.00007  -0.00011   0.00002  -0.00001  -0.00011
 233 21  C  1S          0.00002  -0.00002  -0.00002  -0.00000   0.56311
 234        2S         -0.00008   0.00007   0.00009   0.00000   0.46332
 235        2PX        -0.00004  -0.00010   0.00015  -0.00000  -0.00015
 236        2PY         0.00009  -0.00036   0.00026   0.00001   0.00021
 237        2PZ        -0.00013   0.00006   0.00025   0.00001  -0.00069
 238        3S          0.00033   0.00043   0.00024  -0.00013   0.01836
 239        3PX        -0.00002   0.00024  -0.00037   0.00002   0.00024
 240        3PY        -0.00013   0.00076  -0.00059  -0.00005  -0.00048
 241        3PZ        -0.00018  -0.00007  -0.00060   0.00001   0.00154
 242        4S          0.00259   0.00054   0.00403   0.00126  -0.01507
 243        4PX        -0.00055  -0.00181   0.00234  -0.00078   0.00155
 244        4PY         0.00056  -0.00590   0.00663  -0.00082   0.00211
 245        4PZ        -0.00162  -0.00029   0.00233  -0.00098   0.00240
 246        5S          0.00042  -0.01427  -0.00685  -0.00130  -0.01463
 247        5PX         0.00046   0.00350   0.00138   0.00013   0.00291
 248        5PY         0.00040   0.00135  -0.00060  -0.00006   0.00138
 249        5PZ        -0.00040   0.00345   0.00075   0.00041   0.00431
 250        6D 0       -0.00005   0.00054   0.00013   0.00004  -0.00058
 251        6D+1        0.00010   0.00019  -0.00021   0.00005   0.00050
 252        6D-1        0.00018   0.00022  -0.00076  -0.00000   0.00072
 253        6D+2       -0.00020   0.00048   0.00013  -0.00001  -0.00166
 254        6D-2        0.00018  -0.00019  -0.00033   0.00001   0.00115
 255 22  O  1S         -0.00004   0.55131   0.00103  -0.00000  -0.00007
 256        2S         -0.00003   0.46971   0.00091  -0.00001  -0.00005
 257        2PX         0.00001   0.00022   0.00003   0.00000   0.00010
 258        2PY         0.00005   0.00108   0.00007  -0.00000   0.00048
 259        2PZ        -0.00002  -0.00024   0.00001  -0.00000  -0.00012
 260        3S          0.00006   0.01397  -0.00022   0.00011   0.00048
 261        3PX        -0.00004   0.00003  -0.00009  -0.00002  -0.00031
 262        3PY        -0.00020   0.00049  -0.00029   0.00001  -0.00146
 263        3PZ         0.00007  -0.00014   0.00001   0.00001   0.00037
 264        4S         -0.00083  -0.01193   0.00145  -0.00081  -0.00324
 265        4PX         0.00014   0.00004  -0.00001   0.00006  -0.00007
 266        4PY        -0.00024  -0.00168   0.00062  -0.00024  -0.00101
 267        4PZ         0.00052   0.00073  -0.00087   0.00010   0.00023
 268        5S          0.00073   0.00648   0.00538   0.00040   0.01000
 269        5PX         0.00014  -0.00112  -0.00052  -0.00018  -0.00015
 270        5PY         0.00002  -0.00014   0.00095   0.00012   0.00311
 271        5PZ         0.00051  -0.00087  -0.00072  -0.00027  -0.00159
 272        6D 0       -0.00001  -0.00012   0.00008   0.00001   0.00037
 273        6D+1        0.00001  -0.00001  -0.00002   0.00001   0.00004
 274        6D-1        0.00012  -0.00005  -0.00017   0.00001   0.00039
 275        6D+2        0.00005  -0.00018   0.00006   0.00000   0.00076
 276        6D-2        0.00001   0.00009  -0.00008   0.00001  -0.00030
 277 23  O  1S         -0.00005  -0.00102   0.55131  -0.00000  -0.00007
 278        2S         -0.00002  -0.00084   0.46971   0.00000  -0.00005
 279        2PX        -0.00000   0.00000  -0.00039   0.00000  -0.00017
 280        2PY        -0.00003  -0.00006  -0.00079  -0.00001  -0.00033
 281        2PZ        -0.00003  -0.00002  -0.00066   0.00000  -0.00031
 282        3S         -0.00010  -0.00025   0.01393  -0.00001   0.00042
 283        3PX         0.00002   0.00001  -0.00026  -0.00001   0.00050
 284        3PY         0.00015   0.00024  -0.00043   0.00003   0.00100
 285        3PZ         0.00013   0.00012  -0.00044  -0.00001   0.00096
 286        4S         -0.00027   0.00128  -0.01197   0.00026  -0.00429
 287        4PX         0.00022   0.00008   0.00094   0.00004   0.00080
 288        4PY        -0.00014   0.00011   0.00134  -0.00010   0.00131
 289        4PZ         0.00033  -0.00082   0.00171  -0.00000   0.00136
 290        5S         -0.00075   0.00399   0.00322   0.00093   0.00326
 291        5PX        -0.00003  -0.00109  -0.00049  -0.00016  -0.00113
 292        5PY         0.00002  -0.00066   0.00047  -0.00028  -0.00085
 293        5PZ         0.00053  -0.00097  -0.00042  -0.00026  -0.00193
 294        6D 0       -0.00004   0.00016  -0.00001  -0.00000  -0.00016
 295        6D+1       -0.00004   0.00003   0.00009  -0.00000  -0.00042
 296        6D-1       -0.00007  -0.00004   0.00019  -0.00000  -0.00073
 297        6D+2       -0.00002   0.00011  -0.00010   0.00001   0.00029
 298        6D-2       -0.00002  -0.00008   0.00011  -0.00001  -0.00042
                           6         7         8         9        10
                           O         O         O         O         O
     Eigenvalues --   -10.24026 -10.23435 -10.23220 -10.22856 -10.22600
   1 1   N  1S         -0.00002  -0.00002   0.00000  -0.00002  -0.00002
   2        2S         -0.00006  -0.00008   0.00001  -0.00008  -0.00009
   3        2PX         0.00007  -0.00012   0.00008  -0.00002   0.00000
   4        2PY         0.00005   0.00000   0.00001   0.00007  -0.00013
   5        2PZ        -0.00011  -0.00007   0.00000   0.00011   0.00004
   6        3S          0.00034   0.00063  -0.00000   0.00056   0.00062
   7        3PX         0.00024  -0.00022  -0.00036   0.00003   0.00014
   8        3PY         0.00008   0.00003  -0.00003   0.00017  -0.00022
   9        3PZ        -0.00004  -0.00014  -0.00005   0.00019   0.00007
  10        4S          0.00080  -0.00065  -0.00085  -0.00028  -0.00032
  11        4PX         0.00002   0.00009   0.00097  -0.00024  -0.00028
  12        4PY        -0.00024  -0.00026   0.00014  -0.00013   0.00008
  13        4PZ        -0.00038   0.00031   0.00148   0.00037   0.00021
  14        5S          0.02674   0.02057   0.01408   0.02881   0.02931
  15        5PX         0.01167  -0.00969   0.00761   0.00482   0.00727
  16        5PY         0.00142   0.00001  -0.00033   0.00631  -0.00834
  17        5PZ        -0.00490  -0.00513   0.00242   0.01094   0.00471
  18        6D 0       -0.00008   0.00003   0.00004  -0.00007   0.00005
  19        6D+1        0.00012  -0.00012   0.00000   0.00002  -0.00001
  20        6D-1        0.00008   0.00001   0.00003  -0.00012   0.00008
  21        6D+2       -0.00001  -0.00012  -0.00008   0.00003   0.00012
  22        6D-2       -0.00006  -0.00000  -0.00003   0.00002   0.00004
  23 2   C  1S         -0.00022   0.56297   0.00005   0.00026   0.00020
  24        2S         -0.00017   0.46313   0.00004   0.00022   0.00018
  25        2PX        -0.00001   0.00082  -0.00001   0.00001   0.00001
  26        2PY        -0.00002  -0.00003   0.00001  -0.00003   0.00003
  27        2PZ         0.00002   0.00046  -0.00000  -0.00001   0.00001
  28        3S         -0.00007   0.02047  -0.00020  -0.00017  -0.00021
  29        3PX        -0.00007  -0.00156   0.00001  -0.00013  -0.00016
  30        3PY         0.00007   0.00009  -0.00000   0.00010  -0.00007
  31        3PZ        -0.00010  -0.00090  -0.00000  -0.00006  -0.00013
  32        4S         -0.00115  -0.01600   0.00216  -0.00018  -0.00010
  33        4PX        -0.00032  -0.00320   0.00081  -0.00077  -0.00039
  34        4PY         0.00027   0.00004   0.00036   0.00078  -0.00097
  35        4PZ        -0.00108  -0.00163   0.00016   0.00054  -0.00003
  36        5S          0.00713  -0.03562   0.00402   0.00592   0.00667
  37        5PX         0.00243  -0.00911   0.00119   0.00078   0.00143
  38        5PY         0.00034   0.00024  -0.00026   0.00110  -0.00180
  39        5PZ        -0.00100  -0.00494   0.00013   0.00151   0.00100
  40        6D 0       -0.00006   0.00017  -0.00003   0.00008  -0.00001
  41        6D+1       -0.00012  -0.00095   0.00000   0.00001  -0.00002
  42        6D-1        0.00000   0.00005  -0.00000   0.00006  -0.00006
  43        6D+2        0.00004  -0.00085   0.00000  -0.00007  -0.00007
  44        6D-2        0.00006   0.00007  -0.00001   0.00006  -0.00010
  45 3   H  1S          0.00004   0.00016   0.00008   0.00010  -0.00001
  46        2S         -0.00036  -0.00296  -0.00074  -0.00075   0.00000
  47        3S         -0.00111   0.00363   0.00024  -0.00114   0.00099
  48        4PX        -0.00016  -0.00020  -0.00006  -0.00010   0.00001
  49        4PY         0.00003   0.00198   0.00008   0.00004   0.00004
  50        4PZ         0.00001  -0.00058  -0.00003  -0.00020   0.00000
  51 4   H  1S         -0.00005   0.00017   0.00005   0.00007   0.00008
  52        2S          0.00022  -0.00308  -0.00040  -0.00066  -0.00064
  53        3S          0.00133   0.00359   0.00076  -0.00097  -0.00106
  54        4PX         0.00007  -0.00140  -0.00006  -0.00013  -0.00018
  55        4PY        -0.00000  -0.00062  -0.00003  -0.00011   0.00010
  56        4PZ         0.00005   0.00139   0.00001  -0.00008  -0.00001
  57 5   H  1S          0.00004   0.00016   0.00003  -0.00003   0.00009
  58        2S         -0.00030  -0.00299  -0.00040   0.00013  -0.00077
  59        3S         -0.00174   0.00381  -0.00005   0.00127  -0.00088
  60        4PX        -0.00017   0.00027  -0.00005   0.00004  -0.00009
  61        4PY        -0.00005  -0.00129  -0.00005  -0.00002   0.00004
  62        4PZ        -0.00002  -0.00159  -0.00004   0.00001  -0.00018
  63 6   C  1S         -0.00011  -0.00026   0.00042   0.56297   0.00027
  64        2S         -0.00008  -0.00020   0.00031   0.46309   0.00022
  65        2PX        -0.00004   0.00002   0.00001  -0.00002  -0.00003
  66        2PY        -0.00001  -0.00001  -0.00001  -0.00056   0.00004
  67        2PZ        -0.00000   0.00002   0.00001  -0.00083  -0.00000
  68        3S         -0.00013  -0.00020   0.00055   0.02092   0.00003
  69        3PX         0.00016  -0.00002  -0.00000   0.00017   0.00008
  70        3PY         0.00009   0.00011   0.00001   0.00101  -0.00007
  71        3PZ         0.00017   0.00000  -0.00010   0.00157   0.00007
  72        4S         -0.00069   0.00008  -0.00397  -0.01919  -0.00178
  73        4PX         0.00027  -0.00110  -0.00121  -0.00170  -0.00060
  74        4PY         0.00133   0.00055   0.00109   0.00269   0.00008
  75        4PZ        -0.00030  -0.00016   0.00213   0.00359   0.00163
  76        5S          0.01052   0.00957  -0.00015  -0.03781   0.01074
  77        5PX         0.00105  -0.00182  -0.00069  -0.00342  -0.00001
  78        5PY        -0.00073  -0.00089  -0.00016   0.00636  -0.00303
  79        5PZ        -0.00297  -0.00246   0.00006   0.00794  -0.00147
  80        6D 0        0.00004   0.00004  -0.00002  -0.00061  -0.00012
  81        6D+1       -0.00006   0.00013   0.00007   0.00023  -0.00001
  82        6D-1       -0.00010  -0.00002  -0.00007  -0.00111  -0.00003
  83        6D+2        0.00003   0.00004   0.00001   0.00038  -0.00009
  84        6D-2       -0.00002   0.00006   0.00006   0.00008  -0.00003
  85 7   H  1S         -0.00005   0.00003   0.00000   0.00017   0.00008
  86        2S          0.00023  -0.00043   0.00004  -0.00290  -0.00054
  87        3S          0.00031  -0.00228  -0.00124   0.00271  -0.00267
  88        4PX         0.00002   0.00005   0.00001  -0.00165  -0.00010
  89        4PY        -0.00006   0.00001  -0.00003  -0.00069   0.00014
  90        4PZ        -0.00003   0.00015  -0.00005   0.00092   0.00007
  91 8   H  1S          0.00008   0.00008  -0.00002   0.00016  -0.00003
  92        2S         -0.00084  -0.00059   0.00040  -0.00279   0.00018
  93        3S         -0.00240  -0.00201  -0.00127   0.00325  -0.00061
  94        4PX        -0.00012   0.00011  -0.00000  -0.00016   0.00001
  95        4PY         0.00014   0.00016  -0.00002   0.00188  -0.00001
  96        4PZ         0.00009   0.00011  -0.00000  -0.00075  -0.00004
  97 9   H  1S          0.00010  -0.00003   0.00006   0.00020   0.00006
  98        2S         -0.00066   0.00012   0.00010  -0.00332  -0.00046
  99        3S         -0.00220   0.00096  -0.00193   0.00474  -0.00363
 100        4PX         0.00000   0.00002  -0.00010   0.00178   0.00001
 101        4PY         0.00002  -0.00004   0.00009  -0.00029   0.00019
 102        4PZ         0.00028  -0.00001   0.00004   0.00109   0.00010
 103 10  C  1S         -0.00007  -0.00020  -0.00006  -0.00027   0.56297
 104        2S         -0.00006  -0.00015  -0.00006  -0.00023   0.46310
 105        2PX        -0.00004   0.00002   0.00006  -0.00001  -0.00032
 106        2PY         0.00000   0.00000   0.00004  -0.00003   0.00091
 107        2PZ         0.00001   0.00001   0.00001  -0.00004  -0.00038
 108        3S         -0.00008  -0.00024   0.00012   0.00001   0.02079
 109        3PX         0.00022  -0.00002  -0.00028   0.00006   0.00060
 110        3PY        -0.00016  -0.00013  -0.00022  -0.00000  -0.00163
 111        3PZ         0.00005  -0.00001  -0.00013   0.00014   0.00067
 112        4S         -0.00139   0.00002  -0.00238  -0.00195  -0.01840
 113        4PX         0.00093  -0.00062   0.00028  -0.00057  -0.00054
 114        4PY        -0.00105  -0.00066  -0.00122  -0.00121  -0.00415
 115        4PZ        -0.00045  -0.00064  -0.00020   0.00090   0.00078
 116        5S          0.00429   0.00611  -0.00121   0.01106  -0.03462
 117        5PX         0.00037  -0.00233   0.00059  -0.00086   0.00034
 118        5PY         0.00076   0.00056  -0.00083   0.00303  -0.00987
 119        5PZ        -0.00110  -0.00143  -0.00026   0.00074   0.00203
 120        6D 0        0.00008   0.00004   0.00011   0.00001   0.00050
 121        6D+1       -0.00004   0.00007  -0.00003  -0.00004  -0.00006
 122        6D-1        0.00001  -0.00002   0.00004   0.00014   0.00064
 123        6D+2        0.00005   0.00009  -0.00000  -0.00003   0.00098
 124        6D-2        0.00010  -0.00007  -0.00006  -0.00000   0.00036
 125 11  H  1S          0.00013  -0.00002   0.00002   0.00006   0.00020
 126        2S         -0.00089   0.00003  -0.00005  -0.00044  -0.00327
 127        3S         -0.00291   0.00128  -0.00159  -0.00311   0.00515
 128        4PX         0.00002   0.00002  -0.00008   0.00008   0.00174
 129        4PY        -0.00020   0.00005  -0.00006  -0.00021   0.00009
 130        4PZ         0.00023   0.00002  -0.00003  -0.00004   0.00114
 131 12  H  1S          0.00010   0.00008   0.00005  -0.00003   0.00016
 132        2S         -0.00090  -0.00067  -0.00041   0.00014  -0.00285
 133        3S         -0.00203  -0.00191  -0.00159  -0.00075   0.00322
 134        4PX        -0.00007   0.00015  -0.00007  -0.00001   0.00022
 135        4PY        -0.00019  -0.00016  -0.00016   0.00002  -0.00106
 136        4PZ        -0.00003  -0.00000  -0.00008  -0.00003  -0.00173
 137 13  H  1S         -0.00005   0.00004  -0.00001   0.00008   0.00017
 138        2S          0.00026  -0.00044   0.00005  -0.00054  -0.00289
 139        3S          0.00022  -0.00187  -0.00022  -0.00275   0.00299
 140        4PX        -0.00001   0.00005  -0.00001  -0.00004  -0.00165
 141        4PY         0.00007  -0.00010   0.00000  -0.00017  -0.00048
 142        4PZ        -0.00001   0.00013   0.00001  -0.00002   0.00107
 143 14  C  1S          0.56292   0.00022  -0.00833   0.00011   0.00007
 144        2S          0.46315   0.00019  -0.00688   0.00010   0.00006
 145        2PX        -0.00057   0.00003   0.00048  -0.00002  -0.00000
 146        2PY        -0.00037   0.00000  -0.00007   0.00000   0.00002
 147        2PZ         0.00067  -0.00000   0.00014  -0.00001  -0.00000
 148        3S          0.02019  -0.00011   0.00008  -0.00011  -0.00008
 149        3PX        -0.00000   0.00004  -0.00110   0.00013   0.00001
 150        3PY         0.00080   0.00005   0.00023   0.00003  -0.00005
 151        3PZ        -0.00175   0.00002  -0.00049  -0.00006  -0.00011
 152        4S         -0.02023  -0.00099   0.00305  -0.00092  -0.00071
 153        4PX         0.00095  -0.00209   0.00292   0.00062   0.00149
 154        4PY         0.00238   0.00060   0.00136   0.00142  -0.00102
 155        4PZ        -0.00395  -0.00105   0.00029   0.00024  -0.00131
 156        5S         -0.03606   0.00342   0.01487   0.01473  -0.00765
 157        5PX         0.00697  -0.00468   0.00527   0.00003  -0.00322
 158        5PY         0.00384  -0.00064   0.00131   0.00083  -0.00089
 159        5PZ        -0.00720  -0.00155   0.00168   0.00338  -0.00137
 160        6D 0       -0.00002  -0.00010   0.00028  -0.00002   0.00000
 161        6D+1        0.00060   0.00002  -0.00018  -0.00005   0.00003
 162        6D-1        0.00058   0.00000   0.00014   0.00002   0.00004
 163        6D+2       -0.00092   0.00009  -0.00076  -0.00007  -0.00009
 164        6D-2       -0.00039  -0.00000   0.00015  -0.00011   0.00005
 165 15  C  1S          0.00831  -0.00004   0.56298  -0.00041   0.00007
 166        2S          0.00681  -0.00003   0.46315  -0.00037   0.00006
 167        2PX        -0.00042  -0.00001  -0.00014  -0.00000  -0.00002
 168        2PY         0.00010  -0.00000   0.00081   0.00000  -0.00004
 169        2PZ        -0.00016  -0.00001   0.00058   0.00002   0.00002
 170        3S          0.00059  -0.00013   0.01979   0.00050   0.00019
 171        3PX         0.00096   0.00006   0.00083  -0.00009  -0.00001
 172        3PY        -0.00045   0.00002  -0.00166   0.00005   0.00022
 173        3PZ         0.00031   0.00002  -0.00100   0.00000  -0.00004
 174        4S          0.00357   0.00210  -0.01915  -0.00295  -0.00220
 175        4PX        -0.00089  -0.00113   0.00301   0.00187   0.00167
 176        4PY        -0.00098   0.00028  -0.00165   0.00034   0.00067
 177        4PZ        -0.00063  -0.00075  -0.00256  -0.00110   0.00105
 178        5S          0.00487   0.00888  -0.02907  -0.00724   0.01217
 179        5PX        -0.00149  -0.00150   0.00483   0.00180  -0.00368
 180        5PY        -0.00146   0.00050  -0.00195  -0.00004  -0.00027
 181        5PZ         0.00106   0.00140  -0.00204  -0.00061  -0.00042
 182        6D 0        0.00022   0.00002   0.00002   0.00003   0.00003
 183        6D+1       -0.00059  -0.00004  -0.00065   0.00007   0.00009
 184        6D-1       -0.00009   0.00002  -0.00089   0.00007   0.00008
 185        6D+2       -0.00074   0.00003  -0.00034  -0.00004  -0.00001
 186        6D-2        0.00014   0.00003  -0.00023   0.00006  -0.00007
 187 16  H  1S          0.00008   0.00007  -0.00004   0.00006  -0.00002
 188        2S         -0.00299  -0.00063  -0.00121  -0.00083   0.00016
 189        3S          0.00302  -0.00210  -0.00223  -0.00325   0.00004
 190        4PX        -0.00044   0.00020  -0.00008   0.00003  -0.00002
 191        4PY         0.00209   0.00013   0.00033   0.00010  -0.00002
 192        4PZ        -0.00020  -0.00001  -0.00015  -0.00022   0.00005
 193 17  H  1S          0.00007   0.00001  -0.00008  -0.00003   0.00012
 194        2S         -0.00273  -0.00028  -0.00061   0.00029  -0.00110
 195        3S          0.00307  -0.00208  -0.00054  -0.00021  -0.00206
 196        4PX        -0.00026   0.00016   0.00001  -0.00001   0.00001
 197        4PY        -0.00130  -0.00003  -0.00017   0.00001   0.00009
 198        4PZ        -0.00168   0.00000  -0.00024   0.00003  -0.00025
 199 18  O  1S          0.00000   0.00000  -0.00002  -0.00000  -0.00000
 200        2S          0.00001  -0.00000  -0.00007  -0.00000  -0.00001
 201        2PX        -0.00003   0.00000  -0.00001   0.00002   0.00002
 202        2PY        -0.00002  -0.00000  -0.00009  -0.00001   0.00002
 203        2PZ        -0.00004   0.00001  -0.00007   0.00001  -0.00002
 204        3S         -0.00000   0.00001   0.00051   0.00003   0.00014
 205        3PX         0.00012  -0.00002  -0.00010  -0.00010  -0.00007
 206        3PY         0.00008   0.00001  -0.00008   0.00005  -0.00011
 207        3PZ         0.00015  -0.00003  -0.00014  -0.00006   0.00007
 208        4S         -0.00023  -0.00007   0.00040   0.00033  -0.00046
 209        4PX        -0.00020   0.00017  -0.00007   0.00046   0.00013
 210        4PY        -0.00001  -0.00001   0.00026  -0.00017   0.00053
 211        4PZ        -0.00004   0.00031   0.00006   0.00031  -0.00040
 212        5S          0.00031   0.00063   0.00676  -0.00019  -0.00572
 213        5PX         0.00005  -0.00029  -0.00171  -0.00019   0.00072
 214        5PY        -0.00025  -0.00070  -0.00252   0.00007   0.00086
 215        5PZ        -0.00161   0.00033  -0.00472   0.00075  -0.00044
 216        6D 0       -0.00004  -0.00000  -0.00007   0.00002  -0.00003
 217        6D+1       -0.00000   0.00000  -0.00005   0.00001  -0.00001
 218        6D-1       -0.00003  -0.00001  -0.00018  -0.00002  -0.00000
 219        6D+2        0.00003   0.00000   0.00012  -0.00004   0.00001
 220        6D-2       -0.00003  -0.00000  -0.00004   0.00001  -0.00002
 221 19  H  1S         -0.00001   0.00003   0.00007   0.00003  -0.00003
 222        2S         -0.00105  -0.00041  -0.00297  -0.00015   0.00042
 223        3S         -0.00017  -0.00023   0.00259  -0.00060  -0.00062
 224        4PX         0.00008   0.00005   0.00112  -0.00003  -0.00007
 225        4PY         0.00013  -0.00001   0.00059  -0.00001  -0.00006
 226        4PZ        -0.00036  -0.00004  -0.00171   0.00002   0.00001
 227 20  H  1S         -0.00004  -0.00002   0.00006  -0.00003  -0.00002
 228        2S         -0.00142   0.00014  -0.00271   0.00051   0.00008
 229        3S         -0.00131  -0.00062   0.00448  -0.00051  -0.00027
 230        4PX         0.00014   0.00001   0.00032  -0.00000   0.00003
 231        4PY        -0.00040   0.00001  -0.00198   0.00010   0.00014
 232        4PZ         0.00016   0.00003   0.00084   0.00002  -0.00006
 233 21  C  1S         -0.00001   0.00000   0.00003  -0.00001  -0.00000
 234        2S         -0.00003   0.00000   0.00007  -0.00002  -0.00000
 235        2PX         0.00002   0.00000  -0.00004   0.00002   0.00000
 236        2PY         0.00001  -0.00001  -0.00001   0.00002   0.00002
 237        2PZ         0.00001  -0.00000   0.00001  -0.00001   0.00003
 238        3S          0.00016   0.00001  -0.00045   0.00015  -0.00010
 239        3PX        -0.00012  -0.00002   0.00016  -0.00011  -0.00003
 240        3PY        -0.00006   0.00002   0.00007  -0.00015  -0.00007
 241        3PZ        -0.00008   0.00001   0.00008   0.00003  -0.00014
 242        4S          0.00065  -0.00080  -0.00008  -0.00087   0.00258
 243        4PX         0.00081   0.00001  -0.00167   0.00017  -0.00028
 244        4PY         0.00115  -0.00058  -0.00296  -0.00126   0.00082
 245        4PZ         0.00068   0.00012  -0.00200  -0.00000  -0.00045
 246        5S          0.00000  -0.00118   0.00451   0.00429   0.00432
 247        5PX         0.00007  -0.00002  -0.00059  -0.00158  -0.00123
 248        5PY         0.00062   0.00000   0.00060  -0.00011  -0.00070
 249        5PZ         0.00020   0.00049  -0.00146  -0.00053  -0.00112
 250        6D 0        0.00002  -0.00001   0.00014  -0.00001   0.00006
 251        6D+1       -0.00007  -0.00002   0.00006  -0.00004   0.00001
 252        6D-1        0.00004  -0.00000  -0.00001  -0.00002   0.00005
 253        6D+2       -0.00003   0.00002  -0.00006  -0.00004  -0.00003
 254        6D-2        0.00002  -0.00001   0.00005   0.00002   0.00005
 255 22  O  1S         -0.00000   0.00000   0.00000  -0.00000  -0.00000
 256        2S         -0.00000   0.00000   0.00001  -0.00001  -0.00001
 257        2PX         0.00002  -0.00000  -0.00000   0.00003   0.00004
 258        2PY        -0.00000  -0.00000   0.00000  -0.00000   0.00001
 259        2PZ         0.00001  -0.00000  -0.00005   0.00001   0.00002
 260        3S          0.00004  -0.00002  -0.00001   0.00007   0.00008
 261        3PX        -0.00008   0.00000   0.00000  -0.00011  -0.00018
 262        3PY         0.00000   0.00000  -0.00002   0.00001  -0.00004
 263        3PZ        -0.00003   0.00001   0.00021  -0.00004  -0.00007
 264        4S          0.00018   0.00006  -0.00105  -0.00028  -0.00000
 265        4PX         0.00023  -0.00001   0.00012   0.00034   0.00061
 266        4PY         0.00003   0.00002  -0.00018  -0.00029  -0.00003
 267        4PZ         0.00002  -0.00003  -0.00009   0.00021   0.00033
 268        5S          0.00030  -0.00094  -0.00212  -0.00260  -0.00215
 269        5PX        -0.00013   0.00003  -0.00009  -0.00002   0.00026
 270        5PY        -0.00017  -0.00031  -0.00122  -0.00089  -0.00000
 271        5PZ        -0.00019   0.00028   0.00074   0.00007   0.00041
 272        6D 0        0.00001   0.00000   0.00001   0.00004   0.00001
 273        6D+1       -0.00003  -0.00000   0.00001  -0.00002  -0.00003
 274        6D-1        0.00001  -0.00000   0.00001   0.00002   0.00002
 275        6D+2        0.00001  -0.00001  -0.00004  -0.00000  -0.00000
[...]
 .00516643,0.00170316,-0.04414787,0.62199184,0.01613989,0.00808443,-0.1
 0444853,-0.00375054,-0.00486320,0.01266736,-0.00140134,-0.00018140,-0.
 00014109,-0.00451323,-0.00033144,-0.00195651,-0.00246597,-0.00036111,-
 0.00013390,0.02330570,0.00335465,-0.02513211,-0.00138209,-0.00221996,-
 0.00285187,-0.00024459,0.00184107,0.00170928,-0.00040438,0.00097387,0.
 00067179,0.00678414,0.01220666,-0.00827790,0.00011475,-0.00074790,-0.0
 0038704,-0.00014753,-0.00206326,0.00092094,-0.00112566,-0.00026099,0.0
 0056169,0.06160992,0.05889036,0.51906487,-0.02435868,-0.00242007,0.001
 43047,-0.00048928,-0.00036769,0.00162083,-0.00007471,0.00019235,-0.000
 09374,0.00022036,0.00021118,-0.00083333,-0.00008518,-0.00021633,-0.000
 23177,-0.00029216,0.00038758,0.00011295,0.00018148,-0.00000194,-0.0002
 5643,-0.00012675,0.00017266,0.00009667,0.00017425,-0.00000130,0.000408
 93,0.00011787,-0.00065164,0.00082388,-0.00054223,-0.00075634,0.0000550
 2,0.00005334,-0.00030806,0.00021212,-0.00015411,0.00083560,-0.00044126
 ,-0.17076585,0.02635750,-0.02570187,0.47233425,-0.00976126,0.00093494,
 -0.00513602,-0.00144309,-0.00098889,0.00133030,-0.00035834,0.00024529,
 -0.00012346,-0.00057632,0.00063447,-0.00029568,0.00010032,0.00010524,0
 .00019496,0.00064998,0.00010566,0.00074587,-0.00032067,-0.00013378,-0.
 00030164,0.00012882,-0.00007865,0.00021223,0.00051664,0.00039170,-0.00
 059558,-0.00091570,0.00043813,-0.00109160,-0.00063596,-0.00003423,0.00
 137519,-0.00034533,-0.00022606,-0.00014051,0.00047849,-0.00014959,-0.0
 0000586,0.02251761,-0.08824862,0.01089722,-0.02452607,0.56115624,0.030
 96887,-0.00382146,0.00909605,0.00227840,0.00189825,-0.00530841,0.00000
 522,-0.00016900,-0.00009573,0.00202888,0.00018794,0.00117834,-0.000013
 95,0.00024857,0.00018541,0.00054959,0.00152421,0.00346871,-0.00044815,
 -0.00034137,-0.00091821,0.00009670,-0.00025852,-0.00018020,0.00068108,
 0.00011116,-0.00126221,0.00081826,-0.00219740,0.00057473,0.00106396,0.
 00092338,0.00019680,-0.00027137,0.00006657,-0.00000551,0.00013349,0.00
 019495,-0.00006993,-0.03603893,0.01312410,-0.08679574,-0.03728638,-0.0
 8135724,0.54804620,-0.00111802,-0.02621812,0.00855098,0.00119628,-0.00
 158633,0.00111567,-0.00032054,-0.00034542,0.00016469,0.00007735,0.0002
 5626,-0.00013522,-0.00011691,0.00003621,-0.00006198,0.00063928,-0.0013
 3934,-0.00098031,-0.00000671,0.00001599,-0.00015397,0.00010781,0.00038
 313,0.00003243,-0.00002526,0.00020110,0.00008567,-0.00381319,-0.000409
 30,0.00247365,-0.00011445,-0.00005302,0.00009507,-0.00010158,0.0001637
 2,-0.00009076,0.00056889,-0.00130186,0.00055835,-0.06066915,0.06179339
 ,-0.01058544,-0.00890836,0.03325659,-0.00649340,0.07283959,0.00010832,
 -0.01225266,0.00362453,0.00101001,-0.00017695,0.00002085,-0.00079400,0
 .00005378,-0.00052614,-0.00015848,0.00033603,-0.00013558,-0.00000472,-
 0.00002088,0.00005125,0.00084045,0.00039025,-0.00132132,-0.00006243,0.
 00032783,-0.00009018,0.00001258,0.00050849,0.00025014,-0.00002769,-0.0
 0004604,0.00000887,-0.00178954,0.00130523,0.00057030,0.00000198,-0.000
 00339,-0.00006852,0.00006121,0.00029501,-0.00006811,0.00007369,-0.0003
 2792,0.00032315,0.05321326,-0.29864493,0.04659881,0.00127201,-0.002141
 45,-0.00049706,-0.05778456,0.32098375,0.00110617,0.02638678,-0.0108023
 5,-0.00149261,-0.00022297,-0.00019951,-0.00010261,-0.00037894,0.000425
 34,-0.00001467,-0.00013351,-0.00009128,0.00018005,-0.00010596,0.000062
 65,-0.00062602,0.00217900,0.00086189,-0.00005985,-0.00022774,0.0001917
 4,0.00057309,-0.00040951,-0.00060530,0.00000087,-0.00010593,-0.0001285
 4,0.00383166,-0.00035030,-0.00206024,-0.00000490,-0.00008637,0.0001288
 4,0.00000475,0.00020218,0.00011637,-0.00031688,0.00138301,-0.00014915,
 -0.00947024,0.03834653,-0.05575412,-0.00436229,0.00963489,-0.00187848,
 0.00477404,-0.05142181,0.06130050,-0.00384465,0.01154168,0.02482546,0.
 00018642,0.00083768,0.00288450,-0.00008977,0.00007873,-0.00013356,0.00
 012554,0.00005523,-0.00023129,-0.00068671,-0.00073028,0.00041016,-0.00
 375000,-0.00236092,0.00218521,0.00018724,0.00075761,0.00136772,0.00000
 234,-0.00019012,-0.00020392,-0.00007761,-0.00002324,0.00007004,0.00008
 472,0.00126683,-0.00044189,-0.00005621,-0.00013763,-0.00005005,0.00005
 281,-0.00014264,-0.00042007,-0.00005096,0.00000062,-0.00011526,-0.0531
 8156,-0.02245495,-0.03673501,-0.00134704,-0.01736194,-0.02326150,0.001
 10813,0.00370347,0.00588713,0.06743748,-0.00124827,0.00479313,0.013620
 85,0.00015848,0.00043694,0.00066897,-0.00005080,-0.00023488,-0.0002717
 9,0.00015283,-0.00002320,0.00027526,-0.00026238,-0.00017822,0.00043534
 ,-0.00145261,-0.00072565,0.00107822,0.00000814,0.00078844,0.00036739,-
 0.00017466,0.00036213,0.00005514,-0.00003547,-0.00007633,-0.00004085,-
 0.00005346,0.00123508,0.00081072,-0.00000670,-0.00010353,0.00002034,-0
 .00020380,-0.00044101,-0.00007108,0.00003541,0.00002497,-0.00018754,-0
 .01762656,-0.12786703,-0.12333398,0.00143643,0.00204929,0.00490865,-0.
 00466710,-0.01325823,-0.02527487,0.02490447,0.13187698,0.00306972,-0.0
 1069147,-0.02432263,-0.00236192,-0.00062536,0.00009593,0.00017028,0.00
 000781,0.00000566,-0.00013442,0.00030661,0.00033473,0.00029445,0.00047
 088,0.00100338,0.00265227,0.00291608,-0.00024335,0.00004971,-0.0006935
 1,-0.00081828,-0.00003154,-0.00004065,0.00016717,-0.00005375,-0.000010
 66,0.00008524,-0.00027460,-0.00163743,0.00008184,0.00000562,0.00004252
 ,-0.00001191,0.00002923,0.00083165,0.00032085,0.00000426,0.00024310,0.
 00031080,-0.02931777,-0.11647742,-0.23351520,-0.00101313,-0.00576655,-
 0.00825403,0.00058336,0.00292374,0.00693842,0.02786949,0.12752517,0.25
 597350,0.00256056,0.00015597,0.00038708,0.00046554,-0.00019230,0.00027
 645,0.00008360,-0.00000520,-0.00001982,-0.00015168,0.00013236,0.000275
 96,0.00008873,0.00016539,0.00007282,-0.00112010,-0.00098307,0.00319382
 ,-0.00109015,-0.00033058,-0.00060949,0.00055332,-0.00034818,0.00025065
 ,-0.00221577,0.00084985,-0.00106958,-0.00031047,0.00070309,-0.00010210
 ,-0.00025995,-0.00005178,-0.00032073,0.00010690,0.00008012,-0.00005087
 ,-0.00006498,-0.00011097,0.00011594,-0.00491184,-0.02637926,-0.0316189
 0,-0.06723990,-0.02363081,-0.02369550,0.00287540,-0.00035681,0.0017613
 7,-0.00684923,0.00045438,-0.00205520,0.09336225,-0.00031719,-0.0000607
 5,-0.00044127,-0.00010984,0.00012921,0.00017572,-0.00001016,0.00000174
 ,-0.00001329,-0.00010521,-0.00003074,0.00004754,0.00004567,-0.00001129
 ,0.00004695,0.00002941,0.00008255,-0.00056681,0.00023368,0.00019410,0.
 00018448,-0.00027926,0.00021485,-0.00011611,-0.00006094,-0.00063903,0.
 00072115,-0.00022393,-0.00049475,0.00023502,0.00078443,0.00027702,-0.0
 0002411,0.00013485,0.00015558,0.00009077,-0.00030162,0.00017650,-0.000
 05806,-0.00839536,0.00075992,-0.00284992,-0.01635195,-0.15531380,-0.03
 621143,-0.00081110,0.00140968,0.00060075,0.00179451,0.00112629,0.00035
 690,0.05368275,0.31580771,-0.00258412,0.00059653,-0.00039931,-0.000096
 62,-0.00059423,0.00167295,0.00019096,-0.00001507,-0.00002444,-0.000726
 49,-0.00001059,0.00007514,0.00021206,0.00018298,0.00015492,-0.00046796
 ,-0.00093214,-0.00133263,-0.00004325,0.00015598,0.00064958,0.00025345,
 -0.00003108,0.00008620,-0.00021919,0.00060605,-0.00024289,-0.00052195,
 0.00144816,0.00020837,-0.00115555,-0.00085212,-0.00112739,0.00039098,0
 .00018297,0.00013269,-0.00011212,-0.00022530,0.00021513,-0.01049552,-0
 .01821421,-0.02106491,-0.02123796,-0.05438205,-0.13308050,0.00190600,0
 .00040468,0.00152588,-0.00544199,-0.00070994,-0.00000548,0.09056334,0.
 05234934,0.37126040,-0.00639181,0.00137791,-0.00294259,-0.00047853,-0.
 00061340,0.00170547,-0.00000098,0.00004233,0.00000191,-0.00060344,-0.0
 0000922,-0.00034052,-0.00000790,-0.00003663,-0.00005722,0.00016049,-0.
 00052960,-0.00080208,-0.00003960,0.00005831,0.00015865,-0.00000284,0.0
 0006321,0.00005823,-0.00002078,0.00004153,-0.00000725,0.00008363,0.001
 15789,-0.00053698,-0.00001557,0.00001030,-0.00002442,0.00002321,-0.000
 05804,-0.00001212,-0.00000542,-0.00010704,0.00006250,-0.02134089,-0.00
 937896,0.02540370,-0.12972321,-0.02954446,0.11777325,0.00109524,0.0006
 6672,0.00016075,0.00052719,-0.00078811,0.00025817,0.00915215,0.0017196
 4,-0.01317185,0.14192084,0.00097260,0.00032418,0.00093520,0.00022041,0
 .00015674,-0.00008632,-0.00000937,0.00000219,-0.00002685,0.00007589,0.
 00000883,-0.00000352,0.00000319,0.00001067,-0.00000245,-0.00009495,-0.
 00010871,-0.00000893,0.00002568,0.00003109,0.00003835,-0.00002044,0.00
 001413,-0.00001578,-0.00001928,-0.00006329,-0.00002222,0.00003652,-0.0
 0005666,0.00045528,-0.00004600,0.00008643,-0.00043053,0.00008765,0.000
 06941,0.00002602,-0.00021221,0.00011800,-0.00011078,0.00589124,0.00104
 196,-0.00325533,-0.03278838,-0.06076641,0.05185809,-0.00044332,0.00025
 450,-0.00051920,-0.00089627,0.00019661,0.00026437,0.00672891,0.0019226
 9,-0.03204898,0.03612676,0.06367594,-0.00410514,0.00018066,0.00165640,
 -0.00003575,-0.00013286,0.00032674,-0.00002222,0.00002338,-0.00001038,
 -0.00015402,-0.00001911,-0.00009485,-0.00000858,-0.00001049,-0.0000417
 0,-0.00023593,-0.00028804,-0.00030700,0.00005644,0.00009029,0.00015622
 ,-0.00000822,0.00004029,0.00002184,-0.00017145,0.00001393,0.00015066,-
 0.00008237,0.00043879,-0.00031639,-0.00005519,-0.00014204,0.00009860,0
 .00000242,-0.00004226,-0.00000649,0.00009301,-0.00006520,0.00007404,-0
 .00178439,-0.00086259,0.00465895,0.11542707,0.04896675,-0.20698992,0.0
 0033810,0.00000927,0.00013612,-0.00005427,-0.00039006,0.00112826,0.002
 07675,-0.00467452,-0.03433779,-0.11987464,-0.04173872,0.23851270,0.002
 46421,0.00037064,0.00018541,0.00008117,-0.00004996,-0.00029134,0.00020
 954,-0.00011191,0.00008463,0.00006113,-0.00013526,0.00014796,0.0000178
 4,0.00003255,-0.00001322,-0.00017554,0.00009226,0.00015026,0.00002349,
 -0.00000618,0.00005656,0.00006826,-0.00011992,-0.00009742,-0.00003806,
 0.00004511,0.00011474,-0.00122006,-0.00005899,-0.00000366,-0.00129781,
 -0.00093077,0.00163708,-0.00039636,-0.00034856,0.00004462,0.00040140,-
 0.00017335,0.00013376,-0.00840976,0.03177332,-0.01122562,-0.06257629,0
 .05130211,-0.01643578,-0.00559231,-0.00002901,-0.00181568,0.00070352,-
 0.00055005,0.00025701,0.00187705,-0.01198665,-0.00062448,0.00551673,-0
 .01772154,0.00593991,0.06824203,-0.00031069,-0.00073027,0.00050657,0.0
 0010014,-0.00003158,0.00002282,0.00004155,0.00004476,-0.00001689,0.000
 01277,0.00001081,-0.00001674,-0.00000543,-0.00000922,-0.00000908,-0.00
 000509,-0.00004299,-0.00010611,0.00002513,0.00001582,0.00002230,-0.000
 03791,0.00003177,-0.00002794,-0.00002785,-0.00007117,0.00003344,-0.000
 97617,-0.00032420,0.00081301,-0.00135743,-0.00033304,0.00026370,-0.000
 02149,-0.00001975,0.00009834,-0.00033178,0.00026620,-0.00014626,0.0023
 1272,0.00044917,0.00143846,0.05107730,-0.27499615,0.07353243,-0.001095
 83,0.00092663,0.00042675,0.00095258,0.00011698,0.00025850,-0.00152534,
 -0.02958398,-0.00813310,0.00085653,-0.00354385,0.00287390,-0.05097894,
 0.30814489,-0.00020304,-0.00055187,0.00032066,0.00011859,0.00010759,0.
 00005261,-0.00000368,-0.00000694,-0.00001074,-0.00000579,-0.00001342,0
 .00000446,-0.00000441,-0.00000687,-0.00000730,0.00004788,-0.00002181,-
 0.00009223,-0.00001439,0.00002559,0.00001223,-0.00003776,0.00001585,-0
 .00005604,0.00009437,-0.00013665,-0.00001766,0.00043330,0.00015079,0.0
 0004810,0.00182345,0.00079849,-0.00051568,-0.00013948,-0.00007912,-0.0
 0005874,-0.00001816,-0.00014829,-0.00010558,0.00008212,0.00638952,-0.0
 0179854,-0.01894104,0.08394218,-0.07292085,-0.00118502,-0.00060788,0.0
 0049018,0.00019404,0.00002444,-0.00004264,0.00247826,-0.02996595,0.000
 74565,-0.00602048,0.02162631,-0.00635781,0.02212915,-0.08020818,0.0811
 2778,0.00042096,-0.00039001,-0.00043200,-0.00055485,0.00031213,-0.0003
 1884,0.00000226,-0.00002364,-0.00000319,0.00011456,-0.00000442,0.00004
 865,0.00012323,0.00000771,0.00013062,-0.00169603,0.00028889,-0.0015136
 3,0.00082403,0.00008201,0.00049687,0.00021123,0.00005165,0.00030772,-0
 .00646839,0.00039387,0.00112986,-0.00055404,-0.00048554,-0.00035532,-0
 .00085013,-0.00125323,0.00006255,0.00008777,0.00004243,0.00011153,0.00
 026856,0.00001969,0.00010114,-0.00194890,-0.00154921,-0.00376857,-0.01
 352971,-0.00229419,-0.00873236,0.00050583,-0.00018161,-0.00002997,-0.0
 0048406,0.00000733,0.00003765,-0.05203313,-0.00779979,0.00016448,0.001
 11570,0.00288016,0.00512554,0.00151371,0.00023941,-0.00049659,0.315418
 67,-0.00055503,0.00051495,-0.00046031,-0.00072964,-0.00051275,0.000266
 64,0.00023044,-0.00012828,0.00006922,-0.00022475,0.00001475,0.00004400
 ,0.00008477,0.00015130,0.00008925,0.00045966,-0.00187455,0.00008474,0.
 00020336,-0.00003390,0.00029724,0.00112307,-0.00033533,0.00075011,-0.0
 0271418,0.00458502,-0.00034273,0.00017949,0.00256302,0.00020329,-0.005
 44516,-0.00437264,-0.00269345,0.00095932,-0.00011995,0.00073903,0.0008
 7782,-0.00024052,0.00055819,-0.00035921,-0.00430917,-0.00551515,0.0008
 8443,0.02462028,-0.01375400,0.00078592,-0.00015975,0.00045246,-0.00228
 041,-0.00012275,-0.00032009,-0.00484729,-0.10712547,0.01861085,-0.0011
 7564,-0.00618722,-0.00446541,-0.00049579,-0.00479342,-0.00512023,0.193
 71026,0.85928834,0.00054385,-0.00067324,0.00031704,-0.00045811,0.00070
 630,-0.00171104,-0.00021994,0.00002217,0.00001615,0.00063588,0.0000197
 9,-0.00002180,-0.00007955,-0.00013055,-0.00000313,0.00028355,0.0013820
 7,-0.00102922,0.00105188,0.00022856,0.00018072,-0.00066372,0.00026769,
 -0.00013548,0.00094187,-0.00097392,0.00297926,-0.00040465,-0.00179548,
 -0.00066109,0.00133478,0.00017700,0.00136687,-0.00037044,-0.00011526,-
 0.00012015,0.00021240,0.00020618,-0.00019121,-0.00154712,0.00562983,0.
 00677717,-0.01272619,-0.02964484,-0.04778977,-0.00030554,-0.00015002,-
 0.00110388,0.00385653,0.00097933,0.00122855,-0.00006648,0.00142798,-0.
 05416590,-0.00058109,0.00348983,0.00627537,0.00089771,0.00648590,0.002
 06681,0.08561687,0.12774879,0.42727697,-0.00014031,-0.00003264,0.00018
 708,0.00069020,0.00017739,0.00002941,-0.00013120,0.00011081,-0.0000332
 7,0.00007159,0.00000269,-0.00002217,-0.00007087,-0.00008275,-0.0000697
 1,0.00015036,0.00159253,0.00093833,-0.00047155,-0.00003534,-0.00038885
 ,-0.00087219,0.00010182,-0.00063566,0.00004623,-0.00159907,-0.00058320
 ,-0.00019261,-0.00262247,-0.00025119,-0.00070564,0.00203733,-0.0004254
 6,-0.00094018,0.00010088,-0.00069691,-0.00079060,0.00014331,-0.0004975
 5,-0.00015358,-0.00054098,0.00165533,0.00085921,-0.00151920,-0.0022121
 0,-0.00000103,0.00014053,-0.00006568,0.00025185,0.00005098,-0.00004440
 ,0.02279927,0.00124456,-0.00136171,-0.00021138,0.00082901,-0.00031630,
 -0.00139632,0.00118980,-0.00081399,-0.10221918,-0.07317501,0.01096062,
 0.06737900,-0.00014270,-0.00040915,-0.00009205,0.00030416,0.00061907,-
 0.00019615,-0.00020703,0.00009268,-0.00009158,0.00016414,-0.00003463,-
 0.00000820,0.00000470,-0.00007427,0.00001655,-0.00035804,0.00031446,-0
 .00062718,0.00011911,-0.00000195,0.00000735,-0.00027352,0.00024617,-0.
 00014404,0.00077525,-0.00136788,0.00051254,-0.00091129,-0.00206776,-0.
 00043922,0.00327414,0.00175688,0.00146707,-0.00070875,0.00012920,-0.00
 059271,-0.00071333,0.00018213,-0.00046773,-0.00018087,0.00232727,0.002
 22937,-0.00480617,-0.01254041,-0.01203300,-0.00063483,0.00014627,-0.00
 044193,0.00107693,0.00018546,0.00023442,0.00237029,-0.04156110,0.06100
 339,0.00034305,0.00267407,0.00139123,0.00027378,0.00365708,0.00204676,
 -0.07545685,-0.45085390,0.06590222,0.11758783,0.59590718,-0.00000798,-
 0.00010007,0.00015239,0.00014318,-0.00006631,0.00055664,0.00003491,-0.
 00000803,-0.00001853,-0.00017049,-0.00001880,-0.00002922,0.00004006,0.
 00002440,0.00002315,0.00004504,-0.00059743,-0.00003789,-0.00017133,-0.
 00000426,0.00001463,0.00019580,-0.00004670,0.00009099,-0.00045351,0.00
 053224,-0.00086030,-0.00025901,-0.00048618,0.00082186,-0.00137089,0.00
 006681,-0.00211687,0.00001119,0.00007449,-0.00000440,-0.00040968,-0.00
 006622,-0.00025369,0.00157202,0.00045775,-0.00090224,0.00308574,0.0080
 9268,0.00078618,-0.00064485,-0.00003889,0.00023351,-0.00053446,-0.0002
 2921,-0.00008915,-0.00279577,0.05674299,-0.04158598,-0.00047780,0.0014
 2503,-0.00143056,-0.00091328,0.00290731,-0.00305410,0.01032732,0.06009
 258,-0.10567198,0.00513066,-0.09114955,0.13173719,-0.00032919,0.000087
 91,0.00004639,0.00018459,-0.00008632,0.00023277,0.00000524,0.00001095,
 -0.00000823,-0.00007467,-0.00000599,-0.00001277,-0.00001947,0.00001550
 ,-0.00001487,0.00046365,-0.00015100,0.00009060,-0.00014228,-0.00003537
 ,-0.00003647,0.00001149,-0.00002882,-0.00004624,0.00090599,0.00007454,
 0.00002454,-0.00004894,0.00010521,0.00004601,0.00065315,0.00037175,0.0
 0011407,-0.00001524,0.00003136,-0.00005337,-0.00014222,-0.00000120,-0.
 00003987,0.00062064,0.00022979,0.00005731,0.00627268,0.00428277,-0.001
 50824,-0.00022630,0.00008462,0.00008150,-0.00024947,-0.00008846,0.0000
 0553,0.00232245,-0.01291651,-0.03542053,-0.00075283,-0.00162625,-0.002
 15077,-0.00007760,-0.00013397,0.00048265,-0.14026808,-0.10749644,-0.08
 891312,0.01604892,-0.04189999,-0.01237686,0.11485749,-0.00013314,-0.00
 001045,0.00005572,0.00037320,0.00011716,0.00034822,-0.00006067,0.00005
 570,-0.00005022,-0.00006821,-0.00001658,-0.00000510,0.00000909,-0.0000
 1125,-0.00000569,-0.00001677,0.00027973,0.00012822,-0.00024751,-0.0000
 4227,-0.00008433,-0.00023227,0.00005788,-0.00021387,0.00091518,-0.0012
 1329,-0.00027289,-0.00025624,-0.00077499,0.00003178,0.00222100,0.00161
 821,0.00085010,-0.00032758,0.00009848,-0.00032907,-0.00050112,0.000051
 86,-0.00023459,0.00065092,-0.00039442,-0.00053128,0.00036890,0.0049367
 9,0.00206219,-0.00020216,0.00009474,0.00006669,-0.00039192,-0.00016146
 ,-0.00011863,-0.00656154,0.01256309,-0.01939211,-0.00022309,0.00013871
 ,-0.00119717,-0.00019289,0.00081551,0.00173970,-0.10859707,-0.31056805
 ,-0.18119032,-0.04570202,-0.09932688,-0.03760464,0.15917591,0.39169178
 ,-0.00045897,0.00021796,-0.00003194,0.00031348,-0.00016357,0.00071918,
 0.00004444,0.00002087,-0.00003266,-0.00024061,-0.00001274,0.00000804,0
 .00004331,0.00004915,0.00001297,-0.00001924,-0.00018699,0.00003793,-0.
 00032365,-0.00005792,-0.00000473,0.00003566,-0.00003109,-0.00009903,0.
 00046115,-0.00039508,-0.00054811,-0.00005142,0.00015763,0.00016877,0.0
 0060745,0.00066854,0.00005396,-0.00004313,0.00010000,-0.00014018,-0.00
 030468,-0.00004634,-0.00004975,0.00128659,-0.00280721,-0.00387235,-0.0
 0014829,0.01344877,0.00201705,-0.00004153,0.00013992,0.00036141,-0.001
 92702,-0.00026050,-0.00037167,-0.03904803,-0.03805811,-0.08935969,-0.0
 0073361,-0.00184888,-0.00330301,-0.00035830,-0.00101913,0.00016944,-0.
 08801031,-0.17733502,-0.23588027,-0.01048328,-0.02852755,0.02163839,0.
 13939997,0.23594730,0.30850625\\-0.00000276,0.00000322,0.00000541,-0.0
 0000486,0.00000650,0.00001066,-0.00000167,0.00000475,0.00000423,-0.000
 00194,0.00000317,0.00000603,-0.00000430,0.00000205,0.00000244,0.000004
 05,0.00000127,0.00000351,0.00000117,0.00000081,0.00000454,0.00000198,0
 .00000515,0.00000134,0.00000651,-0.00000052,0.00000273,-0.00000422,0.0
 0000260,0.00000307,-0.00000001,-0.00000029,-0.00000003,-0.00000393,0.0
 0000041,0.00000040,-0.00000146,0.00000177,0.00000275,-0.00000483,0.000
 00065,0.00000029,-0.00000364,-0.00000306,-0.00000549,-0.00000124,0.000
 00048,0.00000060,-0.00000417,0.00000049,0.00000027,0.00000335,-0.00000
 450,-0.00000969,-0.00000253,-0.00000198,-0.00000379,-0.00000202,-0.000
 00213,-0.00000256,0.00000619,-0.00000407,-0.00001353,0.00000094,-0.000
 01903,-0.00000810,0.00001939,0.00000225,-0.00000510\\\@
 The archive entry for this job was punched.


 IT IS A PROFOUNDLY ERRONEOUS TRUISM ... THAT WE SHOULD CULTIVATE
 THE HABIT OF THINKING OF WHAT WE ARE DOING.
 THE PRECISE OPPOSITE IS THE CASE.
 CIVILIZATION ADVANCES BY EXTENDING THE NUMBER OF IMPORTANT OPERATIONS
 WHICH WE CAN PERFORM WITHOUT THINKING ABOUT THEM.

                                    -- ALFRED NORTH WHITEHEAD
 Job cpu time:       0 days  1 hours 18 minutes 51.9 seconds.
 Elapsed time:       0 days  0 hours 40 minutes 34.6 seconds.
 File lengths (MBytes):  RWF=    262 Int=      0 D2E=      0 Chk=     25 Scr=      1
 Normal termination of Gaussian 16 at Fri Jun  2 14:57:39 2023.
