 Entering Gaussian System, Link 0=g16
 Input=MEA-CO2_binding-site_index-5-freq.gjf
 Output=MEA-CO2_binding-site_index-5-freq.log
 Initial command:
 /software/commercial/gaussian/g16/AVX/g16/l1.exe "/scratch1/svicchi/G09-659876.pbs02/Gau-2604949.inp" -scrdir="/scratch1/svicchi/G09-659876.pbs02/"
 Entering Link 1 = /software/commercial/gaussian/g16/AVX/g16/l1.exe PID=   2604950.
  
 Copyright (c) 1988-2019, Gaussian, Inc.  All Rights Reserved.
  
 This is part of the Gaussian(R) 16 program.  It is based on
 the Gaussian(R) 09 system (copyright 2009, Gaussian, Inc.),
 the Gaussian(R) 03 system (copyright 2003, Gaussian, Inc.),
 the Gaussian(R) 98 system (copyright 1998, Gaussian, Inc.),
 the Gaussian(R) 94 system (copyright 1995, Gaussian, Inc.),
 the Gaussian 92(TM) system (copyright 1992, Gaussian, Inc.),
 the Gaussian 90(TM) system (copyright 1990, Gaussian, Inc.),
 the Gaussian 88(TM) system (copyright 1988, Gaussian, Inc.),
 the Gaussian 86(TM) system (copyright 1986, Carnegie Mellon
 University), and the Gaussian 82(TM) system (copyright 1983,
 Carnegie Mellon University). Gaussian is a federally registered
 trademark of Gaussian, Inc.
  
 This software contains proprietary and confidential information,
 including trade secrets, belonging to Gaussian, Inc.
  
 This software is provided under written license and may be
 used, copied, transmitted, or stored only in accord with that
 written license.
  
 The following legend is applicable only to US Government
 contracts under FAR:
  
                    RESTRICTED RIGHTS LEGEND
  
 Use, reproduction and disclosure by the US Government is
 subject to restrictions as set forth in subparagraphs (a)
 and (c) of the Commercial Computer Software - Restricted
 Rights clause in FAR 52.227-19.
  
 Gaussian, Inc.
 340 Quinnipiac St., Bldg. 40, Wallingford CT 06492
  
  
 ---------------------------------------------------------------
 Warning -- This program may not be used in any manner that
 competes with the business of Gaussian, Inc. or will provide
 assistance to any competitor of Gaussian, Inc.  The licensee
 of this program is prohibited from giving any competitor of
 Gaussian, Inc. access to this program.  By using this program,
 the user acknowledges that Gaussian, Inc. is engaged in the
 business of creating and licensing software in the field of
 computational chemistry and represents and warrants to the
 licensee that it is not a competitor of Gaussian, Inc. and that
 it will not use this program in any manner prohibited above.
 ---------------------------------------------------------------
  

 Cite this work as:
 Gaussian 16, Revision C.01,
 M. J. Frisch, G. W. Trucks, H. B. Schlegel, G. E. Scuseria, 
 M. A. Robb, J. R. Cheeseman, G. Scalmani, V. Barone, 
 G. A. Petersson, H. Nakatsuji, X. Li, M. Caricato, A. V. Marenich, 
 J. Bloino, B. G. Janesko, R. Gomperts, B. Mennucci, H. P. Hratchian, 
 J. V. Ortiz, A. F. Izmaylov, J. L. Sonnenberg, D. Williams-Young, 
 F. Ding, F. Lipparini, F. Egidi, J. Goings, B. Peng, A. Petrone, 
 T. Henderson, D. Ranasinghe, V. G. Zakrzewski, J. Gao, N. Rega, 
 G. Zheng, W. Liang, M. Hada, M. Ehara, K. Toyota, R. Fukuda, 
 J. Hasegawa, M. Ishida, T. Nakajima, Y. Honda, O. Kitao, H. Nakai, 
 T. Vreven, K. Throssell, J. A. Montgomery, Jr., J. E. Peralta, 
 F. Ogliaro, M. J. Bearpark, J. J. Heyd, E. N. Brothers, K. N. Kudin, 
 V. N. Staroverov, T. A. Keith, R. Kobayashi, J. Normand, 
 K. Raghavachari, A. P. Rendell, J. C. Burant, S. S. Iyengar, 
 J. Tomasi, M. Cossi, J. M. Millam, M. Klene, C. Adamo, R. Cammi, 
 J. W. Ochterski, R. L. Martin, K. Morokuma, O. Farkas, 
 J. B. Foresman, and D. J. Fox, Gaussian, Inc., Wallingford CT, 2019.
 
 ******************************************
 Gaussian 16:  ES64L-G16RevC.01  3-Jul-2019
                 2-Jun-2023 
 ******************************************
 %NProcShared=2
 Will use up to    2 processors via shared memory.
 %mem=55gb
 %chk=/scratch1/svicchi/G09-659876.pbs02/02-freq/MEA-CO2_binding-site_index-5-fre
 q.chk
 ----------------------------------------------------------------------
 #p freq=raman scale=0.967 pop=(nbo,full,hirshfeld) guess=read geom=all
 check b3lyp/6-311+G(d,p) int=grid=ultrafine EmpiricalDispersion=GD3BJ 
 SCRF=(Solvent=ethanol) scf=(xqc,intrep,maxconventionalcycle=350) nosym
 m
 ----------------------------------------------------------------------
 1/10=4,29=7,30=1,38=1,114=967000/1,3;
 2/12=2,15=1,40=1/2;
 3/5=4,6=6,7=111,11=2,14=-4,25=1,30=1,70=2201,71=2,72=4,74=-5,75=-5,116=-2,124=41,140=1/1,2,3;
 4/5=1/1;
 5/5=2,8=3,13=1,17=20,38=6,53=4,85=350,98=1/2,8;
 8/6=4,10=90,11=11/1;
 10/13=10,15=4,31=1/2;
 11/6=3,8=1,9=11,15=111,16=1,31=1/1,2,10;
 10/6=1,31=1/2;
 6/7=3,28=1,40=1,79=1/1,7;
 7/8=1,10=1,25=1,30=1/1,2,3,16;
 1/10=4,30=1/3;
 99//99;
 Leave Link    1 at Fri Jun  2 12:12:35 2023, MaxMem=  7381975040 cpu:               1.4 elap:               1.8
 (Enter /software/commercial/gaussian/g16/AVX/g16/l101.exe)
 Structure from the checkpoint file:  "/scratch1/svicchi/G09-659876.pbs02/02-freq/MEA-CO2_binding-site_index-5-freq.chk"
 --------------------------------
 MEA-CO2_binding-site_index-5.gjf
 --------------------------------
 Charge = -1 Multiplicity = 1
 No Z-Matrix found in chk file; cartesian coordinates used.
  O                                                 1.984063895619     -0.871988999389      0.375674040197
  C                                                 2.939078347422      0.175281362746      0.599333803196
  C                                                 4.264823044347     -0.084911404997     -0.118217435816
  H                                                 3.098218597975      0.211309101759      1.678948894666
  H                                                 2.537920584815      1.141730545490      0.277606462034
  N                                                 5.214314325581      0.990796037600      0.093315459253
  H                                                 4.070678659073     -0.201245791405     -1.189563848174
  H                                                 4.694788524106     -1.020563229986      0.250278001890
  H                                                 1.759794408284     -0.878423706480     -0.561558382786
  H                                                 6.037375118369      0.788638786299      0.637831086823
  C                                                 5.328365522638      2.094168601589     -0.775695374372
  O                                                 4.418182376761      2.241758131080     -1.636875889856
  O                                                 6.333761595010      2.840346565695     -0.589858817055
 Recover connectivity data from disk.
 ITRead=  0  0  0  0  0  0  0  0  0  0  0  0  0
 MicOpt= -1 -1 -1 -1 -1 -1 -1 -1 -1 -1 -1 -1 -1
 NAtoms=     13 NQM=       13 NQMF=       0 NMMI=      0 NMMIF=      0
                NMic=       0 NMicF=      0.
                    Isotopes and Nuclear Properties:
 (Nuclear quadrupole moments (NQMom) in fm**2, nuclear magnetic moments (NMagM)
  in nuclear magnetons)

  Atom         1           2           3           4           5           6           7           8           9          10
 IAtWgt=          16          12          12           1           1          14           1           1           1           1
 AtmWgt=  15.9949146  12.0000000  12.0000000   1.0078250   1.0078250  14.0030740   1.0078250   1.0078250   1.0078250   1.0078250
 NucSpn=           0           0           0           1           1           2           1           1           1           1
 AtZEff=   5.6000000   3.6000000   3.6000000   1.0000000   1.0000000   4.5500000   1.0000000   1.0000000   1.0000000   1.0000000
 NQMom=    0.0000000   0.0000000   0.0000000   0.0000000   0.0000000   2.0440000   0.0000000   0.0000000   0.0000000   0.0000000
 NMagM=    0.0000000   0.0000000   0.0000000   2.7928460   2.7928460   0.4037610   2.7928460   2.7928460   2.7928460   2.7928460
 AtZNuc=   8.0000000   6.0000000   6.0000000   1.0000000   1.0000000   7.0000000   1.0000000   1.0000000   1.0000000   1.0000000

  Atom        11          12          13
 IAtWgt=          12          16          16
 AtmWgt=  12.0000000  15.9949146  15.9949146
 NucSpn=           0           0           0
 AtZEff=   3.6000000   5.6000000   5.6000000
 NQMom=    0.0000000   0.0000000   0.0000000
 NMagM=    0.0000000   0.0000000   0.0000000
 AtZNuc=   6.0000000   8.0000000   8.0000000
 Leave Link  101 at Fri Jun  2 12:12:40 2023, MaxMem=  7381975040 cpu:               0.4 elap:               3.1
 (Enter /software/commercial/gaussian/g16/AVX/g16/l103.exe)

 GradGradGradGradGradGradGradGradGradGradGradGradGradGradGradGradGradGrad
 Berny optimization.
 Initialization pass.
 Trust Radius=3.00D-01 FncErr=1.00D-07 GrdErr=1.00D-07 EigMax=2.50D+02 EigMin=1.00D-04
 Number of steps in this run=      2 maximum allowed number of steps=      2.
 GradGradGradGradGradGradGradGradGradGradGradGradGradGradGradGradGradGrad

 Leave Link  103 at Fri Jun  2 12:12:45 2023, MaxMem=  7381975040 cpu:               0.1 elap:               3.3
 (Enter /software/commercial/gaussian/g16/AVX/g16/l202.exe)
                          Input orientation:                          
 ---------------------------------------------------------------------
 Center     Atomic      Atomic             Coordinates (Angstroms)
 Number     Number       Type             X           Y           Z
 ---------------------------------------------------------------------
      1          8           0        1.984064   -0.871989    0.375674
      2          6           0        2.939078    0.175281    0.599334
      3          6           0        4.264823   -0.084911   -0.118217
      4          1           0        3.098219    0.211309    1.678949
      5          1           0        2.537921    1.141731    0.277606
      6          7           0        5.214314    0.990796    0.093315
      7          1           0        4.070679   -0.201246   -1.189564
      8          1           0        4.694789   -1.020563    0.250278
      9          1           0        1.759794   -0.878424   -0.561558
     10          1           0        6.037375    0.788639    0.637831
     11          6           0        5.328366    2.094169   -0.775695
     12          8           0        4.418182    2.241758   -1.636876
     13          8           0        6.333762    2.840347   -0.589859
 ---------------------------------------------------------------------
                    Distance matrix (angstroms):
                    1          2          3          4          5
     1  O    0.000000
     2  C    1.434870   0.000000
     3  C    2.462779   1.529764   0.000000
     4  H    2.028152   1.091876   2.162989   0.000000
     5  H    2.090799   1.094742   2.154883   1.772958   0.000000
     6  N    3.739547   2.469376   1.450319   2.756754   2.686974
     7  H    2.693293   2.149988   1.094993   3.056836   2.511080
     8  H    2.717688   2.152766   1.093665   2.471365   3.054233
     9  H    0.963713   1.961804   2.664842   2.828210   2.321788
    10  H    4.388137   3.158660   2.115807   3.171100   3.535621
    11  C    4.616069   3.358798   2.512328   3.813659   3.131001
    12  O    4.435168   3.385071   2.782667   4.106059   2.900119
    13  O    5.799445   4.476676   3.613874   4.746374   4.248082
                    6          7          8          9         10
     6  N    0.000000
     7  H    2.091565   0.000000
     8  H    2.083293   1.770293   0.000000
     9  H    3.982028   2.488603   3.048520   0.000000
    10  H    1.007370   2.861318   2.286033   4.745032   0.000000
    11  C    1.409120   2.649904   3.339999   4.649393   2.050649
    12  O    2.278661   2.507811   3.778968   4.237791   3.147639
    13  O    2.267317   3.838291   4.277696   5.895017   2.409268
                   11         12         13
    11  C    0.000000
    12  O    1.261685   0.000000
    13  O    1.265756   2.263625   0.000000
 Symmetry turned off by external request.
 Stoichiometry    C3H6NO3(1-)
 Framework group  C1[X(C3H6NO3)]
 Deg. of freedom    33
 Full point group                 C1      NOp   1
 Rotational constants (GHZ):           7.5306187           1.2605788           1.1543861
 Leave Link  202 at Fri Jun  2 12:12:51 2023, MaxMem=  7381975040 cpu:               0.1 elap:               4.7
 (Enter /software/commercial/gaussian/g16/AVX/g16/l301.exe)
 Standard basis: 6-311+G(d,p) (5D, 7F)
 Ernie: Thresh=  0.10000D-02 Tol=  0.10000D-05 Strict=F.
   190 basis functions,   300 primitive gaussians,   197 cartesian basis functions
    28 alpha electrons       28 beta electrons
       nuclear repulsion energy       300.9328933467 Hartrees.
 IExCor=  402 DFT=T Ex+Corr=B3LYP ExCW=0 ScaHFX=  0.200000
 ScaDFX=  0.800000  0.720000  1.000000  0.810000 ScalE2=  1.000000  1.000000
 IRadAn=      5 IRanWt=     -1 IRanGd=            0 ICorTp=0 IEmpDi=141
 NAtoms=   13 NActive=   13 NUniq=   13 SFac= 1.00D+00 NAtFMM=   60 NAOKFM=F Big=F
 Integral buffers will be    131072 words long.
 Raffenetti 2 integral format.
 Two-electron integral symmetry is turned off.
 R6Disp:  Grimme-D3(BJ) Dispersion energy=       -0.0160948452 Hartrees.
 Nuclear repulsion after empirical dispersion term =      300.9167985015 Hartrees.
 Force inversion solution in PCM.
 ------------------------------------------------------------------------------
 Polarizable Continuum Model (PCM)
 =================================
 Model                : PCM.
 Atomic radii         : UFF (Universal Force Field).
 Polarization charges : Total charges.
 Charge compensation  : None.
 Solution method      : Matrix inversion.
 Cavity type          : Scaled VdW (van der Waals Surface) (Alpha=1.100).
 Cavity algorithm     : GePol (No added spheres)
                        Default sphere list used, NSphG=   13.
                        Lebedev-Laikov grids with approx.  5.0 points / Ang**2.
                        Smoothing algorithm: York/Karplus (Gamma=1.0000).
                        Polarization charges: spherical gaussians, with
                                              point-specific exponents (IZeta= 3).
                        Self-potential: point-specific (ISelfS= 7).
                        Self-field    : sphere-specific E.n sum rule (ISelfD= 2).
 1st derivatives      : Analytical E(r).r(x)/FMM algorithm (CHGder, D1EAlg=3).
                        Cavity 1st derivative terms included.
 2nd derivatives      : Analytical E(r).r(xy)/FMM algorithm (CHGder, D2EAlg=3).
                        Cavity 2nd derivative terms included.
 Solvent              : Ethanol, Eps=  24.852000 Eps(inf)=   1.852593
 ------------------------------------------------------------------------------
 Spheres list:
 ISph  on   Nord     Re0    Alpha      Xe            Ye            Ze
    1   O      1    1.7500  1.100      1.984064     -0.871989      0.375674
    2   C      2    1.9255  1.100      2.939078      0.175281      0.599334
    3   C      3    1.9255  1.100      4.264823     -0.084911     -0.118217
    4   H      4    1.4430  1.100      3.098219      0.211309      1.678949
    5   H      5    1.4430  1.100      2.537921      1.141731      0.277606
    6   N      6    1.8300  1.100      5.214314      0.990796      0.093315
    7   H      7    1.4430  1.100      4.070679     -0.201246     -1.189564
    8   H      8    1.4430  1.100      4.694789     -1.020563      0.250278
    9   H      9    1.4430  1.100      1.759794     -0.878424     -0.561558
   10   H     10    1.4430  1.100      6.037375      0.788639      0.637831
   11   C     11    1.9255  1.100      5.328366      2.094169     -0.775695
   12   O     12    1.7500  1.100      4.418182      2.241758     -1.636876
   13   O     13    1.7500  1.100      6.333762      2.840347     -0.589859
 ------------------------------------------------------------------------------
 GePol: Number of generator spheres                  =      13
 GePol: Total number of spheres                      =      13
 GePol: Number of exposed spheres                    =      13 (100.00%)
 GePol: Number of points                             =    1188
 GePol: Average weight of points                     =       0.14
 GePol: Minimum weight of points                     =   0.37D-09
 GePol: Maximum weight of points                     =    0.20577
 GePol: Number of points with low weight             =      67
 GePol: Fraction of low-weight points (<1% of avg)   =       5.64%
 GePol: Cavity surface area                          =    161.362 Ang**2
 GePol: Cavity volume                                =    148.610 Ang**3
 Leave Link  301 at Fri Jun  2 12:12:55 2023, MaxMem=  7381975040 cpu:               0.4 elap:               3.3
 (Enter /software/commercial/gaussian/g16/AVX/g16/l302.exe)
 NPDir=0 NMtPBC=     1 NCelOv=     1 NCel=       1 NClECP=     1 NCelD=      1
         NCelK=      1 NCelE2=     1 NClLst=     1 CellRange=     0.0.
 One-electron integrals computed using PRISM.
 NBasis=   190 RedAO= T EigKep=  5.63D-05  NBF=   190
 NBsUse=   190 1.00D-06 EigRej= -1.00D+00 NBFU=   190
 Precomputing XC quadrature grid using
 IXCGrd= 4 IRadAn=           5 IRanWt=          -1 IRanGd=           0 AccXCQ= 0.00D+00.
 Generated NRdTot=       0 NPtTot=           0 NUsed=           0 NTot=          32
 NSgBfM=   197   197   197   197   197 MxSgAt=    13 MxSgA2=    13.
 Leave Link  302 at Fri Jun  2 12:13:00 2023, MaxMem=  7381975040 cpu:               0.7 elap:               3.6
 (Enter /software/commercial/gaussian/g16/AVX/g16/l303.exe)
 DipDrv:  MaxL=1.
 Leave Link  303 at Fri Jun  2 12:13:05 2023, MaxMem=  7381975040 cpu:               0.1 elap:               3.6
 (Enter /software/commercial/gaussian/g16/AVX/g16/l401.exe)
 Initial guess from the checkpoint file:  "/scratch1/svicchi/G09-659876.pbs02/02-freq/MEA-CO2_binding-site_index-5-freq.chk"
 B after Tr=     0.000000    0.000000    0.000000
         Rot=    1.000000    0.000000    0.000000    0.000000 Ang=   0.00 deg.
 Guess basis will be translated and rotated to current coordinates.
 JPrj=2 DoOrth=T DoCkMO=T.
 Leave Link  401 at Fri Jun  2 12:13:07 2023, MaxMem=  7381975040 cpu:               1.3 elap:               1.7
 (Enter /software/commercial/gaussian/g16/AVX/g16/l502.exe)
 Keep R1 ints in memory in canonical form, NReq=168511657.
 FoFCou: FMM=F IPFlag=           0 FMFlag=           0 FMFlg1=           0
         NFxFlg=           0 DoJE=F BraDBF=F KetDBF=F FulRan=T
         wScrn=  0.000000 ICntrl=       600 IOpCl=  0 I1Cent=           0 NGrid=           0
         NMat0=    1 NMatS0=  18145 NMatT0=    0 NMatD0=    1 NMtDS0=    0 NMtDT0=    0
 Symmetry not used in FoFCou.
 Two-electron integral symmetry not used.
 Closed shell SCF:
 Using DIIS extrapolation, IDIIS=  1040.
 NGot=  7381975040 LenX=  7217264802 LenY=  7217225552
 Requested convergence on RMS density matrix=1.00D-08 within 350 cycles.
 Requested convergence on MAX density matrix=1.00D-06.
 Requested convergence on             energy=1.00D-06.
 No special actions if energy rises.

 Cycle   1  Pass 1  IDiag  1:
 Inv3:  Mode=1 IEnd=     4234032.
 Iteration    1 A*A^-1 deviation from unit magnitude is 3.77D-15 for   1169.
 Iteration    1 A*A^-1 deviation from orthogonality  is 1.52D-15 for   1154    203.
 Iteration    1 A^-1*A deviation from unit magnitude is 4.00D-15 for   1169.
 Iteration    1 A^-1*A deviation from orthogonality  is 1.03D-15 for   1180   1169.
 E= -398.668520817466    
 DIIS: error= 8.34D-08 at cycle   1 NSaved=   1.
 NSaved= 1 IEnMin= 1 EnMin= -398.668520817466     IErMin= 1 ErrMin= 8.34D-08
 ErrMax= 8.34D-08  0.00D+00 EMaxC= 1.00D-01 BMatC= 9.34D-13 BMatP= 9.34D-13
 IDIUse=1 WtCom= 1.00D+00 WtEn= 0.00D+00
 Coeff-Com:  0.100D+01
 Coeff:      0.100D+01
 Gap=     0.229 Goal=   None    Shift=    0.000
 RMSDP=1.00D-08 MaxDP=2.67D-07              OVMax= 6.65D-07

 Cycle   2  Pass 1  IDiag  1:
 E= -398.668520817465     Delta-E=        0.000000000001 Rises=F Damp=F
 DIIS: error= 1.55D-07 at cycle   2 NSaved=   2.
 NSaved= 2 IEnMin= 1 EnMin= -398.668520817466     IErMin= 1 ErrMin= 8.34D-08
 ErrMax= 1.55D-07  0.00D+00 EMaxC= 1.00D-01 BMatC= 3.41D-12 BMatP= 9.34D-13
 IDIUse=1 WtCom= 1.00D+00 WtEn= 0.00D+00
 Coeff-Com:  0.657D+00 0.343D+00
 Coeff:      0.657D+00 0.343D+00
 Gap=     0.229 Goal=   None    Shift=    0.000
 RMSDP=6.68D-09 MaxDP=1.77D-07 DE= 1.02D-12 OVMax= 4.43D-07

 Error on total polarization charges =  0.01866
 SCF Done:  E(RB3LYP) =  -398.668520817     A.U. after    2 cycles
            NFock=  2  Conv=0.67D-08     -V/T= 2.0038
 KE= 3.971542491494D+02 PE=-1.548920956782D+03 EE= 4.521813883141D+02
 Leave Link  502 at Fri Jun  2 12:13:29 2023, MaxMem=  7381975040 cpu:              31.6 elap:              19.7
 (Enter /software/commercial/gaussian/g16/AVX/g16/l508.exe)
 QCSCF skips out because SCF is already converged.
 Leave Link  508 at Fri Jun  2 12:13:33 2023, MaxMem=  7381975040 cpu:               0.0 elap:               2.7
 (Enter /software/commercial/gaussian/g16/AVX/g16/l801.exe)
 DoSCS=F DFT=T ScalE2(SS,OS)=  1.000000  1.000000
 Range of M.O.s used for correlation:     1   190
 NBasis=   190 NAE=    28 NBE=    28 NFC=     0 NFV=     0
 NROrb=    190 NOA=    28 NOB=    28 NVA=   162 NVB=   162

 **** Warning!!: The largest alpha MO coefficient is  0.32279895D+02

 Leave Link  801 at Fri Jun  2 12:13:36 2023, MaxMem=  7381975040 cpu:               0.1 elap:               1.1
 (Enter /software/commercial/gaussian/g16/AVX/g16/l1002.exe)
 Minotr:  Closed shell wavefunction.
 NEqPCM:  Using equilibrium solvation (IEInf=0, Eps=  24.8520, EpsInf=   1.8526)
          Direct CPHF calculation.
          Differentiating once with respect to electric field.
                with respect to dipole field.
          Electric field/nuclear overlap derivatives assumed to be zero.
          Requested convergence is 1.0D-08 RMS, and 1.0D-07 maximum.
          Secondary convergence is 1.0D-12 RMS, and 1.0D-12 maximum.
          NewPWx=F KeepS1=T KeepF1=T KeepIn=T MapXYZ=F SortEE=F KeepMc=T.
         3994 words used for storage of precomputed grid.
 Keep R1 ints in memory in canonical form, NReq=169303596.
 FoFCou: FMM=F IPFlag=           0 FMFlag=           0 FMFlg1=           0
         NFxFlg=           0 DoJE=F BraDBF=F KetDBF=F FulRan=T
         wScrn=  0.000000 ICntrl=       600 IOpCl=  0 I1Cent=           0 NGrid=           0
         NMat0=    1 NMatS0=  18145 NMatT0=    0 NMatD0=    1 NMtDS0=    0 NMtDT0=    0
 Symmetry not used in FoFCou.
 Two-electron integral symmetry not used.
          MDV=    7381975040 using IRadAn=       1.
          Solving linear equations simultaneously, MaxMat=       0.
          There are     3 degrees of freedom in the 1st order CPHF.  IDoFFX=0 NUNeed=     3.
      3 vectors produced by pass  0 Test12= 1.51D-13 3.33D-08 XBig12= 4.35D+01 2.46D+00.
 AX will form     3 AO Fock derivatives at one time.
      3 vectors produced by pass  1 Test12= 1.51D-13 3.33D-08 XBig12= 1.56D+01 1.55D+00.
      3 vectors produced by pass  2 Test12= 1.51D-13 3.33D-08 XBig12= 2.88D+00 3.40D-01.
      3 vectors produced by pass  3 Test12= 1.51D-13 3.33D-08 XBig12= 4.69D-01 9.27D-02.
      3 vectors produced by pass  4 Test12= 1.51D-13 3.33D-08 XBig12= 1.35D-01 7.73D-02.
      3 vectors produced by pass  5 Test12= 1.51D-13 3.33D-08 XBig12= 9.53D-03 1.89D-02.
      3 vectors produced by pass  6 Test12= 1.51D-13 3.33D-08 XBig12= 1.24D-03 5.17D-03.
      3 vectors produced by pass  7 Test12= 1.51D-13 3.33D-08 XBig12= 1.43D-04 1.66D-03.
      3 vectors produced by pass  8 Test12= 1.51D-13 3.33D-08 XBig12= 5.56D-06 3.61D-04.
      3 vectors produced by pass  9 Test12= 1.51D-13 3.33D-08 XBig12= 1.06D-07 4.67D-05.
      3 vectors produced by pass 10 Test12= 1.51D-13 3.33D-08 XBig12= 3.66D-09 8.93D-06.
      3 vectors produced by pass 11 Test12= 1.51D-13 3.33D-08 XBig12= 6.18D-11 1.96D-06.
      2 vectors produced by pass 12 Test12= 1.51D-13 3.33D-08 XBig12= 1.22D-12 2.50D-07.
      1 vectors produced by pass 13 Test12= 1.51D-13 3.33D-08 XBig12= 2.45D-14 3.54D-08.
 InvSVY:  IOpt=1 It=  1 EMax= 4.44D-15
 Solved reduced A of dimension    39 with     3 vectors.
 End of Minotr F.D. properties file   721 does not exist.
 End of Minotr F.D. properties file   722 does not exist.
 End of Minotr F.D. properties file   788 does not exist.
 Leave Link 1002 at Fri Jun  2 12:14:44 2023, MaxMem=  7381975040 cpu:             122.4 elap:              67.3
 (Enter /software/commercial/gaussian/g16/AVX/g16/l1101.exe)
 Using compressed storage, NAtomX=    13.
 Will process     14 centers per pass.
 R6Disp: Adding Grimme-D3(BJ) dispersion energy 1st derivatives to the gradient.
 Leave Link 1101 at Fri Jun  2 12:14:48 2023, MaxMem=  7381975040 cpu:               0.8 elap:               2.8
 (Enter /software/commercial/gaussian/g16/AVX/g16/l1102.exe)
 Symmetrizing basis deriv contribution to polar:
 IMax=3 JMax=2 DiffMx= 0.00D+00
 Leave Link 1102 at Fri Jun  2 12:14:52 2023, MaxMem=  7381975040 cpu:               0.1 elap:               3.4
 (Enter /software/commercial/gaussian/g16/AVX/g16/l1110.exe)
 Forming Gx(P) for the SCF density, NAtomX=    13.
 Integral derivatives from FoFJK, PRISM(SPDF).
 Do as many integral derivatives as possible in FoFJK.
 G2DrvN: MDV=    7381973565.
 G2DrvN: will do    14 centers at a time, making    1 passes.
 PxScal for G2LodP:  IOpCl= 0 ISclPx=1 IMOff=     1 NMtTot=     4 NTT=   18145 ScalPx= 5.93D+00
 Calling FoFCou, ICntrl=  3107 FMM=F I1Cent=   0 AccDes= 0.00D+00.
 FoFJK:  IHMeth= 1 ICntrl=    3107 DoSepK=F KAlg= 0 I1Cent=           0 FoldK=F
 IRaf=         0 NMat=       1 IRICut=       1 DoRegI=T DoRafI=F ISym2E= 0 IDoP0=0 IntGTp=1.
 FoFCou: FMM=F IPFlag=           0 FMFlag=      100000 FMFlg1=           0
         NFxFlg=           0 DoJE=F BraDBF=F KetDBF=F FulRan=T
         wScrn=  0.000000 ICntrl=      3107 IOpCl=  0 I1Cent=           0 NGrid=           0
         NMat0=    1 NMatS0=      1 NMatT0=    0 NMatD0=    4 NMtDS0=    3 NMtDT0=    0
 Symmetry not used in FoFCou.
 PxScal for G2LodP:  IOpCl= 0 ISclPx=0 IMOff=     1 NMtTot=     4 NTT=   18145 ScalPx= 1.00D+00
 NEqPCM:  Using equilibrium solvation (IEInf=0, Eps=  24.8520, EpsInf=   1.8526)
 G2PCM: DoFxE=T DoFxN=T DoGrad=T DoDP/DQ/DG/TGxP=TFFF NFrqRd=   0 IEInf=0 SqF1=F DoCFld=F IF1Alg=4.
 GePol: Maximum number of non-zero 1st derivatives   =     225
 End of G2Drv F.D. properties file   721 does not exist.
 End of G2Drv F.D. properties file   722 does not exist.
 End of G2Drv F.D. properties file   788 does not exist.
 Leave Link 1110 at Fri Jun  2 12:17:46 2023, MaxMem=  7381975040 cpu:             339.9 elap:             173.3
 (Enter /software/commercial/gaussian/g16/AVX/g16/l1002.exe)
 Minotr:  Closed shell wavefunction.
          IDoAtm=1111111111111
 NEqPCM:  Using equilibrium solvation (IEInf=0, Eps=  24.8520, EpsInf=   1.8526)
          Direct CPHF calculation.
          Differentiating once with respect to electric field.
                with respect to dipole field.
          Differentiating once with respect to nuclear coordinates.
          Requested convergence is 1.0D-08 RMS, and 1.0D-07 maximum.
          Secondary convergence is 1.0D-12 RMS, and 1.0D-12 maximum.
          NewPWx=T KeepS1=F KeepF1=F KeepIn=T MapXYZ=F SortEE=F KeepMc=T.
         3994 words used for storage of precomputed grid.
 Keep R1 ints in memory in canonical form, NReq=169303895.
 FoFCou: FMM=F IPFlag=           0 FMFlag=           0 FMFlg1=           0
         NFxFlg=           0 DoJE=F BraDBF=F KetDBF=F FulRan=T
         wScrn=  0.000000 ICntrl=       600 IOpCl=  0 I1Cent=           0 NGrid=           0
         NMat0=    1 NMatS0=  18145 NMatT0=    0 NMatD0=    1 NMtDS0=    0 NMtDT0=    0
 Symmetry not used in FoFCou.
 Two-electron integral symmetry not used.
          MDV=    7381975040 using IRadAn=       1.
          Solving linear equations simultaneously, MaxMat=       0.
          There are    42 degrees of freedom in the 1st order CPHF.  IDoFFX=5 NUNeed=    42.
 Will reuse    3 saved solutions.
     36 vectors produced by pass  0 Test12= 1.08D-14 2.38D-09 XBig12= 1.98D-01 1.12D-01.
 AX will form    36 AO Fock derivatives at one time.
     36 vectors produced by pass  1 Test12= 1.08D-14 2.38D-09 XBig12= 7.90D-03 2.47D-02.
     36 vectors produced by pass  2 Test12= 1.08D-14 2.38D-09 XBig12= 2.19D-04 2.53D-03.
     36 vectors produced by pass  3 Test12= 1.08D-14 2.38D-09 XBig12= 7.05D-07 1.64D-04.
     36 vectors produced by pass  4 Test12= 1.08D-14 2.38D-09 XBig12= 1.67D-09 4.68D-06.
     33 vectors produced by pass  5 Test12= 1.08D-14 2.38D-09 XBig12= 3.43D-12 2.76D-07.
     11 vectors produced by pass  6 Test12= 1.08D-14 2.38D-09 XBig12= 4.96D-15 9.86D-09.
 InvSVY:  IOpt=1 It=  1 EMax= 2.00D-15
 Solved reduced A of dimension   224 with    36 vectors.
 FullF1:  Do perturbations      1 to       3.
 Isotropic polarizability for W=    0.000000       79.45 Bohr**3.
 FullF1:  Do perturbations      1 to       6.
 End of Minotr F.D. properties file   721 does not exist.
 End of Minotr F.D. properties file   722 does not exist.
 End of Minotr F.D. properties file   788 does not exist.
 Leave Link 1002 at Fri Jun  2 12:20:35 2023, MaxMem=  7381975040 cpu:             313.2 elap:             166.7
 (Enter /software/commercial/gaussian/g16/AVX/g16/l601.exe)
 Copying SCF densities to generalized density rwf, IOpCl= 0 IROHF=0.

 **********************************************************************

            Population analysis using the SCF Density.

 **********************************************************************

 Alpha  occ. eigenvalues --  -19.12531 -19.04334 -19.04153 -14.29650 -10.25983
 Alpha  occ. eigenvalues --  -10.20640 -10.18720  -1.02281  -1.01807  -0.92080
 Alpha  occ. eigenvalues --   -0.87810  -0.72219  -0.62166  -0.54517  -0.50544
 Alpha  occ. eigenvalues --   -0.47062  -0.45333  -0.42677  -0.41144  -0.38728
 Alpha  occ. eigenvalues --   -0.38144  -0.36478  -0.33277  -0.28780  -0.25136
 Alpha  occ. eigenvalues --   -0.23915  -0.22558  -0.21821
 Alpha virt. eigenvalues --    0.01102   0.01706   0.03469   0.03679   0.05924
 Alpha virt. eigenvalues --    0.06885   0.07313   0.07431   0.08487   0.09862
 Alpha virt. eigenvalues --    0.11244   0.11608   0.13191   0.14674   0.15908
 Alpha virt. eigenvalues --    0.17638   0.18094   0.18360   0.20292   0.21166
 Alpha virt. eigenvalues --    0.21582   0.22821   0.23676   0.24510   0.25170
 Alpha virt. eigenvalues --    0.25551   0.26289   0.27138   0.27816   0.28211
 Alpha virt. eigenvalues --    0.28951   0.30541   0.30700   0.31739   0.32249
 Alpha virt. eigenvalues --    0.34639   0.35438   0.36640   0.38138   0.43470
 Alpha virt. eigenvalues --    0.46497   0.49247   0.49598   0.54475   0.57019
 Alpha virt. eigenvalues --    0.57373   0.61731   0.63249   0.64612   0.67486
 Alpha virt. eigenvalues --    0.68474   0.69900   0.70617   0.71581   0.75328
 Alpha virt. eigenvalues --    0.78211   0.85668   0.87013   0.88644   0.91958
 Alpha virt. eigenvalues --    0.93691   0.97795   1.04915   1.08434   1.10060
 Alpha virt. eigenvalues --    1.11718   1.15285   1.16355   1.18171   1.19220
 Alpha virt. eigenvalues --    1.19582   1.21154   1.23889   1.26473   1.30896
 Alpha virt. eigenvalues --    1.36401   1.39500   1.41799   1.42295   1.50659
 Alpha virt. eigenvalues --    1.53098   1.54466   1.55327   1.56795   1.61316
 Alpha virt. eigenvalues --    1.63964   1.67197   1.70860   1.72814   1.76300
 Alpha virt. eigenvalues --    1.77943   1.81937   1.83285   1.86566   1.89126
 Alpha virt. eigenvalues --    1.90670   1.95957   2.04604   2.06735   2.09122
 Alpha virt. eigenvalues --    2.14242   2.19114   2.21730   2.25852   2.38350
 Alpha virt. eigenvalues --    2.42969   2.46297   2.50838   2.53342   2.57073
 Alpha virt. eigenvalues --    2.60678   2.64213   2.65784   2.69945   2.72840
 Alpha virt. eigenvalues --    2.77076   2.78589   2.81443   2.82503   2.89255
 Alpha virt. eigenvalues --    2.92536   2.94191   2.98155   3.00385   3.10131
 Alpha virt. eigenvalues --    3.11049   3.14975   3.23025   3.24826   3.30649
 Alpha virt. eigenvalues --    3.32813   3.39255   3.41303   3.46895   3.62271
 Alpha virt. eigenvalues --    3.70747   3.77468   3.82950   3.87269   3.89171
 Alpha virt. eigenvalues --    3.94591   3.98225   4.11488   4.24944   4.83890
 Alpha virt. eigenvalues --    4.92776   5.04901   5.06872   5.10593   5.15429
 Alpha virt. eigenvalues --    5.22015   5.36544   5.62524   5.68684   5.90071
 Alpha virt. eigenvalues --   23.82843  23.84867  23.89451  35.60184  49.89819
 Alpha virt. eigenvalues --   49.96866  50.06346
     Molecular Orbital Coefficients:
                           1         2         3         4         5
                           O         O         O         O         O
     Eigenvalues --   -19.12531 -19.04334 -19.04153 -14.29650 -10.25983
   1 1   O  1S          0.55134   0.00001   0.00000   0.00000   0.00000
   2        2S          0.46974   0.00001   0.00000   0.00001   0.00000
   3        2PX         0.00044   0.00001   0.00000   0.00002   0.00000
   4        2PY         0.00076   0.00001   0.00001   0.00002   0.00001
   5        2PZ        -0.00088  -0.00000  -0.00000  -0.00000  -0.00001
   6        3S          0.01347  -0.00007  -0.00002  -0.00011  -0.00003
   7        3PX        -0.00002  -0.00004  -0.00002  -0.00008  -0.00001
   8        3PY        -0.00002  -0.00004  -0.00004  -0.00008  -0.00004
   9        3PZ        -0.00018   0.00002   0.00001   0.00001   0.00005
  10        4S         -0.00907   0.00034   0.00011   0.00050   0.00012
  11        4PX        -0.00122   0.00022   0.00005   0.00028   0.00001
  12        4PY        -0.00106   0.00020   0.00017   0.00031   0.00014
  13        4PZ        -0.00048  -0.00008  -0.00017  -0.00024  -0.00033
  14        5S          0.00628   0.00053   0.00077   0.00167  -0.00006
  15        5PX         0.00039   0.00003   0.00024   0.00032  -0.00005
  16        5PY         0.00040   0.00009   0.00017   0.00036  -0.00016
  17        5PZ        -0.00035  -0.00013  -0.00025  -0.00034  -0.00003
  18        6D 0        0.00027   0.00000   0.00001   0.00002   0.00001
  19        6D+1        0.00011   0.00000  -0.00000  -0.00000   0.00000
  20        6D-1        0.00001  -0.00000  -0.00000  -0.00001  -0.00001
  21        6D+2        0.00002  -0.00000  -0.00000   0.00000  -0.00001
  22        6D-2       -0.00003   0.00001   0.00001   0.00000   0.00001
  23 2   C  1S          0.00001   0.00000  -0.00000  -0.00000   0.00001
  24        2S         -0.00006  -0.00001   0.00000   0.00001  -0.00000
  25        2PX        -0.00010   0.00002   0.00002   0.00007   0.00000
  26        2PY        -0.00014  -0.00002   0.00002  -0.00002   0.00001
  27        2PZ        -0.00002   0.00001  -0.00001  -0.00004   0.00000
  28        3S         -0.00001   0.00010   0.00009   0.00004   0.00022
  29        3PX        -0.00014  -0.00012  -0.00005  -0.00039   0.00003
  30        3PY         0.00010   0.00009  -0.00009   0.00010  -0.00003
  31        3PZ         0.00008  -0.00006   0.00004   0.00025  -0.00004
  32        4S          0.00535  -0.00132  -0.00106  -0.00191  -0.00160
  33        4PX        -0.00012  -0.00008   0.00022   0.00029  -0.00073
  34        4PY        -0.00152   0.00037  -0.00039   0.00045  -0.00051
  35        4PZ        -0.00067   0.00080   0.00083   0.00124   0.00132
  36        5S         -0.00762   0.01118   0.00670   0.00235  -0.00117
  37        5PX        -0.00033   0.00286   0.00158   0.00069  -0.00022
  38        5PY         0.00183   0.00004  -0.00032  -0.00006   0.00044
  39        5PZ         0.00116  -0.00106  -0.00036  -0.00020   0.00008
  40        6D 0        0.00010  -0.00001   0.00003   0.00001   0.00001
  41        6D+1       -0.00003   0.00005   0.00003   0.00014   0.00006
  42        6D-1       -0.00005  -0.00000   0.00003   0.00001   0.00003
  43        6D+2        0.00001  -0.00005   0.00003  -0.00014  -0.00001
  44        6D-2       -0.00016   0.00001  -0.00002   0.00004   0.00000
  45 3   C  1S          0.00000   0.00000  -0.00001   0.00001  -0.00004
  46        2S         -0.00001  -0.00000   0.00003  -0.00002   0.00000
  47        2PX        -0.00004  -0.00002   0.00002   0.00023   0.00001
  48        2PY         0.00000   0.00000   0.00007   0.00026   0.00000
  49        2PZ         0.00002  -0.00000  -0.00000   0.00011   0.00001
  50        3S          0.00028  -0.00004  -0.00036   0.00012  -0.00038
  51        3PX         0.00020   0.00017  -0.00015  -0.00032  -0.00011
  52        3PY        -0.00005   0.00008  -0.00036  -0.00047  -0.00010
  53        3PZ        -0.00008  -0.00004  -0.00002  -0.00046  -0.00006
  54        4S         -0.00341   0.00343   0.00047   0.00597   0.00188
  55        4PX         0.00108  -0.00028  -0.00026   0.00066  -0.00096
  56        4PY        -0.00058   0.00110   0.00110   0.00273   0.00104
  57        4PZ        -0.00076   0.00022  -0.00094  -0.00071  -0.00096
  58        5S          0.00747  -0.01058  -0.01006  -0.00072   0.00849
  59        5PX        -0.00131   0.00266   0.00168   0.00040  -0.00000
  60        5PY         0.00036  -0.00095  -0.00124   0.00038   0.00196
  61        5PZ         0.00059  -0.00203  -0.00146  -0.00056   0.00010
  62        6D 0        0.00003   0.00004   0.00009   0.00035   0.00011
  63        6D+1        0.00010  -0.00004   0.00005  -0.00018  -0.00003
  64        6D-1        0.00003   0.00006  -0.00001  -0.00013  -0.00004
  65        6D+2       -0.00014   0.00004   0.00006  -0.00001  -0.00002
  66        6D-2       -0.00002   0.00003  -0.00002  -0.00044   0.00004
  67 4   H  1S          0.00002  -0.00001   0.00000   0.00008  -0.00001
  68        2S         -0.00100   0.00005  -0.00011  -0.00052  -0.00002
  69        3S         -0.00019  -0.00087  -0.00076  -0.00085  -0.00088
  70        4PX         0.00008  -0.00001  -0.00001  -0.00007   0.00004
  71        4PY         0.00011  -0.00003   0.00002  -0.00007   0.00004
  72        4PZ         0.00022   0.00000   0.00003   0.00016  -0.00000
  73 5   H  1S          0.00002   0.00003  -0.00003   0.00004  -0.00001
  74        2S         -0.00087  -0.00002   0.00040  -0.00016   0.00043
  75        3S         -0.00042  -0.00035   0.00037  -0.00050  -0.00073
  76        4PX         0.00004  -0.00012   0.00004  -0.00020  -0.00006
  77        4PY         0.00033   0.00002  -0.00007   0.00002  -0.00007
  78        4PZ        -0.00001  -0.00001   0.00000  -0.00006   0.00003
  79 6   N  1S         -0.00000  -0.00000  -0.00000   0.55737  -0.00004
  80        2S          0.00001   0.00002   0.00004   0.46569  -0.00005
  81        2PX        -0.00003   0.00002   0.00001   0.00009   0.00002
  82        2PY        -0.00001   0.00009   0.00009  -0.00035   0.00026
  83        2PZ         0.00001  -0.00008  -0.00006  -0.00024  -0.00021
  84        3S         -0.00011  -0.00000  -0.00015   0.01613   0.00065
  85        3PX         0.00013  -0.00013  -0.00002   0.00062  -0.00005
  86        3PY         0.00005  -0.00047  -0.00037   0.00009  -0.00044
  87        3PZ        -0.00003   0.00033   0.00029   0.00012   0.00036
  88        4S          0.00045  -0.00042  -0.00083  -0.01251  -0.00229
  89        4PX        -0.00094   0.00284  -0.00142   0.00344  -0.00015
  90        4PY        -0.00045   0.00138  -0.00023  -0.00020  -0.00095
  91        4PZ         0.00001   0.00092  -0.00083   0.00296   0.00069
  92        5S         -0.00086   0.00180   0.00039  -0.00103   0.00453
  93        5PX        -0.00062   0.00071  -0.00142  -0.00204   0.00040
  94        5PY        -0.00022   0.00010  -0.00206   0.00024   0.00163
  95        5PZ        -0.00018   0.00045   0.00119  -0.00112  -0.00136
  96        6D 0       -0.00000  -0.00009   0.00003  -0.00016  -0.00004
  97        6D+1        0.00001   0.00003   0.00010   0.00059  -0.00001
  98        6D-1       -0.00001   0.00011   0.00014  -0.00042   0.00062
  99        6D+2       -0.00001   0.00015   0.00011   0.00027   0.00031
 100        6D-2        0.00001   0.00005  -0.00003  -0.00006  -0.00014
 101 7   H  1S         -0.00000   0.00008   0.00004   0.00002   0.00001
 102        2S          0.00020  -0.00074  -0.00068  -0.00170  -0.00075
 103        3S         -0.00091   0.00058   0.00038  -0.00073  -0.00192
 104        4PX         0.00004  -0.00003   0.00001  -0.00009  -0.00001
 105        4PY         0.00003  -0.00015  -0.00003  -0.00017  -0.00017
 106        4PZ        -0.00006  -0.00006  -0.00010  -0.00040  -0.00010
 107 8   H  1S          0.00001   0.00002  -0.00004  -0.00004  -0.00004
 108        2S          0.00013  -0.00017   0.00026  -0.00055   0.00037
 109        3S         -0.00080   0.00053   0.00036   0.00036  -0.00018
 110        4PX         0.00011   0.00001  -0.00003   0.00003  -0.00000
 111        4PY        -0.00003  -0.00000  -0.00002  -0.00022   0.00002
 112        4PZ         0.00003  -0.00002   0.00003   0.00010   0.00001
 113 9   H  1S          0.00006  -0.00002   0.00001  -0.00002  -0.00003
 114        2S         -0.00043  -0.00001  -0.00018  -0.00016  -0.00011
 115        3S         -0.00116  -0.00019  -0.00010  -0.00075  -0.00021
 116        4PX        -0.00016   0.00001  -0.00000  -0.00002   0.00001
 117        4PY         0.00004   0.00002   0.00002   0.00001   0.00004
 118        4PZ        -0.00088  -0.00001  -0.00003  -0.00004  -0.00003
 119 10  H  1S         -0.00001  -0.00003  -0.00006   0.00007  -0.00010
 120        2S          0.00017  -0.00097   0.00066  -0.00333   0.00028
 121        3S          0.00058  -0.00057   0.00041   0.00314  -0.00083
 122        4PX         0.00002   0.00014  -0.00008   0.00155   0.00002
 123        4PY         0.00005  -0.00010  -0.00004  -0.00048   0.00014
 124        4PZ        -0.00005   0.00004   0.00001   0.00098  -0.00011
 125 11  C  1S         -0.00000  -0.00001  -0.00001   0.00001   0.56309
 126        2S          0.00000   0.00005   0.00005   0.00003   0.46339
 127        2PX        -0.00002  -0.00025   0.00030   0.00002  -0.00004
 128        2PY        -0.00001   0.00006   0.00024  -0.00034  -0.00020
 129        2PZ        -0.00001  -0.00025   0.00003   0.00031   0.00022
 130        3S         -0.00001   0.00039   0.00032   0.00015   0.01756
 131        3PX         0.00009   0.00046  -0.00061  -0.00019  -0.00004
 132        3PY         0.00002  -0.00014  -0.00054   0.00077   0.00056
 133        3PZ         0.00006   0.00049  -0.00002  -0.00079  -0.00056
 134        4S         -0.00060   0.00164   0.00283   0.00371  -0.01018
 135        4PX         0.00044  -0.00589   0.00580  -0.00248   0.00100
 136        4PY        -0.00023  -0.00050   0.00288  -0.00358   0.00035
 137        4PZ         0.00037  -0.00421   0.00216   0.00106   0.00064
 138        5S         -0.00126  -0.00448   0.00005  -0.00184  -0.01006
 139        5PX         0.00033   0.00109  -0.00084   0.00060   0.00129
 140        5PY         0.00024   0.00111  -0.00092   0.00014   0.00268
 141        5PZ        -0.00028  -0.00004   0.00007   0.00014  -0.00125
 142        6D 0       -0.00001  -0.00022   0.00038  -0.00021  -0.00029
 143        6D+1        0.00001  -0.00064  -0.00003   0.00029   0.00133
 144        6D-1       -0.00000  -0.00013  -0.00040   0.00062  -0.00043
 145        6D+2       -0.00000  -0.00043  -0.00027   0.00057   0.00061
 146        6D-2       -0.00003   0.00031  -0.00056   0.00021   0.00087
 147 12  O  1S         -0.00001   0.55131   0.00323   0.00000  -0.00006
 148        2S          0.00000   0.46972   0.00279   0.00002  -0.00006
 149        2PX         0.00000   0.00075   0.00006   0.00006   0.00033
 150        2PY        -0.00001  -0.00012   0.00001  -0.00001  -0.00005
 151        2PZ         0.00000   0.00070   0.00004   0.00006   0.00031
 152        3S         -0.00007   0.01376  -0.00024  -0.00005   0.00055
 153        3PX        -0.00002   0.00039  -0.00022  -0.00028  -0.00092
 154        3PY         0.00003  -0.00014  -0.00001   0.00006   0.00013
 155        3PZ        -0.00002   0.00043  -0.00018  -0.00027  -0.00085
 156        4S          0.00035  -0.01137   0.00165  -0.00127  -0.00299
 157        4PX         0.00020  -0.00135   0.00004   0.00004  -0.00085
 158        4PY        -0.00008   0.00064  -0.00072   0.00058   0.00038
 159        4PZ         0.00016  -0.00163   0.00069  -0.00049  -0.00103
 160        5S          0.00067   0.00233   0.00252  -0.00170   0.00604
 161        5PX        -0.00002  -0.00064   0.00037  -0.00025   0.00176
 162        5PY         0.00001  -0.00049  -0.00019   0.00085  -0.00069
 163        5PZ         0.00020  -0.00013   0.00046  -0.00090   0.00195
 164        6D 0        0.00000   0.00004   0.00006  -0.00009  -0.00019
 165        6D+1        0.00001   0.00019  -0.00007  -0.00010  -0.00078
 166        6D-1       -0.00001  -0.00001  -0.00010   0.00006   0.00021
 167        6D+2        0.00000   0.00011  -0.00011  -0.00001  -0.00035
 168        6D-2       -0.00000  -0.00003  -0.00009   0.00012   0.00013
 169 13  O  1S         -0.00000  -0.00322   0.55131   0.00000  -0.00006
 170        2S          0.00000  -0.00270   0.46973   0.00004  -0.00006
 171        2PX        -0.00001  -0.00004  -0.00080  -0.00006  -0.00034
 172        2PY        -0.00001  -0.00002  -0.00062  -0.00004  -0.00026
 173        2PZ        -0.00000  -0.00002  -0.00014  -0.00002  -0.00006
 174        3S         -0.00000  -0.00040   0.01369  -0.00025   0.00054
 175        3PX         0.00004   0.00020  -0.00046   0.00030   0.00089
 176        3PY         0.00002   0.00014  -0.00037   0.00022   0.00069
 177        3PZ         0.00001   0.00007  -0.00007   0.00008   0.00015
 178        4S         -0.00014   0.00182  -0.01119   0.00050  -0.00334
 179        4PX        -0.00013  -0.00018   0.00161  -0.00036   0.00125
 180        4PY        -0.00001  -0.00085   0.00143   0.00008   0.00112
 181        4PZ        -0.00006   0.00052   0.00012  -0.00041   0.00004
 182        5S          0.00073   0.00298   0.00252   0.00262   0.00355
 183        5PX        -0.00009  -0.00086   0.00032  -0.00071  -0.00139
 184        5PY        -0.00022  -0.00079  -0.00013  -0.00044  -0.00167
 185        5PZ         0.00017  -0.00002   0.00036  -0.00019   0.00030
 186        6D 0       -0.00000  -0.00000  -0.00010   0.00008   0.00042
 187        6D+1        0.00001  -0.00014   0.00005   0.00004  -0.00015
 188        6D-1       -0.00001  -0.00008   0.00004  -0.00002  -0.00006
 189        6D+2        0.00000  -0.00013   0.00006   0.00001  -0.00016
 190        6D-2        0.00000  -0.00001   0.00017  -0.00011  -0.00074
                           6         7         8         9        10
                           O         O         O         O         O
     Eigenvalues --   -10.20640 -10.18720  -1.02281  -1.01807  -0.92080
   1 1   O  1S         -0.00002   0.00000  -0.10627   0.03503  -0.00135
   2        2S         -0.00007  -0.00000  -0.17002   0.05605  -0.00216
   3        2PX         0.00008   0.00001   0.01728  -0.00532  -0.00014
   4        2PY         0.00010   0.00002   0.02785  -0.00896   0.00009
   5        2PZ        -0.00000   0.00001  -0.03165   0.01053  -0.00049
   6        3S          0.00053   0.00011   0.49214  -0.16220   0.00620
   7        3PX         0.00010  -0.00007   0.02865  -0.00867  -0.00031
   8        3PY         0.00006  -0.00006   0.04553  -0.01441   0.00010
   9        3PZ         0.00016  -0.00002  -0.04843   0.01605  -0.00075
  10        4S         -0.00077  -0.00074   0.36060  -0.12024   0.00615
  11        4PX         0.00012  -0.00037   0.01826  -0.00661   0.00087
  12        4PY        -0.00022  -0.00023   0.02250  -0.00834   0.00048
  13        4PZ         0.00029  -0.00008  -0.01507   0.00582   0.00020
  14        5S          0.00524   0.00106  -0.04352   0.00822   0.00105
  15        5PX         0.00132   0.00039  -0.00845   0.00109  -0.00017
  16        5PY         0.00120   0.00053  -0.00752   0.00106   0.00023
  17        5PZ        -0.00071  -0.00041   0.00450   0.00034   0.00073
  18        6D 0       -0.00002   0.00004   0.00383  -0.00135   0.00009
  19        6D+1       -0.00008  -0.00004   0.00301  -0.00102   0.00007
  20        6D-1       -0.00003  -0.00001  -0.00027   0.00009   0.00002
  21        6D+2        0.00005   0.00002  -0.00059   0.00022  -0.00001
  22        6D-2       -0.00018  -0.00006   0.00723  -0.00231   0.00002
  23 2   C  1S          0.56303  -0.00323  -0.03859   0.01038   0.00110
  24        2S          0.46329  -0.00265  -0.05937   0.01598   0.00169
  25        2PX        -0.00064   0.00040  -0.02617   0.01077  -0.00146
  26        2PY        -0.00086  -0.00014  -0.02963   0.01037  -0.00085
  27        2PZ        -0.00024  -0.00026  -0.00930   0.00213   0.00068
  28        3S          0.01874  -0.00018   0.15343  -0.04206  -0.00459
  29        3PX         0.00027  -0.00090  -0.04216   0.01863  -0.00301
  30        3PY         0.00208   0.00052  -0.05336   0.01802  -0.00065
  31        3PZ         0.00117   0.00074  -0.01939   0.00423   0.00112
  32        4S         -0.01465   0.00567   0.03043   0.00346  -0.00140
  33        4PX        -0.00160   0.00245  -0.00877   0.00446   0.00036
  34        4PY         0.00074  -0.00008   0.00070  -0.00054   0.00476
  35        4PZ         0.00145  -0.00099  -0.00467  -0.00499  -0.00070
  36        5S         -0.01497   0.01575   0.07117  -0.07858   0.01261
  37        5PX        -0.00310   0.00326   0.00537  -0.01508   0.00382
  38        5PY        -0.00104  -0.00067  -0.01038   0.00415   0.00231
  39        5PZ         0.00094  -0.00161  -0.01247   0.00833  -0.00236
  40        6D 0        0.00069   0.00016  -0.00966   0.00284  -0.00004
  41        6D+1        0.00033   0.00056   0.00476  -0.00262   0.00054
  42        6D-1       -0.00038  -0.00020   0.00660  -0.00229  -0.00002
  43        6D+2       -0.00046  -0.00048  -0.00051   0.00110  -0.00052
  44        6D-2       -0.00076   0.00022   0.01854  -0.00606   0.00024
  45 3   C  1S          0.00320   0.56300  -0.01192  -0.00665   0.00430
  46        2S          0.00264   0.46324  -0.01833  -0.01020   0.00655
  47        2PX        -0.00043   0.00035  -0.00532   0.00797  -0.00093
  48        2PY         0.00015   0.00056   0.00191   0.00790  -0.00333
  49        2PZ         0.00025   0.00026   0.00236  -0.00074   0.00116
  50        3S          0.00014   0.01918   0.04561   0.02730  -0.01588
  51        3PX         0.00104   0.00013  -0.01204   0.01364  -0.00064
  52        3PY        -0.00057  -0.00160   0.00550   0.01364  -0.00413
  53        3PZ        -0.00067  -0.00114   0.00686  -0.00175   0.00145
  54        4S          0.00443  -0.01537   0.03116  -0.01421   0.00438
  55        4PX        -0.00198   0.00113  -0.01029   0.00486   0.00249
  56        4PY         0.00063  -0.00169  -0.00286  -0.00534  -0.00311
  57        4PZ         0.00101  -0.00146   0.00738  -0.00072   0.00605
  58        5S          0.01378  -0.02848  -0.05459   0.07835   0.00154
  59        5PX        -0.00134   0.00191   0.00776  -0.01646   0.00307
  60        5PY         0.00262  -0.00365  -0.00424   0.00772   0.00005
  61        5PZ         0.00154  -0.00255  -0.00402   0.01121  -0.00115
  62        6D 0        0.00016   0.00059  -0.00216  -0.00182   0.00016
  63        6D+1        0.00065   0.00044  -0.00293   0.00121  -0.00023
  64        6D-1       -0.00013  -0.00026  -0.00011  -0.00002   0.00045
  65        6D+2       -0.00048  -0.00041   0.00324  -0.00225   0.00064
  66        6D-2        0.00026  -0.00059   0.00123   0.00360  -0.00082
  67 4   H  1S          0.00006  -0.00006   0.01461  -0.00381  -0.00046
  68        2S         -0.00305  -0.00105   0.02617  -0.00686  -0.00066
  69        3S          0.00385  -0.00043  -0.00196   0.00702   0.00081
  70        4PX         0.00038   0.00006  -0.00165   0.00068  -0.00010
  71        4PY        -0.00007  -0.00004  -0.00119   0.00053  -0.00026
  72        4PZ         0.00219   0.00034  -0.00683   0.00164   0.00022
  73 5   H  1S          0.00006  -0.00007   0.01503  -0.00343  -0.00093
  74        2S         -0.00297  -0.00096   0.02335  -0.00648  -0.00358
  75        3S          0.00375  -0.00006  -0.00632   0.00408  -0.00287
  76        4PX        -0.00084  -0.00008   0.00176   0.00019  -0.00076
  77        4PY         0.00187   0.00030  -0.00665   0.00211   0.00033
  78        4PZ        -0.00080  -0.00017   0.00176  -0.00056   0.00010
  79 6   N  1S          0.00000  -0.00003  -0.01309  -0.03216   0.00010
  80        2S          0.00001  -0.00006  -0.02053  -0.05044   0.00014
  81        2PX        -0.00004  -0.00015  -0.00064   0.00260   0.01198
  82        2PY        -0.00004  -0.00020   0.00259   0.01253   0.00485
  83        2PZ        -0.00003  -0.00005  -0.00423  -0.01298   0.00558
  84        3S          0.00003   0.00050   0.05566   0.13732  -0.00025
  85        3PX         0.00019   0.00008  -0.00195   0.00378   0.01707
  86        3PY         0.00013   0.00021   0.00435   0.02250   0.00681
  87        3PZ         0.00010   0.00006  -0.00748  -0.02313   0.00827
  88        4S         -0.00075   0.00047   0.03645   0.08669   0.00147
  89        4PX         0.00023   0.00068  -0.00110  -0.00849   0.02156
  90        4PY         0.00076  -0.00019   0.00030  -0.00090   0.00951
  91        4PZ        -0.00055   0.00084  -0.00404  -0.00787   0.00868
  92        5S          0.00019   0.00564   0.00600  -0.02524   0.00626
  93        5PX        -0.00273  -0.00337   0.01017   0.00835   0.00937
  94        5PY         0.00019  -0.00587   0.00251   0.00129   0.00976
  95        5PZ        -0.00161   0.00193   0.00192   0.00349  -0.00339
  96        6D 0        0.00004   0.00020  -0.00043  -0.00007  -0.00223
  97        6D+1       -0.00007  -0.00007   0.00038   0.00063  -0.00219
  98        6D-1       -0.00003  -0.00015  -0.00170  -0.00519   0.00028
  99        6D+2        0.00002   0.00012  -0.00075  -0.00279  -0.00030
 100        6D-2       -0.00010  -0.00041   0.00121   0.00167   0.00257
 101 7   H  1S         -0.00008   0.00011   0.00610   0.00320  -0.00362
 102        2S         -0.00084  -0.00299   0.00835   0.00828  -0.00380
 103        3S         -0.00095   0.00464   0.00394  -0.00168   0.00160
 104        4PX        -0.00013  -0.00043  -0.00031   0.00056  -0.00034
 105        4PY        -0.00003  -0.00005   0.00011   0.00098  -0.00084
 106        4PZ        -0.00031  -0.00213   0.00253   0.00096  -0.00033
 107 8   H  1S         -0.00009   0.00007   0.00542   0.00192  -0.00115
 108        2S         -0.00073  -0.00271   0.00475   0.00414  -0.00426
 109        3S         -0.00020   0.00325   0.00119  -0.00271  -0.00034
 110        4PX         0.00009   0.00085  -0.00126   0.00026   0.00023
 111        4PY        -0.00026  -0.00174   0.00159   0.00114  -0.00050
 112        4PZ         0.00014   0.00089  -0.00077  -0.00029   0.00011
 113 9   H  1S         -0.00009   0.00004   0.08765  -0.02906   0.00123
 114        2S          0.00086  -0.00021   0.07160  -0.02318   0.00152
 115        3S         -0.00136  -0.00075   0.00493  -0.00011   0.00048
 116        4PX         0.00022  -0.00003   0.00737  -0.00243   0.00009
 117        4PY         0.00023  -0.00005   0.00260  -0.00092   0.00000
 118        4PZ         0.00032  -0.00002   0.02157  -0.00710   0.00038
 119 10  H  1S          0.00003  -0.00006   0.00718   0.01816   0.00626
 120        2S          0.00001  -0.00063   0.00729   0.01961   0.00018
 121        3S          0.00144  -0.00014  -0.00792  -0.00575  -0.00458
 122        4PX        -0.00001   0.00007  -0.00164  -0.00386  -0.00010
 123        4PY        -0.00002  -0.00004   0.00060   0.00233   0.00078
 124        4PZ         0.00000  -0.00000  -0.00116  -0.00358  -0.00072
 125 11  C  1S         -0.00001   0.00003  -0.02383  -0.07571  -0.00155
 126        2S         -0.00002   0.00006  -0.03646  -0.11583  -0.00244
 127        2PX        -0.00000  -0.00003  -0.00053   0.00022   0.10969
 128        2PY        -0.00000  -0.00004   0.00513   0.02038   0.03473
 129        2PZ         0.00000   0.00000  -0.00466  -0.01686   0.05960
 130        3S          0.00018  -0.00035   0.09791   0.31151   0.00704
 131        3PX        -0.00003   0.00014  -0.00081   0.00102   0.14527
 132        3PY        -0.00001   0.00023   0.00607   0.02520   0.04651
 133        3PZ        -0.00002  -0.00005  -0.00586  -0.02046   0.07841
 134        4S         -0.00120  -0.00048   0.02678   0.07995  -0.00335
 135        4PX         0.00016  -0.00376   0.00029   0.00326  -0.01043
 136        4PY         0.00078  -0.00272   0.00029  -0.00639  -0.00172
 137        4PZ        -0.00067  -0.00080   0.00113   0.00748  -0.00636
 138        5S         -0.00024   0.00462   0.01153   0.02638  -0.01798
 139        5PX         0.00042   0.00024  -0.00246  -0.00204   0.01238
 140        5PY         0.00045  -0.00121  -0.00127  -0.00133   0.01006
 141        5PZ         0.00074   0.00083   0.00091  -0.00034   0.00170
 142        6D 0        0.00002   0.00001  -0.00129  -0.00440  -0.01284
 143        6D+1        0.00000   0.00009   0.00574   0.01891  -0.01202
 144        6D-1        0.00006  -0.00005  -0.00131  -0.00339   0.00558
 145        6D+2        0.00001   0.00002   0.00287   0.00995  -0.00333
 146        6D-2       -0.00005   0.00002   0.00376   0.01178   0.01857
 147 12  O  1S         -0.00000   0.00000  -0.02010  -0.06454   0.08031
 148        2S         -0.00000  -0.00000  -0.03207  -0.10297   0.12849
 149        2PX         0.00000   0.00000   0.01060   0.03448  -0.02936
 150        2PY         0.00001  -0.00004  -0.00184  -0.00520   0.01084
 151        2PZ        -0.00000   0.00003   0.01016   0.03220  -0.03279
 152        3S          0.00004   0.00007   0.09173   0.29440  -0.36859
 153        3PX        -0.00002  -0.00003   0.01603   0.05167  -0.04300
 154        3PY        -0.00004   0.00014  -0.00265  -0.00692   0.01654
 155        3PZ         0.00001  -0.00011   0.01512   0.04761  -0.04860
 156        4S          0.00013  -0.00146   0.06263   0.20366  -0.28400
 157        4PX         0.00004   0.00003   0.00455   0.01888  -0.01566
 158        4PY         0.00010   0.00014  -0.00095  -0.00266   0.01132
 159        4PZ        -0.00002  -0.00014   0.00498   0.01714  -0.02206
 160        5S         -0.00211  -0.00009  -0.00442  -0.01003   0.00194
 161        5PX        -0.00028  -0.00074   0.00199  -0.00004  -0.00303
 162        5PY         0.00048  -0.00004   0.00034   0.00074  -0.00379
 163        5PZ        -0.00084  -0.00030  -0.00073   0.00016   0.00079
 164        6D 0        0.00000  -0.00001   0.00057   0.00175  -0.00341
 165        6D+1        0.00000   0.00001   0.00257   0.00839  -0.00839
 166        6D-1        0.00002  -0.00001  -0.00019  -0.00044   0.00292
 167        6D+2       -0.00000   0.00001   0.00146   0.00484  -0.00327
 168        6D-2       -0.00001   0.00003  -0.00044  -0.00135   0.00358
 169 13  O  1S          0.00000   0.00000  -0.01865  -0.06203  -0.08344
 170        2S          0.00000   0.00003  -0.02976  -0.09897  -0.13349
 171        2PX        -0.00000  -0.00003  -0.01103  -0.03652  -0.03520
 172        2PY         0.00001  -0.00002  -0.00812  -0.02660  -0.03142
 173        2PZ         0.00001  -0.00001  -0.00211  -0.00720  -0.00211
 174        3S         -0.00002  -0.00028   0.08511   0.28320   0.38316
 175        3PX        -0.00000   0.00013  -0.01668  -0.05453  -0.05185
 176        3PY        -0.00002   0.00009  -0.01200  -0.03910  -0.04686
 177        3PZ        -0.00004   0.00005  -0.00337  -0.01133  -0.00254
 178        4S          0.00014   0.00178   0.05828   0.19291   0.29402
 179        4PX        -0.00006  -0.00078  -0.00504  -0.01948  -0.02000
 180        4PY        -0.00001  -0.00059  -0.00405  -0.01324  -0.02247
 181        4PZ         0.00014  -0.00021  -0.00100  -0.00456   0.00238
 182        5S         -0.00015   0.00565  -0.01317  -0.01884  -0.00138
 183        5PX         0.00008  -0.00162   0.00244   0.00356  -0.00252
 184        5PY        -0.00033  -0.00153   0.00384   0.00399   0.00063
 185        5PZ        -0.00008   0.00025  -0.00099  -0.00063  -0.00259
 186        6D 0       -0.00001   0.00000  -0.00131  -0.00429  -0.00557
 187        6D+1        0.00000  -0.00000   0.00065   0.00228  -0.00009
 188        6D-1        0.00000   0.00000   0.00066   0.00221   0.00100
 189        6D+2        0.00000  -0.00000   0.00087   0.00300   0.00090
 190        6D-2        0.00001   0.00000   0.00223   0.00733   0.00938
                          11        12        13        14        15
                           O         O         O         O         O
     Eigenvalues --    -0.87810  -0.72219  -0.62166  -0.54517  -0.50544
   1 1   O  1S          0.01096   0.02926   0.01228   0.00683  -0.01632
   2        2S          0.01761   0.04721   0.01978   0.01112  -0.02665
   3        2PX         0.00345   0.03914   0.04652  -0.01337   0.09013
   4        2PY         0.00037   0.02675   0.05594  -0.00832   0.01864
   5        2PZ         0.00516   0.03690   0.07485  -0.04795   0.13658
   6        3S         -0.05205  -0.14159  -0.05879  -0.03424   0.08246
   7        3PX         0.00493   0.05730   0.06849  -0.01975   0.13196
   8        3PY         0.00041   0.03926   0.08260  -0.01252   0.02820
   9        3PZ         0.00782   0.05481   0.10904  -0.06895   0.19617
  10        4S         -0.04016  -0.12068  -0.04930  -0.04205   0.10617
  11        4PX         0.00235   0.03141   0.03840  -0.01244   0.09021
  12        4PY         0.00008   0.02130   0.05177  -0.00813   0.01228
  13        4PZ         0.00231   0.02281   0.06313  -0.04738   0.12878
  14        5S         -0.00425  -0.03193  -0.01759  -0.01148  -0.00280
  15        5PX        -0.00137  -0.00536   0.00240  -0.00143   0.00117
  16        5PY        -0.00116  -0.00421  -0.00057   0.00025   0.00002
  17        5PZ         0.00314   0.00994   0.00097   0.00272   0.00977
  18        6D 0       -0.00107  -0.00682  -0.00928   0.00327  -0.01138
  19        6D+1       -0.00049  -0.00185   0.00005  -0.00149  -0.00065
  20        6D-1       -0.00003   0.00037   0.00212  -0.00259   0.00510
  21        6D+2        0.00033   0.00034  -0.00295   0.00006   0.00362
  22        6D-2        0.00021   0.00415   0.00547  -0.00098   0.00527
  23 2   C  1S         -0.01428  -0.07351  -0.06168  -0.00027   0.02037
  24        2S         -0.02208  -0.11440  -0.09668  -0.00030   0.03150
  25        2PX         0.01806   0.03516  -0.04135   0.01597  -0.02350
  26        2PY         0.00458   0.00701   0.01474   0.02150  -0.12302
  27        2PZ        -0.00424  -0.00433   0.04011  -0.04381   0.02767
  28        3S          0.05776   0.30851   0.26685  -0.00028  -0.08350
  29        3PX         0.03045   0.05181  -0.06959   0.02509  -0.03683
  30        3PY         0.00490   0.00080   0.01196   0.03352  -0.18513
  31        3PZ        -0.00910  -0.01204   0.05694  -0.06587   0.04253
  32        4S          0.03774   0.18793   0.16937   0.00828  -0.08814
  33        4PX         0.00823   0.01283  -0.02343   0.00716  -0.00810
  34        4PY         0.00053   0.00121   0.01490   0.01006  -0.09979
  35        4PZ        -0.00576  -0.00711   0.02699  -0.03570   0.04262
  36        5S         -0.00650  -0.01383   0.07379   0.04136  -0.03713
  37        5PX         0.00117   0.00034   0.01359   0.01099  -0.00712
  38        5PY         0.00441   0.01272  -0.00239   0.00381  -0.00923
  39        5PZ         0.00251   0.00452  -0.00386  -0.00846   0.01355
  40        6D 0       -0.00048   0.00027  -0.00069   0.00345  -0.00757
  41        6D+1       -0.00436  -0.00667   0.00575  -0.00327  -0.00653
  42        6D-1       -0.00042   0.00022  -0.00485   0.00209   0.00359
  43        6D+2        0.00412   0.00315  -0.00578   0.00000  -0.00354
  44        6D-2       -0.00214  -0.00428   0.00859  -0.00527   0.01791
  45 3   C  1S         -0.05289  -0.06500   0.06150  -0.01263  -0.01465
  46        2S         -0.08152  -0.10092   0.09592  -0.01980  -0.02302
  47        2PX         0.02562  -0.03894  -0.03673  -0.05147   0.01734
  48        2PY         0.02975  -0.01050   0.01942   0.01339  -0.07545
  49        2PZ         0.00738   0.01371   0.02307  -0.05555  -0.02645
  50        3S          0.21349   0.27049  -0.26240   0.05516   0.06165
  51        3PX         0.03945  -0.06077  -0.05961  -0.07603   0.02507
  52        3PY         0.05040  -0.00946   0.02292   0.02189  -0.10986
  53        3PZ         0.01437   0.02543   0.03261  -0.08295  -0.03935
  54        4S          0.07531   0.16010  -0.15851   0.03237   0.06848
  55        4PX         0.00657  -0.01504  -0.01615  -0.03768   0.00248
  56        4PY         0.00209  -0.00723   0.02430   0.00769  -0.05649
  57        4PZ         0.00340   0.00888   0.02112  -0.04662  -0.02808
  58        5S          0.01005   0.05992  -0.09053  -0.09667   0.01732
  59        5PX         0.00032  -0.00515   0.01165  -0.00288  -0.00770
  60        5PY        -0.00295   0.00021  -0.00420  -0.02533  -0.00574
  61        5PZ        -0.00054   0.00594  -0.00712  -0.00915  -0.00040
  62        6D 0       -0.00778   0.00148  -0.00031   0.00427   0.00525
  63        6D+1        0.00208  -0.00619  -0.00941  -0.00690  -0.00022
  64        6D-1        0.00319   0.00138   0.00143  -0.00353  -0.01022
  65        6D+2       -0.00048   0.00447   0.00411  -0.00590  -0.00153
  66        6D-2        0.01304  -0.00721  -0.00405  -0.00358   0.00135
  67 4   H  1S          0.00852   0.05592   0.07298  -0.02740  -0.00816
  68        2S          0.01073   0.06748   0.09007  -0.03429  -0.01632
  69        3S          0.00012  -0.00205   0.00463  -0.00446  -0.01043
  70        4PX         0.00067   0.00032  -0.00358   0.00090  -0.00056
  71        4PY         0.00037   0.00024   0.00102   0.00108  -0.00575
  72        4PZ        -0.00256  -0.01174  -0.01144   0.00267   0.00223
  73 5   H  1S          0.00865   0.05208   0.06225   0.01891  -0.09846
  74        2S          0.00899   0.06034   0.07763   0.02270  -0.11495
  75        3S          0.00189  -0.00520   0.00520   0.00122  -0.01923
  76        4PX         0.00188   0.00555   0.00269   0.00230  -0.00620
  77        4PY        -0.00157  -0.00916  -0.00945  -0.00120   0.00596
  78        4PZ         0.00072   0.00340   0.00578  -0.00158  -0.00302
  79 6   N  1S         -0.09644   0.03893  -0.01317   0.01634   0.00849
  80        2S         -0.15163   0.06161  -0.02092   0.02593   0.01351
  81        2PX        -0.00205  -0.04385   0.04013  -0.07005   0.02247
  82        2PY        -0.01678  -0.03822   0.07450   0.10384   0.02803
  83        2PZ        -0.00727   0.00742  -0.00460  -0.11677  -0.04250
  84        3S          0.41552  -0.17377   0.05971  -0.07270  -0.03818
  85        3PX        -0.00560  -0.06489   0.05899  -0.10182   0.03323
  86        3PY        -0.02744  -0.05740   0.11046   0.15250   0.04058
  87        3PZ        -0.01246   0.01159  -0.00653  -0.17108  -0.06323
  88        4S          0.30482  -0.13594   0.04560  -0.06639  -0.03764
  89        4PX        -0.01361  -0.03247   0.03235  -0.06767   0.03051
  90        4PY        -0.01378  -0.02703   0.06829   0.09726   0.01905
  91        4PZ        -0.01205   0.00587  -0.00395  -0.11052  -0.03827
  92        5S         -0.01514  -0.01275   0.01494  -0.01013  -0.01129
  93        5PX         0.02225   0.01135   0.00574  -0.02594  -0.01647
  94        5PY         0.00130   0.01721  -0.00273  -0.01967  -0.00692
  95        5PZ         0.01308  -0.00995   0.00050   0.00134  -0.00216
  96        6D 0       -0.00411  -0.00239   0.00260   0.00502   0.00279
  97        6D+1        0.00555  -0.00198  -0.00161  -0.00578  -0.00185
  98        6D-1       -0.00442   0.00564  -0.00736  -0.00415  -0.00183
  99        6D+2       -0.00077   0.00069   0.00182  -0.00674  -0.00561
 100        6D-2        0.00634   0.00414  -0.00439   0.00378  -0.00040
 101 7   H  1S          0.02552   0.04525  -0.06331   0.05445   0.03576
 102        2S          0.03274   0.05362  -0.07768   0.06229   0.03872
 103        3S          0.00061  -0.00282   0.00109   0.01652   0.00535
 104        4PX         0.00188  -0.00009  -0.00310  -0.00180   0.00291
 105        4PY         0.00126   0.00039   0.00038   0.00086  -0.00390
 106        4PZ         0.00743   0.00995  -0.01026   0.00594   0.00356
 107 8   H  1S          0.02715   0.04810  -0.06658  -0.02272   0.06078
 108        2S          0.03389   0.05524  -0.08234  -0.02534   0.08116
 109        3S         -0.00448  -0.00465  -0.00114  -0.00904   0.01835
 110        4PX        -0.00193  -0.00585   0.00287  -0.00096  -0.00343
 111        4PY         0.00746   0.00768  -0.00919  -0.00244   0.00503
 112        4PZ        -0.00227  -0.00258   0.00508  -0.00175  -0.00459
 113 9   H  1S         -0.01162  -0.05444  -0.07262   0.03236  -0.10636
 114        2S         -0.01166  -0.05960  -0.08423   0.04103  -0.14342
 115        3S          0.00551   0.00974  -0.01254   0.01455  -0.03074
 116        4PX        -0.00055  -0.00053  -0.00212   0.00260  -0.00110
 117        4PY        -0.00010   0.00180   0.00366   0.00079  -0.00178
 118        4PZ        -0.00296  -0.01199  -0.01238   0.00421  -0.01702
 119 10  H  1S          0.07096  -0.04832   0.02271  -0.12226  -0.01786
 120        2S          0.07074  -0.04883   0.02712  -0.14052  -0.02856
 121        3S         -0.01775   0.00075  -0.00227  -0.01947   0.00459
 122        4PX        -0.01345   0.00594  -0.00155   0.01486   0.00387
 123        4PY         0.00222  -0.00385   0.00525   0.00279   0.00064
 124        4PZ        -0.00913   0.00598  -0.00290   0.00555  -0.00102
 125 11  C  1S          0.00058   0.01589  -0.02100  -0.04510  -0.02100
 126        2S          0.00062   0.02490  -0.03302  -0.07108  -0.03323
 127        2PX        -0.00293   0.00589  -0.00488  -0.01711   0.00496
 128        2PY        -0.05797   0.04271  -0.03752  -0.06782  -0.02496
 129        2PZ         0.04562  -0.03043   0.03552   0.05070   0.00668
 130        3S         -0.00302  -0.07085   0.09616   0.20909   0.09990
 131        3PX        -0.00404   0.00817  -0.00716  -0.02544   0.00773
 132        3PY        -0.08404   0.06167  -0.05328  -0.09482  -0.03643
 133        3PZ         0.06563  -0.04400   0.05137   0.07154   0.00833
 134        4S          0.00355  -0.03584   0.05438   0.13249   0.07102
 135        4PX         0.00933   0.00597  -0.00117  -0.00611  -0.00674
 136        4PY         0.00074   0.01318  -0.00999  -0.02876  -0.01903
 137        4PZ         0.00780  -0.00551   0.00884   0.01720  -0.00188
 138        5S          0.00282  -0.02670   0.01180   0.05489   0.02338
 139        5PX        -0.00479   0.00179  -0.00368  -0.00404   0.00081
 140        5PY        -0.00477   0.00840  -0.00505  -0.02094  -0.00799
 141        5PZ         0.00113  -0.00790   0.00265   0.01099   0.00370
 142        6D 0        0.00176  -0.00363   0.00416  -0.00454  -0.00012
 143        6D+1       -0.00953  -0.00004   0.00109  -0.00417   0.00284
 144        6D-1       -0.01230   0.00942  -0.00782  -0.00405  -0.00161
 145        6D+2       -0.01374   0.00580  -0.00223  -0.00406  -0.00152
 146        6D-2       -0.00237   0.00440  -0.00378   0.01044  -0.00019
 147 12  O  1S          0.03232  -0.00739   0.00735   0.02967   0.00930
 148        2S          0.05179  -0.01190   0.01190   0.04802   0.01504
 149        2PX        -0.01568   0.00082  -0.00002   0.00983   0.01737
 150        2PY        -0.00612   0.00525  -0.00534  -0.03191  -0.01075
 151        2PZ        -0.00774  -0.00338   0.00872   0.03695   0.01082
 152        3S         -0.15027   0.03435  -0.03488  -0.14325  -0.04390
 153        3PX        -0.02288   0.00185  -0.00088   0.01275   0.02392
 154        3PY        -0.00930   0.00800  -0.00824  -0.04567  -0.01562
 155        3PZ        -0.01097  -0.00473   0.01213   0.05190   0.01475
 156        4S         -0.10914   0.03513  -0.03726  -0.15035  -0.05915
 157        4PX        -0.00919   0.00094  -0.00205   0.00475   0.01598
 158        4PY        -0.00684   0.00357  -0.00377  -0.03125  -0.00933
 159        4PZ        -0.00197  -0.00165   0.00742   0.03319   0.00557
 160        5S          0.01253   0.00622  -0.00812  -0.04185  -0.02227
 161        5PX         0.00194   0.00125  -0.00123  -0.00205  -0.00376
 162        5PY        -0.00336  -0.00143   0.00080   0.00176  -0.00044
 163        5PZ         0.00450   0.00157  -0.00089  -0.00321  -0.00154
 164        6D 0        0.00040  -0.00091   0.00144   0.00257  -0.00019
 165        6D+1       -0.00296   0.00014  -0.00001   0.00199   0.00144
 166        6D-1       -0.00173   0.00128  -0.00126  -0.00373  -0.00103
 167        6D+2       -0.00289   0.00089  -0.00072  -0.00133   0.00040
 168        6D-2       -0.00091   0.00138  -0.00118  -0.00256  -0.00146
 169 13  O  1S          0.02760  -0.01728   0.01556   0.01514   0.01112
 170        2S          0.04421  -0.02781   0.02510   0.02455   0.01802
 171        2PX         0.01337  -0.00297  -0.00383  -0.01513  -0.01234
 172        2PY         0.00242   0.00634  -0.01288  -0.02265  -0.02008
 173        2PZ         0.00863  -0.00755   0.00980   0.00997  -0.00051
 174        3S         -0.12782   0.08190  -0.07418  -0.07249  -0.05381
 175        3PX         0.01958  -0.00426  -0.00549  -0.01918  -0.01674
 176        3PY         0.00324   0.00925  -0.01834  -0.03125  -0.02839
 177        3PZ         0.01287  -0.01088   0.01419   0.01529  -0.00071
 178        4S         -0.10028   0.06787  -0.07216  -0.08357  -0.05756
 179        4PX         0.00924  -0.00108  -0.00230  -0.01165  -0.01093
 180        4PY        -0.00040   0.00642  -0.01094  -0.01897  -0.01946
 181        4PZ         0.00753  -0.00658   0.00971   0.01060  -0.00048
 182        5S         -0.01027   0.00053  -0.01575  -0.00721  -0.00393
 183        5PX         0.00325   0.00025   0.00230  -0.00302  -0.00409
 184        5PY         0.00395   0.00165   0.00312  -0.00047  -0.00327
 185        5PZ        -0.00088   0.00095  -0.00053   0.00080  -0.00033
 186        6D 0        0.00075   0.00022  -0.00079  -0.00140  -0.00097
 187        6D+1       -0.00236   0.00136  -0.00151  -0.00253  -0.00002
 188        6D-1       -0.00187   0.00115  -0.00123  -0.00097   0.00024
 189        6D+2       -0.00269   0.00154  -0.00112  -0.00156  -0.00100
 190        6D-2       -0.00130  -0.00038   0.00124   0.00215   0.00193
                          16        17        18        19        20
                           O         O         O         O         O
     Eigenvalues --    -0.47062  -0.45333  -0.42677  -0.41144  -0.38728
   1 1   O  1S          0.02024  -0.00504  -0.00462  -0.00393   0.01205
   2        2S          0.03299  -0.00811  -0.00749  -0.00634   0.01963
   3        2PX         0.02944  -0.04291   0.02597  -0.11164   0.06634
   4        2PY         0.00552  -0.10126  -0.06935  -0.04817  -0.00031
   5        2PZ        -0.08953  -0.03098   0.00089   0.01078  -0.07005
   6        3S         -0.10171   0.02293   0.02190   0.01736  -0.05953
   7        3PX         0.04215  -0.06213   0.03811  -0.16259   0.09660
   8        3PY         0.00705  -0.14824  -0.10151  -0.06982  -0.00119
   9        3PZ        -0.12841  -0.04436   0.00101   0.01695  -0.10022
  10        4S         -0.12046   0.02809   0.03333   0.01867  -0.08151
  11        4PX         0.03922  -0.04021   0.03589  -0.13106   0.08488
  12        4PY         0.00563  -0.11179  -0.08131  -0.05158  -0.00363
  13        4PZ        -0.09664  -0.02516   0.00055   0.02191  -0.08333
  14        5S         -0.04190   0.02778   0.00974   0.02891  -0.04126
  15        5PX         0.00147  -0.00940  -0.00298  -0.01389   0.00885
  16        5PY         0.00052  -0.00673  -0.00893  -0.00556  -0.00096
  17        5PZ         0.01170  -0.01821  -0.00172  -0.02165  -0.00110
  18        6D 0        0.00332   0.00739   0.00174   0.00479   0.00270
  19        6D+1       -0.00419   0.00375  -0.00033   0.00681  -0.00308
  20        6D-1       -0.00481   0.00405   0.00246   0.00484  -0.00240
  21        6D+2        0.00204   0.00587   0.00639  -0.00264   0.00369
  22        6D-2        0.00167  -0.00530  -0.00067  -0.00664   0.00296
  23 2   C  1S         -0.01271  -0.00207   0.00090  -0.00167  -0.01180
  24        2S         -0.01989  -0.00286   0.00153  -0.00221  -0.01879
  25        2PX         0.03050   0.10422   0.07909  -0.01124   0.03819
  26        2PY        -0.01105  -0.00575  -0.04529   0.07609  -0.04465
  27        2PZ        -0.06237   0.08251   0.01488   0.11033  -0.00598
  28        3S          0.05401   0.00745  -0.00211   0.00059   0.05562
  29        3PX         0.04323   0.15777   0.11706  -0.01348   0.05554
  30        3PY        -0.01803  -0.00407  -0.06607   0.11646  -0.06733
  31        3PZ        -0.09321   0.12166   0.02273   0.16331  -0.01228
  32        4S          0.05355   0.00081  -0.03323   0.02785   0.04683
  33        4PX         0.02367   0.08711   0.07012  -0.01588   0.03575
  34        4PY         0.00106  -0.01601  -0.05043   0.05663  -0.04336
  35        4PZ        -0.07466   0.09326   0.03346   0.11857  -0.01114
  36        5S         -0.02911   0.04167  -0.03782   0.06221   0.03490
  37        5PX         0.00402   0.01741   0.00540  -0.00334   0.01939
  38        5PY         0.01934  -0.00964  -0.00331  -0.01750   0.01346
  39        5PZ        -0.00663   0.01013   0.01224   0.00341  -0.00745
  40        6D 0        0.00207   0.01044   0.00507   0.01639   0.00259
  41        6D+1        0.00158  -0.00227  -0.00675   0.00149   0.00395
  42        6D-1        0.01004   0.00000   0.00352  -0.00879   0.00845
  43        6D+2       -0.00356   0.00378  -0.00108   0.00005  -0.00178
  44        6D-2       -0.01299  -0.01327  -0.00158  -0.01580   0.00144
  45 3   C  1S         -0.00323  -0.00307   0.00117  -0.00169   0.01015
  46        2S         -0.00493  -0.00473   0.00196  -0.00253   0.01610
  47        2PX        -0.08801  -0.00639  -0.06131   0.04538  -0.02837
  48        2PY        -0.10822  -0.02331   0.00614  -0.06845   0.01370
  49        2PZ        -0.00515   0.10735   0.03191  -0.04853   0.04023
  50        3S          0.00873   0.01244  -0.00913   0.00219  -0.04463
  51        3PX        -0.12917  -0.00919  -0.08857   0.06634  -0.04154
  52        3PY        -0.15899  -0.03411   0.00843  -0.10072   0.01906
  53        3PZ        -0.00767   0.15731   0.04635  -0.07227   0.05852
  54        4S          0.02848   0.01931   0.02801   0.02996  -0.06969
  55        4PX        -0.06059  -0.00746  -0.06492   0.04856  -0.03440
  56        4PY        -0.09196  -0.02123   0.02243  -0.04624   0.00734
  57        4PZ         0.00327   0.09373   0.02042  -0.04535   0.04187
  58        5S         -0.02176  -0.06368   0.01632  -0.01445  -0.06654
  59        5PX        -0.03129   0.00657  -0.02539   0.03229  -0.00918
  60        5PY        -0.03290  -0.01254  -0.00267   0.01601  -0.02093
  61        5PZ         0.00662  -0.00517  -0.00127  -0.00969   0.00381
  62        6D 0        0.00747  -0.00126   0.00332   0.00981  -0.00313
  63        6D+1       -0.00166  -0.00650  -0.00738  -0.00060  -0.00817
  64        6D-1       -0.00406   0.00086   0.00076  -0.00738  -0.00182
  65        6D+2        0.00937  -0.00592  -0.00301  -0.00478   0.00724
  66        6D-2       -0.02007  -0.00509  -0.00140  -0.00826   0.00437
  67 4   H  1S         -0.02916   0.07966   0.01982   0.09619   0.01197
  68        2S         -0.03257   0.09830   0.02254   0.12264   0.01985
  69        3S          0.00006   0.02349   0.00651   0.04601   0.00403
  70        4PX         0.00196   0.00435   0.00423  -0.00317   0.00195
  71        4PY        -0.00140  -0.00115  -0.00263   0.00352  -0.00278
  72        4PZ         0.00140  -0.00655  -0.00151  -0.00559  -0.00240
  73 5   H  1S          0.01175  -0.04921  -0.05715   0.03467  -0.03302
  74        2S          0.00551  -0.05964  -0.06791   0.04951  -0.04754
  75        3S          0.00258  -0.00862  -0.01260   0.01805  -0.02888
[...]
 Beta(0;0,0):
               (au)            (10**-30 esu)      (10**-50 SI)
   || (z)     0.525796D+01      0.454246D-01      0.168589D-01
   _|_(z)     0.175265D+01      0.151415D-01      0.561964D-02
   x         -0.312398D+03     -0.269888D+01     -0.100166D+01
   y         -0.290064D+03     -0.250593D+01     -0.930051D+00
   z          0.262898D+02      0.227123D+00      0.842945D-01
   ||         0.854216D+02      0.737976D+00      0.273892D+00
   xxx       -0.103376D+03     -0.893092D+00     -0.331462D+00
   xxy       -0.107320D+03     -0.927165D+00     -0.344108D+00
   yxy       -0.472734D+02     -0.408405D+00     -0.151576D+00
   yyy       -0.116541D+02     -0.100682D+00     -0.373673D-01
   xxz        0.353344D+02      0.305262D+00      0.113295D+00
   yxz       -0.556236D+02     -0.480544D+00     -0.178349D+00
   yyz       -0.999874D+02     -0.863813D+00     -0.320596D+00
   zxz        0.465171D+02      0.401872D+00      0.149151D+00
   zyz        0.222864D+02      0.192537D+00      0.714582D-01
   zzz        0.734162D+02      0.634259D+00      0.235399D+00

 ----------------------------------------------------------------------

 Dipole orientation:
     8          2.49312897         -2.30902106         -2.39365001
     6          2.81427467         -1.11083853         -4.80477346
     6          2.67507685         -2.99445033         -6.99328018
     1          4.67539299         -0.22145211         -4.75352303
     1          1.39370553          0.36678613         -5.08475068
     7          2.95418417         -1.75916263         -9.42384293
     1          0.85646023         -3.97840683         -6.91452979
     1          4.17180915         -4.40244183         -6.77256398
     1          0.80454080         -2.98689332         -2.31775548
     1          4.52574162         -2.13265873        -10.43111778
     6          0.88303179         -0.87767516        -10.84654463
     8         -1.23263172         -0.80702905         -9.74947166
     8          1.36997106         -0.21132207        -13.09158417

 Electric dipole moment (dipole orientation):
 (Debye = 10**-18 statcoulomb cm , SI units = C m)
                  (au)            (Debye)         (10**-30 SI)
   Tot        0.111043D+02      0.282243D+02      0.941463D+02
   x          0.000000D+00      0.000000D+00      0.000000D+00
   y          0.000000D+00      0.000000D+00      0.000000D+00
   z          0.111043D+02      0.282243D+02      0.941463D+02

 Dipole polarizability, Alpha (dipole orientation).
 (esu units = cm**3 , SI units = C**2 m**2 J**-1)
 Alpha(0;0):
               (au)            (10**-24 esu)      (10**-40 SI)
   iso        0.794481D+02      0.117730D+02      0.130992D+02
   aniso      0.260178D+02      0.385544D+01      0.428975D+01
   xx         0.800637D+02      0.118642D+02      0.132007D+02
   yx        -0.192670D+01     -0.285508D+00     -0.317671D+00
   yy         0.673104D+02      0.997437D+01      0.110980D+02
   zx        -0.651697D+00     -0.965715D-01     -0.107450D+00
   zy        -0.901515D+01     -0.133591D+01     -0.148640D+01
   zz         0.909703D+02      0.134804D+02      0.149990D+02

 First dipole hyperpolarizability, Beta (dipole orientation).
 ||, _|_  parallel and perpendicular components, (z) with respect to z axis,
 vector components x,y,z.  Values do not include the 1/n! factor of 1/2.
 (esu units = statvolt**-1 cm**4 , SI units = C**3 m**3 J**-2)
 Beta(0;0,0):
               (au)            (10**-30 esu)      (10**-50 SI)
   || (z)     0.820138D+02      0.708535D+00      0.262966D+00
   _|_(z)     0.273379D+02      0.236178D+00      0.876553D-01
   x          0.131636D+02      0.113723D+00      0.422073D-01
   y         -0.118706D+03     -0.102553D+01     -0.380615D+00
   z          0.410069D+03      0.354268D+01      0.131483D+01
   ||         0.854216D+02      0.737976D+00      0.273892D+00
   xxx        0.874831D+02      0.755786D+00      0.280502D+00
   xxy        0.342920D+02      0.296256D+00      0.109953D+00
   yxy       -0.566078D+01     -0.489047D-01     -0.181505D-01
   yyy       -0.358123D+02     -0.309391D+00     -0.114827D+00
   xxz       -0.904118D+02     -0.781087D+00     -0.289893D+00
   yxz        0.560442D+02      0.484178D+00      0.179698D+00
   yyz        0.425259D+02      0.367390D+00      0.136353D+00
   zxz       -0.774345D+02     -0.668973D+00     -0.248283D+00
   zyz       -0.380484D+02     -0.328709D+00     -0.121997D+00
   zzz        0.184576D+03      0.159459D+01      0.591816D+00

 ----------------------------------------------------------------------
 Unable to Open any file for archive entry.
 1\1\GINC-NODE1921\Freq\RB3LYP\6-311+G(d,p)\C3H6N1O3(1-)\SVICCHI\02-Jun
 -2023\0\\#p freq=raman scale=0.967 pop=(nbo,full,hirshfeld) guess=read
  geom=allcheck b3lyp/6-311+G(d,p) int=grid=ultrafine EmpiricalDispersi
 on=GD3BJ SCRF=(Solvent=ethanol) scf=(xqc,intrep,maxconventionalcycle=3
 50) nosymm\\MEA-CO2_binding-site_index-5.gjf\\-1,1\O,1.9840638956,-0.8
 719889994,0.3756740402\C,2.9390783474,0.1752813627,0.5993338032\C,4.26
 48230443,-0.084911405,-0.1182174358\H,3.098218598,0.2113091018,1.67894
 88947\H,2.5379205848,1.1417305455,0.277606462\N,5.2143143256,0.9907960
 376,0.0933154593\H,4.0706786591,-0.2012457914,-1.1895638482\H,4.694788
 5241,-1.02056323,0.2502780019\H,1.7597944083,-0.8784237065,-0.56155838
 28\H,6.0373751184,0.7886387863,0.6378310868\C,5.3283655226,2.094168601
 6,-0.7756953744\O,4.4181823768,2.2417581311,-1.6368758899\O,6.33376159
 5,2.8403465657,-0.5898588171\\Version=ES64L-G16RevC.01\HF=-398.6685208
 \RMSD=6.683e-09\RMSF=4.722e-05\ZeroPoint=0.0962583\Thermal=0.1041631\E
 Tot=-398.5643577\HTot=-398.5634135\GTot=-398.6054467\Dipole=-1.5838334
 ,-3.250333,1.3671525\DipoleDeriv=-1.0885131,-0.3267699,0.0160959,-0.31
 38922,-0.9075038,-0.0891745,-0.0997716,-0.1791444,-0.4121723,0.731608,
 0.3360019,0.0412412,0.3577822,0.6798097,0.0425775,0.1638425,0.0791213,
 0.4005559,0.4922539,0.2303606,-0.0371753,0.1859093,0.5062423,-0.032578
 1,0.0573474,0.0970576,0.3069215,0.0189861,-0.0277647,-0.0303615,-0.031
 8592,0.0458902,0.0120881,-0.0173506,-0.034151,-0.2027201,-0.0355183,0.
 0670937,-0.0296448,0.0351502,-0.1886291,0.0114889,-0.0379668,0.0649936
 ,0.048071,-0.6649535,-0.2292706,0.1864564,-0.3431644,-1.2312113,0.3810
 666,0.2427496,0.5421105,-1.022498,-0.0243684,-0.0838194,-0.0299471,-0.
 0245817,0.0499635,-0.0258142,-0.0552332,-0.1391572,-0.1603008,-0.03412
 08,0.072242,-0.0139073,0.043345,-0.190215,0.0719181,-0.0173057,0.11989
 58,0.0504682,0.4039278,-0.042168,0.0284354,-0.0546529,0.3225822,0.0629
 951,-0.014519,0.0342495,0.1712098,0.149917,-0.0360705,-0.1048802,-0.05
 84287,0.1240545,0.1214893,-0.0637169,0.0528175,0.2879635,2.2557693,0.7
 928161,0.8658837,1.0250261,2.1144895,-0.8322864,0.6990672,-0.902935,1.
 7638334,-1.4423975,-0.0003951,-0.6878494,0.006968,-0.9112655,0.2662111
 ,-0.6565542,0.2450976,-1.3966384,-1.7625906,-0.7522562,-0.204347,-0.82
 76017,-1.4142072,0.0100186,-0.2005886,0.020044,-0.8346936\Polar=82.336
 1248,12.1075074,81.4545328,5.252884,-5.7702787,74.5536623\PolarDeriv=-
 7.9405258,-5.0127723,-1.2896387,1.8048374,1.7182197,3.0882686,-4.54193
 01,-4.8902219,-3.8513738,1.5051234,1.2636516,0.9055929,2.1774564,1.342
 2768,1.9943849,1.212406,-0.3168727,8.2278444,-0.7159145,1.745219,3.701
 6282,2.7563461,-1.6153297,-5.7756299,2.3771537,6.4525224,-7.8221014,-1
 .1497078,0.6889716,-1.8064634,4.1815458,-0.8724349,4.1749466,-2.299433
 3,-2.6722303,-11.2162947,2.042147,0.7030275,-4.6614509,-2.5447646,4.03
 12527,3.7928184,-0.9606019,-5.2886342,7.5352233,2.1205876,0.0537748,1.
 5455913,-3.1366475,3.5007716,-1.933807,2.329597,5.0886837,9.5929631,1.
 0829539,0.2177409,-0.1851199,1.7144113,0.6372766,2.2165042,-0.8337039,
 -0.8118935,0.161993,0.1715888,1.7895671,-0.2151759,1.6839281,0.502511,
 1.1408637,0.1207582,0.7491001,13.1128664,-2.4308175,2.6093696,-2.12326
 67,-1.1687172,-0.0343897,-0.0146393,2.6686312,-2.6826725,10.5167093,0.
 0851002,-0.9634826,1.4902416,-2.1996241,0.3163419,-3.1447735,-0.109456
 7,2.0063685,-0.3903659,-2.0633664,0.705105,-0.8972994,-2.7203334,-0.07
 38716,-5.5638035,2.1212815,1.660647,-1.3033119,-0.0300218,-2.7031779,0
 .0049177,-1.266558,-0.5464671,-2.3160816,-0.9167378,2.7729684,2.701929
 6,-1.3867038,-0.8955735,-0.0470996,-1.6310768,-1.3566911,-1.9220685,0.
 4429924,0.766546,-0.4655746,-1.1169092,-2.7829308,-0.2639632,-2.067642
 3,-1.7439551,-3.9724728,-1.0166259,-3.1078684,-11.0670691,2.4946828,-2
 .3231493,3.4313076,1.0649851,-0.9508613,0.6754646,-2.1220985,2.941991,
 -12.1106608,-0.4723683,2.235064,-1.3627751,2.0377281,-0.3903935,4.6615
 399,0.426604,-2.78744,1.3764141,-1.083517,-0.5417841,-0.2551237,-1.562
 8564,-0.8362779,-2.1585292,-0.2640089,-0.5105494,-1.0471772,-0.4792891
 ,-0.8098367,-0.2635615,-3.1077182,-1.477122,-2.1860607,-3.1424411,-1.6
 101812,-8.5090626,7.1780152,-0.680733,2.7019582,4.2660626,-1.5859791,4
 .8360306,-1.2740796,0.9810741,-1.28843,-1.2383192,1.2831795,-2.3638319
 ,3.9659154,-0.61726,2.6455012,1.9275944,-2.0351672,2.7628184,0.6179483
 ,-2.9231711,-0.2371013,1.3174673,-1.1522162,2.4316986,-3.847521,-2.274
 1675,-0.5773204,-0.873621,2.7065167,2.2935442,2.0679581,0.637579,0.277
 7495,2.0287795,-2.9946017,1.4902063,-9.1317785,0.8083062,-5.2251812,-3
 .0112521,3.2560472,-3.949897,2.644018,-1.9071437,1.2584544,0.6363424,-
 2.218849,-1.4112403,-3.9777368,-1.4515167,-3.9030214,-3.5543454,2.6317
 479,-9.4942766,11.3368764,5.5884152,5.0863875,-0.2851092,-2.0371795,2.
 3437823,3.589867,5.5625024,8.99357,0.8414939,-0.5424481,1.4471237,-0.3
 58605,0.7996689,2.5612312,2.9933012,2.2754927,1.4120265\HyperPolar=-10
 3.376422,-107.3204136,-47.2733797,-11.6541098,35.3344136,-55.6235614,-
 99.9873685,46.5171152,22.2863783,73.416215\Quadrupole=-55.9853375,15.9
 840938,40.0012437,-56.9238214,21.846803,13.215014\PG=C01 [X(C3H6N1O3)]
 \NImag=0\\0.19677106,0.13593958,0.20459594,0.13005692,0.00724635,0.576
 31779,-0.11823745,-0.06379572,-0.02883473,0.44285233,-0.06768323,-0.14
 113163,-0.02297057,-0.05482422,0.52277930,0.00334562,0.01197487,-0.094
 31805,0.03531152,-0.02798310,0.60949155,-0.02109030,-0.00672697,0.0067
 0643,-0.14062867,0.03670931,0.04466633,0.47530783,-0.03592196,-0.00459
 719,0.01046887,0.04052541,-0.08308898,-0.01817335,-0.03414485,0.550859
 13,-0.01219058,-0.00309617,0.00365375,0.04984286,-0.01390455,-0.113396
 00,0.04878422,-0.03324061,0.57052418,-0.01003948,-0.00738980,-0.028116
 01,-0.05129083,0.00228544,-0.03076696,0.00202056,0.00099765,0.03089365
 ,0.06317220,-0.01131452,-0.00534494,-0.03025572,0.00440955,-0.05013837
 ,0.00798000,0.00060077,0.00045961,-0.00818018,0.00593748,0.05553388,-0
 .00502972,-0.00446064,-0.00381830,-0.03614885,-0.00071490,-0.30529605,
 -0.00243228,-0.00040414,-0.01615483,0.04076052,0.00610419,0.32895801,0
 .00415675,-0.03279710,0.00653753,-0.08953466,0.08959562,-0.03431958,-0
 .01301676,0.02649312,-0.00848377,-0.00049397,0.00401586,-0.00074714,0.
 09742472,-0.00597442,-0.03058298,0.00244080,0.08878517,-0.23295514,0.0
 6588242,0.00385244,-0.00640886,0.00325062,0.00069110,0.00251738,0.0004
 4232,-0.08768912,0.26490030,0.00092657,-0.00917752,0.00517651,-0.03273
 738,0.07110643,-0.07997549,0.00936522,-0.01430122,0.00528331,-0.012422
 16,0.02675716,-0.00852320,0.03322823,-0.07253050,0.07685166,-0.0111434
 3,-0.00253227,0.00340660,-0.02240811,-0.02907599,-0.00822900,-0.143937
 18,-0.07985094,-0.04239642,0.00231437,0.00009507,0.00004226,0.00252598
 ,0.00026705,-0.00125159,0.60465434,-0.00337951,0.00068893,-0.00081595,
 -0.00972433,-0.00308152,0.00267644,-0.05650629,-0.15820004,0.00189514,
 0.00140101,0.00004399,0.00051845,-0.00085314,0.00166769,0.00015905,0.1
 0325320,0.47953724,0.00649668,0.00114422,0.00164636,0.00056841,0.01109
 622,0.00562136,-0.03991618,0.00182171,-0.08425754,-0.00152207,0.000452
 47,0.00185097,-0.00007453,-0.00072013,0.00003787,0.28490281,-0.1894225
 2,0.35406919,0.00293537,0.00136509,-0.00068766,0.00204364,0.00204117,0
 .03165430,-0.05492330,-0.00162706,-0.03818264,-0.00491682,0.00060313,0
 .00281727,0.00141046,-0.00018312,-0.00087662,-0.01206670,-0.00939792,-
 0.02416937,0.06836165,0.00002134,0.00024576,0.00106005,-0.00059757,-0.
 00011388,-0.00934904,0.00027427,-0.04871234,-0.01600706,0.00095225,0.0
 0031222,-0.00091408,-0.00047068,0.00025199,-0.00002984,-0.01278512,-0.
 00794229,-0.02368577,0.00912281,0.05198212,-0.00003569,0.00098320,0.00
 264494,-0.00206058,-0.00184668,-0.01969890,-0.04006810,-0.02101117,-0.
 28938999,0.00277999,-0.00112263,-0.00021793,0.00000904,0.00000176,0.00
 100530,-0.00780865,-0.00627206,-0.00062737,0.04498108,0.02634354,0.316
 58902,0.00258547,-0.00135157,-0.00031983,-0.01364615,0.02655860,-0.009
 82170,-0.09133302,0.09104896,-0.03937746,0.00156619,-0.00070097,0.0000
 1024,-0.00480340,0.00054201,0.00302806,0.00632982,-0.02809304,0.011666
 94,-0.00213069,0.00427031,-0.00114240,0.10170540,0.00035010,0.00223897
 ,0.00010530,0.00392155,-0.00775577,0.00245059,0.08503739,-0.22830721,0
 .07330131,-0.00023537,0.00056775,-0.00025182,0.00078772,0.00048438,-0.
 00108578,0.00481852,-0.02702019,0.01184737,-0.00127597,0.00438998,-0.0
 0019839,-0.09127581,0.25478081,-0.00192866,0.00008561,0.00009617,0.010
 03906,-0.01552248,0.00517148,-0.03758825,0.07782623,-0.08243485,-0.000
 90433,-0.00026440,0.00122820,0.00335123,-0.00066614,-0.00048196,0.0001
 1579,-0.00695496,0.00197845,-0.01198696,0.02580704,-0.00789860,0.03809
 211,-0.08254539,0.08281511,-0.04262403,-0.02168969,-0.08936506,-0.0090
 9248,-0.00168601,-0.02994036,-0.00051708,0.00019189,-0.00264368,-0.002
 42827,-0.00331995,0.00020074,0.00136589,0.00008259,0.00090981,0.000761
 99,0.00032049,0.00078108,-0.00050773,0.00001470,0.00129502,-0.00002600
 ,0.00003347,0.00017989,0.05279034,-0.01249465,-0.02658634,0.03208581,-
 0.01029519,-0.00397240,-0.03406889,0.00009909,0.00064491,0.00041336,-0
 .00404227,-0.00378023,-0.00070607,0.00076750,0.00062606,-0.00085682,0.
 00019534,-0.00010447,0.00031949,-0.00038830,0.00025639,0.00043251,0.00
 017981,-0.00008229,0.00011657,0.02575798,0.03283829,-0.12062251,-0.005
 17279,-0.49121841,0.00105162,0.00188080,-0.00712367,0.00015932,0.00175
 535,0.00297184,-0.00071153,-0.00199902,0.00213164,0.00143504,0.0009628
 8,0.00094500,0.00090026,0.00018729,-0.00057722,-0.00074449,0.00001897,
 -0.00040213,0.00002270,-0.00005677,-0.00011236,0.11835182,0.00246032,0
 .49340231,-0.00123706,-0.00041558,0.00064928,-0.00066492,-0.00198493,-
 0.00165569,-0.01091570,0.00782964,-0.00446766,-0.00016551,-0.00004343,
 0.00026300,0.00031219,0.00010910,-0.00012830,-0.31523659,0.05449259,-0
 .20354550,0.00002256,-0.00002317,0.00139007,0.00134719,-0.00049665,0.0
 0052641,0.00014950,0.00007486,0.00008961,0.32234260,-0.00123942,-0.000
 31968,0.00046392,0.00083175,-0.00127450,-0.00161313,-0.02144531,0.0045
 2212,-0.01707676,-0.00005126,0.00005505,0.00019335,-0.00010698,0.00013
 256,0.00007990,0.05640047,-0.07211035,0.07238484,-0.00365677,-0.003187
 60,-0.00137674,0.00028836,0.00127908,-0.00003091,0.00031442,0.00002807
 ,0.00005981,-0.05612618,0.07243540,0.00137762,0.00087852,-0.00045377,0
 .00113089,0.00075400,0.00068058,0.00225817,-0.00095098,-0.00458978,0.0
 0008203,0.00004751,-0.00021986,-0.00014519,-0.00001569,0.00006885,-0.1
 8510328,0.06180544,-0.12998537,-0.00182973,-0.00155681,-0.00099223,0.0
 0077191,0.00084379,0.00081246,-0.00006251,-0.00004274,-0.00009240,0.19
 989628,-0.06538635,0.15007866,-0.00106648,0.00118978,0.00007623,-0.000
 66682,-0.00478039,-0.00048816,-0.00227235,-0.00993135,0.01777115,0.000
 34264,0.00046543,-0.00051288,-0.00189370,0.00101008,0.00077785,-0.0952
 1923,-0.02767618,-0.01119594,-0.00054348,-0.00177323,-0.00272262,-0.00
 108705,0.00022271,-0.00155912,-0.00016289,-0.00023564,-0.00000570,0.00
 040512,0.02768440,-0.01853771,0.65912097,0.00737698,0.00310221,-0.0000
 7456,-0.00278267,0.00284688,0.00277532,-0.01548662,-0.03223187,0.00310
 377,-0.00051953,0.00004459,-0.00032267,0.00000042,-0.00042844,0.000139
 34,-0.00803816,-0.14652800,0.04914006,0.00395379,0.00284864,0.00434941
 ,-0.00048383,0.00202925,-0.00025459,-0.00079184,0.00003205,-0.00038665
 ,-0.00131927,0.00295460,0.00251242,0.14205444,0.48105528,-0.00544258,-
 0.00172507,0.00034273,0.00334656,-0.00172037,-0.00283030,0.01693844,-0
 .00063894,0.01073676,0.00017160,0.00039621,0.00005765,-0.00102708,0.00
 111451,0.00051985,-0.02586209,0.06909659,-0.11358181,-0.00344707,-0.00
 381096,-0.00255543,-0.00494066,-0.00680813,-0.00216821,0.00062899,-0.0
 0022113,0.00030994,0.00488742,0.00591793,-0.01567109,0.22158011,-0.077
 60186,0.47595028,0.00114449,-0.00062960,-0.00012838,-0.00069246,0.0027
 5039,0.00080264,-0.00496873,-0.00497310,-0.00130313,-0.00006859,-0.000
 62265,0.00038933,0.00219303,-0.00140893,-0.00054777,0.00077328,0.01875
 477,-0.03581197,0.00078760,0.00126223,0.00296555,0.00087063,0.00043316
 ,0.00136834,-0.00004730,0.00028191,-0.00002828,0.00370060,0.00002683,-
 0.00043860,-0.26406252,0.03492609,-0.17100740,0.33628419,-0.00160269,-
 0.00071207,-0.00002816,0.00154140,0.00015922,-0.00078369,0.00466944,0.
 00124117,0.00077751,-0.00018901,-0.00020674,0.00014038,0.00015261,-0.0
 0029386,-0.00007442,0.02571990,-0.01080963,0.04557290,0.00029759,0.000
 11872,0.00075706,0.00039113,-0.00028798,0.00215488,0.00032320,0.000052
 84,0.00008233,-0.00145355,-0.00425270,0.00579467,0.02562747,-0.1034640
 5,0.03379683,-0.02167062,0.09732939,0.00224076,0.00127028,0.00001968,-
 0.00066487,-0.00033089,0.00122392,-0.00553531,-0.00576001,-0.00222703,
 -0.00032015,0.00018712,-0.00001816,-0.00018578,0.00012581,-0.00070842,
 -0.04022961,0.03729631,-0.04897113,0.00182202,0.00136012,0.00099866,0.
 00089911,0.00114844,0.00043842,-0.00020677,0.00001070,-0.00019012,0.00
 060717,0.00893954,-0.00034632,-0.16561636,0.04027682,-0.25285790,0.263
 19713,-0.06660015,0.30499937,-0.00215490,-0.00116616,0.00001870,0.0019
 6658,0.00009425,-0.00055898,0.00627469,-0.00063740,0.00175345,-0.00001
 250,-0.00012579,0.00038752,0.00035345,-0.00008394,-0.00027193,-0.01734
 854,-0.04259163,0.01181963,-0.00047256,-0.00026814,0.00041729,-0.00137
 838,-0.00232082,0.00029449,0.00033806,0.00009955,0.00010211,-0.0000599
 8,-0.00292030,0.00060010,-0.29289420,-0.15888978,-0.03582624,-0.075914
 24,-0.03380687,-0.05600735,0.38130254,-0.00407760,-0.00159699,0.000273
 85,0.00200489,-0.00227319,-0.00176844,0.00306732,0.00381955,0.00876361
 ,0.00016232,-0.00006419,0.00037563,0.00010418,0.00008891,-0.00018578,-
 0.05846707,-0.05614137,0.02004914,-0.00085444,-0.00044969,-0.00103981,
 -0.00137395,-0.00231678,0.00024855,0.00044875,0.00004712,0.00020749,-0
 .00064344,-0.00026205,-0.00468380,-0.15385751,-0.21226115,-0.01779562,
 -0.02913047,0.02112570,-0.01792410,0.24261703,0.25028412,0.00080555,0.
 00004914,-0.00008940,-0.00084452,0.00015607,0.00044955,-0.00333802,0.0
 0260826,-0.00071982,0.00007543,-0.00010270,0.00002186,0.00042199,-0.00
 028867,-0.00019929,0.02151291,0.02983078,0.01279624,0.00064987,0.00076
 384,0.00054467,0.00111096,0.00124948,0.00055567,-0.00012898,0.00005687
 ,-0.00004442,0.00148791,-0.00255540,0.00071027,-0.03956684,-0.02365680
 ,-0.09825245,-0.05945748,-0.02159014,-0.00236097,0.07727121,0.01347927
 ,0.08658809\\-0.00000435,0.00001954,0.00000685,0.00001189,-0.00000063,
 0.00000705,0.00000190,-0.00001207,-0.00001085,0.00001101,0.00000537,-0
 .00000527,0.00000457,0.00001360,-0.00000133,-0.00017121,0.00002730,-0.
 00011656,-0.00000423,0.00000670,0.00000492,-0.00001287,0.00000246,-0.0
 0001695,-0.00001653,0.00000552,0.00001422,0.00016263,-0.00006326,0.000
 09080,0.00000988,-0.00001028,0.00000071,-0.00000788,0.00002943,0.00001
 276,0.00001518,-0.00002368,0.00001364\\\@
 The archive entry for this job was punched.


 Once you get people laughing, they're
 listening and you can tell them almost anything.
                                 -- Herb Gardner
 Job cpu time:       0 days  0 hours 19 minutes 29.5 seconds.
 Elapsed time:       0 days  0 hours 11 minutes  1.6 seconds.
 File lengths (MBytes):  RWF=    114 Int=      0 D2E=      0 Chk=     14 Scr=      1
 Normal termination of Gaussian 16 at Fri Jun  2 12:24:03 2023.
