 Entering Gaussian System, Link 0=g16
 Input=2methylimidazolide-CO2_binding-site_index-1-freq.gjf
 Output=2methylimidazolide-CO2_binding-site_index-1-freq.log
 Initial command:
 /software/commercial/gaussian/g16/AVX/g16/l1.exe "/scratch1/svicchi/G09-659810.pbs02/Gau-1726467.inp" -scrdir="/scratch1/svicchi/G09-659810.pbs02/"
 Entering Link 1 = /software/commercial/gaussian/g16/AVX/g16/l1.exe PID=   1726468.
  
 Copyright (c) 1988-2019, Gaussian, Inc.  All Rights Reserved.
  
 This is part of the Gaussian(R) 16 program.  It is based on
 the Gaussian(R) 09 system (copyright 2009, Gaussian, Inc.),
 the Gaussian(R) 03 system (copyright 2003, Gaussian, Inc.),
 the Gaussian(R) 98 system (copyright 1998, Gaussian, Inc.),
 the Gaussian(R) 94 system (copyright 1995, Gaussian, Inc.),
 the Gaussian 92(TM) system (copyright 1992, Gaussian, Inc.),
 the Gaussian 90(TM) system (copyright 1990, Gaussian, Inc.),
 the Gaussian 88(TM) system (copyright 1988, Gaussian, Inc.),
 the Gaussian 86(TM) system (copyright 1986, Carnegie Mellon
 University), and the Gaussian 82(TM) system (copyright 1983,
 Carnegie Mellon University). Gaussian is a federally registered
 trademark of Gaussian, Inc.
  
 This software contains proprietary and confidential information,
 including trade secrets, belonging to Gaussian, Inc.
  
 This software is provided under written license and may be
 used, copied, transmitted, or stored only in accord with that
 written license.
  
 The following legend is applicable only to US Government
 contracts under FAR:
  
                    RESTRICTED RIGHTS LEGEND
  
 Use, reproduction and disclosure by the US Government is
 subject to restrictions as set forth in subparagraphs (a)
 and (c) of the Commercial Computer Software - Restricted
 Rights clause in FAR 52.227-19.
  
 Gaussian, Inc.
 340 Quinnipiac St., Bldg. 40, Wallingford CT 06492
  
  
 ---------------------------------------------------------------
 Warning -- This program may not be used in any manner that
 competes with the business of Gaussian, Inc. or will provide
 assistance to any competitor of Gaussian, Inc.  The licensee
 of this program is prohibited from giving any competitor of
 Gaussian, Inc. access to this program.  By using this program,
 the user acknowledges that Gaussian, Inc. is engaged in the
 business of creating and licensing software in the field of
 computational chemistry and represents and warrants to the
 licensee that it is not a competitor of Gaussian, Inc. and that
 it will not use this program in any manner prohibited above.
 ---------------------------------------------------------------
  

 Cite this work as:
 Gaussian 16, Revision C.01,
 M. J. Frisch, G. W. Trucks, H. B. Schlegel, G. E. Scuseria, 
 M. A. Robb, J. R. Cheeseman, G. Scalmani, V. Barone, 
 G. A. Petersson, H. Nakatsuji, X. Li, M. Caricato, A. V. Marenich, 
 J. Bloino, B. G. Janesko, R. Gomperts, B. Mennucci, H. P. Hratchian, 
 J. V. Ortiz, A. F. Izmaylov, J. L. Sonnenberg, D. Williams-Young, 
 F. Ding, F. Lipparini, F. Egidi, J. Goings, B. Peng, A. Petrone, 
 T. Henderson, D. Ranasinghe, V. G. Zakrzewski, J. Gao, N. Rega, 
 G. Zheng, W. Liang, M. Hada, M. Ehara, K. Toyota, R. Fukuda, 
 J. Hasegawa, M. Ishida, T. Nakajima, Y. Honda, O. Kitao, H. Nakai, 
 T. Vreven, K. Throssell, J. A. Montgomery, Jr., J. E. Peralta, 
 F. Ogliaro, M. J. Bearpark, J. J. Heyd, E. N. Brothers, K. N. Kudin, 
 V. N. Staroverov, T. A. Keith, R. Kobayashi, J. Normand, 
 K. Raghavachari, A. P. Rendell, J. C. Burant, S. S. Iyengar, 
 J. Tomasi, M. Cossi, J. M. Millam, M. Klene, C. Adamo, R. Cammi, 
 J. W. Ochterski, R. L. Martin, K. Morokuma, O. Farkas, 
 J. B. Foresman, and D. J. Fox, Gaussian, Inc., Wallingford CT, 2019.
 
 ******************************************
 Gaussian 16:  ES64L-G16RevC.01  3-Jul-2019
                 2-Jun-2023 
 ******************************************
 %NProcShared=2
 Will use up to    2 processors via shared memory.
 %mem=55gb
 %chk=/scratch1/svicchi/G09-659810.pbs02/02-freq/2methylimidazolide-CO2_binding-s
 ite_index-1-freq.chk
 ----------------------------------------------------------------------
 #p freq=raman scale=0.967 pop=(nbo,full,hirshfeld) guess=read geom=all
 check b3lyp/6-311+G(d,p) int=grid=ultrafine EmpiricalDispersion=GD3BJ 
 SCRF=(Solvent=ethanol) scf=(xqc,intrep,maxconventionalcycle=350) nosym
 m
 ----------------------------------------------------------------------
 1/10=4,29=7,30=1,38=1,114=967000/1,3;
 2/12=2,15=1,40=1/2;
 3/5=4,6=6,7=111,11=2,14=-4,25=1,30=1,70=2201,71=2,72=4,74=-5,75=-5,116=-2,124=41,140=1/1,2,3;
 4/5=1/1;
 5/5=2,8=3,13=1,17=20,38=6,53=4,85=350,98=1/2,8;
 8/6=4,10=90,11=11/1;
 10/13=10,15=4,31=1/2;
 11/6=3,8=1,9=11,15=111,16=1,31=1/1,2,10;
 10/6=1,31=1/2;
 6/7=3,28=1,40=1,79=1/1,7;
 7/8=1,10=1,25=1,30=1/1,2,3,16;
 1/10=4,30=1/3;
 99//99;
 Leave Link    1 at Fri Jun  2 11:46:37 2023, MaxMem=  7381975040 cpu:               2.5 elap:               2.7
 (Enter /software/commercial/gaussian/g16/AVX/g16/l101.exe)
 Structure from the checkpoint file:  "/scratch1/svicchi/G09-659810.pbs02/02-freq/2methylimidazolide-CO2_binding-site_index-1-freq.chk"
 -----------------------------------------------
 2methylimidazolide-CO2_binding-site_index-1.gjf
 -----------------------------------------------
 Charge = -1 Multiplicity = 1
 No Z-Matrix found in chk file; cartesian coordinates used.
  N                                                -1.130904151096     -0.073606678586     -0.010071442551
  N                                                 0.971300670776     -0.797431940378      0.064314923281
  C                                                -0.359432339214     -1.149512481872     -0.019610947127
  C                                                -0.885249270900     -2.541317137252     -0.114182241426
  C                                                -0.276277876846      1.012495250324      0.083573171104
  C                                                 1.019096423249      0.586575694358      0.129592390008
  H                                                -0.509480764074     -3.052059658087     -1.002702208782
  H                                                -0.585103207323     -3.142946753321      0.745121308780
  H                                                -1.973524933887     -2.489771399518     -0.159882020474
  H                                                -0.649506594958      2.024987077382      0.111526554199
  H                                                 1.959378373545      1.102401353866      0.201550035583
  C                                                 2.180666670257     -1.670479010419      0.088689384803
  O                                                 1.951349799847     -2.888545731680      0.043997057285
  O                                                 3.250891200623     -1.042121584818      0.151406035317
 Recover connectivity data from disk.
 ITRead=  0  0  0  0  0  0  0  0  0  0  0  0  0  0
 MicOpt= -1 -1 -1 -1 -1 -1 -1 -1 -1 -1 -1 -1 -1 -1
 NAtoms=     14 NQM=       14 NQMF=       0 NMMI=      0 NMMIF=      0
                NMic=       0 NMicF=      0.
                    Isotopes and Nuclear Properties:
 (Nuclear quadrupole moments (NQMom) in fm**2, nuclear magnetic moments (NMagM)
  in nuclear magnetons)

  Atom         1           2           3           4           5           6           7           8           9          10
 IAtWgt=          14          14          12          12          12          12           1           1           1           1
 AtmWgt=  14.0030740  14.0030740  12.0000000  12.0000000  12.0000000  12.0000000   1.0078250   1.0078250   1.0078250   1.0078250
 NucSpn=           2           2           0           0           0           0           1           1           1           1
 AtZEff=   4.5500000   4.5500000   3.6000000   3.6000000   3.6000000   3.6000000   1.0000000   1.0000000   1.0000000   1.0000000
 NQMom=    2.0440000   2.0440000   0.0000000   0.0000000   0.0000000   0.0000000   0.0000000   0.0000000   0.0000000   0.0000000
 NMagM=    0.4037610   0.4037610   0.0000000   0.0000000   0.0000000   0.0000000   2.7928460   2.7928460   2.7928460   2.7928460
 AtZNuc=   7.0000000   7.0000000   6.0000000   6.0000000   6.0000000   6.0000000   1.0000000   1.0000000   1.0000000   1.0000000

  Atom        11          12          13          14
 IAtWgt=           1          12          16          16
 AtmWgt=   1.0078250  12.0000000  15.9949146  15.9949146
 NucSpn=           1           0           0           0
 AtZEff=   1.0000000   3.6000000   5.6000000   5.6000000
 NQMom=    0.0000000   0.0000000   0.0000000   0.0000000
 NMagM=    2.7928460   0.0000000   0.0000000   0.0000000
 AtZNuc=   1.0000000   6.0000000   8.0000000   8.0000000
 Leave Link  101 at Fri Jun  2 11:46:39 2023, MaxMem=  7381975040 cpu:               0.4 elap:               1.0
 (Enter /software/commercial/gaussian/g16/AVX/g16/l103.exe)

 GradGradGradGradGradGradGradGradGradGradGradGradGradGradGradGradGradGrad
 Berny optimization.
 Initialization pass.
 Trust Radius=3.00D-01 FncErr=1.00D-07 GrdErr=1.00D-07 EigMax=2.50D+02 EigMin=1.00D-04
 Number of steps in this run=      2 maximum allowed number of steps=      2.
 GradGradGradGradGradGradGradGradGradGradGradGradGradGradGradGradGradGrad

 Leave Link  103 at Fri Jun  2 11:46:43 2023, MaxMem=  7381975040 cpu:               0.1 elap:               2.4
 (Enter /software/commercial/gaussian/g16/AVX/g16/l202.exe)
                          Input orientation:                          
 ---------------------------------------------------------------------
 Center     Atomic      Atomic             Coordinates (Angstroms)
 Number     Number       Type             X           Y           Z
 ---------------------------------------------------------------------
      1          7           0       -1.130904   -0.073607   -0.010071
      2          7           0        0.971301   -0.797432    0.064315
      3          6           0       -0.359432   -1.149512   -0.019611
      4          6           0       -0.885249   -2.541317   -0.114182
      5          6           0       -0.276278    1.012495    0.083573
      6          6           0        1.019096    0.586576    0.129592
      7          1           0       -0.509481   -3.052060   -1.002702
      8          1           0       -0.585103   -3.142947    0.745121
      9          1           0       -1.973525   -2.489771   -0.159882
     10          1           0       -0.649507    2.024987    0.111527
     11          1           0        1.959378    1.102401    0.201550
     12          6           0        2.180667   -1.670479    0.088689
     13          8           0        1.951350   -2.888546    0.043997
     14          8           0        3.250891   -1.042122    0.151406
 ---------------------------------------------------------------------
                    Distance matrix (angstroms):
                    1          2          3          4          5
     1  N    0.000000
     2  N    2.224572   0.000000
     3  C    1.323946   1.379077   0.000000
     4  C    2.482092   2.553385   1.490821   0.000000
     5  C    1.385198   2.198331   2.166065   3.611030   0.000000
     6  C    2.253408   1.386370   2.221847   3.670105   1.364375
     7  H    3.200416   2.900790   2.146781   1.091571   4.213666
     8  H    3.207657   2.896089   2.146980   1.091077   4.219090
     9  H    2.563261   3.403862   2.102680   1.090454   3.899460
    10  H    2.156531   3.255041   3.190421   4.577953   1.079454
    11  H    3.313250   2.145809   3.239894   4.633387   2.240571
    12  C    3.677806   1.491768   2.595234   3.193643   3.637988
    13  O    4.174577   2.309473   2.892749   2.862147   4.492439
    14  O    4.490460   2.294339   3.615967   4.407469   4.082520
                    6          7          8          9         10
     6  C    0.000000
     7  H    4.105887   0.000000
     8  H    4.106296   1.751818   0.000000
     9  H    4.301568   1.780432   1.781399   0.000000
    10  H    2.203086   5.199761   5.207027   4.712720   0.000000
    11  H    1.074888   4.980465   4.979241   5.338733   2.768673
    12  C    2.538743   3.215088   3.201335   4.241502   4.654769
    13  O    3.599013   2.679180   2.643840   3.950345   5.559840
    14  O    2.762976   4.417263   4.413708   5.430204   4.962041
                   11         12         13         14
    11  H    0.000000
    12  C    2.783985   0.000000
    13  O    3.994064   1.240270   0.000000
    14  O    2.503897   1.242637   2.260448   0.000000
 Symmetry turned off by external request.
 Stoichiometry    C5H5N2O2(1-)
 Framework group  C1[X(C5H5N2O2)]
 Deg. of freedom    36
 Full point group                 C1      NOp   1
 Rotational constants (GHZ):           2.8053199           1.6648029           1.0515634
 Leave Link  202 at Fri Jun  2 11:46:45 2023, MaxMem=  7381975040 cpu:               0.0 elap:               1.2
 (Enter /software/commercial/gaussian/g16/AVX/g16/l301.exe)
 Standard basis: 6-311+G(d,p) (5D, 7F)
 Ernie: Thresh=  0.10000D-02 Tol=  0.10000D-05 Strict=F.
   228 basis functions,   364 primitive gaussians,   237 cartesian basis functions
    33 alpha electrons       33 beta electrons
       nuclear repulsion energy       430.3433096024 Hartrees.
 IExCor=  402 DFT=T Ex+Corr=B3LYP ExCW=0 ScaHFX=  0.200000
 ScaDFX=  0.800000  0.720000  1.000000  0.810000 ScalE2=  1.000000  1.000000
 IRadAn=      5 IRanWt=     -1 IRanGd=            0 ICorTp=0 IEmpDi=141
 NAtoms=   14 NActive=   14 NUniq=   14 SFac= 1.00D+00 NAtFMM=   60 NAOKFM=F Big=F
 Integral buffers will be    131072 words long.
 Raffenetti 2 integral format.
 Two-electron integral symmetry is turned off.
 R6Disp:  Grimme-D3(BJ) Dispersion energy=       -0.0231100927 Hartrees.
 Nuclear repulsion after empirical dispersion term =      430.3201995097 Hartrees.
 Force inversion solution in PCM.
 ------------------------------------------------------------------------------
 Polarizable Continuum Model (PCM)
 =================================
 Model                : PCM.
 Atomic radii         : UFF (Universal Force Field).
 Polarization charges : Total charges.
 Charge compensation  : None.
 Solution method      : Matrix inversion.
 Cavity type          : Scaled VdW (van der Waals Surface) (Alpha=1.100).
 Cavity algorithm     : GePol (No added spheres)
                        Default sphere list used, NSphG=   14.
                        Lebedev-Laikov grids with approx.  5.0 points / Ang**2.
                        Smoothing algorithm: York/Karplus (Gamma=1.0000).
                        Polarization charges: spherical gaussians, with
                                              point-specific exponents (IZeta= 3).
                        Self-potential: point-specific (ISelfS= 7).
                        Self-field    : sphere-specific E.n sum rule (ISelfD= 2).
 1st derivatives      : Analytical E(r).r(x)/FMM algorithm (CHGder, D1EAlg=3).
                        Cavity 1st derivative terms included.
 2nd derivatives      : Analytical E(r).r(xy)/FMM algorithm (CHGder, D2EAlg=3).
                        Cavity 2nd derivative terms included.
 Solvent              : Ethanol, Eps=  24.852000 Eps(inf)=   1.852593
 ------------------------------------------------------------------------------
 Spheres list:
 ISph  on   Nord     Re0    Alpha      Xe            Ye            Ze
    1   N      1    1.8300  1.100     -1.130904     -0.073607     -0.010071
    2   N      2    1.8300  1.100      0.971301     -0.797432      0.064315
    3   C      3    1.9255  1.100     -0.359432     -1.149512     -0.019611
    4   C      4    1.9255  1.100     -0.885249     -2.541317     -0.114182
    5   C      5    1.9255  1.100     -0.276278      1.012495      0.083573
    6   C      6    1.9255  1.100      1.019096      0.586576      0.129592
    7   H      7    1.4430  1.100     -0.509481     -3.052060     -1.002702
    8   H      8    1.4430  1.100     -0.585103     -3.142947      0.745121
    9   H      9    1.4430  1.100     -1.973525     -2.489771     -0.159882
   10   H     10    1.4430  1.100     -0.649507      2.024987      0.111527
   11   H     11    1.4430  1.100      1.959378      1.102401      0.201550
   12   C     12    1.9255  1.100      2.180667     -1.670479      0.088689
   13   O     13    1.7500  1.100      1.951350     -2.888546      0.043997
   14   O     14    1.7500  1.100      3.250891     -1.042122      0.151406
 ------------------------------------------------------------------------------
 GePol: Number of generator spheres                  =      14
 GePol: Total number of spheres                      =      14
 GePol: Number of exposed spheres                    =      14 (100.00%)
 GePol: Number of points                             =    1308
 GePol: Average weight of points                     =       0.13
 GePol: Minimum weight of points                     =   0.18D-10
 GePol: Maximum weight of points                     =    0.20577
 GePol: Number of points with low weight             =      73
 GePol: Fraction of low-weight points (<1% of avg)   =       5.58%
 GePol: Cavity surface area                          =    172.867 Ang**2
 GePol: Cavity volume                                =    169.357 Ang**3
 Leave Link  301 at Fri Jun  2 11:46:48 2023, MaxMem=  7381975040 cpu:               0.5 elap:               2.1
 (Enter /software/commercial/gaussian/g16/AVX/g16/l302.exe)
 NPDir=0 NMtPBC=     1 NCelOv=     1 NCel=       1 NClECP=     1 NCelD=      1
         NCelK=      1 NCelE2=     1 NClLst=     1 CellRange=     0.0.
 One-electron integrals computed using PRISM.
 NBasis=   228 RedAO= T EigKep=  1.24D-05  NBF=   228
 NBsUse=   228 1.00D-06 EigRej= -1.00D+00 NBFU=   228
 Precomputing XC quadrature grid using
 IXCGrd= 4 IRadAn=           5 IRanWt=          -1 IRanGd=           0 AccXCQ= 0.00D+00.
 Generated NRdTot=       0 NPtTot=           0 NUsed=           0 NTot=          32
 NSgBfM=   237   237   237   237   237 MxSgAt=    14 MxSgA2=    14.
 Leave Link  302 at Fri Jun  2 11:46:50 2023, MaxMem=  7381975040 cpu:               1.1 elap:               1.4
 (Enter /software/commercial/gaussian/g16/AVX/g16/l303.exe)
 DipDrv:  MaxL=1.
 Leave Link  303 at Fri Jun  2 11:46:52 2023, MaxMem=  7381975040 cpu:               0.1 elap:               1.3
 (Enter /software/commercial/gaussian/g16/AVX/g16/l401.exe)
 Initial guess from the checkpoint file:  "/scratch1/svicchi/G09-659810.pbs02/02-freq/2methylimidazolide-CO2_binding-site_index-1-freq.chk"
 B after Tr=     0.000000    0.000000    0.000000
         Rot=    1.000000    0.000000    0.000000    0.000000 Ang=   0.00 deg.
 Guess basis will be translated and rotated to current coordinates.
 JPrj=2 DoOrth=T DoCkMO=T.
 Leave Link  401 at Fri Jun  2 11:46:55 2023, MaxMem=  7381975040 cpu:               0.9 elap:               1.2
 (Enter /software/commercial/gaussian/g16/AVX/g16/l502.exe)
 Keep R1 ints in memory in canonical form, NReq=347516255.
 FoFCou: FMM=F IPFlag=           0 FMFlag=           0 FMFlg1=           0
         NFxFlg=           0 DoJE=F BraDBF=F KetDBF=F FulRan=T
         wScrn=  0.000000 ICntrl=       600 IOpCl=  0 I1Cent=           0 NGrid=           0
         NMat0=    1 NMatS0=  26106 NMatT0=    0 NMatD0=    1 NMtDS0=    0 NMtDT0=    0
 Symmetry not used in FoFCou.
 Two-electron integral symmetry not used.
 Closed shell SCF:
 Using DIIS extrapolation, IDIIS=  1040.
 NGot=  7381975040 LenX=  7041084502 LenY=  7041027892
 Requested convergence on RMS density matrix=1.00D-08 within 350 cycles.
 Requested convergence on MAX density matrix=1.00D-06.
 Requested convergence on             energy=1.00D-06.
 No special actions if energy rises.

 Cycle   1  Pass 1  IDiag  1:
 Inv3:  Mode=1 IEnd=     5132592.
 Iteration    1 A*A^-1 deviation from unit magnitude is 6.66D-15 for   1307.
 Iteration    1 A*A^-1 deviation from orthogonality  is 1.14D-15 for   1294     43.
 Iteration    1 A^-1*A deviation from unit magnitude is 6.66D-15 for   1307.
 Iteration    1 A^-1*A deviation from orthogonality  is 1.24D-15 for    956    815.
 E= -453.829523147937    
 DIIS: error= 1.20D-07 at cycle   1 NSaved=   1.
 NSaved= 1 IEnMin= 1 EnMin= -453.829523147937     IErMin= 1 ErrMin= 1.20D-07
 ErrMax= 1.20D-07  0.00D+00 EMaxC= 1.00D-01 BMatC= 2.37D-12 BMatP= 2.37D-12
 IDIUse=1 WtCom= 1.00D+00 WtEn= 0.00D+00
 Coeff-Com:  0.100D+01
 Coeff:      0.100D+01
 Gap=     0.227 Goal=   None    Shift=    0.000
 RMSDP=1.76D-08 MaxDP=4.53D-07              OVMax= 1.03D-06

 Cycle   2  Pass 1  IDiag  1:
 E= -453.829523147931     Delta-E=        0.000000000005 Rises=F Damp=F
 DIIS: error= 2.76D-07 at cycle   2 NSaved=   2.
 NSaved= 2 IEnMin= 1 EnMin= -453.829523147937     IErMin= 1 ErrMin= 1.20D-07
 ErrMax= 2.76D-07  0.00D+00 EMaxC= 1.00D-01 BMatC= 9.57D-12 BMatP= 2.37D-12
 IDIUse=1 WtCom= 1.00D+00 WtEn= 0.00D+00
 Coeff-Com:  0.668D+00 0.332D+00
 Coeff:      0.668D+00 0.332D+00
 Gap=     0.227 Goal=   None    Shift=    0.000
 RMSDP=1.20D-08 MaxDP=3.11D-07 DE= 5.29D-12 OVMax= 7.72D-07

 Cycle   3  Pass 1  IDiag  1:
 E= -453.829523147938     Delta-E=       -0.000000000007 Rises=F Damp=F
 DIIS: error= 2.47D-08 at cycle   3 NSaved=   3.
 NSaved= 3 IEnMin= 3 EnMin= -453.829523147938     IErMin= 3 ErrMin= 2.47D-08
 ErrMax= 2.47D-08  0.00D+00 EMaxC= 1.00D-01 BMatC= 6.27D-14 BMatP= 2.37D-12
 IDIUse=1 WtCom= 1.00D+00 WtEn= 0.00D+00
 Coeff-Com:  0.415D+00 0.211D+00 0.374D+00
 Coeff:      0.415D+00 0.211D+00 0.374D+00
 Gap=     0.227 Goal=   None    Shift=    0.000
 RMSDP=9.58D-10 MaxDP=2.27D-08 DE=-6.82D-12 OVMax= 6.92D-08

 Error on total polarization charges =  0.01887
 SCF Done:  E(RB3LYP) =  -453.829523148     A.U. after    3 cycles
            NFock=  3  Conv=0.96D-09     -V/T= 2.0039
 KE= 4.520482281965D+02 PE=-1.934473294665D+03 EE= 5.982753438103D+02
 Leave Link  502 at Fri Jun  2 11:47:31 2023, MaxMem=  7381975040 cpu:              60.3 elap:              35.3
 (Enter /software/commercial/gaussian/g16/AVX/g16/l508.exe)
 QCSCF skips out because SCF is already converged.
 Leave Link  508 at Fri Jun  2 11:47:33 2023, MaxMem=  7381975040 cpu:               0.0 elap:               0.7
 (Enter /software/commercial/gaussian/g16/AVX/g16/l801.exe)
 DoSCS=F DFT=T ScalE2(SS,OS)=  1.000000  1.000000
 Range of M.O.s used for correlation:     1   228
 NBasis=   228 NAE=    33 NBE=    33 NFC=     0 NFV=     0
 NROrb=    228 NOA=    33 NOB=    33 NVA=   195 NVB=   195

 **** Warning!!: The largest alpha MO coefficient is  0.61652289D+02

 Leave Link  801 at Fri Jun  2 11:47:36 2023, MaxMem=  7381975040 cpu:               0.2 elap:               1.1
 (Enter /software/commercial/gaussian/g16/AVX/g16/l1002.exe)
 Minotr:  Closed shell wavefunction.
 NEqPCM:  Using equilibrium solvation (IEInf=0, Eps=  24.8520, EpsInf=   1.8526)
          Direct CPHF calculation.
          Differentiating once with respect to electric field.
                with respect to dipole field.
          Electric field/nuclear overlap derivatives assumed to be zero.
          Requested convergence is 1.0D-08 RMS, and 1.0D-07 maximum.
          Secondary convergence is 1.0D-12 RMS, and 1.0D-12 maximum.
          NewPWx=F KeepS1=T KeepF1=T KeepIn=T MapXYZ=F SortEE=F KeepMc=T.
         4299 words used for storage of precomputed grid.
 Keep R1 ints in memory in canonical form, NReq=347522296.
 FoFCou: FMM=F IPFlag=           0 FMFlag=           0 FMFlg1=           0
         NFxFlg=           0 DoJE=F BraDBF=F KetDBF=F FulRan=T
         wScrn=  0.000000 ICntrl=       600 IOpCl=  0 I1Cent=           0 NGrid=           0
         NMat0=    1 NMatS0=  26106 NMatT0=    0 NMatD0=    1 NMtDS0=    0 NMtDT0=    0
 Symmetry not used in FoFCou.
 Two-electron integral symmetry not used.
          MDV=    7381975040 using IRadAn=       1.
          Solving linear equations simultaneously, MaxMat=       0.
          There are     3 degrees of freedom in the 1st order CPHF.  IDoFFX=0 NUNeed=     3.
      3 vectors produced by pass  0 Test12= 2.14D-13 3.33D-08 XBig12= 9.16D+01 4.43D+00.
 AX will form     3 AO Fock derivatives at one time.
      3 vectors produced by pass  1 Test12= 2.14D-13 3.33D-08 XBig12= 4.53D+01 1.53D+00.
      3 vectors produced by pass  2 Test12= 2.14D-13 3.33D-08 XBig12= 8.48D+00 6.60D-01.
      3 vectors produced by pass  3 Test12= 2.14D-13 3.33D-08 XBig12= 3.94D+00 6.73D-01.
      3 vectors produced by pass  4 Test12= 2.14D-13 3.33D-08 XBig12= 3.61D-01 1.28D-01.
      3 vectors produced by pass  5 Test12= 2.14D-13 3.33D-08 XBig12= 9.02D-02 6.21D-02.
      3 vectors produced by pass  6 Test12= 2.14D-13 3.33D-08 XBig12= 1.33D-02 1.85D-02.
      3 vectors produced by pass  7 Test12= 2.14D-13 3.33D-08 XBig12= 2.84D-03 1.35D-02.
      3 vectors produced by pass  8 Test12= 2.14D-13 3.33D-08 XBig12= 2.25D-04 1.87D-03.
      3 vectors produced by pass  9 Test12= 2.14D-13 3.33D-08 XBig12= 1.28D-05 1.05D-03.
      3 vectors produced by pass 10 Test12= 2.14D-13 3.33D-08 XBig12= 3.58D-07 1.40D-04.
      3 vectors produced by pass 11 Test12= 2.14D-13 3.33D-08 XBig12= 1.00D-08 2.39D-05.
      2 vectors produced by pass 12 Test12= 2.14D-13 3.33D-08 XBig12= 3.16D-10 3.33D-06.
      2 vectors produced by pass 13 Test12= 2.14D-13 3.33D-08 XBig12= 8.59D-12 3.25D-07.
      1 vectors produced by pass 14 Test12= 2.14D-13 3.33D-08 XBig12= 2.07D-13 8.28D-08.
 InvSVY:  IOpt=1 It=  1 EMax= 4.23D-15
 Solved reduced A of dimension    41 with     3 vectors.
 End of Minotr F.D. properties file   721 does not exist.
 End of Minotr F.D. properties file   722 does not exist.
 End of Minotr F.D. properties file   788 does not exist.
 Leave Link 1002 at Fri Jun  2 11:49:19 2023, MaxMem=  7381975040 cpu:             192.3 elap:             102.8
 (Enter /software/commercial/gaussian/g16/AVX/g16/l1101.exe)
 Using compressed storage, NAtomX=    14.
 Will process     15 centers per pass.
 R6Disp: Adding Grimme-D3(BJ) dispersion energy 1st derivatives to the gradient.
 Leave Link 1101 at Fri Jun  2 11:49:22 2023, MaxMem=  7381975040 cpu:               0.4 elap:               1.5
 (Enter /software/commercial/gaussian/g16/AVX/g16/l1102.exe)
 Symmetrizing basis deriv contribution to polar:
 IMax=3 JMax=2 DiffMx= 0.00D+00
 Leave Link 1102 at Fri Jun  2 11:49:24 2023, MaxMem=  7381975040 cpu:               0.1 elap:               1.4
 (Enter /software/commercial/gaussian/g16/AVX/g16/l1110.exe)
 Forming Gx(P) for the SCF density, NAtomX=    14.
 Integral derivatives from FoFJK, PRISM(SPDF).
 Do as many integral derivatives as possible in FoFJK.
 G2DrvN: MDV=    7381973462.
 G2DrvN: will do    15 centers at a time, making    1 passes.
 PxScal for G2LodP:  IOpCl= 0 ISclPx=1 IMOff=     1 NMtTot=     4 NTT=   26106 ScalPx= 1.32D+01
 Calling FoFCou, ICntrl=  3107 FMM=F I1Cent=   0 AccDes= 0.00D+00.
 FoFJK:  IHMeth= 1 ICntrl=    3107 DoSepK=F KAlg= 0 I1Cent=           0 FoldK=F
 IRaf=         0 NMat=       1 IRICut=       1 DoRegI=T DoRafI=F ISym2E= 0 IDoP0=0 IntGTp=1.
 FoFCou: FMM=F IPFlag=           0 FMFlag=      100000 FMFlg1=           0
         NFxFlg=           0 DoJE=F BraDBF=F KetDBF=F FulRan=T
         wScrn=  0.000000 ICntrl=      3107 IOpCl=  0 I1Cent=           0 NGrid=           0
         NMat0=    1 NMatS0=      1 NMatT0=    0 NMatD0=    4 NMtDS0=    3 NMtDT0=    0
 Symmetry not used in FoFCou.
 PxScal for G2LodP:  IOpCl= 0 ISclPx=0 IMOff=     1 NMtTot=     4 NTT=   26106 ScalPx= 1.00D+00
 NEqPCM:  Using equilibrium solvation (IEInf=0, Eps=  24.8520, EpsInf=   1.8526)
 G2PCM: DoFxE=T DoFxN=T DoGrad=T DoDP/DQ/DG/TGxP=TFFF NFrqRd=   0 IEInf=0 SqF1=F DoCFld=F IF1Alg=4.
 GePol: Maximum number of non-zero 1st derivatives   =     208
 End of G2Drv F.D. properties file   721 does not exist.
 End of G2Drv F.D. properties file   722 does not exist.
 End of G2Drv F.D. properties file   788 does not exist.
 Leave Link 1110 at Fri Jun  2 11:53:33 2023, MaxMem=  7381975040 cpu:             483.6 elap:             247.2
 (Enter /software/commercial/gaussian/g16/AVX/g16/l1002.exe)
 Minotr:  Closed shell wavefunction.
          IDoAtm=11111111111111
 NEqPCM:  Using equilibrium solvation (IEInf=0, Eps=  24.8520, EpsInf=   1.8526)
          Direct CPHF calculation.
          Differentiating once with respect to electric field.
                with respect to dipole field.
          Differentiating once with respect to nuclear coordinates.
          Requested convergence is 1.0D-08 RMS, and 1.0D-07 maximum.
          Secondary convergence is 1.0D-12 RMS, and 1.0D-12 maximum.
          NewPWx=T KeepS1=F KeepF1=F KeepIn=T MapXYZ=F SortEE=F KeepMc=T.
         4299 words used for storage of precomputed grid.
 Keep R1 ints in memory in canonical form, NReq=347522618.
 FoFCou: FMM=F IPFlag=           0 FMFlag=           0 FMFlg1=           0
         NFxFlg=           0 DoJE=F BraDBF=F KetDBF=F FulRan=T
         wScrn=  0.000000 ICntrl=       600 IOpCl=  0 I1Cent=           0 NGrid=           0
         NMat0=    1 NMatS0=  26106 NMatT0=    0 NMatD0=    1 NMtDS0=    0 NMtDT0=    0
 Symmetry not used in FoFCou.
 Two-electron integral symmetry not used.
          MDV=    7381975040 using IRadAn=       1.
          Solving linear equations simultaneously, MaxMat=       0.
          There are    45 degrees of freedom in the 1st order CPHF.  IDoFFX=5 NUNeed=    45.
 Will reuse    3 saved solutions.
     39 vectors produced by pass  0 Test12= 1.43D-14 2.22D-09 XBig12= 1.71D-01 1.48D-01.
 AX will form    39 AO Fock derivatives at one time.
     39 vectors produced by pass  1 Test12= 1.43D-14 2.22D-09 XBig12= 2.13D-02 6.64D-02.
     39 vectors produced by pass  2 Test12= 1.43D-14 2.22D-09 XBig12= 3.25D-04 3.58D-03.
     39 vectors produced by pass  3 Test12= 1.43D-14 2.22D-09 XBig12= 3.02D-06 3.60D-04.
     39 vectors produced by pass  4 Test12= 1.43D-14 2.22D-09 XBig12= 9.94D-09 1.41D-05.
     39 vectors produced by pass  5 Test12= 1.43D-14 2.22D-09 XBig12= 1.78D-11 6.39D-07.
     19 vectors produced by pass  6 Test12= 1.43D-14 2.22D-09 XBig12= 2.90D-14 3.00D-08.
 InvSVY:  IOpt=1 It=  1 EMax= 2.11D-15
 Solved reduced A of dimension   253 with    39 vectors.
 FullF1:  Do perturbations      1 to       3.
 Isotropic polarizability for W=    0.000000      108.22 Bohr**3.
 FullF1:  Do perturbations      1 to       6.
 End of Minotr F.D. properties file   721 does not exist.
 End of Minotr F.D. properties file   722 does not exist.
 End of Minotr F.D. properties file   788 does not exist.
 Leave Link 1002 at Fri Jun  2 11:58:51 2023, MaxMem=  7381975040 cpu:             606.5 elap:             316.6
 (Enter /software/commercial/gaussian/g16/AVX/g16/l601.exe)
 Copying SCF densities to generalized density rwf, IOpCl= 0 IROHF=0.

 **********************************************************************

            Population analysis using the SCF Density.

 **********************************************************************

 Alpha  occ. eigenvalues --  -19.06742 -19.06730 -14.35221 -14.28891 -10.28895
 Alpha  occ. eigenvalues --  -10.22437 -10.18445 -10.17617 -10.16136  -1.05258
 Alpha  occ. eigenvalues --   -0.99390  -0.95726  -0.85658  -0.76537  -0.68596
 Alpha  occ. eigenvalues --   -0.61407  -0.58467  -0.52335  -0.47086  -0.45627
 Alpha  occ. eigenvalues --   -0.43673  -0.42773  -0.41461  -0.40591  -0.39146
 Alpha  occ. eigenvalues --   -0.37701  -0.37621  -0.29051  -0.27384  -0.26272
 Alpha  occ. eigenvalues --   -0.26183  -0.24231  -0.22238
 Alpha virt. eigenvalues --    0.00432   0.01123   0.02735   0.03443   0.04578
 Alpha virt. eigenvalues --    0.05148   0.05387   0.05664   0.06531   0.07736
 Alpha virt. eigenvalues --    0.08529   0.08867   0.09147   0.09997   0.10489
 Alpha virt. eigenvalues --    0.11159   0.12771   0.14208   0.14724   0.14802
 Alpha virt. eigenvalues --    0.16236   0.16951   0.17767   0.19163   0.19958
 Alpha virt. eigenvalues --    0.21443   0.21699   0.22604   0.22937   0.23427
 Alpha virt. eigenvalues --    0.24712   0.24879   0.25077   0.25646   0.26320
 Alpha virt. eigenvalues --    0.26437   0.27242   0.29303   0.29356   0.29735
 Alpha virt. eigenvalues --    0.30959   0.31614   0.32842   0.33312   0.33902
 Alpha virt. eigenvalues --    0.36274   0.38363   0.40247   0.42773   0.44129
 Alpha virt. eigenvalues --    0.44287   0.46787   0.48432   0.52413   0.53989
 Alpha virt. eigenvalues --    0.57341   0.59052   0.59094   0.60457   0.62308
 Alpha virt. eigenvalues --    0.62848   0.65658   0.67689   0.68039   0.68917
 Alpha virt. eigenvalues --    0.71395   0.73096   0.74708   0.76463   0.78709
 Alpha virt. eigenvalues --    0.80187   0.82103   0.85784   0.87343   0.87587
 Alpha virt. eigenvalues --    0.88782   0.89067   0.93822   0.95306   0.99878
 Alpha virt. eigenvalues --    1.01870   1.03785   1.06271   1.08569   1.10479
 Alpha virt. eigenvalues --    1.14576   1.15472   1.17856   1.18385   1.18565
 Alpha virt. eigenvalues --    1.19618   1.22637   1.23917   1.26620   1.30616
 Alpha virt. eigenvalues --    1.33089   1.34248   1.40407   1.43007   1.45467
 Alpha virt. eigenvalues --    1.46872   1.51241   1.53914   1.55052   1.59358
 Alpha virt. eigenvalues --    1.60558   1.63500   1.65840   1.68702   1.70728
 Alpha virt. eigenvalues --    1.73420   1.74975   1.75670   1.76885   1.79285
 Alpha virt. eigenvalues --    1.83579   1.87891   1.89660   1.96840   1.99099
 Alpha virt. eigenvalues --    2.01044   2.06788   2.07622   2.08280   2.14800
 Alpha virt. eigenvalues --    2.17476   2.19238   2.26366   2.34670   2.37666
 Alpha virt. eigenvalues --    2.39457   2.46117   2.48126   2.51650   2.52018
 Alpha virt. eigenvalues --    2.56644   2.59254   2.61994   2.64480   2.65346
 Alpha virt. eigenvalues --    2.65507   2.72101   2.72799   2.75137   2.79751
 Alpha virt. eigenvalues --    2.80754   2.81259   2.85860   2.87640   2.91239
 Alpha virt. eigenvalues --    2.93165   2.93678   2.97807   2.99250   3.01417
 Alpha virt. eigenvalues --    3.08701   3.18850   3.27966   3.30758   3.30876
 Alpha virt. eigenvalues --    3.40682   3.43790   3.44606   3.53208   3.64026
 Alpha virt. eigenvalues --    3.65759   3.69685   3.74122   3.78796   3.88045
 Alpha virt. eigenvalues --    3.89379   3.90341   3.94348   4.09160   4.11909
 Alpha virt. eigenvalues --    4.13219   4.53293   4.78982   4.90468   5.04903
 Alpha virt. eigenvalues --    5.07972   5.17795   5.23835   5.27487   5.69868
 Alpha virt. eigenvalues --    5.91516  23.80666  23.87037  23.87892  23.98198
 Alpha virt. eigenvalues --   24.19371  35.50507  35.68258  49.96376  50.07434
     Molecular Orbital Coefficients:
                           1         2         3         4         5
                           O         O         O         O         O
     Eigenvalues --   -19.06742 -19.06730 -14.35221 -14.28891 -10.28895
   1 1   N  1S         -0.00000  -0.00000  -0.00011   0.55737   0.00000
   2        2S          0.00002   0.00000  -0.00001   0.46576   0.00002
   3        2PX         0.00000   0.00000   0.00003   0.00136   0.00001
   4        2PY        -0.00001  -0.00001  -0.00007   0.00005  -0.00001
   5        2PZ        -0.00000  -0.00000  -0.00000   0.00007   0.00000
   6        3S         -0.00020  -0.00000  -0.00044   0.01639  -0.00015
   7        3PX        -0.00003  -0.00001  -0.00030   0.00099  -0.00004
   8        3PY         0.00007   0.00005   0.00044  -0.00057   0.00005
   9        3PZ         0.00000   0.00000   0.00000   0.00003  -0.00000
  10        4S          0.00172  -0.00039   0.00055  -0.01990   0.00127
  11        4PX         0.00062  -0.00041  -0.00047  -0.00460   0.00051
  12        4PY        -0.00055  -0.00050  -0.00088   0.00136  -0.00047
  13        4PZ         0.00001  -0.00005  -0.00007  -0.00017   0.00001
  14        5S          0.00105  -0.00157   0.00048   0.00724   0.00165
  15        5PX        -0.00033  -0.00119  -0.00025   0.00116   0.00045
  16        5PY         0.00070  -0.00076  -0.00259  -0.00099  -0.00011
  17        5PZ         0.00003  -0.00009  -0.00014   0.00000   0.00002
  18        6D 0       -0.00001  -0.00000   0.00004  -0.00032   0.00001
  19        6D+1        0.00000  -0.00000   0.00000   0.00001   0.00000
  20        6D-1        0.00000   0.00000   0.00000   0.00003  -0.00000
  21        6D+2       -0.00000  -0.00002  -0.00001  -0.00029   0.00000
  22        6D-2        0.00000  -0.00001   0.00014  -0.00018   0.00001
  23 2   N  1S         -0.00000  -0.00000   0.55736   0.00010  -0.00002
  24        2S          0.00002   0.00002   0.46571   0.00016  -0.00007
  25        2PX         0.00007   0.00012  -0.00005  -0.00009   0.00012
  26        2PY        -0.00007  -0.00006   0.00005  -0.00002  -0.00007
  27        2PZ         0.00000   0.00000   0.00000  -0.00001   0.00000
  28        3S          0.00001  -0.00004   0.01642  -0.00038   0.00035
  29        3PX        -0.00022  -0.00052  -0.00067   0.00049   0.00011
  30        3PY         0.00038   0.00016   0.00050   0.00010  -0.00014
  31        3PZ         0.00000  -0.00002  -0.00001   0.00003  -0.00000
  32        4S         -0.00104  -0.00088  -0.01924  -0.00022   0.00174
  33        4PX        -0.00224   0.00238   0.00202   0.00142  -0.00207
  34        4PY        -0.00300   0.00244  -0.00154  -0.00114   0.00115
  35        4PZ        -0.00021   0.00020   0.00003   0.00001  -0.00005
  36        5S         -0.00537  -0.00413  -0.00062  -0.00528   0.00544
  37        5PX        -0.00665   0.00185   0.00061   0.00682   0.00130
  38        5PY        -0.00637   0.00703  -0.00259  -0.00740  -0.00671
  39        5PZ        -0.00059   0.00038  -0.00010   0.00002  -0.00022
  40        6D 0        0.00004   0.00004  -0.00037   0.00005   0.00015
  41        6D+1        0.00000  -0.00000   0.00004  -0.00002  -0.00001
  42        6D-1        0.00000   0.00001   0.00003  -0.00000   0.00001
  43        6D+2       -0.00006  -0.00006   0.00001  -0.00017  -0.00009
  44        6D-2        0.00014   0.00021   0.00004  -0.00014   0.00027
  45 3   C  1S         -0.00000  -0.00000   0.00000  -0.00000  -0.00002
  46        2S          0.00002   0.00001   0.00005   0.00010  -0.00001
  47        2PX         0.00009   0.00001   0.00047  -0.00035   0.00005
  48        2PY        -0.00001  -0.00002   0.00013   0.00044  -0.00001
  49        2PZ         0.00000  -0.00000   0.00003   0.00000   0.00000
  50        3S         -0.00007  -0.00004   0.00016   0.00008  -0.00004
  51        3PX        -0.00048   0.00008  -0.00121   0.00107  -0.00033
  52        3PY         0.00003   0.00005  -0.00045  -0.00140   0.00006
  53        3PZ        -0.00002   0.00000  -0.00008  -0.00001  -0.00001
  54        4S         -0.00428   0.00298   0.00244   0.00728  -0.00312
  55        4PX         0.00006   0.00252   0.00638  -0.00209  -0.00059
  56        4PY        -0.00132   0.00111   0.00504   0.00965  -0.00264
  57        4PZ        -0.00008   0.00020   0.00057   0.00034  -0.00017
  58        5S         -0.01645   0.02119  -0.01734  -0.01498  -0.03381
  59        5PX        -0.00005   0.00466   0.00333   0.00556   0.00488
  60        5PY         0.00781  -0.00496   0.00945   0.00905   0.02022
  61        5PZ         0.00031   0.00002   0.00064   0.00074   0.00119
  62        6D 0        0.00004  -0.00002   0.00013   0.00019   0.00002
  63        6D+1       -0.00001   0.00001  -0.00007   0.00006  -0.00001
  64        6D-1        0.00000   0.00000   0.00000   0.00003   0.00000
  65        6D+2       -0.00011   0.00003  -0.00077   0.00034  -0.00008
  66        6D-2        0.00006   0.00003  -0.00049   0.00117  -0.00003
  67 4   C  1S          0.00000   0.00000  -0.00000  -0.00001  -0.00000
  68        2S         -0.00000   0.00000   0.00002   0.00005  -0.00000
  69        2PX        -0.00001   0.00005   0.00010  -0.00002   0.00003
  70        2PY        -0.00000   0.00002   0.00004   0.00010   0.00002
  71        2PZ        -0.00000   0.00001   0.00001   0.00000   0.00000
  72        3S          0.00003  -0.00010  -0.00024  -0.00031  -0.00001
  73        3PX         0.00004  -0.00010  -0.00037   0.00001  -0.00011
  74        3PY         0.00002  -0.00020  -0.00031  -0.00054  -0.00014
  75        3PZ         0.00000  -0.00003  -0.00004  -0.00002  -0.00001
  76        4S         -0.00013   0.00170   0.00509   0.00465  -0.00048
  77        4PX        -0.00093   0.00055  -0.00023   0.00220  -0.00062
  78        4PY        -0.00012   0.00055   0.00204   0.00097  -0.00064
  79        4PZ        -0.00003   0.00006   0.00009   0.00016  -0.00006
  80        5S          0.01532  -0.01248   0.01948   0.02046   0.04552
  81        5PX         0.00144  -0.00226   0.00201   0.00133   0.00564
  82        5PY         0.00287  -0.00230   0.00361   0.00425   0.00874
  83        5PZ         0.00025  -0.00024   0.00027   0.00026   0.00073
  84        6D 0       -0.00001   0.00009   0.00007   0.00006   0.00005
  85        6D+1        0.00000  -0.00002  -0.00002   0.00002  -0.00001
  86        6D-1       -0.00000  -0.00000  -0.00002  -0.00002  -0.00001
  87        6D+2        0.00005  -0.00011  -0.00000   0.00037  -0.00001
  88        6D-2       -0.00003  -0.00008  -0.00036  -0.00001  -0.00008
  89 5   C  1S         -0.00000  -0.00000  -0.00001   0.00001  -0.00001
  90        2S          0.00001   0.00000   0.00002   0.00001   0.00002
  91        2PX         0.00002   0.00000   0.00012  -0.00028  -0.00000
  92        2PY        -0.00002   0.00000   0.00002  -0.00027  -0.00002
  93        2PZ        -0.00000   0.00000   0.00001  -0.00003  -0.00000
  94        3S         -0.00006  -0.00000  -0.00001   0.00026  -0.00023
  95        3PX        -0.00011  -0.00007  -0.00105   0.00073  -0.00001
  96        3PY         0.00013   0.00001   0.00036   0.00049   0.00010
  97        3PZ         0.00000  -0.00000  -0.00004   0.00006   0.00001
  98        4S         -0.00043   0.00177  -0.00305   0.00769   0.00281
  99        4PX        -0.00000  -0.00014  -0.00230   0.00046   0.00130
 100        4PY         0.00059  -0.00019   0.00424  -0.00497  -0.00131
 101        4PZ         0.00003  -0.00002   0.00008  -0.00021  -0.00000
 102        5S         -0.02141  -0.00029  -0.00316  -0.01622  -0.01279
 103        5PX        -0.00258  -0.00131  -0.00116  -0.00232  -0.00107
 104        5PY         0.00380  -0.00086   0.00013   0.00167   0.00208
 105        5PZ         0.00003  -0.00012  -0.00005  -0.00004   0.00003
 106        6D 0       -0.00001  -0.00000  -0.00004  -0.00002   0.00001
 107        6D+1       -0.00000  -0.00000  -0.00002  -0.00003  -0.00000
 108        6D-1        0.00000   0.00000   0.00003  -0.00006  -0.00000
 109        6D+2       -0.00003  -0.00006  -0.00057   0.00030  -0.00000
 110        6D-2       -0.00001   0.00004   0.00004  -0.00090  -0.00001
 111 6   C  1S         -0.00000  -0.00000   0.00001  -0.00001  -0.00002
 112        2S          0.00001   0.00001   0.00002   0.00005   0.00000
 113        2PX         0.00004   0.00005   0.00004  -0.00008  -0.00001
 114        2PY         0.00001  -0.00008  -0.00045   0.00007  -0.00002
 115        2PZ         0.00000  -0.00000  -0.00002  -0.00000  -0.00000
 116        3S         -0.00010  -0.00001   0.00024  -0.00029  -0.00018
 117        3PX        -0.00007  -0.00025  -0.00030   0.00101   0.00007
 118        3PY        -0.00013   0.00045   0.00116  -0.00027   0.00026
 119        3PZ        -0.00001   0.00001   0.00004   0.00004   0.00001
 120        4S          0.00498  -0.00283   0.00886  -0.00101  -0.00125
 121        4PX         0.00036   0.00119  -0.00302   0.00342   0.00274
 122        4PY        -0.00203   0.00077  -0.00402   0.00137   0.00054
 123        4PZ        -0.00010   0.00011  -0.00034   0.00023   0.00017
 124        5S          0.02576  -0.00520  -0.00006   0.01530   0.00830
 125        5PX        -0.00461  -0.00039  -0.00121  -0.00372  -0.00046
 126        5PY        -0.00308   0.00335   0.00140   0.00045  -0.00023
 127        5PZ        -0.00036   0.00016  -0.00000  -0.00017  -0.00002
 128        6D 0       -0.00007   0.00000   0.00001  -0.00006  -0.00008
 129        6D+1        0.00001   0.00001   0.00004   0.00002   0.00001
 130        6D-1        0.00001  -0.00001  -0.00006   0.00004   0.00000
 131        6D+2        0.00001   0.00013   0.00107  -0.00021   0.00013
 132        6D-2        0.00002   0.00006  -0.00022   0.00044   0.00001
 133 7   H  1S         -0.00002   0.00009   0.00004   0.00001   0.00000
 134        2S          0.00012  -0.00063  -0.00048  -0.00046   0.00004
 135        3S         -0.00067   0.00049  -0.00002  -0.00042  -0.00205
 136        4PX         0.00001  -0.00004   0.00005  -0.00003  -0.00005
 137        4PY        -0.00003  -0.00007  -0.00010   0.00005  -0.00009
 138        4PZ         0.00002  -0.00015  -0.00010  -0.00016  -0.00009
 139 8   H  1S         -0.00002   0.00009   0.00004   0.00001  -0.00000
 140        2S          0.00012  -0.00061  -0.00048  -0.00047   0.00004
 141        3S         -0.00073   0.00048   0.00002  -0.00037  -0.00206
 142        4PX         0.00001  -0.00006   0.00004  -0.00004  -0.00006
 143        4PY        -0.00003  -0.00008  -0.00011   0.00004  -0.00009
 144        4PZ        -0.00002   0.00012   0.00009   0.00016   0.00007
 145 9   H  1S          0.00001   0.00001  -0.00004  -0.00008   0.00003
 146        2S         -0.00026   0.00001  -0.00050   0.00009  -0.00020
 147        3S         -0.00052   0.00033  -0.00045   0.00004  -0.00059
 148        4PX        -0.00004   0.00003  -0.00011  -0.00009  -0.00004
 149        4PY         0.00003   0.00003   0.00008  -0.00004   0.00001
 150        4PZ        -0.00000   0.00000   0.00000  -0.00001  -0.00000
 151 10  H  1S          0.00001   0.00003   0.00006  -0.00016  -0.00001
 152        2S         -0.00022  -0.00030  -0.00180   0.00008   0.00006
 153        3S          0.00016   0.00028  -0.00079   0.00168   0.00085
 154        4PX        -0.00001  -0.00002  -0.00013   0.00017  -0.00004
 155        4PY         0.00004   0.00005   0.00036   0.00034  -0.00000
 156        4PZ         0.00000   0.00000   0.00001   0.00002  -0.00000
 157 11  H  1S          0.00006   0.00000  -0.00011   0.00007   0.00005
 158        2S         -0.00059  -0.00019  -0.00038  -0.00162  -0.00090
 159        3S          0.00101  -0.00143   0.00229  -0.00077  -0.00123
 160        4PX        -0.00002   0.00003   0.00013   0.00034   0.00008
 161        4PY         0.00016   0.00006   0.00042   0.00015   0.00021
 162        4PZ         0.00001   0.00000   0.00003   0.00002   0.00001
 163 12  C  1S         -0.00002  -0.00002   0.00001  -0.00000   0.56309
 164        2S          0.00007   0.00010  -0.00002   0.00002   0.46333
 165        2PX         0.00034  -0.00001  -0.00026  -0.00007  -0.00054
 166        2PY         0.00020  -0.00034   0.00020   0.00003   0.00040
 167        2PZ         0.00002  -0.00001  -0.00000  -0.00000  -0.00001
 168        3S          0.00029   0.00024   0.00010  -0.00010   0.01816
 169        3PX        -0.00070   0.00004   0.00048   0.00031   0.00130
 170        3PY        -0.00035   0.00070  -0.00038  -0.00016  -0.00098
 171        3PZ        -0.00004   0.00002   0.00001   0.00001   0.00003
 172        4S          0.00216   0.00314   0.00217  -0.00230  -0.01156
 173        4PX         0.00652  -0.00390  -0.00161  -0.00142   0.00155
 174        4PY         0.00795  -0.00753   0.00215  -0.00186   0.00089
 175        4PZ         0.00053  -0.00040   0.00001  -0.00012   0.00009
 176        5S         -0.00309  -0.00325  -0.00001  -0.00584  -0.01158
 177        5PX        -0.00003   0.00129   0.00027   0.00126   0.00355
 178        5PY        -0.00130   0.00077   0.00088  -0.00091  -0.00129
 179        5PZ        -0.00004   0.00008   0.00006   0.00002   0.00012
 180        6D 0        0.00016   0.00020  -0.00006   0.00002  -0.00154
 181        6D+1       -0.00005   0.00001   0.00001  -0.00000   0.00013
 182        6D-1       -0.00003  -0.00005   0.00003   0.00001   0.00016
 183        6D+2       -0.00041   0.00074  -0.00015  -0.00010  -0.00057
 184        6D-2       -0.00075  -0.00043   0.00053   0.00008   0.00160
 185 13  O  1S         -0.05760   0.54829   0.00000   0.00000  -0.00007
 186        2S         -0.04902   0.46714   0.00003   0.00000  -0.00004
 187        2PX         0.00002   0.00023   0.00001  -0.00000   0.00006
 188        2PY        -0.00007   0.00108   0.00006   0.00001   0.00049
 189        2PZ        -0.00000   0.00004   0.00000   0.00000   0.00002
 190        3S         -0.00190   0.01388  -0.00013   0.00002   0.00033
 191        3PX        -0.00013  -0.00000  -0.00005  -0.00000  -0.00018
 192        3PY        -0.00026   0.00060  -0.00029  -0.00005  -0.00151
 193        3PZ        -0.00001   0.00001  -0.00001  -0.00000  -0.00005
 194        4S          0.00425  -0.01226  -0.00009  -0.00055  -0.00313
 195        4PX        -0.00056   0.00006   0.00042   0.00008  -0.00020
 196        4PY         0.00134  -0.00236  -0.00005  -0.00021  -0.00146
 197        4PZ         0.00001  -0.00006   0.00001  -0.00000  -0.00006
 198        5S          0.00331   0.00290   0.00051  -0.00275   0.00596
 199        5PX        -0.00008  -0.00106   0.00049   0.00077   0.00009
 200        5PY         0.00125  -0.00026  -0.00003  -0.00080   0.00304
 201        5PZ         0.00004  -0.00006   0.00002   0.00003   0.00012
 202        6D 0        0.00003  -0.00012   0.00002  -0.00000   0.00053
 203        6D+1       -0.00001   0.00000   0.00000   0.00000  -0.00001
 204        6D-1       -0.00001   0.00001  -0.00000  -0.00000  -0.00006
 205        6D+2       -0.00002  -0.00019   0.00011   0.00002   0.00082
 206        6D-2       -0.00022   0.00008   0.00004  -0.00000  -0.00019
 207 14  O  1S          0.54830   0.05760   0.00000   0.00000  -0.00007
 208        2S          0.46713   0.04912   0.00002   0.00002  -0.00005
 209        2PX        -0.00093  -0.00012  -0.00004  -0.00001  -0.00043
 210        2PY        -0.00054  -0.00011  -0.00002  -0.00002  -0.00023
 211        2PZ        -0.00005  -0.00001  -0.00000  -0.00000  -0.00002
 212        3S          0.01396   0.00103  -0.00010  -0.00018   0.00044
 213        3PX        -0.00059   0.00009   0.00023   0.00007   0.00131
 214        3PY        -0.00028   0.00017   0.00012   0.00010   0.00068
 215        3PZ        -0.00003   0.00001   0.00001   0.00001   0.00007
 216        4S         -0.01289   0.00155  -0.00060   0.00132  -0.00411
 217        4PX         0.00248  -0.00087   0.00044  -0.00049   0.00176
 218        4PY         0.00077   0.00030  -0.00025  -0.00043   0.00077
 219        4PZ         0.00012  -0.00003   0.00001  -0.00003   0.00010
 220        5S          0.00335   0.00391  -0.00054   0.00037   0.00412
 221        5PX        -0.00050  -0.00128   0.00023   0.00026  -0.00244
 222        5PY         0.00099  -0.00033  -0.00024   0.00017  -0.00026
 223        5PZ         0.00001  -0.00006  -0.00001   0.00002  -0.00012
 224        6D 0       -0.00013   0.00002   0.00002   0.00001   0.00053
 225        6D+1        0.00002   0.00000  -0.00001  -0.00000  -0.00008
 226        6D-1        0.00001  -0.00001  -0.00000   0.00000  -0.00004
 227        6D+2        0.00006   0.00017  -0.00011  -0.00000  -0.00052
 228        6D-2        0.00020  -0.00013  -0.00006   0.00001  -0.00066
                           6         7         8         9        10
                           O         O         O         O         O
     Eigenvalues --   -10.22437 -10.18445 -10.17617 -10.16136  -1.05258
   1 1   N  1S         -0.00008  -0.00000  -0.00005   0.00000  -0.01268
   2        2S         -0.00002   0.00003  -0.00006   0.00004  -0.01981
   3        2PX         0.00034   0.00000   0.00027  -0.00001   0.01117
   4        2PY        -0.00043   0.00011   0.00022  -0.00009  -0.00254
   5        2PZ        -0.00000   0.00000   0.00002  -0.00000   0.00046
   6        3S          0.00074   0.00002   0.00074  -0.00023   0.05333
   7        3PX        -0.00107  -0.00013  -0.00052  -0.00002   0.01707
   8        3PY         0.00140  -0.00050  -0.00018   0.00044  -0.00412
   9        3PZ         0.00001  -0.00003  -0.00003   0.00002   0.00069
  10        4S         -0.00684  -0.00297  -0.00190   0.00074   0.03066
  11        4PX        -0.00244  -0.00168  -0.00101   0.00021   0.00752
  12        4PY         0.00103  -0.00012  -0.00171  -0.00044   0.00226
  13        4PZ        -0.00008  -0.00009  -0.00013  -0.00000   0.00050
  14        5S          0.00625  -0.00702   0.00460   0.00075  -0.00869
  15        5PX         0.00264  -0.00130   0.00292   0.00199   0.00021
  16        5PY        -0.00385   0.00258   0.00314   0.00229   0.00588
  17        5PZ        -0.00004   0.00006   0.00030   0.00020   0.00021
  18        6D 0        0.00080   0.00010   0.00053   0.00005  -0.00209
  19        6D+1       -0.00002  -0.00002  -0.00008   0.00001   0.00019
  20        6D-1       -0.00002  -0.00003  -0.00007  -0.00000   0.00008
  21        6D+2        0.00020   0.00011  -0.00006   0.00012   0.00093
  22        6D-2        0.00100  -0.00031  -0.00057   0.00011  -0.00090
  23 2   N  1S         -0.00005  -0.00005   0.00000   0.00000  -0.04314
  24        2S         -0.00004  -0.00007   0.00001   0.00003  -0.06775
  25        2PX        -0.00038  -0.00007   0.00007  -0.00006   0.00387
  26        2PY        -0.00010   0.00033   0.00005  -0.00005  -0.00290
  27        2PZ        -0.00002   0.00001   0.00001  -0.00001   0.00010
  28        3S          0.00070   0.00080   0.00016  -0.00014   0.18473
  29        3PX         0.00070   0.00034  -0.00024   0.00028   0.01071
  30        3PY         0.00030  -0.00038  -0.00035   0.00018  -0.00796
  31        3PZ         0.00005  -0.00000  -0.00003   0.00002   0.00025
  32        4S         -0.00288  -0.00242  -0.00381   0.00073   0.13077
  33        4PX         0.00401  -0.00048   0.00087  -0.00076  -0.00264
  34        4PY        -0.00222  -0.00197  -0.00053  -0.00012   0.00048
  35        4PZ         0.00009  -0.00011   0.00002  -0.00005  -0.00009
  36        5S          0.00909   0.01418  -0.00038   0.00165  -0.02088
  37        5PX        -0.00802  -0.00471  -0.00416  -0.00228   0.01156
  38        5PY        -0.00973   0.01479   0.00605  -0.00170   0.00116
  39        5PZ        -0.00080   0.00040   0.00004  -0.00018   0.00065
  40        6D 0        0.00057   0.00050   0.00005   0.00003  -0.00650
  41        6D+1       -0.00010  -0.00001   0.00000  -0.00001   0.00049
  42        6D-1       -0.00003  -0.00006  -0.00002  -0.00001   0.00021
  43        6D+2       -0.00064   0.00052   0.00026  -0.00005   0.00177
  44        6D-2       -0.00034   0.00013  -0.00018  -0.00016  -0.00429
  45 3   C  1S          0.56295   0.00003  -0.00000  -0.00126  -0.01943
  46        2S          0.46330   0.00002  -0.00002  -0.00104  -0.02977
  47        2PX         0.00046  -0.00001  -0.00000  -0.00020   0.01267
  48        2PY         0.00007  -0.00007  -0.00002  -0.00056   0.01018
  49        2PZ         0.00002  -0.00000  -0.00000  -0.00004   0.00111
  50        3S          0.01881  -0.00010   0.00009   0.00040   0.07628
  51        3PX        -0.00028   0.00003  -0.00003   0.00050   0.02092
  52        3PY         0.00110   0.00011   0.00001   0.00149   0.01518
  53        3PZ         0.00004   0.00000  -0.00000   0.00010   0.00176
  54        4S         -0.01202  -0.00044  -0.00138   0.00061   0.02902
  55        4PX        -0.00018   0.00108   0.00358  -0.00193  -0.01226
  56        4PY         0.00597   0.00575   0.00536  -0.00478  -0.01022
  57        4PZ         0.00027   0.00033   0.00044  -0.00033  -0.00110
  58        5S         -0.03298   0.02482   0.00777   0.04679   0.03306
  59        5PX        -0.00454  -0.00866  -0.00943  -0.01562  -0.00911
  60        5PY        -0.00246  -0.02025  -0.00969  -0.02839  -0.00568
  61        5PZ        -0.00035  -0.00140  -0.00094  -0.00216  -0.00067
  62        6D 0       -0.00147  -0.00017  -0.00012   0.00028  -0.00546
  63        6D+1        0.00010   0.00002   0.00000  -0.00003   0.00069
  64        6D-1        0.00013   0.00003   0.00002  -0.00008   0.00040
  65        6D+2       -0.00041  -0.00017  -0.00018   0.00056   0.00249
  66        6D-2       -0.00019   0.00027   0.00009  -0.00061   0.00160
  67 4   C  1S          0.00123  -0.00003  -0.00001   0.56295  -0.00339
  68        2S          0.00103  -0.00001   0.00000   0.46313  -0.00518
  69        2PX         0.00015  -0.00001   0.00001   0.00011   0.00195
  70        2PY         0.00055   0.00000  -0.00002   0.00035   0.00258
  71        2PZ         0.00003  -0.00000  -0.00000   0.00002   0.00023
  72        3S          0.00026  -0.00034  -0.00025   0.01973   0.01377
  73        3PX        -0.00032  -0.00001  -0.00003  -0.00043   0.00378
  74        3PY        -0.00174  -0.00007   0.00005  -0.00131   0.00448
  75        3PZ        -0.00011  -0.00000   0.00000  -0.00008   0.00045
  76        4S          0.00578   0.00556   0.00567  -0.01404  -0.01019
  77        4PX         0.00100   0.00119   0.00095  -0.00139   0.00144
  78        4PY         0.00145   0.00209   0.00225  -0.00232  -0.00433
  79        4PZ         0.00012   0.00016   0.00016  -0.00018  -0.00019
  80        5S          0.00799  -0.03760  -0.01997  -0.06907  -0.02620
  81        5PX         0.00132  -0.00268  -0.00106  -0.00504  -0.00109
  82        5PY         0.00148  -0.00752  -0.00407  -0.01388  -0.00501
  83        5PZ         0.00013  -0.00051  -0.00026  -0.00094  -0.00033
  84        6D 0        0.00079   0.00001   0.00003   0.00026  -0.00061
  85        6D+1       -0.00007   0.00000  -0.00001  -0.00002   0.00012
  86        6D-1       -0.00014  -0.00000  -0.00000  -0.00007   0.00010
  87        6D+2        0.00072   0.00005  -0.00006   0.00034  -0.00009
  88        6D-2       -0.00071   0.00001  -0.00004  -0.00047   0.00125
  89 5   C  1S          0.00000   0.02299   0.56244   0.00001  -0.00912
  90        2S         -0.00002   0.01918   0.46275   0.00002  -0.01395
  91        2PX        -0.00000   0.00077  -0.00052  -0.00001   0.00193
  92        2PY         0.00009  -0.00023  -0.00012   0.00001  -0.00901
  93        2PZ         0.00000   0.00003  -0.00003   0.00000  -0.00032
  94        3S          0.00010   0.00048   0.01991  -0.00012   0.03469
  95        3PX        -0.00011  -0.00377   0.00206  -0.00001   0.00383
  96        3PY        -0.00047   0.00117  -0.00009  -0.00001  -0.01346
  97        3PZ        -0.00003  -0.00014   0.00010  -0.00000  -0.00043
  98        4S          0.00078   0.00232  -0.01160   0.00015   0.01199
  99        4PX        -0.00006   0.00169  -0.00329   0.00010   0.00413
 100        4PY        -0.00098  -0.00099   0.00474  -0.00063  -0.00683
 101        4PZ        -0.00005   0.00004   0.00005  -0.00002  -0.00010
 102        5S         -0.01635   0.02673  -0.00691  -0.00346   0.06173
 103        5PX        -0.00688   0.00438   0.00026  -0.00101   0.01646
 104        5PY        -0.00060  -0.00481   0.00061   0.00033  -0.00251
 105        5PZ        -0.00038   0.00001   0.00004  -0.00002   0.00082
 106        6D 0       -0.00009   0.00084  -0.00196  -0.00003  -0.00269
 107        6D+1       -0.00000  -0.00009   0.00011  -0.00000   0.00016
 108        6D-1        0.00002   0.00008   0.00007   0.00000   0.00023
 109        6D+2       -0.00023  -0.00160   0.00013  -0.00004  -0.00101
 110        6D-2        0.00001   0.00143  -0.00154  -0.00004  -0.00067
 111 6   C  1S         -0.00003   0.56243  -0.02315   0.00003  -0.01610
 112        2S         -0.00004   0.46272  -0.01880   0.00004  -0.02463
 113        2PX         0.00011   0.00030  -0.00080   0.00001  -0.00405
 114        2PY         0.00006  -0.00074   0.00035  -0.00001  -0.01595
 115        2PZ         0.00001  -0.00002  -0.00002   0.00000  -0.00092
 116        3S         -0.00006   0.02044  -0.00093  -0.00026   0.06182
 117        3PX        -0.00044  -0.00129   0.00382   0.00003  -0.00431
 118        3PY        -0.00033   0.00105  -0.00154   0.00006  -0.02544
 119        3PZ        -0.00004  -0.00002   0.00012   0.00000  -0.00138
 120        4S          0.00275  -0.01472   0.00114   0.00094   0.01129
 121        4PX         0.00043   0.00532  -0.00231  -0.00027  -0.00259
 122        4PY        -0.00079   0.00188   0.00034  -0.00070   0.00332
 123        4PZ        -0.00002   0.00036  -0.00010  -0.00004   0.00003
 124        5S          0.03018  -0.02905   0.00637   0.01972  -0.05722
 125        5PX        -0.00741   0.00378  -0.00246  -0.00334   0.02111
 126        5PY         0.00099   0.00247  -0.00028  -0.00320  -0.01140
 127        5PZ        -0.00034   0.00031  -0.00013  -0.00032   0.00040
 128        6D 0       -0.00016  -0.00186   0.00110  -0.00007  -0.00450
 129        6D+1        0.00003   0.00027  -0.00015   0.00001   0.00019
 130        6D-1        0.00003   0.00010   0.00005   0.00000   0.00060
 131        6D+2       -0.00001   0.00164  -0.00192   0.00002  -0.00455
 132        6D-2        0.00026   0.00043   0.00105   0.00002   0.00063
 133 7   H  1S         -0.00011   0.00004   0.00005   0.00020   0.00155
 134        2S         -0.00118  -0.00051  -0.00057  -0.00298   0.00395
 135        3S         -0.00048   0.00063   0.00080   0.00492   0.00132
 136        4PX         0.00019   0.00003   0.00002   0.00078   0.00031
 137        4PY        -0.00013  -0.00001  -0.00003  -0.00082   0.00055
 138        4PZ        -0.00040  -0.00006  -0.00007  -0.00168   0.00075
 139 8   H  1S         -0.00011   0.00004   0.00005   0.00020   0.00159
 140        2S         -0.00118  -0.00052  -0.00058  -0.00300   0.00395
 141        3S         -0.00044   0.00063   0.00081   0.00492   0.00150
 142        4PX         0.00016   0.00002   0.00001   0.00063   0.00040
 143        4PY        -0.00016  -0.00002  -0.00004  -0.00100   0.00061
 144        4PZ         0.00040   0.00006   0.00006   0.00165  -0.00063
 145 9   H  1S         -0.00008   0.00005   0.00002   0.00023   0.00106
 146        2S         -0.00052  -0.00051  -0.00027  -0.00310   0.00273
 147        3S         -0.00080   0.00097   0.00040   0.00436   0.00140
 148        4PX        -0.00022  -0.00007  -0.00003  -0.00202   0.00050
 149        4PY         0.00014   0.00002   0.00004   0.00021  -0.00003
 150        4PZ        -0.00000  -0.00000   0.00000  -0.00008   0.00002
 151 10  H  1S         -0.00007  -0.00011   0.00018  -0.00004   0.00135
 152        2S          0.00030  -0.00067  -0.00488   0.00018   0.00398
 153        3S          0.00071   0.00029   0.00076  -0.00023  -0.00056
 154        4PX         0.00003  -0.00041  -0.00065   0.00002   0.00002
 155        4PY        -0.00004   0.00037   0.00241   0.00001  -0.00042
 156        4PZ         0.00000  -0.00000   0.00008   0.00000  -0.00002
 157 11  H  1S         -0.00001   0.00008  -0.00008  -0.00003   0.00500
 158        2S         -0.00021  -0.00487   0.00003   0.00008   0.00720
 159        3S          0.00071   0.00084   0.00033  -0.00000  -0.00071
 160        4PX         0.00003   0.00212   0.00030   0.00002  -0.00055
 161        4PY         0.00001   0.00141  -0.00020   0.00003  -0.00173
 162        4PZ         0.00000   0.00017   0.00001   0.00000  -0.00011
 163 12  C  1S          0.00002   0.00002   0.00001   0.00000  -0.07674
 164        2S          0.00003   0.00003   0.00003   0.00001  -0.11721
 165        2PX        -0.00008  -0.00004  -0.00001  -0.00004   0.02112
 166        2PY         0.00004   0.00001   0.00004  -0.00003  -0.01530
 167        2PZ        -0.00000  -0.00000  -0.00000  -0.00000   0.00045
 168        3S         -0.00006  -0.00028  -0.00036   0.00001   0.31518
 169        3PX         0.00042   0.00019   0.00007   0.00014   0.02245
 170        3PY        -0.00024  -0.00005  -0.00027   0.00016  -0.01602
 171        3PZ         0.00001   0.00001  -0.00000   0.00001   0.00050
 172        4S         -0.00384   0.00141   0.00124  -0.00014   0.07907
 173        4PX        -0.00075   0.00050  -0.00088   0.00047  -0.00389
 174        4PY        -0.00340   0.00180   0.00113   0.00046   0.00260
 175        4PZ        -0.00011   0.00005  -0.00002   0.00006  -0.00011
 176        5S          0.00417   0.01023   0.00905   0.00039   0.02222
 177        5PX        -0.00038  -0.00263  -0.00302   0.00011  -0.00437
 178        5PY         0.00155   0.00199   0.00073  -0.00013  -0.00288
 179        5PZ         0.00005  -0.00005  -0.00013   0.00001  -0.00032
 180        6D 0        0.00005  -0.00009  -0.00007   0.00002  -0.02015
 181        6D+1       -0.00000   0.00001   0.00000  -0.00000   0.00166
 182        6D-1        0.00001   0.00001   0.00001  -0.00000   0.00186
 183        6D+2       -0.00009  -0.00007  -0.00006   0.00000  -0.00601
 184        6D-2        0.00014   0.00005   0.00002   0.00001   0.01550
 185 13  O  1S          0.00000   0.00000   0.00000   0.00000  -0.06302
 186        2S          0.00001   0.00001   0.00000   0.00001  -0.10051
 187        2PX        -0.00001   0.00000   0.00002  -0.00004   0.00907
 188        2PY         0.00001   0.00002   0.00002   0.00000   0.04721
 189        2PZ        -0.00000   0.00000   0.00000  -0.00000   0.00174
 190        3S          0.00000  -0.00005   0.00001  -0.00006   0.28700
 191        3PX         0.00004  -0.00002  -0.00007   0.00014   0.01461
 192        3PY        -0.00004  -0.00010  -0.00008  -0.00002   0.06924
 193        3PZ         0.00000  -0.00001  -0.00001   0.00001   0.00261
 194        4S         -0.00050   0.00030  -0.00016   0.00030   0.19359
 195        4PX         0.00002  -0.00000   0.00023  -0.00016   0.00424
 196        4PY        -0.00036   0.00029  -0.00006   0.00033   0.02349
 197        4PZ        -0.00001   0.00001   0.00001   0.00000   0.00085
 198        5S         -0.00596   0.00464   0.00249   0.00027  -0.02009
 199        5PX         0.00100  -0.00042  -0.00033  -0.00028   0.00185
 200        5PY        -0.00212   0.00177   0.00142  -0.00054  -0.00353
 201        5PZ        -0.00001   0.00003   0.00004  -0.00007  -0.00004
 202        6D 0        0.00002   0.00001   0.00002  -0.00002  -0.00438
 203        6D+1       -0.00000  -0.00000  -0.00000   0.00000   0.00011
 204        6D-1       -0.00000  -0.00000  -0.00000   0.00000   0.00062
 205        6D+2        0.00001   0.00001   0.00003  -0.00003  -0.00794
 206        6D-2        0.00001  -0.00001  -0.00000  -0.00001   0.00422
 207 14  O  1S          0.00000   0.00000   0.00000  -0.00000  -0.06261
 208        2S          0.00002   0.00001   0.00001  -0.00000  -0.09987
 209        2PX        -0.00002  -0.00002  -0.00002  -0.00001  -0.04113
 210        2PY        -0.00001   0.00002   0.00001  -0.00000  -0.02416
 211        2PZ        -0.00000   0.00000  -0.00000  -0.00000  -0.00240
 212        3S         -0.00016  -0.00002  -0.00006   0.00004   0.28517
 213        3PX         0.00010   0.00007   0.00008   0.00004  -0.05985
 214        3PY         0.00006  -0.00005  -0.00003   0.00002  -0.03667
 215        3PZ         0.00001  -0.00000   0.00000   0.00000  -0.00354
 216        4S          0.00127  -0.00046   0.00001  -0.00043   0.19278
 217        4PX        -0.00073   0.00040  -0.00013   0.00007  -0.02110
 218        4PY        -0.00024   0.00007  -0.00004   0.00005  -0.01205
 219        4PZ        -0.00004   0.00002  -0.00000  -0.00000  -0.00120
 220        5S          0.00503  -0.00315   0.00035   0.00074  -0.02304
 221        5PX        -0.00219   0.00119   0.00018  -0.00046   0.00678
 222        5PY         0.00023  -0.00022   0.00013  -0.00003  -0.00063
 223        5PZ        -0.00008   0.00003   0.00002  -0.00002   0.00027
 224        6D 0        0.00002   0.00002  -0.00001   0.00000  -0.00439
 225        6D+1       -0.00000  -0.00000   0.00000  -0.00000   0.00069
 226        6D-1       -0.00000  -0.00000   0.00000  -0.00000   0.00047
 227        6D+2        0.00001  -0.00002  -0.00001  -0.00001   0.00340
 228        6D-2       -0.00000   0.00001   0.00001  -0.00001   0.00822
                          11        12        13        14        15
                           O         O         O         O         O
     Eigenvalues --    -0.99390  -0.95726  -0.85658  -0.76537  -0.68596
   1 1   N  1S         -0.05363   0.00153  -0.07883  -0.00085   0.03065
   2        2S         -0.08386   0.00235  -0.12389  -0.00129   0.04858
   3        2PX         0.04295  -0.00097   0.04224  -0.00926  -0.01487
   4        2PY        -0.00842   0.00081  -0.00359  -0.05211   0.02482
   5        2PZ         0.00182  -0.00001   0.00201  -0.00288   0.00034
   6        3S          0.22597  -0.00562   0.34063   0.00369  -0.13774
   7        3PX         0.06455  -0.00140   0.06310  -0.01428  -0.02235
   8        3PY        -0.01185   0.00123  -0.00258  -0.07790   0.03610
   9        3PZ         0.00277  -0.00002   0.00313  -0.00433   0.00045
  10        4S          0.14789  -0.01466   0.24318   0.00351  -0.10367
  11        4PX         0.02679  -0.00582   0.02495  -0.00580  -0.00719
  12        4PY        -0.00483   0.00072  -0.00429  -0.02742   0.01234
  13        4PZ         0.00115  -0.00028   0.00107  -0.00156   0.00020
  14        5S         -0.04218  -0.00995  -0.06337  -0.00963   0.02044
  15        5PX        -0.01613  -0.00140  -0.01538  -0.00157   0.00031
  16        5PY         0.00658  -0.00176   0.00195   0.01687  -0.01260
  17        5PZ        -0.00048  -0.00021  -0.00072   0.00072  -0.00055
  18        6D 0       -0.00777   0.00023  -0.00712   0.00064   0.00139
  19        6D+1        0.00068  -0.00001   0.00049  -0.00077   0.00018
  20        6D-1        0.00040  -0.00000   0.00071  -0.00040   0.00033
  21        6D+2        0.00192  -0.00002  -0.00300  -0.00423  -0.00086
  22        6D-2       -0.00249   0.00024   0.00020  -0.01070   0.00772
  23 2   N  1S         -0.06274  -0.00087   0.07563  -0.00601   0.02262
  24        2S         -0.09849  -0.00137   0.11944  -0.00952   0.03602
  25        2PX        -0.03525   0.00818  -0.01239  -0.02516   0.00932
  26        2PY         0.02226   0.00995  -0.00570  -0.05803   0.04806
  27        2PZ        -0.00078   0.00070  -0.00094  -0.00397   0.00261
  28        3S          0.26948   0.00370  -0.33488   0.02777  -0.10386
  29        3PX        -0.05307   0.01104  -0.01963  -0.03786   0.01284
  30        3PY         0.03351   0.01360  -0.00832  -0.08708   0.07306
  31        3PZ        -0.00118   0.00093  -0.00146  -0.00598   0.00389
  32        4S          0.18875   0.00329  -0.25585   0.01666  -0.09190
  33        4PX        -0.02213   0.02169  -0.02091  -0.01439   0.01007
  34        4PY         0.01540   0.02448   0.00655  -0.04829   0.04083
  35        4PZ        -0.00041   0.00190  -0.00082  -0.00294   0.00235
  36        5S         -0.07492   0.00518   0.06171   0.00745  -0.02426
  37        5PX         0.02061   0.02848  -0.01082   0.00198   0.03475
  38        5PY         0.00172   0.03728   0.00675   0.04537  -0.02751
  39        5PZ         0.00112   0.00291  -0.00028   0.00201   0.00051
  40        6D 0       -0.00823  -0.00016   0.00582   0.00037   0.00086
  41        6D+1        0.00078   0.00014  -0.00044   0.00063  -0.00047
  42        6D-1        0.00057  -0.00001  -0.00062  -0.00017   0.00049
  43        6D+2        0.00131   0.00269   0.00262   0.00867  -0.00967
  44        6D-2       -0.00057   0.00094  -0.00076   0.00492   0.00222
  45 3   C  1S         -0.05502   0.00372  -0.01733  -0.06172   0.01107
  46        2S         -0.08437   0.00571  -0.02660  -0.09581   0.01710
  47        2PX         0.01520  -0.00210  -0.06945  -0.00985  -0.01835
  48        2PY         0.04099   0.00074   0.03815  -0.03833  -0.06940
  49        2PZ         0.00262  -0.00009  -0.00182  -0.00240  -0.00424
  50        3S          0.21857  -0.01474   0.07090   0.26188  -0.05128
  51        3PX         0.02507  -0.00158  -0.09977  -0.01348  -0.02863
  52        3PY         0.06024   0.00129   0.05272  -0.05916  -0.10097
  53        3PZ         0.00398  -0.00006  -0.00272  -0.00362  -0.00628
  54        4S          0.08439   0.02238   0.01972   0.15788   0.01164
  55        4PX        -0.00049   0.00843  -0.01034  -0.00404  -0.00476
  56        4PY        -0.01522   0.01144   0.00069  -0.02184  -0.05628
  57        4PZ        -0.00076   0.00106  -0.00045  -0.00131  -0.00297
  58        5S          0.12872   0.14569  -0.02641  -0.07135  -0.21242
  59        5PX         0.02869   0.00395  -0.00688   0.01135   0.07567
  60        5PY         0.01957  -0.05304   0.03041   0.05037   0.14684
  61        5PZ         0.00224  -0.00207   0.00112   0.00301   0.01088
  62        6D 0       -0.01429   0.00078  -0.00297  -0.00783   0.00121
  63        6D+1        0.00133  -0.00007  -0.00140   0.00080  -0.00007
  64        6D-1        0.00137  -0.00004   0.00024   0.00055   0.00106
  65        6D+2       -0.00149  -0.00016  -0.01829   0.00227  -0.01038
  66        6D-2        0.00312   0.00020  -0.01612  -0.00044   0.01212
  67 4   C  1S         -0.00868   0.00219  -0.00555  -0.06960  -0.07590
  68        2S         -0.01322   0.00336  -0.00849  -0.10755  -0.11768
  69        2PX         0.00286  -0.00137  -0.00406   0.00886  -0.00270
  70        2PY         0.00855  -0.00067   0.00574   0.02404  -0.00712
  71        2PZ         0.00055  -0.00011   0.00006   0.00157  -0.00054
  72        3S          0.03434  -0.00873   0.02167   0.28240   0.31156
  73        3PX         0.00432  -0.00265  -0.00844   0.01668  -0.00214
  74        3PY         0.01191  -0.00169   0.00833   0.04412  -0.00655
  75        3PZ         0.00074  -0.00029  -0.00004   0.00293  -0.00050
  76        4S         -0.00341   0.00253   0.01085   0.13959   0.16733
  77        4PX        -0.00275   0.00187  -0.00490  -0.00159  -0.01284
  78        4PY        -0.00295   0.00232   0.00332   0.00381  -0.01669
  79        4PZ        -0.00025   0.00015  -0.00017   0.00013  -0.00146
  80        5S         -0.02617  -0.11857   0.04882   0.13177   0.33774
  81        5PX        -0.00917  -0.01287   0.01096   0.01161   0.02580
  82        5PY        -0.00582  -0.02385   0.00736   0.02766   0.06869
  83        5PZ        -0.00065  -0.00195   0.00089   0.00196   0.00471
  84        6D 0       -0.00060   0.00052  -0.00070  -0.00450   0.00046
  85        6D+1        0.00002  -0.00011  -0.00025   0.00036  -0.00002
  86        6D-1        0.00020  -0.00001   0.00003   0.00093  -0.00011
  87        6D+2       -0.00172  -0.00047  -0.00284  -0.00576   0.00087
  88        6D-2        0.00129  -0.00033  -0.00319   0.00529  -0.00058
  89 5   C  1S         -0.03566  -0.00002  -0.03575   0.05263  -0.04416
  90        2S         -0.05464  -0.00003  -0.05510   0.08137  -0.06846
  91        2PX         0.00171   0.00093  -0.03126  -0.02273   0.05414
  92        2PY        -0.03404   0.00038  -0.03109   0.01437   0.01742
  93        2PZ        -0.00148   0.00006  -0.00303  -0.00049   0.00354
  94        3S          0.13741   0.00003   0.14300  -0.21466   0.18126
  95        3PX         0.00147   0.00162  -0.04950  -0.02947   0.07385
  96        3PY        -0.04972  -0.00009  -0.04773   0.02130   0.02541
  97        3PZ        -0.00221   0.00007  -0.00473  -0.00052   0.00491
  98        4S          0.05924   0.01382   0.06988  -0.11900   0.11078
  99        4PX         0.00526   0.00221  -0.00303  -0.00970   0.01967
 100        4PY        -0.01072  -0.00543  -0.00413   0.01185   0.00100
 101        4PZ        -0.00023  -0.00013  -0.00033   0.00006   0.00103
 102        5S          0.00590   0.08406   0.11266  -0.00816  -0.03223
 103        5PX         0.00792   0.00968   0.02130   0.01181  -0.00257
 104        5PY         0.00684  -0.01386  -0.01328   0.00017   0.01315
 105        5PZ         0.00068  -0.00016   0.00049   0.00057   0.00044
 106        6D 0       -0.00979   0.00000  -0.00744   0.00781  -0.00406
 107        6D+1        0.00066  -0.00000   0.00090  -0.00074   0.00039
 108        6D-1        0.00113  -0.00003   0.00171  -0.00029  -0.00057
 109        6D+2       -0.00563   0.00026  -0.00824  -0.00380   0.00917
 110        6D-2        0.00174  -0.00026   0.01436   0.00316  -0.00941
 111 6   C  1S         -0.03792  -0.00346   0.02318   0.05395  -0.06136
 112        2S         -0.05811  -0.00532   0.03569   0.08348  -0.09536
 113        2PX        -0.02193   0.00219  -0.01830   0.02704  -0.02330
 114        2PY        -0.03034  -0.00319   0.03932   0.00034   0.02704
 115        2PZ        -0.00248  -0.00005   0.00084   0.00136   0.00007
 116        3S          0.14685   0.01377  -0.09302  -0.22014   0.25428
 117        3PX        -0.03085   0.00270  -0.02737   0.03624  -0.03071
 118        3PY        -0.04431  -0.00316   0.06251   0.00093   0.03584
 119        3PZ        -0.00356  -0.00004   0.00143   0.00183   0.00011
 120        4S          0.05175  -0.02482  -0.04641  -0.11424   0.16267
 121        4PX        -0.00331   0.00761  -0.00021   0.00723  -0.01675
 122        4PY        -0.00339   0.00924   0.00458  -0.00477   0.01212
 123        4PZ        -0.00031   0.00090   0.00017   0.00015  -0.00027
 124        5S         -0.02373  -0.10572  -0.13033  -0.08017  -0.02754
 125        5PX         0.01258   0.01872   0.03051  -0.00161   0.01414
 126        5PY        -0.00803   0.01264   0.00171   0.01849   0.00412
 127        5PZ         0.00034   0.00156   0.00158   0.00080   0.00088
 128        6D 0       -0.01038  -0.00075   0.00458   0.00832  -0.00690
 129        6D+1        0.00095   0.00002   0.00041  -0.00091   0.00084
 130        6D-1        0.00129   0.00005  -0.00117  -0.00034   0.00004
 131        6D+2       -0.00429  -0.00045   0.01701  -0.00490   0.00751
 132        6D-2        0.00549  -0.00047  -0.00089   0.00166  -0.00338
 133 7   H  1S          0.00334  -0.00148   0.00155   0.04466   0.06133
 134        2S          0.00365  -0.00387   0.00169   0.05632   0.07685
 135        3S          0.00207   0.00369  -0.00146  -0.00736  -0.00771
 136        4PX        -0.00016  -0.00041  -0.00021  -0.00303  -0.00446
 137        4PY         0.00053  -0.00025   0.00024   0.00615   0.00539
 138        4PZ         0.00057  -0.00072   0.00014   0.00830   0.00974
 139 8   H  1S          0.00332  -0.00155   0.00151   0.04462   0.06129
 140        2S          0.00368  -0.00388   0.00168   0.05615   0.07665
 141        3S          0.00180   0.00375  -0.00131  -0.00752  -0.00775
 142        4PX        -0.00013  -0.00052  -0.00018  -0.00237  -0.00366
 143        4PY         0.00059  -0.00030   0.00025   0.00697   0.00637
 144        4PZ        -0.00054   0.00060  -0.00013  -0.00783  -0.00945
 145 9   H  1S          0.00418  -0.00064   0.00633   0.04609   0.06097
 146        2S          0.00465  -0.00073   0.00493   0.05596   0.07360
 147        3S          0.00090   0.00247   0.00032  -0.00781  -0.00839
 148        4PX         0.00122  -0.00006   0.00070   0.01085   0.01182
 149        4PY         0.00041  -0.00000   0.00024   0.00081  -0.00093
 150        4PZ         0.00007  -0.00000   0.00004   0.00052   0.00048
 151 10  H  1S          0.00771   0.00001   0.01547  -0.02892   0.03570
 152        2S          0.00827   0.00029   0.01621  -0.03373   0.04241
 153        3S         -0.00001   0.00046  -0.00331  -0.00260   0.00536
 154        4PX        -0.00044   0.00004  -0.00122  -0.00301   0.00518
 155        4PY        -0.00130  -0.00001  -0.00411   0.00472  -0.00478
 156        4PZ        -0.00008   0.00000  -0.00025   0.00007   0.00004
 157 11  H  1S          0.00849   0.00295  -0.01370  -0.02933   0.04796
 158        2S          0.00765   0.00382  -0.01639  -0.03056   0.05564
 159        3S         -0.00418  -0.00734   0.00408   0.00052   0.00443
 160        4PX        -0.00071   0.00009   0.00243   0.00457  -0.00793
 161        4PY        -0.00114  -0.00101   0.00385   0.00114  -0.00180
 162        4PZ        -0.00009  -0.00005   0.00030   0.00028  -0.00049
 163 12  C  1S          0.02419  -0.00026   0.00455  -0.00170   0.01140
 164        2S          0.03677  -0.00042   0.00737  -0.00267   0.01801
 165        2PX        -0.03004   0.07846   0.04654  -0.00674   0.02369
 166        2PY         0.02276   0.11281  -0.02956   0.01124  -0.01440
[...]
   y          0.000000D+00      0.000000D+00      0.000000D+00
   z          0.439688D+01      0.111758D+02      0.372783D+02

 Dipole polarizability, Alpha (dipole orientation).
 (esu units = cm**3 , SI units = C**2 m**2 J**-1)
 Alpha(0;0):
               (au)            (10**-24 esu)      (10**-40 SI)
   iso        0.108221D+03      0.160368D+02      0.178433D+02
   aniso      0.575932D+02      0.853443D+01      0.949583D+01
   xx         0.979330D+02      0.145122D+02      0.161470D+02
   yx         0.283959D+02      0.420784D+01      0.468186D+01
   yy         0.985981D+02      0.146107D+02      0.162566D+02
   zx         0.119127D+01      0.176528D+00      0.196414D+00
   zy        -0.665809D+00     -0.986628D-01     -0.109777D+00
   zz         0.128133D+03      0.189874D+02      0.211263D+02

 First dipole hyperpolarizability, Beta (dipole orientation).
 ||, _|_  parallel and perpendicular components, (z) with respect to z axis,
 vector components x,y,z.  Values do not include the 1/n! factor of 1/2.
 (esu units = statvolt**-1 cm**4 , SI units = C**3 m**3 J**-2)
 Beta(0;0,0):
               (au)            (10**-30 esu)      (10**-50 SI)
   || (z)     0.790222D+02      0.682690D+00      0.253374D+00
   _|_(z)     0.263407D+02      0.227563D+00      0.844579D-01
   x          0.313267D+03      0.270638D+01      0.100445D+01
   y          0.303672D+03      0.262349D+01      0.973681D+00
   z          0.395111D+03      0.341345D+01      0.126687D+01
   ||         0.117723D+03      0.101703D+01      0.377461D+00
   xxx        0.141440D+03      0.122193D+01      0.453507D+00
   xxy       -0.506328D+02     -0.437428D+00     -0.162347D+00
   yxy       -0.490365D+02     -0.423637D+00     -0.157229D+00
   yyy        0.133159D+03      0.115039D+01      0.426955D+00
   xxz        0.758921D+02      0.655648D+00      0.243337D+00
   yxz       -0.148444D+01     -0.128244D-01     -0.475964D-02
   yyz        0.851522D+02      0.735649D+00      0.273029D+00
   zxz        0.120189D+02      0.103834D+00      0.385370D-01
   zyz        0.186981D+02      0.161537D+00      0.599528D-01
   zzz       -0.293406D+02     -0.253480D+00     -0.940766D-01

 ----------------------------------------------------------------------
 Unable to Open any file for archive entry.
 1\1\GINC-NODE1763\Freq\RB3LYP\6-311+G(d,p)\C5H5N2O2(1-)\SVICCHI\02-Jun
 -2023\0\\#p freq=raman scale=0.967 pop=(nbo,full,hirshfeld) guess=read
  geom=allcheck b3lyp/6-311+G(d,p) int=grid=ultrafine EmpiricalDispersi
 on=GD3BJ SCRF=(Solvent=ethanol) scf=(xqc,intrep,maxconventionalcycle=3
 50) nosymm\\2methylimidazolide-CO2_binding-site_index-1.gjf\\-1,1\N,-1
 .1309041511,-0.0736066786,-0.0100714426\N,0.9713006708,-0.7974319404,0
 .0643149233\C,-0.3594323392,-1.1495124819,-0.0196109471\C,-0.885249270
 9,-2.5413171373,-0.1141822414\C,-0.2762778768,1.0124952503,0.083573171
 1\C,1.0190964232,0.5865756944,0.12959239\H,-0.5094807641,-3.0520596581
 ,-1.0027022088\H,-0.5851032073,-3.1429467533,0.7451213088\H,-1.9735249
 339,-2.4897713995,-0.1598820205\H,-0.649506595,2.0249870774,0.11152655
 42\H,1.9593783735,1.1024013539,0.2015500356\C,2.1806666703,-1.67047901
 04,0.0886893848\O,1.9513497998,-2.8885457317,0.0439970573\O,3.25089120
 06,-1.0421215848,0.1514060353\\Version=ES64L-G16RevC.01\HF=-453.829523
 1\RMSD=9.585e-10\RMSF=1.953e-06\ZeroPoint=0.0967473\Thermal=0.1046479\
 ETot=-453.7248752\HTot=-453.723931\GTot=-453.7659496\Dipole=-1.8942927
 ,0.9775428,-0.0569142\DipoleDeriv=-0.8390758,0.2525449,-0.0094139,0.17
 68653,-0.7589924,-0.0067482,-0.0140126,-0.0046798,-0.436362,-1.6391172
 ,0.7211919,-0.046546,0.9127204,-0.8692801,0.014069,-0.0394352,0.003108
 4,-0.0626618,0.9990891,-0.2690778,0.0347164,-0.030763,0.5613289,0.0222
 127,0.0453306,0.0162275,0.0954433,0.1549995,0.0068792,0.001771,-0.0843
 944,-0.0650555,-0.0122977,-0.0062455,-0.0108353,0.138062,0.067012,0.07
 24719,0.0181605,0.1899922,0.1891125,0.029543,0.0226371,0.0215596,-0.22
 49293,-0.0353869,-0.1634785,-0.0001088,-0.5316363,0.2385081,-0.0084088
 ,-0.013231,0.0111237,-0.1838805,0.0649619,-0.0128249,0.0751166,-0.0315
 569,-0.039895,-0.0660989,0.0528589,-0.1179174,-0.0571968,0.0800063,-0.
 0127977,-0.0653059,-0.0322869,-0.0526887,0.0618464,-0.0434387,0.111684
 ,-0.0439838,-0.1758939,-0.049084,-0.0153277,0.0347763,0.0662593,-0.001
 4024,-0.009481,-0.0045063,0.104915,0.0768218,0.0711661,-0.003562,0.038
 3911,-0.1070533,-0.0127174,-0.0052802,-0.0105977,0.2084064,0.0727753,-
 0.0746973,-0.0122531,-0.0420121,0.093023,-0.0087129,-0.011644,-0.01060
 87,0.2382072,3.3036565,-0.0750204,0.1159436,-0.177505,2.9993524,0.0661
 798,0.1127278,0.0711564,0.4140975,-1.0683716,-0.0642887,-0.0214349,-0.
 0055171,-2.097729,-0.0438873,-0.0193656,-0.0436468,-0.5782227,-2.06147
 72,-0.4029845,-0.0717558,-0.4170736,-1.1568902,-0.0335772,-0.0714205,-
 0.0320676,-0.6118946\Polar=127.0273716,-0.9057082,127.5713718,2.716076
 4,2.3409836,70.0654769\PolarDeriv=-13.1134996,3.7238123,-3.5547565,-0.
 1408973,0.1192071,-3.0650664,3.3909034,14.012451,15.2315322,1.0221965,
 1.3947005,0.2277184,-0.1502692,0.9478452,0.4691047,-4.4211851,0.917135
 9,-0.5171657,7.9303088,-3.9615474,8.9743069,0.1493718,0.3120208,-0.695
 3679,-4.6681082,3.4211861,6.0294988,-0.2208088,0.506934,0.351058,-0.06
 98957,-0.0955483,0.6527152,2.1757039,-1.4104172,0.0290269,-7.9337679,7
 .5617592,-6.7879717,0.0162516,0.2249068,1.0053755,-10.3331782,-9.86381
 91,-23.7388003,-0.7720244,-1.3432179,-2.629245,-0.3956102,0.2990095,-0
 .7907206,-2.3538334,-3.6239265,-0.5972702,10.7058953,1.1528483,-2.2719
 005,0.8302362,-0.2510425,-4.4524767,-0.0832843,0.6398766,13.3233603,-0
 .1537931,-0.0104352,6.0751964,0.4356179,-0.3250304,-0.4240711,-1.28656
 35,9.3800816,0.9577428,-7.1631046,-12.0636203,-12.1557654,-0.1951774,-
 1.1671604,-7.9482677,4.4299675,-7.8935896,-0.5163956,-0.1061089,-1.006
 6066,4.8597079,0.3787388,-1.0511475,-1.2887802,-5.7173817,6.8096041,-0
 .0429175,6.9808067,4.0422355,9.1345804,-0.3459881,-0.0260445,9.0043549
 ,3.1698084,-2.3308821,-5.5577192,-0.1390686,-0.4562553,-2.5548299,-0.2
 966128,-0.4665487,-0.1685343,7.8549039,4.4431978,1.5256732,1.2138375,-
 1.193295,3.0482221,-1.7259873,0.9435546,2.4667991,-0.3751793,-0.174158
 8,-8.5292663,0.1939063,-3.8244374,-3.2489838,-1.6215836,-0.2750727,-6.
 394971,0.8120982,-5.9633481,-7.0421659,0.9535009,-1.2461061,2.7186975,
 1.4329679,-0.5020064,2.0762097,-0.4957114,-0.501176,-9.7749676,-0.0480
 901,3.7222793,-3.1269694,1.5919985,0.5492353,6.7984,0.5617693,-5.53955
 74,5.7986271,-14.0902088,-2.6699026,-1.9347987,-0.6632468,-0.1330678,-
 0.9011139,0.5184194,-1.3213552,0.6038214,0.0279017,0.0257671,-0.241801
 ,-0.4342509,-0.0591133,0.0151313,-1.5282481,-0.9263216,-0.2935375,-2.9
 398407,3.0973973,-3.9856728,-0.0505255,0.0235684,0.0290185,2.2888864,-
 4.1037277,14.6416177,-0.1424195,0.4845881,0.6495253,-0.1223461,-0.0141
 546,0.5346911,0.7682852,-0.8773566,0.0199543,9.1135975,4.000276,4.3847
 195,0.6912719,0.4363977,0.6932096,3.8223995,4.2387111,3.9921224,0.3736
 279,0.3883282,0.7853906,0.7403337,0.4967738,0.4717201,-1.1459857,-0.97
 86454,-0.1604849,-8.0673881,-1.2722028,0.3242732,-0.4040704,-0.129718,
 1.8484586,-1.1318196,-3.0634865,8.7736582,-0.1142036,0.1433247,-0.9919
 06,-0.2623533,-0.1650161,0.2082819,-0.9793232,0.9911695,0.015742,-2.81
 9905,-3.0139265,-2.149038,-0.1582307,0.0557181,-1.3969338,-7.6426739,3
 .911089,-19.1539699,-0.1227812,-0.1608088,-2.0487576,-0.3433716,0.2290
 968,-0.2785893,0.0513423,-5.0890638,-0.3376955,19.2297679,1.842272,4.2
 55104,0.564024,0.0936662,1.3358005,7.1095705,3.0288813,4.675508,0.2016
 659,0.1358392,1.893896,0.5496046,-0.070329,0.1956221,5.2084179,1.86744
 77,0.6444708\HyperPolar=-42.2686614,-54.8113258,14.3378723,98.5221206,
 -5.123099,-10.5734371,-10.7669943,23.5806673,152.2801264,23.9383412\Qu
 adrupole=-14.7604479,1.1802603,13.5801876,15.8665663,-0.9962194,0.6616
 427\PG=C01 [X(C5H5N2O2)]\NImag=0\\0.50168390,-0.05289280,0.53244009,0.
 01847189,0.01694946,0.10271856,-0.09077030,0.07967953,-0.00198759,0.63
 549921,0.01512430,-0.02458774,-0.00135999,-0.01895689,0.64469091,-0.00
 510349,0.00198158,0.02156668,0.02547675,0.02230943,0.11038911,-0.19585
 364,0.13320614,-0.00000261,-0.22028426,-0.05780035,-0.01037817,0.57684
 226,0.11822462,-0.27867940,-0.00304948,-0.04336990,-0.13685574,-0.0051
 7686,0.02342077,0.80670440,-0.00072332,-0.00239405,-0.07927971,-0.0100
 3623,-0.00613505,-0.06986603,0.02171840,0.03029538,0.18476729,0.010434
 31,0.01639182,0.00135880,-0.00742338,-0.03460188,-0.00200903,-0.105579
 96,-0.05136477,-0.00470208,0.56921834,-0.00585545,-0.03304895,-0.00179
 759,-0.00632433,0.00141233,-0.00022048,-0.04668530,-0.20880751,-0.0093
 2354,-0.03511725,0.51068455,0.00033182,-0.00048499,-0.00116425,-0.0006
 2894,-0.00154501,-0.00083327,-0.00450983,-0.00962538,-0.06506886,0.000
 30686,-0.00385224,0.53635038,-0.16653145,-0.08412241,-0.00918705,-0.03
 736660,0.07528884,0.00082363,0.01898781,-0.02275219,-0.00049578,0.0004
 4883,0.00259877,-0.00035329,0.64942201,-0.06613833,-0.18624489,-0.0087
 1807,0.01885535,-0.05932675,-0.00237480,0.01908227,-0.10741179,-0.0044
 0962,0.00405768,-0.00044148,-0.00019122,-0.15897120,0.78485568,-0.0083
 9758,-0.00965127,-0.06841529,-0.00170124,0.00068406,0.01298028,0.00132
 376,-0.00653617,0.01045559,-0.00017397,-0.00031007,0.00833794,0.019387
 39,0.02216063,0.12971629,-0.06830873,-0.06617067,-0.00749048,-0.114311
 71,-0.01298654,-0.00324455,-0.03643474,-0.02630244,-0.00378239,-0.0062
 2184,0.00121646,-0.00033383,-0.36867299,0.10287236,-0.01063569,0.88065
 337,-0.00631899,0.00013006,-0.00111070,-0.01980301,-0.25980583,-0.0101
 3647,-0.06868535,-0.04815049,-0.00621847,0.00500249,-0.00065715,0.0000
 4162,0.08971197,-0.12888576,0.00144516,0.09374290,0.58878511,-0.004760
 47,-0.00425142,0.01797340,-0.00355937,-0.01001899,-0.06003199,-0.00575
 096,-0.00417245,0.01349419,-0.00021854,-0.00005090,0.00205432,-0.01123
 484,0.00222124,-0.06571856,0.04330651,0.02658053,0.11952963,0.00041805
 ,0.00037426,0.00040472,-0.00098841,0.00159013,-0.00025590,0.00475493,-
 0.00437544,-0.01176287,-0.07731883,0.04056480,0.07750380,-0.00068061,-
 0.00054172,0.00003098,0.00044714,-0.00130072,0.00023759,0.07967511,-0.
 00183329,-0.00135838,-0.00160415,0.00052693,0.00236551,0.00059271,0.01
 198167,-0.01732991,-0.02470091,0.04100821,-0.09853100,-0.10090792,-0.0
 0157604,-0.00150040,0.00144156,0.00057116,-0.00235447,0.00021500,-0.04
 507486,0.11252842,-0.00021231,0.00121190,-0.00029866,0.00006315,0.0002
 0753,0.00075745,-0.00111183,-0.00105067,0.00143425,0.07623327,-0.10048
 162,-0.22066656,-0.00076532,-0.00017719,-0.00036051,0.00013062,-0.0009
 2716,-0.00020041,-0.08447517,0.10977370,0.23819456,0.00042028,0.000465
 66,-0.00032906,-0.00104175,0.00165025,0.00023782,0.00369115,-0.0054613
 2,0.01133603,-0.06527174,0.03842964,-0.06116582,-0.00072130,-0.0005258
 3,-0.00014042,0.00047133,-0.00137096,-0.00028162,0.00247615,-0.0059748
 8,0.00912060,0.06613938,-0.00205047,-0.00152751,0.00130778,0.00051597,
 0.00241952,-0.00040744,0.00985147,-0.01965266,0.02346265,0.03860670,-0
 .12155736,0.11588160,-0.00140666,-0.00134944,-0.00166563,0.00059429,-0
 .00234365,-0.00033208,-0.00400377,0.00811572,-0.01132180,-0.04323784,0
 .13683963,0.00009224,-0.00132461,-0.00028493,-0.00014654,0.00008463,0.
 00074515,0.00229413,-0.00162764,0.00508508,-0.05971946,0.11551302,-0.2
 1075825,0.00057337,-0.00000402,-0.00044866,-0.00000323,0.00058654,-0.0
 0019101,-0.00744243,0.01408604,-0.02233099,0.06635891,-0.12537001,0.22
 769705,0.00149613,0.00239366,0.00022876,0.00066636,-0.00179833,-0.0000
 9678,-0.01426575,0.00140055,-0.00048949,-0.31224181,0.01115508,-0.0111
 0741,0.00024823,-0.00052329,-0.00000618,-0.00045005,0.00043761,-0.0000
 2151,-0.00848567,0.00023463,-0.00062628,-0.00622656,0.00023687,-0.0000
 9961,0.34026434,0.00022078,0.00240605,0.00007408,-0.00067334,-0.005861
 43,-0.00035921,-0.03473967,0.00109491,-0.00138029,0.01767993,-0.048400
 94,0.00084330,-0.00012140,0.00006399,0.00001545,-0.00158712,0.00013131
 ,-0.00009475,0.01365735,-0.00094429,0.00265315,0.01644043,-0.00061284,
 -0.00166082,-0.01338953,0.05270041,0.00014782,0.00024153,0.00009725,-0
 .00001165,-0.00045810,0.00109914,-0.00240469,0.00019626,-0.00228114,-0
 .01078243,0.00055037,-0.04865405,0.00003586,-0.00001327,-0.00036750,-0
 .00011662,0.00002626,0.00033834,0.02567997,0.00047792,0.00282401,-0.02
 479046,-0.00080878,0.00043042,0.01233445,-0.00017057,0.04566351,0.0118
 6216,-0.02090846,-0.00011165,-0.00601597,0.00211470,-0.00052955,-0.003
 15360,-0.00409219,-0.00058434,0.00089157,-0.00055432,-0.00003688,-0.09
 804211,0.10236128,0.00118948,0.00178340,0.02387687,0.00119289,-0.00005
 930,-0.00020628,-0.00001902,-0.00005065,-0.00018294,-0.00000647,0.0000
 1743,0.00010640,0.00000893,0.09148158,0.00721569,-0.01853677,-0.000267
 55,0.00077032,0.00054416,-0.00023646,-0.00384614,-0.00234790,-0.000519
 34,0.00081792,-0.00031184,-0.00002382,0.09993422,-0.30627377,-0.007834
 32,-0.00217189,-0.00042304,-0.00013166,-0.00004855,-0.00025185,-0.0000
 1483,-0.00003639,-0.00022661,-0.00001827,-0.00001888,0.00006135,0.0000
 0604,-0.10279284,0.32777129,0.00119996,-0.00168487,-0.00494516,-0.0006
 2349,-0.00014184,0.00647295,-0.00055944,-0.00051352,0.00444880,0.00001
 891,-0.00010251,0.00122976,0.00106396,-0.00772601,-0.02787307,-0.00000
 652,0.00118371,0.00010216,0.00013009,0.00027674,0.00003067,-0.00014020
 ,-0.00031889,-0.00001082,0.00000359,0.00000837,-0.00004755,-0.00125369
 ,0.00895338,0.02223122,-0.00364113,0.00029201,-0.00055435,0.00574248,0
 .00240776,0.00052483,-0.00093677,0.00218244,-0.00006558,0.00029699,-0.
 00009247,-0.00003956,-0.00522838,-0.01451035,-0.00093832,-0.29336736,-
 0.13323956,-0.01999808,0.00002011,-0.00002811,0.00000953,0.00004133,-0
 .00001775,-0.00001260,0.00015743,0.00005729,0.00000858,0.00002311,0.00
 042089,0.00015469,0.29916830,0.00383159,0.00088028,-0.00012234,-0.0287
 9968,-0.01123254,-0.00190348,0.00282613,-0.00597595,-0.00022806,-0.001
 49465,0.00051952,-0.00009459,0.00739425,0.01178734,0.00093209,-0.12224
 522,-0.12324381,-0.01075422,0.00002495,0.00004681,-0.00002603,0.000039
 58,0.00006007,0.00003133,-0.00019244,-0.00052597,-0.00004100,-0.000684
 11,-0.00032059,0.00007428,0.14054750,0.12553871,-0.00039756,-0.0003241
 2,0.00759840,-0.00091792,-0.00026039,-0.00234751,-0.00004591,-0.000247
 56,0.00214125,-0.00011790,-0.00002390,0.00104285,0.00011147,-0.0001860
 7,-0.00023083,-0.01953914,-0.01131846,-0.02596976,0.00018736,0.0001297
 3,0.00004981,-0.00017267,-0.00013080,0.00002173,-0.00000419,-0.0000310
 6,0.00008354,0.00010283,0.00013036,-0.00264472,0.02080740,0.01184147,0
 .02142649,0.01002718,-0.01952112,-0.00076588,-0.06897027,-0.01186796,-
 0.00108448,-0.04753667,0.00493900,-0.00162388,0.00001463,0.00010393,0.
 00009879,0.01515187,-0.00837211,0.00027761,0.00814087,0.03183165,0.002
 12879,0.00016844,0.00032082,-0.00004445,-0.00002054,0.00022972,0.00006
 147,0.00131207,0.00133771,0.00010095,0.00231979,-0.00103241,-0.0000140
 5,-0.00178315,-0.00383827,-0.00016708,0.57920505,-0.01766480,0.0120508
 3,-0.00063043,-0.02352463,-0.09067245,-0.00276063,0.02410341,0.0251575
 8,0.00275274,0.00152383,-0.00083384,-0.00006109,-0.01004306,-0.0036592
 8,-0.00077361,0.02171612,-0.02810809,0.00013529,-0.00191536,-0.0014806
 4,-0.00205537,-0.00245728,-0.00184133,0.00194023,0.00101934,-0.0020443
 0,0.00004568,-0.00028096,0.00073429,-0.00007077,-0.00017272,-0.0005900
 2,0.00001676,0.25986728,0.78656558,-0.00060206,-0.00075356,0.00699809,
 -0.00187387,-0.00221594,-0.05647910,-0.00077235,0.00177021,-0.01024092
 ,0.00005949,-0.00000086,-0.00082717,0.00019924,-0.00070753,0.00196523,
 0.00180321,0.00061724,-0.00612059,-0.00021682,-0.00035698,-0.00003108,
 0.00009718,0.00028460,0.00014195,0.00008534,0.00000845,-0.00003630,0.0
 0002292,-0.00010284,0.00181405,-0.00002298,-0.00012473,-0.00110174,0.0
 2266172,0.02736471,0.23154026,-0.00067260,0.00269260,0.00010659,0.0030
 6253,0.04313701,0.00079434,0.00418361,-0.00334884,0.00003407,-0.006440
 44,0.00064946,-0.00000523,-0.00145942,0.00280379,0.00009322,-0.0040870
 4,-0.00292756,-0.00058579,-0.00034023,0.00015332,0.00129506,0.00002453
 ,0.00089706,-0.00148145,-0.00168631,0.00123200,-0.00017285,-0.00058497
 ,0.00026964,0.00002812,0.00032355,0.00084686,0.00004098,-0.10490171,-0
 .07572293,-0.00336807,0.13090553,0.00517429,-0.00584950,-0.00001686,0.
 03017030,-0.07675598,-0.00163434,-0.01479645,-0.00527380,-0.00097534,-
 0.00170251,0.00036134,0.00005411,0.00558281,-0.00371854,0.00009821,0.0
 0821936,0.00995958,0.00081208,0.00080991,0.00032350,0.00145004,0.00161
 487,0.00118631,-0.00146879,-0.00044098,0.00139257,-0.00003578,0.001239
 03,-0.00037676,0.00006130,-0.00034887,0.00077493,0.00001728,-0.0753491
 1,-0.49753085,-0.01492646,0.10624647,0.64491661,0.00014753,-0.00006061
 ,-0.00036134,0.00046134,-0.00092812,0.01772383,-0.00033388,-0.00040585
 ,0.00024439,-0.00019463,0.00015464,-0.00143779,0.00016931,0.00005459,-
 0.00047995,-0.00017860,0.00004358,0.00347231,-0.00014746,0.00064254,0.
 00074216,-0.00003472,-0.00069143,0.00012216,-0.00016774,0.00008196,0.0
 0105119,0.00003993,0.00003438,-0.00068751,0.00000014,0.00004554,0.0001
 2605,-0.00336451,-0.01517115,-0.08303886,0.00740055,0.02219715,0.03266
 678,-0.01056414,0.00811977,-0.00014208,-0.09779794,-0.00330103,-0.0051
 5543,0.01558562,0.01089970,0.00117746,-0.00080668,-0.00008901,-0.00006
 050,-0.00555588,-0.00044988,-0.00030903,0.00035835,-0.01095733,-0.0004
 5460,-0.00008689,-0.00010328,0.00040213,0.00006838,-0.00003266,-0.0004
 6834,-0.00080584,-0.00022084,-0.00003788,-0.00047242,0.00051842,-0.000
 00191,-0.00081651,0.00174350,0.00011233,-0.39312757,-0.17644823,-0.018
 07294,-0.01832704,-0.06641912,-0.00379726,0.51234857,0.00296286,0.0019
 2583,0.00034584,0.01093338,0.01366602,0.00032644,0.00208140,-0.0024717
 6,-0.00022610,-0.00080753,-0.00038766,-0.00003437,-0.00151791,0.002105
 09,-0.00000610,0.00253122,-0.00503377,-0.00015768,0.00023901,0.0003709
 9,0.00075836,0.00042407,0.00049015,-0.00076764,-0.00051429,0.00053919,
 -0.00001657,0.00000381,-0.00004197,0.00000062,0.00250197,0.00228122,0.
 00038676,-0.17864914,-0.19774748,-0.01085630,-0.07692887,-0.06940942,-
 0.00599719,0.23674001,0.25371356,-0.00019447,0.00054501,-0.00220303,-0
 .00451439,-0.00022224,0.01782331,0.00053337,0.00014372,0.00466580,-0.0
 0005930,-0.00005432,0.00039495,-0.00032793,0.00007135,0.00043906,0.000
 09070,-0.00081337,0.00126798,0.00012613,-0.00006598,-0.00014470,-0.000
 09559,0.00011024,-0.00021888,-0.00003296,0.00001194,-0.00020084,-0.000
 01538,0.00002494,-0.00012077,0.00012629,0.00036973,-0.00019557,-0.0182
 6499,-0.01073236,-0.08458382,-0.00417955,-0.00563260,0.02985660,0.0268
 0806,0.01624395,0.03321991\\0.00000069,0.00000127,0.00000294,-0.000002
 68,0.00000193,0.00000026,0.00000003,0.00000091,0.00000006,-0.00000092,
 0.00000078,-0.00000306,0.00000144,0.00000025,0.00000473,0.00000098,-0.
 00000069,0.00000329,-0.00000087,0.00000160,-0.00000062,-0.00000034,0.0
 0000007,-0.00000211,0.00000006,0.00000112,-0.00000075,0.00000077,0.000
 00003,0.00000294,0.00000090,-0.00000104,0.00000176,0.00000261,-0.00000
 303,-0.00000214,-0.00000265,-0.00000177,-0.00000544,-0.00000001,-0.000
 00141,-0.00000187\\\@
 The archive entry for this job was punched.


 THE VALUE OF PHILOSOPHY IS, IN FACT, TO BE SOUGHT LARGELY IN ITS
 VERY UNCERTAINTY.  THE MAN WHO HAS NO TINCTURE OF PHILOSOPHY GOES
 THROUGH LIFE IMPRISONED IN THE PREJUDICES DERIVED FROM COMMON SENSE,
 FROM THE HABITUAL BELIEFS OF HIS AGE OR HIS NATION, AND FROM
 CONVICTIONS WHICH HAVE GROWN UP IN HIS MIND WITHOUT THE CO-OPERATION
 OR CONSENT OF HIS DELIBERATE REASON.  TO SUCH A MAN THE WORLD TENDS
 TO BE DEFINITE, FINITE, OBVIOUS; COMMON OBJECTS ROUSE NO QUESTIONS,
 AND UNFAMILIAR POSSIBILITIES ARE CONTEMPTUOUSLY REJECTED.

                             -- BERTRAND RUSSELL
 Job cpu time:       0 days  0 hours 32 minutes  3.1 seconds.
 Elapsed time:       0 days  0 hours 16 minutes 59.4 seconds.
 File lengths (MBytes):  RWF=    121 Int=      0 D2E=      0 Chk=     17 Scr=      1
 Normal termination of Gaussian 16 at Fri Jun  2 12:04:00 2023.
