 Entering Gaussian System, Link 0=g16
 Input=glycerol-CO2_binding-site_index-3-freq.gjf
 Output=glycerol-CO2_binding-site_index-3-freq.log
 Initial command:
 /software/commercial/gaussian/g16/AVX/g16/l1.exe "/scratch1/svicchi/G09-659922.pbs02/Gau-3482804.inp" -scrdir="/scratch1/svicchi/G09-659922.pbs02/"
 Entering Link 1 = /software/commercial/gaussian/g16/AVX/g16/l1.exe PID=   3482805.
  
 Copyright (c) 1988-2019, Gaussian, Inc.  All Rights Reserved.
  
 This is part of the Gaussian(R) 16 program.  It is based on
 the Gaussian(R) 09 system (copyright 2009, Gaussian, Inc.),
 the Gaussian(R) 03 system (copyright 2003, Gaussian, Inc.),
 the Gaussian(R) 98 system (copyright 1998, Gaussian, Inc.),
 the Gaussian(R) 94 system (copyright 1995, Gaussian, Inc.),
 the Gaussian 92(TM) system (copyright 1992, Gaussian, Inc.),
 the Gaussian 90(TM) system (copyright 1990, Gaussian, Inc.),
 the Gaussian 88(TM) system (copyright 1988, Gaussian, Inc.),
 the Gaussian 86(TM) system (copyright 1986, Carnegie Mellon
 University), and the Gaussian 82(TM) system (copyright 1983,
 Carnegie Mellon University). Gaussian is a federally registered
 trademark of Gaussian, Inc.
  
 This software contains proprietary and confidential information,
 including trade secrets, belonging to Gaussian, Inc.
  
 This software is provided under written license and may be
 used, copied, transmitted, or stored only in accord with that
 written license.
  
 The following legend is applicable only to US Government
 contracts under FAR:
  
                    RESTRICTED RIGHTS LEGEND
  
 Use, reproduction and disclosure by the US Government is
 subject to restrictions as set forth in subparagraphs (a)
 and (c) of the Commercial Computer Software - Restricted
 Rights clause in FAR 52.227-19.
  
 Gaussian, Inc.
 340 Quinnipiac St., Bldg. 40, Wallingford CT 06492
  
  
 ---------------------------------------------------------------
 Warning -- This program may not be used in any manner that
 competes with the business of Gaussian, Inc. or will provide
 assistance to any competitor of Gaussian, Inc.  The licensee
 of this program is prohibited from giving any competitor of
 Gaussian, Inc. access to this program.  By using this program,
 the user acknowledges that Gaussian, Inc. is engaged in the
 business of creating and licensing software in the field of
 computational chemistry and represents and warrants to the
 licensee that it is not a competitor of Gaussian, Inc. and that
 it will not use this program in any manner prohibited above.
 ---------------------------------------------------------------
  

 Cite this work as:
 Gaussian 16, Revision C.01,
 M. J. Frisch, G. W. Trucks, H. B. Schlegel, G. E. Scuseria, 
 M. A. Robb, J. R. Cheeseman, G. Scalmani, V. Barone, 
 G. A. Petersson, H. Nakatsuji, X. Li, M. Caricato, A. V. Marenich, 
 J. Bloino, B. G. Janesko, R. Gomperts, B. Mennucci, H. P. Hratchian, 
 J. V. Ortiz, A. F. Izmaylov, J. L. Sonnenberg, D. Williams-Young, 
 F. Ding, F. Lipparini, F. Egidi, J. Goings, B. Peng, A. Petrone, 
 T. Henderson, D. Ranasinghe, V. G. Zakrzewski, J. Gao, N. Rega, 
 G. Zheng, W. Liang, M. Hada, M. Ehara, K. Toyota, R. Fukuda, 
 J. Hasegawa, M. Ishida, T. Nakajima, Y. Honda, O. Kitao, H. Nakai, 
 T. Vreven, K. Throssell, J. A. Montgomery, Jr., J. E. Peralta, 
 F. Ogliaro, M. J. Bearpark, J. J. Heyd, E. N. Brothers, K. N. Kudin, 
 V. N. Staroverov, T. A. Keith, R. Kobayashi, J. Normand, 
 K. Raghavachari, A. P. Rendell, J. C. Burant, S. S. Iyengar, 
 J. Tomasi, M. Cossi, J. M. Millam, M. Klene, C. Adamo, R. Cammi, 
 J. W. Ochterski, R. L. Martin, K. Morokuma, O. Farkas, 
 J. B. Foresman, and D. J. Fox, Gaussian, Inc., Wallingford CT, 2019.
 
 ******************************************
 Gaussian 16:  ES64L-G16RevC.01  3-Jul-2019
                 2-Jun-2023 
 ******************************************
 %NProcShared=2
 Will use up to    2 processors via shared memory.
 %mem=55gb
 %chk=/scratch1/svicchi/G09-659922.pbs02/02-freq/glycerol-CO2_binding-site_index-
 3-freq.chk
 ----------------------------------------------------------------------
 #p freq=raman scale=0.967 pop=(nbo,full,hirshfeld) guess=read geom=all
 check b3lyp/6-311+G(d,p) int=grid=ultrafine EmpiricalDispersion=GD3BJ 
 SCRF=(Solvent=ethanol) scf=(xqc,intrep,maxconventionalcycle=350) nosym
 m
 ----------------------------------------------------------------------
 1/10=4,29=7,30=1,38=1,114=967000/1,3;
 2/12=2,15=1,40=1/2;
 3/5=4,6=6,7=111,11=2,14=-4,25=1,30=1,70=2201,71=2,72=4,74=-5,75=-5,116=-2,124=41,140=1/1,2,3;
 4/5=1/1;
 5/5=2,8=3,13=1,17=20,38=6,53=4,85=350,98=1/2,8;
 8/6=4,10=90,11=11/1;
 10/13=10,15=4,31=1/2;
 11/6=3,8=1,9=11,15=111,16=1,31=1/1,2,10;
 10/6=1,31=1/2;
 6/7=3,28=1,40=1,79=1/1,7;
 7/8=1,10=1,25=1,30=1/1,2,3,16;
 1/10=4,30=1/3;
 99//99;
 Leave Link    1 at Fri Jun  2 11:53:43 2023, MaxMem=  7381975040 cpu:               1.1 elap:               1.1
 (Enter /software/commercial/gaussian/g16/AVX/g16/l101.exe)
 Structure from the checkpoint file:  "/scratch1/svicchi/G09-659922.pbs02/02-freq/glycerol-CO2_binding-site_index-3-freq.chk"
 -------------------------------------
 glycerol-CO2_binding-site_index-3.gjf
 -------------------------------------
 Charge = -1 Multiplicity = 1
 No Z-Matrix found in chk file; cartesian coordinates used.
  O                                                 2.536369119390      0.336875955968     -0.144640330029
  C                                                 1.293005230224      0.886439510769      0.285253973691
  C                                                 0.112449151555      0.118246593258     -0.299507984806
  O                                                 0.370920901617     -1.257390787376      0.052061196894
  C                                                -1.214751750813      0.633971552940      0.251720917510
  O                                                -2.336070780687      0.276373388273     -0.548398500330
  H                                                 2.449271521411     -0.620914833626     -0.038999672334
  H                                                 1.230359107241      0.879113859041      1.381522751384
  H                                                 1.265324063498      1.922671848137     -0.054620370905
  H                                                 0.118538349339      0.210733521928     -1.389803699041
  H                                                -1.330208843877      0.259136340252      1.277932206841
  H                                                -1.181848205880      1.727301799330      0.297465841212
  H                                                -2.104125334481     -0.591735556278     -0.949361872550
  C                                                -0.262209625081     -2.298758220127     -0.666113044804
  O                                                -1.195510329901     -1.971865529825     -1.439663182323
  O                                                 0.200740426444     -3.418161442664     -0.414766230410
 Recover connectivity data from disk.
 ITRead=  0  0  0  0  0  0  0  0  0  0  0  0  0  0  0  0
 MicOpt= -1 -1 -1 -1 -1 -1 -1 -1 -1 -1 -1 -1 -1 -1 -1 -1
 NAtoms=     16 NQM=       16 NQMF=       0 NMMI=      0 NMMIF=      0
                NMic=       0 NMicF=      0.
                    Isotopes and Nuclear Properties:
 (Nuclear quadrupole moments (NQMom) in fm**2, nuclear magnetic moments (NMagM)
  in nuclear magnetons)

  Atom         1           2           3           4           5           6           7           8           9          10
 IAtWgt=          16          12          12          16          12          16           1           1           1           1
 AtmWgt=  15.9949146  12.0000000  12.0000000  15.9949146  12.0000000  15.9949146   1.0078250   1.0078250   1.0078250   1.0078250
 NucSpn=           0           0           0           0           0           0           1           1           1           1
 AtZEff=   5.6000000   3.6000000   3.6000000   5.6000000   3.6000000   5.6000000   1.0000000   1.0000000   1.0000000   1.0000000
 NQMom=    0.0000000   0.0000000   0.0000000   0.0000000   0.0000000   0.0000000   0.0000000   0.0000000   0.0000000   0.0000000
 NMagM=    0.0000000   0.0000000   0.0000000   0.0000000   0.0000000   0.0000000   2.7928460   2.7928460   2.7928460   2.7928460
 AtZNuc=   8.0000000   6.0000000   6.0000000   8.0000000   6.0000000   8.0000000   1.0000000   1.0000000   1.0000000   1.0000000

  Atom        11          12          13          14          15          16
 IAtWgt=           1           1           1          12          16          16
 AtmWgt=   1.0078250   1.0078250   1.0078250  12.0000000  15.9949146  15.9949146
 NucSpn=           1           1           1           0           0           0
 AtZEff=   1.0000000   1.0000000   1.0000000   3.6000000   5.6000000   5.6000000
 NQMom=    0.0000000   0.0000000   0.0000000   0.0000000   0.0000000   0.0000000
 NMagM=    2.7928460   2.7928460   2.7928460   0.0000000   0.0000000   0.0000000
 AtZNuc=   1.0000000   1.0000000   1.0000000   6.0000000   8.0000000   8.0000000
 Leave Link  101 at Fri Jun  2 11:53:45 2023, MaxMem=  7381975040 cpu:               0.3 elap:               1.0
 (Enter /software/commercial/gaussian/g16/AVX/g16/l103.exe)

 GradGradGradGradGradGradGradGradGradGradGradGradGradGradGradGradGradGrad
 Berny optimization.
 Initialization pass.
 Trust Radius=3.00D-01 FncErr=1.00D-07 GrdErr=1.00D-07 EigMax=2.50D+02 EigMin=1.00D-04
 Number of steps in this run=      2 maximum allowed number of steps=      2.
 GradGradGradGradGradGradGradGradGradGradGradGradGradGradGradGradGradGrad

 Leave Link  103 at Fri Jun  2 11:53:47 2023, MaxMem=  7381975040 cpu:               0.1 elap:               0.7
 (Enter /software/commercial/gaussian/g16/AVX/g16/l202.exe)
                          Input orientation:                          
 ---------------------------------------------------------------------
 Center     Atomic      Atomic             Coordinates (Angstroms)
 Number     Number       Type             X           Y           Z
 ---------------------------------------------------------------------
      1          8           0        2.536369    0.336876   -0.144640
      2          6           0        1.293005    0.886440    0.285254
      3          6           0        0.112449    0.118247   -0.299508
      4          8           0        0.370921   -1.257391    0.052061
      5          6           0       -1.214752    0.633972    0.251721
      6          8           0       -2.336071    0.276373   -0.548399
      7          1           0        2.449272   -0.620915   -0.039000
      8          1           0        1.230359    0.879114    1.381523
      9          1           0        1.265324    1.922672   -0.054620
     10          1           0        0.118538    0.210734   -1.389804
     11          1           0       -1.330209    0.259136    1.277932
     12          1           0       -1.181848    1.727302    0.297466
     13          1           0       -2.104125   -0.591736   -0.949362
     14          6           0       -0.262210   -2.298758   -0.666113
     15          8           0       -1.195510   -1.971866   -1.439663
     16          8           0        0.200740   -3.418161   -0.414766
 ---------------------------------------------------------------------
                    Distance matrix (angstroms):
                    1          2          3          4          5
     1  O    0.000000
     2  C    1.425757   0.000000
     3  C    2.438682   1.525051   0.000000
     4  O    2.696209   2.345341   1.443186   0.000000
     5  C    3.783685   2.520657   1.526856   2.476181   0.000000
     6  O    4.889514   3.773241   2.466212   3.168720   1.423174
     7  H    0.967527   1.927228   2.464744   2.175531   3.883854
     8  H    2.080591   1.098082   2.157430   2.659089   2.704647
     9  H    2.034308   1.090898   2.155236   3.305168   2.811649
    10  H    2.722545   2.154477   1.094228   2.073176   2.156710
    11  H    4.120702   2.874051   2.142295   2.587751   1.098609
    12  H    3.994231   2.613828   2.149568   3.373382   1.094781
    13  H    4.800425   3.905096   2.416524   2.751690   1.932859
    14  C    3.879503   3.670051   2.473192   1.414593   3.217244
    15  O    4.575401   4.163887   2.716483   2.278030   3.106692
    16  O    4.430399   4.495849   3.539387   2.217165   4.343686
                    6          7          8          9         10
     6  O    0.000000
     7  H    4.895316   0.000000
     8  H    4.099672   2.398691   0.000000
     9  H    3.990509   2.805674   1.775596   0.000000
    10  H    2.595646   2.819331   3.059923   2.455314   0.000000
    11  H    2.085075   4.097959   2.636591   3.358547   3.036120
    12  H    2.037869   4.337322   2.777291   2.480078   2.614931
    13  H    0.983963   4.643601   4.326108   4.298371   2.403784
    14  C    3.308483   3.249701   4.064412   4.530756   2.639365
    15  O    2.673913   4.131750   4.687432   4.810558   2.548126
    16  O    4.483621   3.608557   4.770047   5.457797   3.758502
                   11         12         13         14         15
    11  H    0.000000
    12  H    1.771676   0.000000
    13  H    2.506745   2.789822   0.000000
    14  C    3.385670   4.240681   2.527214   0.000000
    15  O    3.518641   4.086764   1.723582   1.255503   0.000000
    16  O    4.327996   5.375371   3.686039   1.237159   2.256480
                   16
    16  O    0.000000
 Symmetry turned off by external request.
 Stoichiometry    C4H7O5(1-)
 Framework group  C1[X(C4H7O5)]
 Deg. of freedom    42
 Full point group                 C1      NOp   1
 Rotational constants (GHZ):           1.8547189           1.4348324           0.8760731
 Leave Link  202 at Fri Jun  2 11:53:49 2023, MaxMem=  7381975040 cpu:               0.0 elap:               0.9
 (Enter /software/commercial/gaussian/g16/AVX/g16/l301.exe)
 Standard basis: 6-311+G(d,p) (5D, 7F)
 Ernie: Thresh=  0.10000D-02 Tol=  0.10000D-05 Strict=F.
   240 basis functions,   380 primitive gaussians,   249 cartesian basis functions
    36 alpha electrons       36 beta electrons
       nuclear repulsion energy       485.0818030911 Hartrees.
 IExCor=  402 DFT=T Ex+Corr=B3LYP ExCW=0 ScaHFX=  0.200000
 ScaDFX=  0.800000  0.720000  1.000000  0.810000 ScalE2=  1.000000  1.000000
 IRadAn=      5 IRanWt=     -1 IRanGd=            0 ICorTp=0 IEmpDi=141
 NAtoms=   16 NActive=   16 NUniq=   16 SFac= 1.00D+00 NAtFMM=   60 NAOKFM=F Big=F
 Integral buffers will be    131072 words long.
 Raffenetti 2 integral format.
 Two-electron integral symmetry is turned off.
 R6Disp:  Grimme-D3(BJ) Dispersion energy=       -0.0226312108 Hartrees.
 Nuclear repulsion after empirical dispersion term =      485.0591718803 Hartrees.
 Force inversion solution in PCM.
 ------------------------------------------------------------------------------
 Polarizable Continuum Model (PCM)
 =================================
 Model                : PCM.
 Atomic radii         : UFF (Universal Force Field).
 Polarization charges : Total charges.
 Charge compensation  : None.
 Solution method      : Matrix inversion.
 Cavity type          : Scaled VdW (van der Waals Surface) (Alpha=1.100).
 Cavity algorithm     : GePol (No added spheres)
                        Default sphere list used, NSphG=   16.
                        Lebedev-Laikov grids with approx.  5.0 points / Ang**2.
                        Smoothing algorithm: York/Karplus (Gamma=1.0000).
                        Polarization charges: spherical gaussians, with
                                              point-specific exponents (IZeta= 3).
                        Self-potential: point-specific (ISelfS= 7).
                        Self-field    : sphere-specific E.n sum rule (ISelfD= 2).
 1st derivatives      : Analytical E(r).r(x)/FMM algorithm (CHGder, D1EAlg=3).
                        Cavity 1st derivative terms included.
 2nd derivatives      : Analytical E(r).r(xy)/FMM algorithm (CHGder, D2EAlg=3).
                        Cavity 2nd derivative terms included.
 Solvent              : Ethanol, Eps=  24.852000 Eps(inf)=   1.852593
 ------------------------------------------------------------------------------
 Spheres list:
 ISph  on   Nord     Re0    Alpha      Xe            Ye            Ze
    1   O      1    1.7500  1.100      2.536369      0.336876     -0.144640
    2   C      2    1.9255  1.100      1.293005      0.886440      0.285254
    3   C      3    1.9255  1.100      0.112449      0.118247     -0.299508
    4   O      4    1.7500  1.100      0.370921     -1.257391      0.052061
    5   C      5    1.9255  1.100     -1.214752      0.633972      0.251721
    6   O      6    1.7500  1.100     -2.336071      0.276373     -0.548399
    7   H      7    1.4430  1.100      2.449272     -0.620915     -0.039000
    8   H      8    1.4430  1.100      1.230359      0.879114      1.381523
    9   H      9    1.4430  1.100      1.265324      1.922672     -0.054620
   10   H     10    1.4430  1.100      0.118538      0.210734     -1.389804
   11   H     11    1.4430  1.100     -1.330209      0.259136      1.277932
   12   H     12    1.4430  1.100     -1.181848      1.727302      0.297466
   13   H     13    1.4430  1.100     -2.104125     -0.591736     -0.949362
   14   C     14    1.9255  1.100     -0.262210     -2.298758     -0.666113
   15   O     15    1.7500  1.100     -1.195510     -1.971866     -1.439663
   16   O     16    1.7500  1.100      0.200740     -3.418161     -0.414766
 ------------------------------------------------------------------------------
 GePol: Number of generator spheres                  =      16
 GePol: Total number of spheres                      =      16
 GePol: Number of exposed spheres                    =      16 (100.00%)
 GePol: Number of points                             =    1375
 GePol: Average weight of points                     =       0.13
 GePol: Minimum weight of points                     =   0.42D-10
 GePol: Maximum weight of points                     =    0.20577
 GePol: Number of points with low weight             =      77
 GePol: Fraction of low-weight points (<1% of avg)   =       5.60%
 GePol: Cavity surface area                          =    181.084 Ang**2
 GePol: Cavity volume                                =    175.722 Ang**3
 Leave Link  301 at Fri Jun  2 11:53:50 2023, MaxMem=  7381975040 cpu:               0.7 elap:               0.9
 (Enter /software/commercial/gaussian/g16/AVX/g16/l302.exe)
 NPDir=0 NMtPBC=     1 NCelOv=     1 NCel=       1 NClECP=     1 NCelD=      1
         NCelK=      1 NCelE2=     1 NClLst=     1 CellRange=     0.0.
 One-electron integrals computed using PRISM.
 NBasis=   240 RedAO= T EigKep=  3.62D-05  NBF=   240
 NBsUse=   240 1.00D-06 EigRej= -1.00D+00 NBFU=   240
 Precomputing XC quadrature grid using
 IXCGrd= 4 IRadAn=           5 IRanWt=          -1 IRanGd=           0 AccXCQ= 0.00D+00.
 Generated NRdTot=       0 NPtTot=           0 NUsed=           0 NTot=          32
 NSgBfM=   249   249   249   249   249 MxSgAt=    16 MxSgA2=    16.
 Leave Link  302 at Fri Jun  2 11:53:54 2023, MaxMem=  7381975040 cpu:               1.0 elap:               2.0
 (Enter /software/commercial/gaussian/g16/AVX/g16/l303.exe)
 DipDrv:  MaxL=1.
 Leave Link  303 at Fri Jun  2 11:53:56 2023, MaxMem=  7381975040 cpu:               0.2 elap:               1.3
 (Enter /software/commercial/gaussian/g16/AVX/g16/l401.exe)
 Initial guess from the checkpoint file:  "/scratch1/svicchi/G09-659922.pbs02/02-freq/glycerol-CO2_binding-site_index-3-freq.chk"
 B after Tr=     0.000000    0.000000    0.000000
         Rot=    1.000000    0.000000    0.000000    0.000000 Ang=   0.00 deg.
 Guess basis will be translated and rotated to current coordinates.
 JPrj=2 DoOrth=T DoCkMO=T.
 Leave Link  401 at Fri Jun  2 11:53:59 2023, MaxMem=  7381975040 cpu:               1.2 elap:               2.0
 (Enter /software/commercial/gaussian/g16/AVX/g16/l502.exe)
 Keep R1 ints in memory in canonical form, NReq=426011218.
 FoFCou: FMM=F IPFlag=           0 FMFlag=           0 FMFlg1=           0
         NFxFlg=           0 DoJE=F BraDBF=F KetDBF=F FulRan=T
         wScrn=  0.000000 ICntrl=       600 IOpCl=  0 I1Cent=           0 NGrid=           0
         NMat0=    1 NMatS0=  28920 NMatT0=    0 NMatD0=    1 NMtDS0=    0 NMtDT0=    0
 Symmetry not used in FoFCou.
 Two-electron integral symmetry not used.
 Closed shell SCF:
 Using DIIS extrapolation, IDIIS=  1040.
 NGot=  7381975040 LenX=  6963649609 LenY=  6963587167
 Requested convergence on RMS density matrix=1.00D-08 within 350 cycles.
 Requested convergence on MAX density matrix=1.00D-06.
 Requested convergence on             energy=1.00D-06.
 No special actions if energy rises.

 Cycle   1  Pass 1  IDiag  1:
 Inv3:  Mode=1 IEnd=     5671875.
 Iteration    1 A*A^-1 deviation from unit magnitude is 4.22D-15 for   1370.
 Iteration    1 A*A^-1 deviation from orthogonality  is 2.82D-15 for   1367    125.
 Iteration    1 A^-1*A deviation from unit magnitude is 4.00D-15 for   1370.
 Iteration    1 A^-1*A deviation from orthogonality  is 2.56D-15 for   1217    894.
 E= -533.127594514072    
 DIIS: error= 1.76D-08 at cycle   1 NSaved=   1.
 NSaved= 1 IEnMin= 1 EnMin= -533.127594514072     IErMin= 1 ErrMin= 1.76D-08
 ErrMax= 1.76D-08  0.00D+00 EMaxC= 1.00D-01 BMatC= 1.27D-13 BMatP= 1.27D-13
 IDIUse=1 WtCom= 1.00D+00 WtEn= 0.00D+00
 Coeff-Com:  0.100D+01
 Coeff:      0.100D+01
 Gap=     0.252 Goal=   None    Shift=    0.000
 RMSDP=3.12D-09 MaxDP=1.21D-07              OVMax= 1.83D-07

 Error on total polarization charges =  0.01711
 SCF Done:  E(RB3LYP) =  -533.127594514     A.U. after    1 cycles
            NFock=  1  Conv=0.31D-08     -V/T= 2.0036
 KE= 5.312365545222D+02 PE=-2.236470445502D+03 EE= 6.870471245856D+02
 Leave Link  502 at Fri Jun  2 11:54:24 2023, MaxMem=  7381975040 cpu:              39.1 elap:              23.2
 (Enter /software/commercial/gaussian/g16/AVX/g16/l508.exe)
 QCSCF skips out because SCF is already converged.
 Leave Link  508 at Fri Jun  2 11:54:26 2023, MaxMem=  7381975040 cpu:               0.0 elap:               1.2
 (Enter /software/commercial/gaussian/g16/AVX/g16/l801.exe)
 DoSCS=F DFT=T ScalE2(SS,OS)=  1.000000  1.000000
 Range of M.O.s used for correlation:     1   240
 NBasis=   240 NAE=    36 NBE=    36 NFC=     0 NFV=     0
 NROrb=    240 NOA=    36 NOB=    36 NVA=   204 NVB=   204

 **** Warning!!: The largest alpha MO coefficient is  0.40597429D+02

 Leave Link  801 at Fri Jun  2 11:54:28 2023, MaxMem=  7381975040 cpu:               0.1 elap:               1.5
 (Enter /software/commercial/gaussian/g16/AVX/g16/l1002.exe)
 Minotr:  Closed shell wavefunction.
 NEqPCM:  Using equilibrium solvation (IEInf=0, Eps=  24.8520, EpsInf=   1.8526)
          Direct CPHF calculation.
          Differentiating once with respect to electric field.
                with respect to dipole field.
          Electric field/nuclear overlap derivatives assumed to be zero.
          Requested convergence is 1.0D-08 RMS, and 1.0D-07 maximum.
          Secondary convergence is 1.0D-12 RMS, and 1.0D-12 maximum.
          NewPWx=F KeepS1=T KeepF1=T KeepIn=T MapXYZ=F SortEE=F KeepMc=T.
         4923 words used for storage of precomputed grid.
 Keep R1 ints in memory in canonical form, NReq=426018041.
 FoFCou: FMM=F IPFlag=           0 FMFlag=           0 FMFlg1=           0
         NFxFlg=           0 DoJE=F BraDBF=F KetDBF=F FulRan=T
         wScrn=  0.000000 ICntrl=       600 IOpCl=  0 I1Cent=           0 NGrid=           0
         NMat0=    1 NMatS0=  28920 NMatT0=    0 NMatD0=    1 NMtDS0=    0 NMtDT0=    0
 Symmetry not used in FoFCou.
 Two-electron integral symmetry not used.
          MDV=    7381975040 using IRadAn=       1.
          Solving linear equations simultaneously, MaxMat=       0.
          There are     3 degrees of freedom in the 1st order CPHF.  IDoFFX=0 NUNeed=     3.
      3 vectors produced by pass  0 Test12= 2.45D-13 3.33D-08 XBig12= 5.20D+01 1.24D+00.
 AX will form     3 AO Fock derivatives at one time.
      3 vectors produced by pass  1 Test12= 2.45D-13 3.33D-08 XBig12= 1.30D+01 6.01D-01.
      3 vectors produced by pass  2 Test12= 2.45D-13 3.33D-08 XBig12= 3.68D+00 2.55D-01.
      3 vectors produced by pass  3 Test12= 2.45D-13 3.33D-08 XBig12= 6.61D-01 7.79D-02.
      3 vectors produced by pass  4 Test12= 2.45D-13 3.33D-08 XBig12= 1.61D-01 5.23D-02.
      3 vectors produced by pass  5 Test12= 2.45D-13 3.33D-08 XBig12= 4.42D-02 3.35D-02.
      3 vectors produced by pass  6 Test12= 2.45D-13 3.33D-08 XBig12= 6.39D-03 1.07D-02.
      3 vectors produced by pass  7 Test12= 2.45D-13 3.33D-08 XBig12= 5.30D-04 2.34D-03.
      3 vectors produced by pass  8 Test12= 2.45D-13 3.33D-08 XBig12= 2.70D-05 6.25D-04.
      3 vectors produced by pass  9 Test12= 2.45D-13 3.33D-08 XBig12= 8.75D-07 1.59D-04.
      3 vectors produced by pass 10 Test12= 2.45D-13 3.33D-08 XBig12= 2.48D-08 1.55D-05.
      3 vectors produced by pass 11 Test12= 2.45D-13 3.33D-08 XBig12= 5.89D-10 3.58D-06.
      3 vectors produced by pass 12 Test12= 2.45D-13 3.33D-08 XBig12= 9.33D-12 5.21D-07.
      2 vectors produced by pass 13 Test12= 2.45D-13 3.33D-08 XBig12= 2.38D-13 9.39D-08.
 InvSVY:  IOpt=1 It=  1 EMax= 1.78D-15
 Solved reduced A of dimension    41 with     3 vectors.
 End of Minotr F.D. properties file   721 does not exist.
 End of Minotr F.D. properties file   722 does not exist.
 End of Minotr F.D. properties file   788 does not exist.
 Leave Link 1002 at Fri Jun  2 11:56:25 2023, MaxMem=  7381975040 cpu:             218.8 elap:             116.2
 (Enter /software/commercial/gaussian/g16/AVX/g16/l1101.exe)
 Using compressed storage, NAtomX=    16.
 Will process     17 centers per pass.
 R6Disp: Adding Grimme-D3(BJ) dispersion energy 1st derivatives to the gradient.
 Leave Link 1101 at Fri Jun  2 11:56:28 2023, MaxMem=  7381975040 cpu:               1.0 elap:               1.5
 (Enter /software/commercial/gaussian/g16/AVX/g16/l1102.exe)
 Symmetrizing basis deriv contribution to polar:
 IMax=3 JMax=2 DiffMx= 0.00D+00
 Leave Link 1102 at Fri Jun  2 11:56:30 2023, MaxMem=  7381975040 cpu:               0.1 elap:               0.8
 (Enter /software/commercial/gaussian/g16/AVX/g16/l1110.exe)
 Forming Gx(P) for the SCF density, NAtomX=    16.
 Integral derivatives from FoFJK, PRISM(SPDF).
 Do as many integral derivatives as possible in FoFJK.
 G2DrvN: MDV=    7381973256.
 G2DrvN: will do    17 centers at a time, making    1 passes.
 PxScal for G2LodP:  IOpCl= 0 ISclPx=1 IMOff=     1 NMtTot=     4 NTT=   28920 ScalPx= 1.79D+01
 Calling FoFCou, ICntrl=  3107 FMM=F I1Cent=   0 AccDes= 0.00D+00.
 FoFJK:  IHMeth= 1 ICntrl=    3107 DoSepK=F KAlg= 0 I1Cent=           0 FoldK=F
 IRaf=         0 NMat=       1 IRICut=       1 DoRegI=T DoRafI=F ISym2E= 0 IDoP0=0 IntGTp=1.
 FoFCou: FMM=F IPFlag=           0 FMFlag=      100000 FMFlg1=           0
         NFxFlg=           0 DoJE=F BraDBF=F KetDBF=F FulRan=T
         wScrn=  0.000000 ICntrl=      3107 IOpCl=  0 I1Cent=           0 NGrid=           0
         NMat0=    1 NMatS0=      1 NMatT0=    0 NMatD0=    4 NMtDS0=    3 NMtDT0=    0
 Symmetry not used in FoFCou.
 PxScal for G2LodP:  IOpCl= 0 ISclPx=0 IMOff=     1 NMtTot=     4 NTT=   28920 ScalPx= 1.00D+00
 NEqPCM:  Using equilibrium solvation (IEInf=0, Eps=  24.8520, EpsInf=   1.8526)
 G2PCM: DoFxE=T DoFxN=T DoGrad=T DoDP/DQ/DG/TGxP=TFFF NFrqRd=   0 IEInf=0 SqF1=F DoCFld=F IF1Alg=4.
 GePol: Maximum number of non-zero 1st derivatives   =     227
 End of G2Drv F.D. properties file   721 does not exist.
 End of G2Drv F.D. properties file   722 does not exist.
 End of G2Drv F.D. properties file   788 does not exist.
 Leave Link 1110 at Fri Jun  2 12:01:27 2023, MaxMem=  7381975040 cpu:             584.8 elap:             295.9
 (Enter /software/commercial/gaussian/g16/AVX/g16/l1002.exe)
 Minotr:  Closed shell wavefunction.
          IDoAtm=1111111111111111
 NEqPCM:  Using equilibrium solvation (IEInf=0, Eps=  24.8520, EpsInf=   1.8526)
          Direct CPHF calculation.
          Differentiating once with respect to electric field.
                with respect to dipole field.
          Differentiating once with respect to nuclear coordinates.
          Requested convergence is 1.0D-08 RMS, and 1.0D-07 maximum.
          Secondary convergence is 1.0D-12 RMS, and 1.0D-12 maximum.
          NewPWx=T KeepS1=F KeepF1=F KeepIn=T MapXYZ=F SortEE=F KeepMc=T.
         4923 words used for storage of precomputed grid.
 Keep R1 ints in memory in canonical form, NReq=426018409.
 FoFCou: FMM=F IPFlag=           0 FMFlag=           0 FMFlg1=           0
         NFxFlg=           0 DoJE=F BraDBF=F KetDBF=F FulRan=T
         wScrn=  0.000000 ICntrl=       600 IOpCl=  0 I1Cent=           0 NGrid=           0
         NMat0=    1 NMatS0=  28920 NMatT0=    0 NMatD0=    1 NMtDS0=    0 NMtDT0=    0
 Symmetry not used in FoFCou.
 Two-electron integral symmetry not used.
          MDV=    7381975040 using IRadAn=       1.
          Solving linear equations simultaneously, MaxMat=       0.
          There are    51 degrees of freedom in the 1st order CPHF.  IDoFFX=5 NUNeed=    51.
 Will reuse    3 saved solutions.
     45 vectors produced by pass  0 Test12= 1.44D-14 1.96D-09 XBig12= 1.61D-01 7.30D-02.
 AX will form    45 AO Fock derivatives at one time.
     45 vectors produced by pass  1 Test12= 1.44D-14 1.96D-09 XBig12= 1.08D-02 1.49D-02.
     45 vectors produced by pass  2 Test12= 1.44D-14 1.96D-09 XBig12= 1.33D-04 1.30D-03.
     45 vectors produced by pass  3 Test12= 1.44D-14 1.96D-09 XBig12= 7.72D-07 8.54D-05.
     45 vectors produced by pass  4 Test12= 1.44D-14 1.96D-09 XBig12= 2.54D-09 5.19D-06.
     42 vectors produced by pass  5 Test12= 1.44D-14 1.96D-09 XBig12= 4.77D-12 2.41D-07.
     13 vectors produced by pass  6 Test12= 1.44D-14 1.96D-09 XBig12= 7.03D-15 1.22D-08.
 InvSVY:  IOpt=1 It=  1 EMax= 3.89D-16
 Solved reduced A of dimension   280 with    51 vectors.
 FullF1:  Do perturbations      1 to       3.
 Isotropic polarizability for W=    0.000000       92.83 Bohr**3.
 FullF1:  Do perturbations      1 to       6.
 End of Minotr F.D. properties file   721 does not exist.
 End of Minotr F.D. properties file   722 does not exist.
 End of Minotr F.D. properties file   788 does not exist.
 Leave Link 1002 at Fri Jun  2 12:07:48 2023, MaxMem=  7381975040 cpu:             739.7 elap:             380.8
 (Enter /software/commercial/gaussian/g16/AVX/g16/l601.exe)
 Copying SCF densities to generalized density rwf, IOpCl= 0 IROHF=0.

 **********************************************************************

            Population analysis using the SCF Density.

 **********************************************************************

 Alpha  occ. eigenvalues --  -19.13508 -19.12450 -19.10262 -19.07540 -19.06777
 Alpha  occ. eigenvalues --  -10.30061 -10.22283 -10.21777 -10.21140  -1.08514
 Alpha  occ. eigenvalues --   -1.02824  -1.00726  -0.98687  -0.95937  -0.76970
 Alpha  occ. eigenvalues --   -0.66671  -0.62426  -0.55348  -0.51432  -0.50803
 Alpha  occ. eigenvalues --   -0.47449  -0.44925  -0.43763  -0.43063  -0.42349
 Alpha  occ. eigenvalues --   -0.41858  -0.38712  -0.36852  -0.34974  -0.33654
 Alpha  occ. eigenvalues --   -0.28790  -0.28654  -0.28162  -0.26773  -0.26142
 Alpha  occ. eigenvalues --   -0.24135
 Alpha virt. eigenvalues --    0.01075   0.02520   0.02871   0.03323   0.05086
 Alpha virt. eigenvalues --    0.06172   0.06202   0.06783   0.07352   0.07830
 Alpha virt. eigenvalues --    0.09669   0.10084   0.11137   0.12035   0.12636
 Alpha virt. eigenvalues --    0.13672   0.14990   0.15630   0.16725   0.17651
 Alpha virt. eigenvalues --    0.19814   0.20049   0.20735   0.21354   0.21970
 Alpha virt. eigenvalues --    0.22047   0.23107   0.23668   0.24183   0.24674
 Alpha virt. eigenvalues --    0.25678   0.26496   0.27555   0.27727   0.28147
 Alpha virt. eigenvalues --    0.28673   0.29300   0.29396   0.29626   0.30539
 Alpha virt. eigenvalues --    0.31477   0.32692   0.33815   0.33857   0.34803
 Alpha virt. eigenvalues --    0.36176   0.38196   0.38950   0.40423   0.42876
 Alpha virt. eigenvalues --    0.46250   0.47225   0.49046   0.52644   0.53584
 Alpha virt. eigenvalues --    0.56093   0.56427   0.57654   0.59270   0.61492
 Alpha virt. eigenvalues --    0.62897   0.66154   0.67125   0.68106   0.70208
 Alpha virt. eigenvalues --    0.70710   0.73008   0.74095   0.74686   0.77488
 Alpha virt. eigenvalues --    0.79235   0.86895   0.90630   0.94771   0.98479
 Alpha virt. eigenvalues --    0.99505   1.01957   1.07092   1.10322   1.10703
 Alpha virt. eigenvalues --    1.11923   1.12734   1.14646   1.15612   1.17892
 Alpha virt. eigenvalues --    1.19022   1.19655   1.21429   1.22008   1.26385
 Alpha virt. eigenvalues --    1.28423   1.28662   1.30256   1.34645   1.37477
 Alpha virt. eigenvalues --    1.42613   1.44014   1.45898   1.49422   1.50687
 Alpha virt. eigenvalues --    1.53140   1.54325   1.56152   1.57422   1.58592
 Alpha virt. eigenvalues --    1.59723   1.61658   1.63975   1.65354   1.67841
 Alpha virt. eigenvalues --    1.68972   1.70845   1.73288   1.78135   1.81038
 Alpha virt. eigenvalues --    1.81940   1.82262   1.87004   1.91072   1.92009
 Alpha virt. eigenvalues --    1.99740   2.00633   2.02091   2.07274   2.12733
 Alpha virt. eigenvalues --    2.14133   2.17134   2.18100   2.27821   2.28875
 Alpha virt. eigenvalues --    2.32137   2.46006   2.47691   2.49122   2.52179
 Alpha virt. eigenvalues --    2.56231   2.59789   2.61258   2.62112   2.67870
 Alpha virt. eigenvalues --    2.73493   2.78155   2.82103   2.83027   2.86320
 Alpha virt. eigenvalues --    2.87558   2.89850   2.92022   2.93052   2.95138
 Alpha virt. eigenvalues --    3.00005   3.01405   3.02011   3.08970   3.10259
 Alpha virt. eigenvalues --    3.13811   3.16394   3.18477   3.20676   3.25234
 Alpha virt. eigenvalues --    3.26954   3.31008   3.32850   3.34776   3.42417
 Alpha virt. eigenvalues --    3.50810   3.52427   3.57947   3.70157   3.76369
 Alpha virt. eigenvalues --    3.79691   3.87768   3.89257   3.94705   3.99277
 Alpha virt. eigenvalues --    4.05595   4.08586   4.11619   4.19432   4.30428
 Alpha virt. eigenvalues --    5.04715   5.06172   5.06762   5.08907   5.10031
 Alpha virt. eigenvalues --    5.14763   5.24209   5.29874   5.39487   5.44071
 Alpha virt. eigenvalues --    5.50602   5.62181   5.68957   5.89188   5.91302
 Alpha virt. eigenvalues --   23.79859  23.82787  23.85025  23.87157  49.89459
 Alpha virt. eigenvalues --   49.90896  49.95259  49.97457  50.04835
     Molecular Orbital Coefficients:
                           1         2         3         4         5
                           O         O         O         O         O
     Eigenvalues --   -19.13508 -19.12450 -19.10262 -19.07540 -19.06777
   1 1   O  1S         -0.00004   0.55133  -0.00002  -0.00000  -0.00000
   2        2S         -0.00003   0.46973  -0.00002  -0.00000  -0.00000
   3        2PX        -0.00000  -0.00100   0.00001  -0.00001   0.00000
   4        2PY        -0.00002  -0.00061   0.00000  -0.00001   0.00000
   5        2PZ         0.00002   0.00044   0.00000  -0.00000  -0.00000
   6        3S          0.00003   0.01361   0.00004   0.00002   0.00002
   7        3PX        -0.00001  -0.00004  -0.00002   0.00003  -0.00002
   8        3PY         0.00008  -0.00015  -0.00002   0.00002  -0.00002
   9        3PZ        -0.00009  -0.00001  -0.00002   0.00001   0.00000
  10        4S         -0.00012  -0.00990  -0.00006  -0.00015  -0.00002
  11        4PX         0.00019   0.00164   0.00008  -0.00007   0.00010
  12        4PY         0.00004  -0.00047   0.00013  -0.00003   0.00013
  13        4PZ         0.00023  -0.00044   0.00005  -0.00001  -0.00004
  14        5S         -0.00006   0.00710   0.00026   0.00063  -0.00108
  15        5PX         0.00009  -0.00085   0.00010  -0.00006   0.00018
  16        5PY        -0.00025  -0.00067   0.00008   0.00005   0.00030
  17        5PZ        -0.00025   0.00014   0.00011   0.00016   0.00015
  18        6D 0        0.00004  -0.00009   0.00001  -0.00000   0.00001
  19        6D+1       -0.00000   0.00003  -0.00000  -0.00000   0.00000
  20        6D-1       -0.00000  -0.00004   0.00000  -0.00000  -0.00000
  21        6D+2        0.00001  -0.00022   0.00000   0.00001   0.00000
  22        6D-2       -0.00003   0.00003  -0.00000  -0.00000  -0.00001
  23 2   C  1S          0.00000   0.00001  -0.00000  -0.00000   0.00000
  24        2S          0.00000  -0.00005   0.00001   0.00000  -0.00000
  25        2PX        -0.00003   0.00013  -0.00001  -0.00001   0.00001
  26        2PY        -0.00000  -0.00008  -0.00001  -0.00001   0.00001
  27        2PZ        -0.00002  -0.00007  -0.00000   0.00000  -0.00000
  28        3S          0.00003  -0.00006  -0.00012  -0.00004   0.00001
  29        3PX         0.00016   0.00021   0.00005   0.00004  -0.00003
  30        3PY         0.00013   0.00016   0.00004   0.00009  -0.00004
  31        3PZ         0.00012   0.00019   0.00004   0.00001   0.00000
  32        4S         -0.00071   0.00541   0.00132  -0.00033   0.00118
  33        4PX         0.00029   0.00076  -0.00095   0.00008  -0.00048
  34        4PY         0.00102  -0.00167   0.00018  -0.00016   0.00015
  35        4PZ        -0.00052  -0.00081  -0.00002  -0.00009   0.00012
  36        5S          0.01095  -0.00702  -0.01325  -0.01524  -0.00683
  37        5PX        -0.00176  -0.00022   0.00242   0.00227   0.00102
  38        5PY        -0.00229   0.00186   0.00157   0.00233   0.00100
  39        5PZ        -0.00018   0.00099   0.00089   0.00157   0.00080
  40        6D 0       -0.00006   0.00013   0.00004  -0.00000  -0.00002
  41        6D+1       -0.00000   0.00009   0.00003   0.00002  -0.00002
  42        6D-1       -0.00007  -0.00004  -0.00003   0.00000  -0.00003
  43        6D+2       -0.00007  -0.00011   0.00001  -0.00001   0.00001
  44        6D-2       -0.00006   0.00008  -0.00001  -0.00001  -0.00001
  45 3   C  1S          0.00001  -0.00000   0.00000  -0.00000  -0.00000
  46        2S         -0.00005   0.00001   0.00001   0.00001   0.00002
  47        2PX         0.00001   0.00005  -0.00006  -0.00002  -0.00002
  48        2PY        -0.00010   0.00000  -0.00001   0.00001  -0.00005
  49        2PZ         0.00010   0.00002   0.00001  -0.00002   0.00000
  50        3S         -0.00018   0.00005   0.00007  -0.00028  -0.00024
  51        3PX         0.00011  -0.00028   0.00029   0.00011   0.00010
  52        3PY        -0.00035  -0.00002   0.00004  -0.00014   0.00028
  53        3PZ        -0.00042  -0.00014  -0.00008   0.00000  -0.00003
  54        4S          0.00472  -0.00187  -0.00169   0.00381   0.00005
  55        4PX        -0.00037  -0.00039   0.00089  -0.00070  -0.00041
  56        4PY        -0.00171  -0.00162  -0.00201  -0.00075  -0.00158
  57        4PZ         0.00074  -0.00037  -0.00062   0.00061  -0.00182
  58        5S         -0.02795   0.02048   0.02329   0.00838  -0.00068
  59        5PX        -0.00106  -0.00295   0.00142   0.00812   0.00606
  60        5PY         0.00215   0.00084   0.00398   0.00070  -0.00091
  61        5PZ        -0.00477   0.00252   0.00350   0.00123   0.00013
  62        6D 0        0.00014   0.00004   0.00011   0.00004   0.00008
  63        6D+1       -0.00009  -0.00007   0.00004  -0.00006   0.00001
  64        6D-1        0.00004  -0.00001   0.00002  -0.00008   0.00003
  65        6D+2       -0.00001  -0.00011  -0.00016  -0.00002  -0.00007
  66        6D-2       -0.00000  -0.00011   0.00002  -0.00010   0.00001
  67 4   O  1S          0.55132   0.00004  -0.00005   0.00005   0.00006
  68        2S          0.46972   0.00003  -0.00006   0.00005   0.00007
  69        2PX        -0.00069  -0.00001   0.00002  -0.00003  -0.00003
  70        2PY         0.00031  -0.00001  -0.00002  -0.00007  -0.00007
  71        2PZ        -0.00083  -0.00001   0.00001  -0.00004  -0.00004
  72        3S          0.01403   0.00001   0.00017   0.00010  -0.00003
  73        3PX         0.00001   0.00004  -0.00010   0.00007   0.00011
  74        3PY        -0.00001   0.00006   0.00008   0.00031   0.00024
  75        3PZ         0.00008   0.00002  -0.00004   0.00014   0.00015
  76        4S         -0.01277   0.00023  -0.00059  -0.00091  -0.00060
  77        4PX         0.00105  -0.00029   0.00035   0.00073  -0.00018
  78        4PY        -0.00088  -0.00053  -0.00025  -0.00141   0.00053
  79        4PZ         0.00101  -0.00001   0.00038   0.00039  -0.00001
  80        5S          0.00787  -0.00281  -0.00441  -0.00065  -0.00285
  81        5PX         0.00048  -0.00019   0.00057  -0.00032   0.00018
  82        5PY         0.00293  -0.00190  -0.00002  -0.00186   0.00176
  83        5PZ         0.00061  -0.00033   0.00059   0.00024   0.00113
  84        6D 0        0.00000   0.00002   0.00002  -0.00002   0.00002
  85        6D+1       -0.00004   0.00000  -0.00002  -0.00010   0.00002
  86        6D-1        0.00004   0.00003   0.00000  -0.00003  -0.00009
  87        6D+2        0.00004   0.00001   0.00001  -0.00002   0.00009
  88        6D-2        0.00004  -0.00001  -0.00000  -0.00006  -0.00008
  89 5   C  1S         -0.00000  -0.00000   0.00002   0.00000  -0.00000
  90        2S          0.00001   0.00001  -0.00007  -0.00001   0.00001
  91        2PX         0.00007   0.00002  -0.00011   0.00004   0.00001
  92        2PY        -0.00006  -0.00001  -0.00005  -0.00002  -0.00003
  93        2PZ        -0.00004  -0.00001  -0.00011   0.00000  -0.00002
  94        3S          0.00005  -0.00014   0.00012   0.00022  -0.00013
  95        3PX        -0.00035  -0.00011  -0.00024  -0.00016  -0.00006
  96        3PY         0.00024   0.00007   0.00005   0.00005   0.00008
  97        3PZ         0.00022   0.00004   0.00013  -0.00008   0.00008
  98        4S         -0.00151   0.00127   0.00469  -0.00210   0.00116
  99        4PX        -0.00019   0.00076  -0.00027  -0.00050   0.00021
 100        4PY         0.00067   0.00031  -0.00085   0.00066  -0.00061
 101        4PZ        -0.00005  -0.00024  -0.00147   0.00019   0.00026
 102        5S          0.00904  -0.01266  -0.01528   0.01060   0.01107
 103        5PX         0.00196  -0.00263  -0.00182   0.00151   0.00183
 104        5PY        -0.00191   0.00097   0.00259  -0.00154  -0.00127
 105        5PZ        -0.00008   0.00088   0.00242  -0.00132  -0.00150
 106        6D 0        0.00005  -0.00002   0.00007  -0.00001   0.00002
 107        6D+1       -0.00001  -0.00001  -0.00014   0.00004   0.00004
 108        6D-1       -0.00011  -0.00002  -0.00007  -0.00002  -0.00005
 109        6D+2       -0.00004  -0.00003  -0.00008   0.00002   0.00007
 110        6D-2        0.00011   0.00001  -0.00002   0.00006   0.00003
 111 6   O  1S          0.00004   0.00002   0.55133  -0.00003  -0.00001
 112        2S          0.00002   0.00001   0.46972  -0.00005  -0.00002
 113        2PX        -0.00003  -0.00001   0.00100  -0.00001  -0.00002
 114        2PY         0.00002  -0.00000  -0.00052   0.00005  -0.00001
 115        2PZ         0.00001   0.00000   0.00025   0.00002  -0.00000
 116        3S          0.00012   0.00005   0.01370   0.00012   0.00009
 117        3PX         0.00012   0.00003   0.00009   0.00008   0.00007
 118        3PY        -0.00009   0.00001  -0.00018  -0.00022   0.00002
 119        3PZ        -0.00006  -0.00000  -0.00013  -0.00011   0.00002
 120        4S          0.00008  -0.00013  -0.01026   0.00028  -0.00038
 121        4PX        -0.00016  -0.00016  -0.00159  -0.00016  -0.00040
 122        4PY         0.00003  -0.00007  -0.00000   0.00015   0.00018
 123        4PZ         0.00014   0.00000  -0.00061   0.00012  -0.00016
 124        5S         -0.00102   0.00048   0.00863   0.00105  -0.00046
 125        5PX         0.00007  -0.00006   0.00123   0.00032   0.00016
 126        5PY         0.00032  -0.00009  -0.00070  -0.00071  -0.00020
 127        5PZ         0.00010   0.00013  -0.00009  -0.00029   0.00008
 128        6D 0        0.00000   0.00001  -0.00003  -0.00000   0.00002
 129        6D+1       -0.00001  -0.00000  -0.00006  -0.00001  -0.00001
 130        6D-1       -0.00001  -0.00001   0.00012   0.00004  -0.00002
 131        6D+2       -0.00002  -0.00000  -0.00015  -0.00007   0.00000
 132        6D-2       -0.00002  -0.00001  -0.00005  -0.00000   0.00001
 133 7   H  1S         -0.00007   0.00003   0.00001  -0.00000  -0.00002
 134        2S          0.00020   0.00018   0.00010   0.00002   0.00018
 135        3S         -0.00049  -0.00169   0.00008   0.00009   0.00070
 136        4PX        -0.00003  -0.00018   0.00001  -0.00002  -0.00004
 137        4PY         0.00010  -0.00073   0.00001   0.00002   0.00001
 138        4PZ        -0.00002   0.00009  -0.00002  -0.00002  -0.00002
 139 8   H  1S          0.00004   0.00006   0.00005   0.00002  -0.00000
 140        2S          0.00015  -0.00123  -0.00042  -0.00006  -0.00006
 141        3S          0.00021  -0.00031   0.00023   0.00041  -0.00055
 142        4PX         0.00006  -0.00016   0.00003   0.00001   0.00001
 143        4PY         0.00006   0.00013  -0.00003   0.00001  -0.00001
 144        4PZ         0.00004   0.00034   0.00006   0.00000   0.00001
 145 9   H  1S          0.00001  -0.00001   0.00002   0.00000   0.00002
 146        2S         -0.00034  -0.00076  -0.00030  -0.00004  -0.00020
 147        3S          0.00009  -0.00021  -0.00004   0.00037   0.00021
 148        4PX        -0.00006  -0.00011   0.00001   0.00000  -0.00001
 149        4PY         0.00005   0.00023   0.00002   0.00002  -0.00000
 150        4PZ        -0.00003   0.00001  -0.00005   0.00001  -0.00004
 151 10  H  1S          0.00012   0.00003   0.00001   0.00008   0.00006
 152        2S         -0.00165   0.00003  -0.00020  -0.00062  -0.00084
 153        3S          0.00152  -0.00108  -0.00053  -0.00025  -0.00052
 154        4PX        -0.00001  -0.00009   0.00008   0.00008   0.00005
 155        4PY         0.00025   0.00005   0.00008   0.00016   0.00003
 156        4PZ        -0.00038  -0.00011  -0.00009  -0.00011  -0.00012
 157 11  H  1S          0.00002   0.00002   0.00005  -0.00008   0.00004
 158        2S         -0.00011  -0.00017  -0.00114   0.00060  -0.00043
 159        3S          0.00039   0.00018   0.00081  -0.00070  -0.00088
 160        4PX        -0.00011  -0.00003   0.00011   0.00000  -0.00001
 161        4PY         0.00003  -0.00005  -0.00000  -0.00002   0.00002
 162        4PZ         0.00011   0.00001   0.00033  -0.00009   0.00010
 163 12  H  1S         -0.00001   0.00005  -0.00000  -0.00001  -0.00003
 164        2S         -0.00010  -0.00053  -0.00071   0.00015   0.00017
 165        3S          0.00033   0.00013  -0.00025  -0.00046  -0.00017
 166        4PX         0.00005   0.00000   0.00008   0.00001   0.00001
 167        4PY         0.00003   0.00007   0.00020  -0.00003  -0.00003
 168        4PZ         0.00002  -0.00000   0.00011   0.00002  -0.00004
 169 13  H  1S          0.00008   0.00000  -0.00001  -0.00015   0.00003
 170        2S         -0.00024   0.00003   0.00065   0.00052   0.00012
 171        3S          0.00185  -0.00072  -0.00198  -0.00280  -0.00079
 172        4PX        -0.00005  -0.00001   0.00030   0.00020  -0.00006
 173        4PY        -0.00011   0.00001  -0.00063  -0.00039   0.00003
 174        4PZ        -0.00009  -0.00001  -0.00025  -0.00014   0.00011
 175 14  C  1S          0.00002   0.00000   0.00000  -0.00001  -0.00002
 176        2S         -0.00007  -0.00000  -0.00001   0.00006   0.00009
 177        2PX         0.00010   0.00001   0.00003  -0.00025   0.00015
 178        2PY         0.00010   0.00000  -0.00005   0.00008  -0.00038
 179        2PZ         0.00013   0.00000   0.00000  -0.00023   0.00007
 180        3S          0.00025   0.00005  -0.00006   0.00044   0.00024
 181        3PX        -0.00006  -0.00006  -0.00010   0.00046  -0.00037
 182        3PY         0.00017  -0.00003   0.00021  -0.00018   0.00094
 183        3PZ        -0.00013  -0.00002   0.00000   0.00044  -0.00016
 184        4S          0.00331  -0.00075   0.00154   0.00075   0.00385
 185        4PX         0.00094   0.00009   0.00060  -0.00397   0.00376
 186        4PY         0.00176  -0.00046   0.00019   0.00249  -0.00487
 187        4PZ         0.00145  -0.00031   0.00066  -0.00335   0.00246
 188        5S          0.00276  -0.00068   0.00374  -0.00603  -0.00422
 189        5PX         0.00068   0.00038  -0.00060   0.00023  -0.00081
 190        5PY         0.00068  -0.00037   0.00131  -0.00232  -0.00022
 191        5PZ         0.00051  -0.00022   0.00025  -0.00011  -0.00057
 192        6D 0       -0.00014  -0.00002  -0.00006  -0.00019   0.00032
 193        6D+1        0.00011  -0.00004  -0.00001  -0.00049   0.00013
 194        6D-1       -0.00016  -0.00004  -0.00002   0.00029   0.00041
 195        6D+2       -0.00011   0.00002  -0.00003  -0.00047   0.00043
 196        6D-2       -0.00026   0.00000  -0.00002   0.00024   0.00057
 197 15  O  1S         -0.00005   0.00000   0.00003   0.55131   0.00075
 198        2S         -0.00003   0.00000   0.00001   0.46971   0.00068
 199        2PX         0.00004   0.00000   0.00003   0.00079   0.00004
 200        2PY        -0.00002   0.00000  -0.00004  -0.00022  -0.00004
 201        2PZ         0.00003  -0.00000  -0.00001   0.00070   0.00004
 202        3S         -0.00000   0.00001   0.00016   0.01388  -0.00027
 203        3PX        -0.00016  -0.00001  -0.00012   0.00036  -0.00019
 204        3PY         0.00009  -0.00000   0.00018   0.00007   0.00014
 205        3PZ        -0.00013   0.00000   0.00004   0.00035  -0.00019
 206        4S         -0.00042   0.00003  -0.00014  -0.01119   0.00145
 207        4PX        -0.00025   0.00006   0.00029  -0.00130   0.00044
 208        4PY        -0.00057   0.00002  -0.00066  -0.00036   0.00053
 209        4PZ        -0.00031   0.00004  -0.00021  -0.00128   0.00059
 210        5S         -0.00043   0.00008   0.00003   0.00459   0.00347
 211        5PX         0.00019  -0.00030  -0.00003  -0.00050   0.00052
 212        5PY        -0.00070   0.00007   0.00044   0.00166   0.00042
 213        5PZ        -0.00037   0.00019   0.00006   0.00013   0.00048
 214        6D 0       -0.00003   0.00000   0.00000   0.00001   0.00004
 215        6D+1       -0.00010  -0.00000  -0.00001   0.00016  -0.00001
 216        6D-1       -0.00004   0.00000  -0.00005  -0.00009   0.00013
 217        6D+2       -0.00007   0.00000   0.00002   0.00010   0.00003
 218        6D-2       -0.00006  -0.00000   0.00003  -0.00009   0.00015
 219 16  O  1S         -0.00006   0.00000   0.00001  -0.00075   0.55131
 220        2S         -0.00002  -0.00000   0.00001  -0.00060   0.46972
 221        2PX        -0.00001  -0.00000  -0.00000  -0.00003  -0.00041
 222        2PY         0.00004  -0.00001  -0.00001   0.00003   0.00099
 223        2PZ        -0.00002  -0.00000   0.00000  -0.00002  -0.00022
 224        3S         -0.00012   0.00001   0.00005  -0.00031   0.01384
 225        3PX         0.00006   0.00000   0.00001   0.00011  -0.00022
 226        3PY        -0.00021   0.00003   0.00003  -0.00019   0.00063
 227        3PZ         0.00007   0.00000  -0.00001   0.00008  -0.00010
 228        4S         -0.00027  -0.00001  -0.00025   0.00145  -0.01136
 229        4PX        -0.00016  -0.00001  -0.00005   0.00034   0.00053
 230        4PY        -0.00025  -0.00007  -0.00015   0.00067  -0.00204
 231        4PZ        -0.00030   0.00002  -0.00002   0.00040   0.00019
 232        5S          0.00009  -0.00088  -0.00038   0.00248   0.00327
 233        5PX        -0.00014  -0.00002   0.00014  -0.00034   0.00042
 234        5PY         0.00000  -0.00019  -0.00020   0.00096   0.00036
 235        5PZ        -0.00003   0.00003  -0.00015  -0.00019   0.00041
 236        6D 0        0.00004  -0.00000   0.00000  -0.00001  -0.00012
 237        6D+1        0.00003  -0.00000   0.00001  -0.00007   0.00004
 238        6D-1        0.00000   0.00000  -0.00001   0.00012  -0.00009
 239        6D+2        0.00008  -0.00000   0.00000  -0.00007  -0.00015
 240        6D-2        0.00002   0.00000  -0.00000   0.00013  -0.00017
                           6         7         8         9        10
                           O         O         O         O         O
     Eigenvalues --   -10.30061 -10.22283 -10.21777 -10.21140  -1.08514
   1 1   O  1S         -0.00000   0.00000  -0.00002   0.00000  -0.01271
   2        2S         -0.00000   0.00001  -0.00006   0.00001  -0.02030
   3        2PX         0.00001  -0.00003  -0.00013  -0.00003  -0.00608
   4        2PY         0.00000   0.00000   0.00004   0.00000  -0.00303
   5        2PZ        -0.00001   0.00001   0.00006   0.00000   0.00191
   6        3S          0.00001  -0.00001   0.00049  -0.00008   0.05818
   7        3PX        -0.00005   0.00011  -0.00001   0.00011  -0.00965
   8        3PY        -0.00001   0.00001   0.00013  -0.00002  -0.00457
   9        3PZ         0.00003  -0.00002  -0.00004  -0.00002   0.00338
  10        4S         -0.00004  -0.00043  -0.00031   0.00036   0.04033
  11        4PX         0.00020   0.00034  -0.00018  -0.00035  -0.00515
  12        4PY        -0.00006  -0.00035   0.00029  -0.00016  -0.00142
  13        4PZ        -0.00016  -0.00003   0.00004   0.00005   0.00045
  14        5S         -0.00162  -0.00153   0.00762  -0.00102  -0.00421
  15        5PX         0.00015   0.00059  -0.00241   0.00055   0.00073
  16        5PY         0.00018   0.00047  -0.00082   0.00079   0.00104
  17        5PZ         0.00027  -0.00014   0.00060  -0.00008  -0.00007
  18        6D 0        0.00000   0.00001   0.00014  -0.00002  -0.00116
  19        6D+1        0.00000   0.00005   0.00012   0.00001  -0.00067
  20        6D-1        0.00001   0.00001  -0.00003  -0.00000  -0.00005
  21        6D+2       -0.00001  -0.00003  -0.00002  -0.00001   0.00016
  22        6D-2        0.00001   0.00007   0.00010   0.00002   0.00002
  23 2   C  1S         -0.00000   0.01282   0.56290   0.00044  -0.00867
  24        2S          0.00000   0.01055   0.46315   0.00040  -0.01333
  25        2PX         0.00000  -0.00031   0.00077  -0.00003   0.00101
  26        2PY         0.00000  -0.00024  -0.00048  -0.00003  -0.00599
  27        2PZ         0.00002  -0.00022  -0.00039  -0.00003  -0.00250
  28        3S         -0.00015   0.00054   0.01904  -0.00026   0.03343
  29        3PX        -0.00001   0.00058  -0.00098   0.00024  -0.00025
  30        3PY        -0.00001   0.00073   0.00152   0.00023  -0.01237
  31        3PZ        -0.00009   0.00056   0.00112   0.00018  -0.00599
  32        4S          0.00206   0.00612  -0.01527   0.00094   0.01848
  33        4PX        -0.00033  -0.00156   0.00041  -0.00064  -0.00266
  34        4PY        -0.00065  -0.00067   0.00282   0.00035  -0.00863
  35        4PZ        -0.00005  -0.00104   0.00086   0.00008   0.00079
  36        5S          0.00827   0.00367  -0.01727  -0.00092   0.01076
  37        5PX        -0.00174  -0.00040   0.00375  -0.00114  -0.00026
  38        5PY        -0.00142  -0.00117   0.00148   0.00019   0.00262
  39        5PZ        -0.00089   0.00030   0.00072   0.00076  -0.00530
  40        6D 0       -0.00002   0.00015   0.00053   0.00004  -0.00192
  41        6D+1        0.00001  -0.00051   0.00007  -0.00010  -0.00019
  42        6D-1        0.00001  -0.00043  -0.00055  -0.00005   0.00223
  43        6D+2        0.00001  -0.00046  -0.00093  -0.00004   0.00159
  44        6D-2        0.00002  -0.00049   0.00017  -0.00010   0.00053
  45 3   C  1S         -0.00002   0.56287  -0.01284  -0.00562  -0.02423
  46        2S         -0.00001   0.46317  -0.01056  -0.00462  -0.03729
  47        2PX         0.00001   0.00015   0.00034  -0.00041   0.00364
  48        2PY         0.00004  -0.00091   0.00029   0.00020  -0.02406
  49        2PZ         0.00001   0.00044   0.00022   0.00022   0.00494
  50        3S         -0.00027   0.01937  -0.00017   0.00003   0.09691
  51        3PX         0.00002  -0.00004  -0.00071   0.00089   0.00489
  52        3PY         0.00000   0.00093  -0.00056  -0.00042  -0.03882
  53        3PZ        -0.00006  -0.00152  -0.00067  -0.00067   0.01120
  54        4S          0.00046  -0.02440   0.00264   0.00247   0.01037
  55        4PX        -0.00165  -0.00040   0.00165  -0.00263   0.00075
  56        4PY        -0.00051   0.00075   0.00122   0.00114   0.00273
  57        4PZ        -0.00097  -0.00375  -0.00085   0.00048  -0.00045
  58        5S          0.00002  -0.02209   0.00239   0.02267   0.09399
  59        5PX        -0.00083   0.00198   0.00340  -0.00185  -0.02687
  60        5PY        -0.00375   0.00252   0.00125   0.00358  -0.01855
  61        5PZ        -0.00060  -0.00201  -0.00025   0.00323   0.01413
  62        6D 0        0.00007   0.00116   0.00035   0.00033  -0.00731
  63        6D+1       -0.00005  -0.00002  -0.00043   0.00049   0.00139
  64        6D-1        0.00006   0.00000  -0.00027  -0.00025  -0.00357
  65        6D+2       -0.00013   0.00040  -0.00009  -0.00026  -0.00968
  66        6D-2        0.00001   0.00005  -0.00056   0.00041  -0.00210
  67 4   O  1S         -0.00003  -0.00002   0.00000   0.00000  -0.07502
  68        2S         -0.00009  -0.00006   0.00000   0.00001  -0.11993
  69        2PX        -0.00004  -0.00003   0.00001  -0.00002  -0.02007
  70        2PY        -0.00007   0.00011   0.00004   0.00003  -0.00298
  71        2PZ        -0.00006  -0.00004  -0.00000  -0.00000  -0.02402
  72        3S          0.00069   0.00037   0.00006  -0.00006   0.34435
  73        3PX        -0.00012   0.00001  -0.00007   0.00010  -0.03319
  74        3PY        -0.00014   0.00010  -0.00022  -0.00013  -0.00582
  75        3PZ        -0.00007  -0.00001  -0.00002   0.00001  -0.03993
  76        4S         -0.00096   0.00081  -0.00089  -0.00021   0.26794
  77        4PX         0.00055  -0.00021   0.00057  -0.00009  -0.01622
  78        4PY         0.00046   0.00043   0.00105  -0.00033   0.00869
  79        4PZ         0.00039   0.00015   0.00053  -0.00015  -0.01998
  80        5S          0.00616   0.01093  -0.00282   0.00398  -0.04367
  81        5PX        -0.00318  -0.00070   0.00159  -0.00186   0.00327
  82        5PY        -0.00261   0.00812   0.00385   0.00100  -0.01874
  83        5PZ        -0.00263  -0.00061   0.00221  -0.00155  -0.00102
  84        6D 0        0.00005   0.00006  -0.00003  -0.00001  -0.00228
  85        6D+1       -0.00015  -0.00004  -0.00001  -0.00000   0.00442
  86        6D-1       -0.00016   0.00012   0.00000   0.00003   0.00233
  87        6D+2        0.00011   0.00015   0.00004   0.00004  -0.00479
  88        6D-2       -0.00013   0.00004   0.00003   0.00002   0.00259
  89 5   C  1S          0.00001   0.00558  -0.00057   0.56302  -0.00758
  90        2S         -0.00001   0.00460  -0.00044   0.46325  -0.01168
  91        2PX        -0.00000   0.00040   0.00004  -0.00060   0.00051
  92        2PY        -0.00002  -0.00015  -0.00004  -0.00028  -0.00399
  93        2PZ        -0.00002  -0.00023  -0.00002  -0.00066  -0.00306
  94        3S          0.00020   0.00020  -0.00031   0.01903   0.02925
  95        3PX        -0.00000  -0.00089  -0.00031   0.00057   0.00449
  96        3PY         0.00004   0.00049   0.00017   0.00106  -0.00914
  97        3PZ         0.00005   0.00067   0.00018   0.00180  -0.00778
  98        4S         -0.00102   0.00612   0.00110  -0.01641   0.01747
  99        4PX        -0.00084   0.00287   0.00114  -0.00124   0.00188
 100        4PY         0.00094  -0.00032  -0.00065   0.00219  -0.00590
 101        4PZ         0.00042  -0.00021   0.00113   0.00175  -0.00200
 102        5S          0.00300   0.00944   0.00960  -0.02728  -0.07339
 103        5PX        -0.00025   0.00151   0.00294  -0.00637  -0.01343
 104        5PY        -0.00064  -0.00149  -0.00057   0.00220   0.01477
 105        5PZ        -0.00082  -0.00067  -0.00003   0.00150   0.00457
 106        6D 0       -0.00000   0.00017   0.00003   0.00024  -0.00114
 107        6D+1        0.00005   0.00052   0.00010  -0.00032   0.00051
 108        6D-1       -0.00006  -0.00023  -0.00003  -0.00046   0.00221
 109        6D+2        0.00006  -0.00065  -0.00005  -0.00100   0.00223
 110        6D-2        0.00007   0.00036   0.00010   0.00002  -0.00147
 111 6   O  1S         -0.00000   0.00000   0.00000  -0.00002  -0.01014
 112        2S         -0.00001   0.00001   0.00001  -0.00008  -0.01616
 113        2PX        -0.00002   0.00004   0.00002   0.00013   0.00506
 114        2PY         0.00001  -0.00000   0.00001   0.00001  -0.00298
 115        2PZ         0.00001   0.00001   0.00001   0.00008   0.00066
 116        3S          0.00005   0.00005  -0.00004   0.00064   0.04587
 117        3PX         0.00010  -0.00015  -0.00008  -0.00003   0.00742
 118        3PY        -0.00006   0.00003  -0.00006   0.00016  -0.00423
 119        3PZ        -0.00003  -0.00003  -0.00003   0.00004   0.00139
 120        4S          0.00020  -0.00075   0.00022  -0.00105   0.03199
 121        4PX        -0.00035  -0.00028   0.00025   0.00002   0.00500
 122        4PY         0.00016   0.00004   0.00033   0.00022  -0.00201
 123        4PZ        -0.00003  -0.00003   0.00007   0.00019   0.00044
 124        5S         -0.00046   0.00023   0.00047   0.01195  -0.00502
 125        5PX        -0.00019   0.00035  -0.00016   0.00338  -0.00304
 126        5PY        -0.00097   0.00040  -0.00006  -0.00188   0.00143
 127        5PZ        -0.00054   0.00036   0.00016   0.00001   0.00017
 128        6D 0        0.00002   0.00001  -0.00001   0.00004  -0.00048
 129        6D+1       -0.00001  -0.00006  -0.00001  -0.00017   0.00065
 130        6D-1       -0.00000  -0.00001  -0.00000  -0.00014   0.00066
 131        6D+2       -0.00001   0.00000   0.00000  -0.00004   0.00017
 132        6D-2        0.00002  -0.00002   0.00001  -0.00002  -0.00034
 133 7   H  1S          0.00003   0.00001  -0.00007   0.00000   0.01166
 134        2S          0.00001  -0.00033   0.00074  -0.00027   0.00959
 135        3S          0.00033   0.00039  -0.00234   0.00129   0.00112
 136        4PX         0.00004   0.00001  -0.00023  -0.00002  -0.00079
 137        4PY        -0.00000   0.00002   0.00036  -0.00004   0.00248
 138        4PZ         0.00005  -0.00003   0.00007   0.00003  -0.00016
 139 8   H  1S         -0.00002  -0.00014   0.00001   0.00003   0.00345
 140        2S         -0.00001  -0.00052  -0.00227  -0.00042   0.00352
 141        3S         -0.00086  -0.00019   0.00399  -0.00074  -0.00094
 142        4PX        -0.00003  -0.00012  -0.00010   0.00009  -0.00004
 143        4PY        -0.00003  -0.00008  -0.00026  -0.00003  -0.00034
 144        4PZ        -0.00002   0.00027   0.00201   0.00012  -0.00159
 145 9   H  1S          0.00001  -0.00004   0.00009   0.00004   0.00254
 146        2S         -0.00010  -0.00149  -0.00337  -0.00048   0.00604
 147        3S         -0.00034   0.00070   0.00411  -0.00112  -0.00178
 148        4PX         0.00002  -0.00009  -0.00004   0.00012   0.00018
 149        4PY         0.00002   0.00044   0.00207   0.00013  -0.00168
 150        4PZ         0.00000  -0.00019  -0.00086  -0.00006   0.00050
 151 10  H  1S          0.00005  -0.00002  -0.00007  -0.00012   0.00966
 152        2S         -0.00079  -0.00288  -0.00107  -0.00063   0.01999
 153        3S         -0.00191   0.00407   0.00003  -0.00128  -0.00661
 154        4PX         0.00015   0.00001   0.00003   0.00002  -0.00009
 155        4PY         0.00019   0.00016   0.00004   0.00008  -0.00157
 156        4PZ        -0.00011  -0.00224  -0.00031  -0.00030   0.00496
 157 11  H  1S         -0.00001  -0.00011   0.00008   0.00005   0.00340
 158        2S          0.00016  -0.00090  -0.00074  -0.00263   0.00493
 159        3S         -0.00084  -0.00026  -0.00131   0.00440   0.00114
 160        4PX         0.00001   0.00005  -0.00014  -0.00022   0.00062
 161        4PY         0.00001  -0.00018  -0.00007  -0.00088   0.00012
 162        4PZ         0.00003   0.00024   0.00011   0.00189  -0.00185
 163 12  H  1S          0.00003  -0.00005  -0.00001   0.00010   0.00226
 164        2S         -0.00017  -0.00132  -0.00014  -0.00314   0.00471
 165        3S         -0.00025  -0.00011  -0.00010   0.00388  -0.00084
 166        4PX         0.00000   0.00004  -0.00010   0.00006  -0.00015
 167        4PY        -0.00000   0.00046   0.00007   0.00219  -0.00153
 168        4PZ        -0.00003  -0.00006  -0.00009  -0.00007  -0.00019
 169 13  H  1S         -0.00004  -0.00005  -0.00002  -0.00015   0.01112
 170        2S          0.00013   0.00020   0.00018   0.00123   0.00948
 171        3S         -0.00263   0.00104  -0.00008  -0.00571   0.00398
 172        4PX         0.00001   0.00004   0.00000   0.00016   0.00078
 173        4PY        -0.00007   0.00013   0.00001   0.00028   0.00171
 174        4PZ         0.00006   0.00005   0.00001   0.00030   0.00133
 175 14  C  1S          0.56312   0.00002   0.00000  -0.00000  -0.06942
 176        2S          0.46334   0.00004   0.00001  -0.00002  -0.10625
 177        2PX         0.00026  -0.00003  -0.00002   0.00000   0.00011
 178        2PY         0.00058  -0.00000  -0.00001   0.00001   0.00345
 179        2PZ         0.00030  -0.00002  -0.00001   0.00002   0.00079
 180        3S          0.01816  -0.00022  -0.00025   0.00022   0.28461
 181        3PX        -0.00056   0.00012   0.00014  -0.00004   0.00481
 182        3PY        -0.00127  -0.00006   0.00008   0.00006   0.01305
 183        3PZ        -0.00060   0.00007   0.00010  -0.00009   0.00631
 184        4S         -0.01367  -0.00092   0.00283  -0.00238   0.06640
 185        4PX         0.00048  -0.00082   0.00141  -0.00072  -0.00551
 186        4PY        -0.00308   0.00134   0.00134  -0.00047   0.00484
 187        4PZ        -0.00036  -0.00034   0.00166  -0.00065  -0.00384
 188        5S         -0.01168   0.00298   0.00002   0.00172   0.01503
 189        5PX        -0.00004   0.00092   0.00038  -0.00033  -0.00320
 190        5PY        -0.00432   0.00047  -0.00041   0.00051   0.00321
 191        5PZ        -0.00088   0.00064   0.00035  -0.00008  -0.00072
 192        6D 0       -0.00058  -0.00004  -0.00004   0.00005  -0.00653
 193        6D+1        0.00133   0.00003   0.00007  -0.00001   0.01687
 194        6D-1       -0.00082   0.00000   0.00010  -0.00004   0.00153
 195        6D+2       -0.00037  -0.00006  -0.00008   0.00010  -0.00708
 196        6D-2       -0.00134   0.00004   0.00003  -0.00001  -0.00366
 197 15  O  1S         -0.00006   0.00000   0.00000  -0.00000  -0.04883
 198        2S         -0.00006   0.00001   0.00000  -0.00000  -0.07787
 199        2PX         0.00035   0.00002   0.00001  -0.00000   0.02768
 200        2PY        -0.00011   0.00003  -0.00000  -0.00001  -0.00615
 201        2PZ         0.00031   0.00001   0.00001   0.00000   0.02426
 202        3S          0.00052  -0.00009  -0.00005   0.00007   0.22188
 203        3PX        -0.00101  -0.00007  -0.00006   0.00001   0.04227
 204        3PY         0.00031  -0.00012   0.00001   0.00006  -0.01049
 205        3PZ        -0.00090  -0.00006  -0.00004   0.00000   0.03707
 206        4S         -0.00313   0.00000   0.00025  -0.00015   0.15113
 207        4PX        -0.00101   0.00020   0.00030  -0.00009   0.01303
 208        4PY         0.00020  -0.00004  -0.00021  -0.00024   0.00246
 209        4PZ        -0.00068   0.00016   0.00018  -0.00014   0.01389
 210        5S          0.00737  -0.00157   0.00249  -0.00105  -0.02833
 211        5PX         0.00160  -0.00084   0.00043  -0.00081  -0.00252
 212        5PY         0.00046  -0.00016   0.00022   0.00029  -0.00328
 213        5PZ         0.00180  -0.00104   0.00026  -0.00025  -0.00285
 214        6D 0       -0.00006   0.00000  -0.00001   0.00001   0.00081
 215        6D+1       -0.00081   0.00003   0.00002  -0.00002   0.00644
 216        6D-1        0.00019  -0.00002  -0.00001  -0.00001  -0.00186
 217        6D+2       -0.00039   0.00001   0.00000   0.00001   0.00369
 218        6D-2        0.00023  -0.00002  -0.00001   0.00001  -0.00271
 219 16  O  1S         -0.00007   0.00000  -0.00000   0.00000  -0.04526
 220        2S         -0.00005   0.00002  -0.00000   0.00001  -0.07217
 221        2PX        -0.00016  -0.00000  -0.00000   0.00000  -0.01274
 222        2PY         0.00045   0.00002   0.00001   0.00000   0.03389
 223        2PZ        -0.00008   0.00000  -0.00001   0.00000  -0.00644
 224        3S          0.00042  -0.00017   0.00005  -0.00009   0.20603
 225        3PX         0.00049   0.00001   0.00002  -0.00002  -0.01956
 226        3PY        -0.00136  -0.00011  -0.00003  -0.00002   0.05093
 227        3PZ         0.00024   0.00000   0.00003  -0.00001  -0.01018
 228        4S         -0.00423   0.00080  -0.00055   0.00058   0.13838
 229        4PX         0.00069  -0.00006  -0.00013  -0.00007  -0.00619
 230        4PY        -0.00195   0.00063  -0.00018   0.00041   0.01800
 231        4PZ         0.00036  -0.00006  -0.00018  -0.00000  -0.00256
 232        5S          0.00296   0.00427   0.00203   0.00051  -0.01884
 233        5PX        -0.00032  -0.00036   0.00002   0.00016   0.00119
 234        5PY         0.00221   0.00195   0.00116   0.00012  -0.00593
 235        5PZ         0.00015   0.00031   0.00007   0.00010  -0.00076
 236        6D 0        0.00046  -0.00000   0.00000  -0.00001  -0.00349
 237        6D+1       -0.00013   0.00000   0.00002   0.00001   0.00045
 238        6D-1        0.00024   0.00001  -0.00000  -0.00000  -0.00270
 239        6D+2        0.00066  -0.00002   0.00001  -0.00002  -0.00485
 240        6D-2        0.00052   0.00001  -0.00000  -0.00002  -0.00481
                          11        12        13        14        15
                           O         O         O         O         O
     Eigenvalues --    -1.02824  -1.00726  -0.98687  -0.95937  -0.76970
   1 1   O  1S         -0.10461   0.01128   0.03463  -0.00051   0.02511
   2        2S         -0.16733   0.01807   0.05546  -0.00082   0.04048
   3        2PX        -0.03865   0.00355   0.00951  -0.00014  -0.01873
   4        2PY        -0.02141   0.00245   0.00653  -0.00001   0.02633
   5        2PZ         0.01575  -0.00168  -0.00505   0.00005   0.00119
   6        3S          0.48372  -0.05249  -0.16122   0.00242  -0.12100
   7        3PX        -0.06205   0.00582   0.01553  -0.00035  -0.02714
   8        3PY        -0.03196   0.00377   0.00986  -0.00009   0.03923
   9        3PZ         0.02547  -0.00262  -0.00790   0.00009   0.00154
  10        4S          0.35565  -0.03895  -0.12283   0.00190  -0.09839
  11        4PX        -0.03189   0.00265   0.00777   0.00066  -0.01660
  12        4PY        -0.00795   0.00043   0.00235   0.00040   0.01597
  13        4PZ         0.01063  -0.00141  -0.00425  -0.00002   0.00134
  14        5S         -0.04536   0.00751   0.01317  -0.00608  -0.00275
  15        5PX         0.01210  -0.00404  -0.00280   0.00119  -0.00021
  16        5PY         0.00366  -0.00175   0.00142   0.00077   0.00051
  17        5PZ        -0.00116   0.00019   0.00246   0.00011   0.00159
  18        6D 0       -0.00709   0.00066   0.00187   0.00001   0.00025
  19        6D+1       -0.00470   0.00048   0.00133  -0.00001  -0.00062
  20        6D-1       -0.00051   0.00005   0.00017   0.00001   0.00083
  21        6D+2       -0.00084   0.00024   0.00091   0.00000   0.00484
  22        6D-2       -0.00154   0.00017   0.00080  -0.00002  -0.00135
  23 2   C  1S         -0.04071   0.00190   0.00535  -0.00004  -0.05515
  24        2S         -0.06266   0.00293   0.00824  -0.00005  -0.08560
  25        2PX         0.03434  -0.00603  -0.01804   0.00037  -0.04222
  26        2PY        -0.02054   0.00127  -0.00026  -0.00004  -0.00269
  27        2PZ        -0.01330   0.00088   0.00255  -0.00014  -0.00582
  28        3S          0.16251  -0.00754  -0.02259  -0.00023   0.22891
  29        3PX         0.05656  -0.01066  -0.03154   0.00049  -0.06126
  30        3PY        -0.03908   0.00188  -0.00032  -0.00038  -0.00888
  31        3PZ        -0.02544   0.00112   0.00339  -0.00015  -0.01333
  32        4S          0.03184  -0.00124   0.01285   0.01272   0.12360
  33        4PX         0.00565   0.00050  -0.00789  -0.00463  -0.01995
  34        4PY        -0.00170  -0.00228  -0.00832   0.00000   0.00001
  35        4PZ         0.00387  -0.00137  -0.00117  -0.00113  -0.00226
  36        5S          0.06908   0.06389  -0.17543   0.03863   0.07527
  37        5PX        -0.00629  -0.00985   0.02583  -0.00570  -0.01712
  38        5PY        -0.01225  -0.00660   0.03087  -0.00607  -0.00390
  39        5PZ        -0.00712  -0.00574   0.01431  -0.00360  -0.00465
  40        6D 0       -0.00990   0.00035   0.00183   0.00000  -0.00144
  41        6D+1       -0.00897   0.00142   0.00458  -0.00014   0.00549
  42        6D-1        0.00624  -0.00019  -0.00002  -0.00004   0.00164
  43        6D+2        0.01031  -0.00046  -0.00291  -0.00007   0.00287
  44        6D-2       -0.01378   0.00232   0.00773  -0.00006   0.00757
  45 3   C  1S         -0.01425  -0.01144  -0.02907  -0.00048  -0.07388
  46        2S         -0.02199  -0.01766  -0.04488  -0.00070  -0.11484
  47        2PX         0.01019  -0.01049   0.00555   0.00061   0.00104
  48        2PY        -0.00187  -0.00001  -0.03337  -0.00242   0.03527
  49        2PZ         0.00367   0.00114   0.00819  -0.00121   0.01559
  50        3S          0.05516   0.04450   0.11775   0.00178   0.30738
  51        3PX         0.01933  -0.02026   0.00848   0.00178   0.00291
  52        3PY        -0.00165   0.00046  -0.05486  -0.00229   0.04892
  53        3PZ         0.00923   0.00469   0.01598  -0.00248   0.03086
  54        4S          0.04384   0.03327   0.02460  -0.01433   0.20322
  55        4PX         0.01134  -0.01564  -0.00015  -0.00479  -0.00242
  56        4PY         0.00567   0.00484  -0.01528  -0.00721   0.01504
  57        4PZ         0.00202   0.00140  -0.00279  -0.01085   0.01732
  58        5S         -0.12655  -0.15612   0.26167  -0.03897  -0.03900
  59        5PX         0.02691  -0.00352   0.04244  -0.01173  -0.02252
  60        5PY        -0.02143  -0.03256   0.00360  -0.00698  -0.02848
  61        5PZ        -0.01596  -0.02379   0.03887  -0.00617  -0.01851
  62        6D 0       -0.00338  -0.00297  -0.00725   0.00043  -0.00171
  63        6D+1        0.00277  -0.00203   0.00096   0.00062   0.00074
  64        6D-1       -0.00038  -0.00013  -0.00652   0.00075   0.00394
  65        6D+2        0.00077   0.00260  -0.01465  -0.00119   0.00466
  66        6D-2        0.00158  -0.00246  -0.00508   0.00128   0.00065
  67 4   O  1S         -0.01107  -0.00261  -0.08144   0.00394   0.02809
  68        2S         -0.01770  -0.00412  -0.13049   0.00634   0.04532
  69        2PX         0.00297  -0.00206  -0.01430  -0.00544   0.00880
  70        2PY         0.01169   0.00785   0.01906   0.00915   0.05795
  71        2PZ        -0.00026   0.00012  -0.01709  -0.00370   0.01254
  72        3S          0.05063   0.01100   0.37858  -0.01891  -0.13567
  73        3PX         0.00476  -0.00249  -0.02350  -0.00804   0.01363
  74        3PY         0.01853   0.01217   0.03124   0.01331   0.08640
  75        3PZ        -0.00055   0.00053  -0.02776  -0.00546   0.01962
  76        4S          0.03958   0.01231   0.30557  -0.01371  -0.12328
  77        4PX         0.00348  -0.00383  -0.01127  -0.00712   0.00674
  78        4PY         0.00970   0.00625   0.01691   0.01203   0.04436
  79        4PZ        -0.00053  -0.00232  -0.01475  -0.00448   0.00962
  80        5S          0.00044   0.01433  -0.05922  -0.00590  -0.02373
  81        5PX         0.00005  -0.00034   0.00190   0.00270   0.00193
  82        5PY        -0.00346  -0.00620  -0.02530   0.01326  -0.02969
  83        5PZ         0.00113  -0.00176   0.00284   0.00382  -0.00145
  84        6D 0       -0.00093  -0.00029  -0.00238   0.00133  -0.00176
  85        6D+1       -0.00023   0.00027   0.00248   0.00185  -0.00172
  86        6D-1       -0.00113  -0.00084  -0.00073  -0.00074  -0.00432
  87        6D+2       -0.00099   0.00001  -0.00489   0.00265  -0.00258
  88        6D-2       -0.00013  -0.00098  -0.00024  -0.00010  -0.00412
  89 5   C  1S         -0.00332  -0.04253   0.00165   0.00702  -0.04743
  90        2S         -0.00512  -0.06548   0.00250   0.01086  -0.07358
  91        2PX         0.00150  -0.03246   0.01261   0.00648   0.04280
  92        2PY        -0.00081  -0.01394  -0.00138   0.00145   0.00182
  93        2PZ        -0.00087  -0.02653   0.00435   0.00416   0.00184
  94        3S          0.01350   0.16971  -0.00726  -0.02902   0.19698
  95        3PX         0.00382  -0.05241   0.02298   0.01084   0.06477
  96        3PY        -0.00241  -0.02646  -0.00285   0.00309  -0.00050
  97        3PZ        -0.00246  -0.04897   0.00582   0.00779  -0.00302
  98        4S          0.00182   0.03917   0.01343  -0.00281   0.09920
  99        4PX        -0.00236  -0.00799   0.00550   0.00369   0.01465
 100        4PY        -0.00355  -0.00233  -0.00455  -0.00173   0.00454
 101        4PZ        -0.00001   0.00078  -0.00183   0.00183   0.00012
 102        5S          0.09181   0.14198  -0.04366  -0.00881   0.00700
 103        5PX         0.01578   0.02328  -0.00966   0.00124   0.00532
 104        5PY        -0.00787  -0.01841   0.00801   0.00348   0.00243
 105        5PZ        -0.01037  -0.01760  -0.00019   0.00165   0.00318
 106        6D 0       -0.00049  -0.00071  -0.00123   0.00001  -0.00333
 107        6D+1       -0.00004   0.01716  -0.00466  -0.00310  -0.00730
 108        6D-1        0.00051   0.00862  -0.00051  -0.00109   0.00037
 109        6D+2        0.00157   0.01038  -0.00001  -0.00177   0.00455
 110        6D-2       -0.00056   0.00841  -0.00448  -0.00151  -0.00454
 111 6   O  1S         -0.00227  -0.10657   0.02190   0.01743   0.02470
 112        2S         -0.00362  -0.17046   0.03506   0.02791   0.03981
 113        2PX         0.00126   0.04114  -0.00672  -0.00620   0.01046
 114        2PY         0.00011  -0.02031   0.00532   0.00071   0.01676
 115        2PZ         0.00059   0.00907  -0.00054  -0.00286   0.01165
 116        3S          0.01028   0.49200  -0.10157  -0.08092  -0.11878
 117        3PX         0.00194   0.06560  -0.01095  -0.00988   0.01485
 118        3PY         0.00021  -0.03082   0.00849   0.00103   0.02503
 119        3PZ         0.00104   0.01583  -0.00092  -0.00472   0.01694
 120        4S          0.00809   0.36679  -0.07678  -0.06348  -0.09580
 121        4PX         0.00117   0.03215  -0.00620  -0.00530   0.01054
 122        4PY         0.00038  -0.01019   0.00233   0.00058   0.01010
 123        4PZ         0.00009   0.00888  -0.00190  -0.00262   0.00813
 124        5S         -0.00387  -0.04781   0.00897   0.00055  -0.02896
 125        5PX         0.00123  -0.01357   0.00092   0.00202  -0.00656
 126        5PY         0.00001   0.00144  -0.00117   0.00156   0.00820
 127        5PZ        -0.00084  -0.00241   0.00055   0.00241   0.00337
 128        6D 0       -0.00009  -0.00302   0.00060   0.00028  -0.00013
 129        6D+1        0.00022   0.00556  -0.00076  -0.00111   0.00128
 130        6D-1        0.00007   0.00573  -0.00136  -0.00065  -0.00133
 131        6D+2        0.00020   0.00081   0.00039  -0.00044   0.00302
 132        6D-2        0.00008  -0.00140   0.00042  -0.00017   0.00126
 133 7   H  1S          0.08522  -0.00934  -0.02647   0.00017  -0.03608
 134        2S          0.06782  -0.00755  -0.01983   0.00049  -0.03729
 135        3S          0.00651  -0.00343   0.00177   0.00160  -0.00439
 136        4PX        -0.00108  -0.00006  -0.00091  -0.00002  -0.00230
 137        4PY         0.02248  -0.00248  -0.00756   0.00015  -0.00778
 138        4PZ        -0.00122   0.00015   0.00036  -0.00007   0.00118
 139 8   H  1S          0.01546  -0.00055  -0.00124  -0.00005   0.03816
 140        2S          0.02488   0.00015  -0.00520  -0.00083   0.04420
[...]
 ot=-533.0014589\HTot=-533.0005147\GTot=-533.0457432\Dipole=0.7851413,3
 .1244549,1.1583043\DipoleDeriv=-1.1592629,0.1507869,0.0580394,0.238118
 5,-0.6086514,-0.1452077,0.0548216,-0.1186624,-0.6663395,0.8524698,-0.1
 768192,-0.1635751,-0.2169199,0.3856585,0.0716079,-0.1330296,0.0595144,
 0.5442042,0.2002684,-0.1179381,-0.0870475,-0.043612,1.0008143,0.006619
 8,-0.0674895,-0.1789033,0.3059212,-0.8283165,-0.4468211,-0.2678065,-0.
 2843544,-2.0050757,-0.3968145,-0.2935814,-0.4908008,-0.7206866,0.67583
 54,0.1886939,0.2872124,0.1459617,0.3740742,0.0912493,0.3262022,0.07045
 76,0.6458468,-1.0763517,-0.0349109,-0.1838784,-0.067892,-0.9321928,-0.
 1758987,-0.1706515,-0.2403349,-0.8576523,0.4335789,0.0167205,0.0734826
 ,0.0373865,0.3097729,0.0300317,0.0662981,0.0428451,0.3619983,-0.030814
 7,0.0241649,0.0469821,0.0161406,0.047846,0.0160711,0.0544475,-0.063481
 2,-0.2463706,0.0202062,-0.0168481,-0.0034096,0.0281438,-0.1559336,0.03
 14581,0.0083043,0.0873686,0.0488178,0.0340064,0.0305788,0.0179397,0.01
 23016,-0.0425546,-0.0279136,0.02469,0.0665517,-0.1587305,-0.0258555,-0
 .0135419,-0.0152497,-0.0088916,0.0341347,0.1140141,-0.0239693,0.034186
 2,-0.2453114,0.0375379,-0.0052192,-0.0142759,-0.0298968,-0.2339423,-0.
 0558284,-0.0262834,0.005456,0.0606897,0.4659869,-0.2328397,-0.0749787,
 -0.2377719,0.8456569,0.1204564,-0.1411408,0.2207459,0.3938974,1.790583
 9,-0.2228339,1.0989761,-0.3842528,3.3500317,0.0655124,1.1850617,0.2336
 227,1.3808695,-1.4634414,0.4148916,-0.5787516,0.3280921,-1.2502012,0.0
 62378,-0.6444033,0.0734513,-1.1061247,-0.9264311,0.4419356,-0.1936593,
 0.4674466,-2.1194376,0.1922642,-0.2192768,0.197983,-0.7410293\Polar=91
 .9162257,-4.0267111,104.4345248,7.492883,3.5309609,82.1444941\PolarDer
 iv=12.7743112,0.0194648,0.5476897,-0.9129296,-0.5725256,-0.8681841,1.4
 513641,2.2495527,7.4196918,-0.1155749,-0.9266105,0.7900555,-2.8108544,
 -0.2114734,-1.5921615,2.1143474,-0.0158133,-0.6158977,-1.6357645,3.077
 5294,1.8321727,1.7302079,0.7067365,2.0213526,4.1720614,0.5003855,-10.2
 633299,0.2952205,2.3235705,-0.0988253,2.4726263,0.2978755,3.6638916,1.
 1766737,-2.5115598,-12.3468303,0.262445,-3.3164416,-1.7692054,-3.06578
 67,-0.5537265,0.447862,-0.9369429,0.0784875,11.5509612,0.7797585,1.657
 8585,-3.0324106,-0.0259686,-0.2333405,-1.0033012,-1.4406836,-1.9734693
 ,14.1729986,4.0205622,1.1376168,3.6077773,2.3365107,0.5326663,1.297631
 3,0.7473043,2.2186781,-5.7073722,0.6716152,-0.7003589,2.9357787,2.5104
 623,0.9139792,3.5652009,1.8437662,0.5512495,2.0357828,0.4005812,2.3551
 142,-1.1464664,2.800813,-1.0371972,-0.6732442,1.7301244,-0.1577148,-11
 .7378976,-0.0403976,-1.8574058,4.3373965,4.2049136,0.9684971,-0.829727
 2,1.9546082,1.504157,-12.3991485,-11.7428964,1.0240027,-3.19059,-2.314
 0552,-0.0748931,0.1438152,1.8255286,-5.9278655,9.2868307,-0.9419427,1.
 7618044,1.7827849,-3.2115641,-1.4986247,3.4531346,-3.0960033,1.1093962
 ,-0.7436881,-0.5976377,-1.7501604,0.1207165,-0.0244522,0.077657,0.6112
 428,-4.4527557,0.5461304,-8.4327353,0.003336,0.0706141,-1.2157001,0.56
 4772,0.1063751,0.9369614,0.4743283,-0.4394828,0.1312328,-0.8528555,-0.
 2436409,-0.186384,2.1225283,-0.2847192,-0.885295,-1.0349511,-0.1923364
 ,1.4704481,-0.0765678,1.7076327,-0.1996145,2.2294349,0.0091855,1.91391
 03,-0.2549879,2.5503889,13.7426062,-0.182286,1.8416966,0.0675736,-0.84
 83715,-0.062945,0.0280902,1.2660282,0.8503422,13.3128791,-0.0271489,-1
 .5477941,1.3120633,-1.8087458,-0.2231618,-3.4110943,-0.0767422,2.26053
 07,-0.2536033,0.2330925,1.0902785,0.2608979,-1.1065976,-0.0365308,0.42
 44627,1.1192101,0.0266394,-0.0008148,-0.1816718,-2.5512303,1.5750462,-
 2.2103545,-0.2829378,-3.0072586,0.6666658,1.8061916,-12.4157513,-0.375
 6438,-0.934472,-0.2752851,1.8418036,0.1531331,-0.419905,-1.8320476,-0.
 2334271,-0.253484,0.4022213,2.2744688,-3.9104199,1.6749522,-0.1441449,
 1.5840829,-1.1791628,-1.0051997,12.9360898,0.6546008,2.1680989,0.24457
 6,-0.0630101,0.3188048,-0.3095774,2.1261779,-1.1589185,15.0547527,-0.1
 289143,1.966017,0.9598495,-0.8857856,-0.1978105,0.6596517,-0.3459984,1
 .879134,1.170942,-0.0256602,-1.8112946,3.155546,-0.8149504,0.8725179,-
 0.6239048,-3.3922818,3.4991622,-9.5747541,1.0859477,-2.9746718,-2.0087
 411,-0.8970287,1.1722701,-3.5115244,-0.2595073,-0.926114,-0.8724328,1.
 9653508,-0.4337176,-2.9704868,0.4709118,0.255058,0.6573956,-0.1221737,
 -3.9012774,2.4670245,-0.7099804,-1.3075843,-2.908073,0.7997372,-1.1519
 297,-0.6757797,0.0299345,0.6791703,1.3596193,-9.570302,0.6296222,-4.40
 5104,-2.9670454,-0.8892799,-2.9738644,0.8781169,-1.7915171,2.4309339,-
 0.1673408,-1.199318,1.389785,-3.0194882,-0.0116377,-4.4620334,-3.35646
 81,-0.6476162,-7.9838326,4.6721026,-4.8536969,4.1065719,0.8144234,0.59
 52437,1.1221226,-3.5447632,3.3936789,-17.0231339,-0.8485599,1.3030079,
 -1.7089752,0.4128915,0.4868785,2.7160469,1.7492295,-4.8209632,2.081913
 2\HyperPolar=19.8692891,12.4721536,-83.1066857,222.4898094,63.0884255,
 -30.3405749,-45.9406354,11.075959,3.9344877,44.7708113\Quadrupole=-0.4
 552529,-11.4019235,11.8571764,-2.0457754,-4.0053719,-5.2045807\PG=C01 
 [X(C4H7O5)]\NImag=0\\0.29283746,-0.01896680,0.60196288,-0.08935645,-0.
 02892588,0.08926919,-0.17199258,0.06194142,0.04484153,0.42744241,0.016
 41742,-0.11002652,-0.00669933,-0.00305979,0.60470324,0.04463718,-0.019
 08534,-0.08113248,-0.00121602,-0.04382670,0.56146780,-0.04883923,-0.00
 581593,-0.00707447,-0.12586519,-0.03051154,-0.03262861,0.48581113,0.01
 683001,0.00214020,0.00504043,-0.05178575,-0.09394098,-0.02924566,0.006
 87017,0.41342998,0.01639006,0.00426790,0.00671704,-0.04097168,-0.02441
 661,-0.10886856,0.01093320,0.01674074,0.61206296,-0.00367573,-0.008792
 88,-0.00040222,0.00067037,-0.02754792,0.00826830,-0.07911916,0.0172168
 0,-0.02309259,0.18170960,-0.00007638,-0.00310000,-0.00026706,-0.003558
 13,-0.04817316,0.00962862,0.02409709,-0.13965489,0.03496847,0.00747502
 ,0.42310401,-0.00080681,0.00039957,0.00175503,0.00489482,-0.01587044,0
 .00691696,-0.02590271,0.02422867,-0.09511457,0.11012439,0.00314227,0.1
 8821008,0.00144794,-0.00168580,-0.00132998,-0.02935474,0.00149826,0.00
 620849,-0.14366995,0.03364203,0.04385677,-0.00287904,0.00267811,-0.001
 52204,0.43160998,-0.00787434,-0.00036271,-0.00159291,-0.00651152,0.009
 91188,0.00904350,0.01275521,-0.08525922,-0.01545355,0.03507295,-0.0337
 3774,-0.01178257,0.00755284,0.59531426,-0.00472860,-0.00130631,0.00037
 293,-0.00960631,0.00706024,0.00537186,0.03556890,-0.01465421,-0.104405
 79,-0.00746998,0.00140035,0.00379002,-0.01531000,-0.02090616,0.5344342
 2,-0.00619144,-0.00008742,-0.00072019,-0.00025745,0.00640478,0.0049848
 4,-0.04095608,-0.01859026,-0.02791753,0.00141942,0.00358780,0.00075163
 ,-0.15564801,-0.00175903,-0.05141627,0.27900005,-0.00054583,0.00066791
 ,-0.00016709,0.00124996,0.00022903,-0.00027607,0.00382653,0.00154826,0
 .00482544,0.00067296,0.00653942,0.00261544,-0.03258994,-0.09264474,-0.
 03393596,-0.06609823,0.43025249,-0.00067105,0.00038178,0.00006942,0.00
 205354,-0.00046964,0.00110483,0.00206508,-0.00177557,0.00380888,0.0017
 7067,0.00390978,0.00235470,-0.07702337,-0.02212104,-0.11565526,0.07911
 068,0.20151741,0.21765665,-0.04332543,-0.07271223,0.02092762,-0.003644
 60,0.04360730,-0.00274782,-0.00211092,0.00495939,-0.00140850,0.0046891
 1,0.00381662,0.00123719,-0.00029812,-0.00003014,0.00048469,0.00071307,
 -0.00025439,-0.00004521,0.05056586,-0.02586968,-0.48184345,0.04788246,
 0.00407719,-0.02035091,0.00174333,-0.00239589,0.00183743,0.00095643,0.
 00043004,0.00087520,0.00028782,0.00025456,-0.00150237,-0.00019590,-0.0
 0053629,-0.00010424,-0.00009934,0.02315099,0.50121188,0.01738001,0.063
 30773,-0.01822601,0.00120633,-0.01422708,0.00114786,0.00007799,0.00099
 766,0.00113803,0.00089270,-0.00044936,-0.00165142,-0.00026561,0.000334
 84,0.00012104,0.00029236,0.00003544,0.00000048,-0.01934366,-0.04881939
 ,0.01841746,-0.01648484,0.00802766,0.03744644,-0.04659635,-0.00181216,
 0.00082463,-0.00011240,0.00077230,-0.02834473,0.00119557,0.00179707,0.
 00124876,0.00107907,-0.00028510,-0.00099074,0.00001388,0.00016196,0.00
 051497,0.00010689,-0.00141238,0.00029482,0.06298344,0.00864469,0.00095
 577,-0.01732834,-0.00255319,-0.05489914,0.01180950,-0.00189995,0.00032
 224,-0.01786765,0.00066832,0.00253096,0.00000805,0.00076666,0.00032038
 ,-0.00010509,-0.00012113,-0.00018976,0.00020007,-0.00010394,0.00035879
 ,-0.00106526,-0.00268866,0.05090070,0.01352014,-0.00675022,-0.00637907
 ,0.00115895,0.00920385,-0.29047067,-0.00201576,0.00214853,-0.01539267,
 0.00018255,0.00000600,0.00125588,0.00112454,-0.00013267,-0.00040135,-0
 .00048429,-0.00003697,0.00037679,0.00052630,0.00072965,-0.00002464,-0.
 01068673,-0.00451321,0.31914028,-0.00834444,0.03849601,-0.00537986,-0.
 04825018,-0.00783783,-0.00047517,0.00343047,-0.01960613,0.01031691,-0.
 00416081,-0.00610675,-0.00350957,0.00024967,-0.00058474,0.00048334,-0.
 00005294,0.00040825,-0.00019103,-0.00597364,0.00194995,0.00066547,0.00
 168092,-0.00014551,-0.00097490,0.06051631,0.00704894,-0.01466462,0.000
 02722,-0.00101606,-0.28209187,0.08040996,0.00074774,-0.01355751,0.0069
 7002,-0.00310233,-0.00290070,-0.00251127,0.00069616,-0.00088616,-0.000
 74985,-0.00029860,0.00047081,0.00012149,0.00244673,0.00076608,0.000001
 51,-0.00101740,0.00085135,0.00095049,-0.00689314,0.30963896,0.00180653
 ,-0.01377020,0.00525022,-0.00127427,0.08756040,-0.08116377,-0.00080868
 ,-0.01288775,0.00350265,-0.00221747,-0.00235073,-0.00041039,0.00028104
 ,0.00039792,-0.00011155,0.00019922,0.00003156,-0.00004676,0.00208139,-
 0.00225934,0.00000899,0.00054233,0.02979029,-0.00924092,-0.00191711,-0
 .08585710,0.08063992,0.00280428,0.00030193,0.00130003,-0.00094852,-0.0
 0019436,-0.02681005,-0.04950037,0.00088044,0.00489573,0.00105795,0.004
 46114,-0.00715324,-0.00289711,-0.00109069,0.03051696,0.00370518,-0.000
 24224,-0.00119490,-0.00012532,0.00029159,-0.00027813,-0.00355038,-0.00
 206087,-0.00190452,0.00101533,0.00041911,0.00076445,0.05366897,0.00100
 100,0.00050962,0.00163584,-0.00006389,0.00029565,-0.01927707,0.0001918
 6,-0.04625234,0.00986676,0.00209382,-0.02361911,0.03655691,-0.00026680
 ,0.00353275,-0.01034788,-0.00051087,-0.00011471,0.00076071,-0.00044519
 ,-0.00013770,-0.00001849,-0.00324055,-0.00089142,-0.00152586,0.0005528
 1,0.00061666,0.00000079,-0.00254685,0.06327264,0.00007934,0.00066051,0
 .00180139,0.00044809,-0.00137801,-0.01209422,0.00553682,0.01600200,-0.
 30132757,-0.00150123,0.01185149,-0.00551627,-0.00012767,-0.00067270,-0
 .01330162,-0.00138470,0.00044104,0.00254415,0.00001309,0.00018179,-0.0
 0026821,-0.00116732,-0.00115801,0.00023463,-0.00018552,-0.00039178,0.0
 0060567,-0.00195537,-0.02044571,0.32791215,-0.00077873,0.00028622,-0.0
 0068178,0.00157618,0.00024979,0.00133210,-0.00539167,-0.00995682,0.028
 62413,0.00253114,-0.00140377,-0.00164087,-0.05224138,-0.01239819,0.035
 83758,-0.00646083,0.00424902,-0.03566657,0.00002987,-0.00009996,0.0000
 8702,-0.00033308,-0.00018131,-0.00043670,-0.00009363,0.00014085,0.0000
 6982,-0.00444958,0.00189623,0.00129023,0.06414414,0.00028068,0.0001042
 6,0.00013114,-0.00050953,-0.00073533,0.00006291,0.00585209,0.00246020,
 -0.01112656,-0.00102754,0.00218916,-0.00041886,-0.01418751,-0.08548508
 ,0.08346695,0.00012087,0.00875691,-0.01248303,-0.00002394,0.00009057,-
 0.00006510,-0.00014607,0.00007600,-0.00000374,-0.00005631,0.00025698,-
 0.00003687,0.00164426,-0.00028253,-0.00114952,0.01441984,0.08389623,0.
 00067261,0.00000566,0.00042875,-0.00045241,-0.00117261,-0.00097544,0.0
 0475527,0.00692053,-0.01386373,-0.00197180,0.00036842,0.00220800,0.037
 29924,0.08037324,-0.24853718,-0.01484061,-0.00218781,-0.02207636,-0.00
 006562,0.00011024,-0.00010094,0.00026100,0.00021992,0.00067605,-0.0002
 3775,-0.00000026,0.00013540,0.00198535,-0.00057381,-0.00023261,-0.0280
 4071,-0.08655547,0.28129450,0.00073357,-0.00059480,-0.00014041,-0.0007
 0129,0.00129193,-0.00015782,0.00357275,0.02493103,-0.00227951,-0.00485
 158,0.00586425,0.00318592,-0.04834138,0.00502326,0.00535068,-0.0064036
 3,-0.03366971,-0.01264051,0.00030072,0.00026323,-0.00001735,0.00008342
 ,-0.00015662,-0.00034406,-0.00087012,-0.00002621,0.00019700,0.00021695
 ,-0.00076240,0.00058434,0.00175797,-0.00623208,0.00107740,0.06045208,0
 .00036199,0.00055650,-0.00009397,-0.00124989,-0.00089349,0.00026835,-0
 .00045906,-0.01017754,0.00246434,0.00195825,-0.00190715,-0.00216186,0.
 00100924,-0.29992121,-0.00362544,-0.00717120,-0.00733859,-0.00896125,-
 0.00037911,0.00005012,-0.00006247,0.00034806,0.00000901,0.00000219,0.0
 0000668,0.00097488,-0.00010790,0.00021026,0.00015636,-0.00034900,0.001
 05251,-0.01105429,0.00113473,0.00588898,0.32745587,-0.00034460,0.00010
 747,-0.00024343,-0.00037223,0.00017471,0.00103413,-0.00006060,-0.01249
 872,0.00020149,0.00172683,-0.00112509,0.00049841,0.00393399,0.00190364
 ,-0.05008584,-0.00727236,-0.02657991,-0.00556739,-0.00008688,-0.000080
 38,-0.00000435,0.00016780,0.00010810,-0.00006923,0.00018120,0.00008573
 ,0.00017226,-0.00045334,0.00045099,-0.00016071,-0.00022036,0.02912771,
 0.00177930,0.00641100,0.00943901,0.05288216,0.00048976,0.00031453,0.00
 007213,-0.00044634,-0.00044723,0.00017874,-0.00089628,-0.00355391,-0.0
 0149070,0.00227896,0.00300654,0.00174944,0.00291195,-0.03464870,-0.017
 73922,-0.06663506,0.10819890,0.03518802,-0.00047969,-0.00007949,-0.000
 06240,0.00030364,0.00010178,0.00027766,0.00013964,0.00026571,-0.000009
 15,-0.00112660,-0.00030492,0.00075071,-0.00083281,0.00000609,-0.000939
 99,-0.00564998,-0.00259092,-0.00431115,0.07406607,0.00134303,-0.000377
 60,0.00008089,-0.00006089,-0.00125123,-0.00062094,0.00189598,0.0068791
 0,0.00168779,-0.00470603,-0.00697140,-0.00357370,-0.00706228,-0.011901
 74,-0.01045092,0.07408839,-0.32121330,-0.14610917,0.00029331,0.0002964
 5,-0.00007195,0.00003641,0.00004101,0.00006500,-0.00012624,-0.00008954
 ,-0.00004562,-0.00054940,-0.00004802,0.00037216,0.00213373,0.00003741,
 0.00257646,0.00004837,0.00161991,-0.00058164,-0.06252459,0.32677724,0.
 00053570,-0.00007373,0.00000253,0.00021303,-0.00030373,-0.00064248,-0.
 00026038,0.00145040,0.00342327,-0.00159601,-0.00209861,-0.00224173,-0.
 00188803,-0.02298076,-0.01459369,0.01467440,-0.13223005,-0.08289546,0.
 00003872,0.00007011,-0.00000302,-0.00009981,-0.00004392,-0.00002795,0.
 00001514,-0.00003015,0.00000730,0.00028094,0.00027318,-0.00016326,-0.0
 0031686,-0.00073251,-0.00037854,0.00009481,0.00153872,-0.00026828,-0.0
 0762473,0.14916360,0.10258229,0.00152622,0.00023855,0.00048803,-0.0022
 6273,0.00271848,-0.00304986,0.00335340,-0.01485250,0.01746897,-0.08378
 978,-0.00308835,-0.02748612,0.00702444,0.00940725,0.00382801,0.0018876
 6,-0.01546974,-0.00801667,-0.00253273,-0.00100270,-0.00081484,-0.00049
 131,-0.00036965,-0.00007521,0.00136671,0.00118441,0.00027770,0.0000165
 9,0.00364106,-0.00421378,-0.00022764,-0.00022298,-0.00074220,-0.002852
 64,0.00090279,-0.00004876,-0.01456230,0.02181013,0.00533199,0.52682260
 ,0.00529110,0.00457994,0.00028251,-0.00178288,-0.00069989,-0.00137523,
 -0.00613318,-0.05312659,-0.00282903,0.01067498,-0.07137936,0.00823935,
 0.00404686,0.00256435,-0.00244862,-0.00342235,0.00038098,-0.00125038,-
 0.00796343,-0.00222117,-0.00011870,0.00012539,-0.00008485,0.00058550,0
 .00137236,0.00185244,-0.00014497,-0.00165191,0.00409176,-0.00271191,0.
 00022292,-0.00066795,0.00005629,-0.00210449,0.00238556,0.00039473,0.00
 723606,-0.00438890,0.00351854,-0.21830255,0.66986692,0.00185872,0.0024
 7300,0.00033058,-0.00157923,0.00640424,-0.00412228,0.01481795,-0.01434
 955,0.01196142,-0.03057624,-0.00521564,-0.08971210,0.00702152,0.004304
 02,0.00360694,0.00132183,-0.01664759,-0.00861505,-0.00441150,-0.001479
 17,-0.00036151,-0.00038536,-0.00033131,0.00026358,0.00227987,0.0018044
 2,0.00101695,0.00001422,0.00593245,-0.00220396,-0.00046525,-0.00042564
 ,-0.00071862,-0.00233551,0.00085968,-0.00018000,-0.01050905,0.02135592
 ,0.00803400,0.22029682,-0.13532411,0.41493171,-0.00050925,-0.00119575,
 0.00002839,0.00073351,-0.00096439,0.00050482,-0.00320004,0.01320863,-0
 .00363965,-0.03523467,-0.02990045,-0.05484861,-0.00777443,-0.00258057,
 -0.00388801,-0.00280656,0.02546666,0.01202266,0.00222677,0.00079898,-0
 .00014853,0.00000177,0.00004698,0.00002130,-0.00067609,-0.00061782,-0.
 00002293,0.00021230,-0.00123926,0.00101030,0.00072054,0.00008783,0.000
 93804,0.00196924,0.00007519,0.00068128,0.00615456,-0.02038340,-0.00636
 608,-0.28397100,0.06563873,-0.16236519,0.35216008,-0.00145845,-0.00032
 179,0.00017062,0.00142743,0.00120165,-0.00142895,-0.00250224,0.0017434
 7,-0.00025175,-0.02928688,0.00641538,-0.02501927,0.00485359,0.00252906
 ,0.00496161,0.01146645,-0.02239377,-0.01139961,0.00088420,0.00004062,-
 0.00005281,-0.00055284,-0.00039743,-0.00030624,0.00004011,-0.00009895,
 0.00013628,-0.00017706,0.00040084,-0.00198391,-0.00050531,0.00004864,-
 0.00090051,-0.00082646,-0.00067491,-0.00047426,-0.00968255,0.00256919,
 0.00020119,0.06834600,-0.11901961,0.05220467,-0.10757295,0.16267558,-0
 .00097386,-0.00166438,-0.00003614,0.00021917,-0.00082536,0.00167050,-0
 .00153205,0.01211545,-0.00452962,-0.05570310,-0.02534003,-0.02832362,-
 0.00037889,-0.00031204,0.00072646,0.00344364,-0.00270331,0.00415166,0.
 00254527,0.00087791,-0.00015264,0.00033169,0.00019907,0.00008115,-0.00
 066548,-0.00059399,-0.00013077,-0.00002953,-0.00220208,0.00176494,-0.0
 0007564,0.00016982,0.00023510,0.00065222,-0.00040514,-0.00004916,0.000
 83809,-0.00699160,-0.01037361,-0.16835906,0.05167960,-0.22647475,0.261
 13844,-0.06491176,0.26154363,0.00030245,0.00024530,-0.00001882,-0.0001
 0250,0.00018727,0.00014623,0.00349353,-0.00096543,-0.00334086,0.018158
 67,-0.01264980,-0.00032219,-0.00121888,-0.00204849,-0.00092102,-0.0013
 2726,0.00463585,0.00272370,-0.00014184,0.00017984,0.00003382,0.0001197
 4,0.00005242,0.00011072,0.00002279,0.00002190,0.00003014,-0.00009968,0
 .00000395,0.00082267,0.00004950,-0.00000569,0.00030216,0.00058393,0.00
 003624,0.00006821,0.00428448,-0.00623652,-0.00303284,-0.15130748,0.146
 75241,-0.03498361,-0.03000673,0.06554697,-0.04145092,0.15718929,-0.002
 42737,-0.00078040,-0.00017653,0.00345552,-0.00327891,0.00216977,-0.006
 51890,0.01160819,-0.01080276,-0.00179956,-0.11021063,-0.01414010,-0.00
 120597,-0.00247171,0.00183720,0.00292709,-0.00484669,-0.00222220,0.002
 75384,0.00063268,0.00027343,-0.00011368,0.00009640,-0.00042229,-0.0014
 6952,-0.00113882,-0.00045678,0.00030464,-0.00153045,0.00073156,-0.0001
 0573,0.00030882,-0.00037502,0.00106174,-0.00124101,-0.00045210,-0.0052
 9729,0.00802144,0.00227771,0.14505980,-0.43413362,0.07843462,0.0591316
 1,-0.03471797,0.04090784,-0.19575623,0.57368269,0.00000107,-0.00002756
 ,0.00002006,0.00043668,-0.00121395,0.00075597,-0.00347195,-0.00023295,
 0.00068676,0.00156519,-0.02842889,0.01598103,-0.00188000,-0.00040275,-
 0.00133121,-0.00074265,0.00529843,0.00278872,0.00025492,0.00009378,-0.
 00004112,0.00004227,0.00007779,-0.00002187,-0.00040554,-0.00023644,-0.
 00023521,0.00002141,-0.00108673,0.00040549,0.00030385,0.00003878,0.000
 12633,0.00036182,0.00006002,0.00006064,0.00363160,-0.00685630,-0.00246
 138,-0.03488503,0.08144645,-0.10775691,-0.04506623,0.04905469,-0.00010
 314,0.07983261,-0.09758435,0.09112583\\0.00006037,0.00028691,-0.000025
 95,-0.00001300,-0.00001142,-0.00000727,0.00000056,0.00000057,-0.000004
 37,-0.00002009,-0.00001471,-0.00000587,-0.00001138,0.00000886,0.000001
 29,0.00001987,-0.00001649,0.00000391,-0.00004797,-0.00026050,0.0000242
 1,-0.00000128,0.00000213,-0.00000587,0.00000475,-0.00000751,-0.0000030
 3,-0.00000128,-0.00000446,0.00000340,-0.00000127,0.00001120,-0.0000140
 4,-0.00000500,-0.00002098,-0.00001039,-0.00000148,0.00001040,-0.000000
 55,-0.00000906,0.00001131,0.00000488,0.00004754,-0.00002143,0.00003702
 ,-0.00002129,0.00002611,0.00000263\\\@
 The archive entry for this job was punched.


 IF YOU'RE NOT PART OF THE SOLUTION,
 THEN YOU'RE PART OF THE PRECIPITATE.
 Job cpu time:       0 days  0 hours 37 minutes 41.2 seconds.
 Elapsed time:       0 days  0 hours 19 minutes 40.5 seconds.
 File lengths (MBytes):  RWF=    175 Int=      0 D2E=      0 Chk=     19 Scr=      1
 Normal termination of Gaussian 16 at Fri Jun  2 12:13:46 2023.
