 Entering Gaussian System, Link 0=g16
 Input=PG-isolated-freq.gjf
 Output=PG-isolated-freq.log
 Initial command:
 /software/commercial/gaussian/g16/AVX/g16/l1.exe "/scratch1/svicchi/G09-659868.pbs02/Gau-889464.inp" -scrdir="/scratch1/svicchi/G09-659868.pbs02/"
 Entering Link 1 = /software/commercial/gaussian/g16/AVX/g16/l1.exe PID=    889465.
  
 Copyright (c) 1988-2019, Gaussian, Inc.  All Rights Reserved.
  
 This is part of the Gaussian(R) 16 program.  It is based on
 the Gaussian(R) 09 system (copyright 2009, Gaussian, Inc.),
 the Gaussian(R) 03 system (copyright 2003, Gaussian, Inc.),
 the Gaussian(R) 98 system (copyright 1998, Gaussian, Inc.),
 the Gaussian(R) 94 system (copyright 1995, Gaussian, Inc.),
 the Gaussian 92(TM) system (copyright 1992, Gaussian, Inc.),
 the Gaussian 90(TM) system (copyright 1990, Gaussian, Inc.),
 the Gaussian 88(TM) system (copyright 1988, Gaussian, Inc.),
 the Gaussian 86(TM) system (copyright 1986, Carnegie Mellon
 University), and the Gaussian 82(TM) system (copyright 1983,
 Carnegie Mellon University). Gaussian is a federally registered
 trademark of Gaussian, Inc.
  
 This software contains proprietary and confidential information,
 including trade secrets, belonging to Gaussian, Inc.
  
 This software is provided under written license and may be
 used, copied, transmitted, or stored only in accord with that
 written license.
  
 The following legend is applicable only to US Government
 contracts under FAR:
  
                    RESTRICTED RIGHTS LEGEND
  
 Use, reproduction and disclosure by the US Government is
 subject to restrictions as set forth in subparagraphs (a)
 and (c) of the Commercial Computer Software - Restricted
 Rights clause in FAR 52.227-19.
  
 Gaussian, Inc.
 340 Quinnipiac St., Bldg. 40, Wallingford CT 06492
  
  
 ---------------------------------------------------------------
 Warning -- This program may not be used in any manner that
 competes with the business of Gaussian, Inc. or will provide
 assistance to any competitor of Gaussian, Inc.  The licensee
 of this program is prohibited from giving any competitor of
 Gaussian, Inc. access to this program.  By using this program,
 the user acknowledges that Gaussian, Inc. is engaged in the
 business of creating and licensing software in the field of
 computational chemistry and represents and warrants to the
 licensee that it is not a competitor of Gaussian, Inc. and that
 it will not use this program in any manner prohibited above.
 ---------------------------------------------------------------
  

 Cite this work as:
 Gaussian 16, Revision C.01,
 M. J. Frisch, G. W. Trucks, H. B. Schlegel, G. E. Scuseria, 
 M. A. Robb, J. R. Cheeseman, G. Scalmani, V. Barone, 
 G. A. Petersson, H. Nakatsuji, X. Li, M. Caricato, A. V. Marenich, 
 J. Bloino, B. G. Janesko, R. Gomperts, B. Mennucci, H. P. Hratchian, 
 J. V. Ortiz, A. F. Izmaylov, J. L. Sonnenberg, D. Williams-Young, 
 F. Ding, F. Lipparini, F. Egidi, J. Goings, B. Peng, A. Petrone, 
 T. Henderson, D. Ranasinghe, V. G. Zakrzewski, J. Gao, N. Rega, 
 G. Zheng, W. Liang, M. Hada, M. Ehara, K. Toyota, R. Fukuda, 
 J. Hasegawa, M. Ishida, T. Nakajima, Y. Honda, O. Kitao, H. Nakai, 
 T. Vreven, K. Throssell, J. A. Montgomery, Jr., J. E. Peralta, 
 F. Ogliaro, M. J. Bearpark, J. J. Heyd, E. N. Brothers, K. N. Kudin, 
 V. N. Staroverov, T. A. Keith, R. Kobayashi, J. Normand, 
 K. Raghavachari, A. P. Rendell, J. C. Burant, S. S. Iyengar, 
 J. Tomasi, M. Cossi, J. M. Millam, M. Klene, C. Adamo, R. Cammi, 
 J. W. Ochterski, R. L. Martin, K. Morokuma, O. Farkas, 
 J. B. Foresman, and D. J. Fox, Gaussian, Inc., Wallingford CT, 2019.
 
 ******************************************
 Gaussian 16:  ES64L-G16RevC.01  3-Jul-2019
                 2-Jun-2023 
 ******************************************
 %NProcShared=2
 Will use up to    2 processors via shared memory.
 %mem=55gb
 %chk=/scratch1/svicchi/G09-659868.pbs02/02-freq/PG-isolated-freq.chk
 ----------------------------------------------------------------------
 #p freq=raman scale=0.967 pop=(nbo,full,hirshfeld) guess=read geom=all
 check b3lyp/6-311+G(d,p) int=grid=ultrafine EmpiricalDispersion=GD3BJ 
 SCRF=(Solvent=ethanol) scf=(xqc,intrep,maxconventionalcycle=350) nosym
 m
 ----------------------------------------------------------------------
 1/10=4,29=7,30=1,38=1,114=967000/1,3;
 2/12=2,15=1,40=1/2;
 3/5=4,6=6,7=111,11=2,14=-4,25=1,30=1,70=2201,71=2,72=4,74=-5,75=-5,116=-2,124=41,140=1/1,2,3;
 4/5=1/1;
 5/5=2,8=3,13=1,17=20,38=6,53=4,85=350,98=1/2,8;
 8/6=4,10=90,11=11/1;
 10/13=10,15=4,31=1/2;
 11/6=3,8=1,9=11,15=111,16=1,31=1/1,2,10;
 10/6=1,31=1/2;
 6/7=3,28=1,40=1,79=1/1,7;
 7/8=1,10=1,25=1,30=1/1,2,3,16;
 1/10=4,30=1/3;
 99//99;
 Leave Link    1 at Fri Jun  2 11:18:28 2023, MaxMem=  7381975040 cpu:               1.8 elap:               1.9
 (Enter /software/commercial/gaussian/g16/AVX/g16/l101.exe)
 Structure from the checkpoint file:  "/scratch1/svicchi/G09-659868.pbs02/02-freq/PG-isolated-freq.chk"
 ---------------
 PG-isolated.gjf
 ---------------
 Charge =  0 Multiplicity = 1
 No Z-Matrix found in chk file; cartesian coordinates used.
  O                                                -4.313002576934      1.599747360154      0.024014444811
  C                                                -3.072941650318      2.299472104656      0.122387182426
  H                                                -4.206377176426      0.787591301026      0.536098057900
  C                                                -1.888199274808      1.392580390988     -0.171197589481
  H                                                -2.954562665254      2.731188023185      1.125214698434
  H                                                -3.107981553454      3.114259682259     -0.602213463969
  C                                                -0.558397636970      2.126906099106     -0.073795720064
  H                                                -0.509018654809      2.930556541279     -0.813780866132
  H                                                 0.272960753080      1.443662084777     -0.263451652081
  H                                                -0.430018094565      2.559301330294      0.921963225175
  O                                                -1.981700452834      0.326632534959      0.796304736358
  H                                                -2.013684685864      0.970096530853     -1.175429382181
  H                                                -1.408366330846     -0.396593983538      0.521257328804
 Recover connectivity data from disk.
 ITRead=  0  0  0  0  0  0  0  0  0  0  0  0  0
 MicOpt= -1 -1 -1 -1 -1 -1 -1 -1 -1 -1 -1 -1 -1
 NAtoms=     13 NQM=       13 NQMF=       0 NMMI=      0 NMMIF=      0
                NMic=       0 NMicF=      0.
                    Isotopes and Nuclear Properties:
 (Nuclear quadrupole moments (NQMom) in fm**2, nuclear magnetic moments (NMagM)
  in nuclear magnetons)

  Atom         1           2           3           4           5           6           7           8           9          10
 IAtWgt=          16          12           1          12           1           1          12           1           1           1
 AtmWgt=  15.9949146  12.0000000   1.0078250  12.0000000   1.0078250   1.0078250  12.0000000   1.0078250   1.0078250   1.0078250
 NucSpn=           0           0           1           0           1           1           0           1           1           1
 AtZEff=   5.6000000   3.6000000   1.0000000   3.6000000   1.0000000   1.0000000   3.6000000   1.0000000   1.0000000   1.0000000
 NQMom=    0.0000000   0.0000000   0.0000000   0.0000000   0.0000000   0.0000000   0.0000000   0.0000000   0.0000000   0.0000000
 NMagM=    0.0000000   0.0000000   2.7928460   0.0000000   2.7928460   2.7928460   0.0000000   2.7928460   2.7928460   2.7928460
 AtZNuc=   8.0000000   6.0000000   1.0000000   6.0000000   1.0000000   1.0000000   6.0000000   1.0000000   1.0000000   1.0000000

  Atom        11          12          13
 IAtWgt=          16           1           1
 AtmWgt=  15.9949146   1.0078250   1.0078250
 NucSpn=           0           1           1
 AtZEff=   5.6000000   1.0000000   1.0000000
 NQMom=    0.0000000   0.0000000   0.0000000
 NMagM=    0.0000000   2.7928460   2.7928460
 AtZNuc=   8.0000000   1.0000000   1.0000000
 Leave Link  101 at Fri Jun  2 11:18:30 2023, MaxMem=  7381975040 cpu:               0.5 elap:               1.1
 (Enter /software/commercial/gaussian/g16/AVX/g16/l103.exe)

 GradGradGradGradGradGradGradGradGradGradGradGradGradGradGradGradGradGrad
 Berny optimization.
 Initialization pass.
 Trust Radius=3.00D-01 FncErr=1.00D-07 GrdErr=1.00D-07 EigMax=2.50D+02 EigMin=1.00D-04
 Number of steps in this run=      2 maximum allowed number of steps=      2.
 GradGradGradGradGradGradGradGradGradGradGradGradGradGradGradGradGradGrad

 Leave Link  103 at Fri Jun  2 11:18:32 2023, MaxMem=  7381975040 cpu:               0.1 elap:               1.2
 (Enter /software/commercial/gaussian/g16/AVX/g16/l202.exe)
                          Input orientation:                          
 ---------------------------------------------------------------------
 Center     Atomic      Atomic             Coordinates (Angstroms)
 Number     Number       Type             X           Y           Z
 ---------------------------------------------------------------------
      1          8           0       -4.313003    1.599747    0.024014
      2          6           0       -3.072942    2.299472    0.122387
      3          1           0       -4.206377    0.787591    0.536098
      4          6           0       -1.888199    1.392580   -0.171198
      5          1           0       -2.954563    2.731188    1.125215
      6          1           0       -3.107982    3.114260   -0.602213
      7          6           0       -0.558398    2.126906   -0.073796
      8          1           0       -0.509019    2.930557   -0.813781
      9          1           0        0.272961    1.443662   -0.263452
     10          1           0       -0.430018    2.559301    0.921963
     11          8           0       -1.981700    0.326633    0.796305
     12          1           0       -2.013685    0.970097   -1.175429
     13          1           0       -1.408366   -0.396594    0.521257
 ---------------------------------------------------------------------
                    Distance matrix (angstroms):
                    1          2          3          4          5
     1  O    0.000000
     2  C    1.427250   0.000000
     3  H    0.966021   1.934326   0.000000
     4  C    2.441454   1.520611   2.498045   0.000000
     5  H    2.082825   1.098205   2.385721   2.147018   0.000000
     6  H    2.034204   1.090941   2.813470   2.153561   1.776032
     7  C    3.792693   2.528082   3.933636   1.522200   2.746705
     8  H    4.116218   2.801496   4.481622   2.163429   3.127321
     9  H    4.597614   3.475104   4.597192   2.163731   3.742062
    10  H    4.099344   2.773424   4.189121   2.163916   2.538539
    11  O    2.766265   2.353098   2.286783   1.442584   2.614676
    12  H    2.668705   2.138596   2.787568   1.096686   3.046253
    13  H    3.559430   3.193537   3.038319   1.977594   3.540976
                    6          7          8          9         10
     6  H    0.000000
     7  C    2.784685   0.000000
     8  H    2.614023   1.093559   0.000000
     9  H    3.786347   1.092680   1.767826   0.000000
    10  H    3.130907   1.093153   1.776761   1.773144   0.000000
    11  O    3.315905   2.454353   3.397291   2.730263   2.721823
    12  H    2.474570   2.160941   2.497641   2.506933   3.071258
    13  H    4.059184   2.728477   3.696090   2.613268   3.139275
                   11         12         13
    11  O    0.000000
    12  H    2.074320   0.000000
    13  H    0.963026   2.261194   0.000000
 Symmetry turned off by external request.
 Stoichiometry    C3H8O2
 Framework group  C1[X(C3H8O2)]
 Deg. of freedom    33
 Full point group                 C1      NOp   1
 Rotational constants (GHZ):           8.3550087           3.6361566           2.7658916
 Leave Link  202 at Fri Jun  2 11:18:34 2023, MaxMem=  7381975040 cpu:               0.0 elap:               0.6
 (Enter /software/commercial/gaussian/g16/AVX/g16/l301.exe)
 Standard basis: 6-311+G(d,p) (5D, 7F)
 Ernie: Thresh=  0.10000D-02 Tol=  0.10000D-05 Strict=F.
   158 basis functions,   244 primitive gaussians,   163 cartesian basis functions
    21 alpha electrons       21 beta electrons
       nuclear repulsion energy       194.3192128462 Hartrees.
 IExCor=  402 DFT=T Ex+Corr=B3LYP ExCW=0 ScaHFX=  0.200000
 ScaDFX=  0.800000  0.720000  1.000000  0.810000 ScalE2=  1.000000  1.000000
 IRadAn=      5 IRanWt=     -1 IRanGd=            0 ICorTp=0 IEmpDi=141
 NAtoms=   13 NActive=   13 NUniq=   13 SFac= 1.00D+00 NAtFMM=   60 NAOKFM=F Big=F
 Integral buffers will be    131072 words long.
 Raffenetti 2 integral format.
 Two-electron integral symmetry is turned off.
 R6Disp:  Grimme-D3(BJ) Dispersion energy=       -0.0140789690 Hartrees.
 Nuclear repulsion after empirical dispersion term =      194.3051338771 Hartrees.
 Force inversion solution in PCM.
 ------------------------------------------------------------------------------
 Polarizable Continuum Model (PCM)
 =================================
 Model                : PCM.
 Atomic radii         : UFF (Universal Force Field).
 Polarization charges : Total charges.
 Charge compensation  : None.
 Solution method      : Matrix inversion.
 Cavity type          : Scaled VdW (van der Waals Surface) (Alpha=1.100).
 Cavity algorithm     : GePol (No added spheres)
                        Default sphere list used, NSphG=   13.
                        Lebedev-Laikov grids with approx.  5.0 points / Ang**2.
                        Smoothing algorithm: York/Karplus (Gamma=1.0000).
                        Polarization charges: spherical gaussians, with
                                              point-specific exponents (IZeta= 3).
                        Self-potential: point-specific (ISelfS= 7).
                        Self-field    : sphere-specific E.n sum rule (ISelfD= 2).
 1st derivatives      : Analytical E(r).r(x)/FMM algorithm (CHGder, D1EAlg=3).
                        Cavity 1st derivative terms included.
 2nd derivatives      : Analytical E(r).r(xy)/FMM algorithm (CHGder, D2EAlg=3).
                        Cavity 2nd derivative terms included.
 Solvent              : Ethanol, Eps=  24.852000 Eps(inf)=   1.852593
 ------------------------------------------------------------------------------
 Spheres list:
 ISph  on   Nord     Re0    Alpha      Xe            Ye            Ze
    1   O      1    1.7500  1.100     -4.313003      1.599747      0.024014
    2   C      2    1.9255  1.100     -3.072942      2.299472      0.122387
    3   H      3    1.4430  1.100     -4.206377      0.787591      0.536098
    4   C      4    1.9255  1.100     -1.888199      1.392580     -0.171198
    5   H      5    1.4430  1.100     -2.954563      2.731188      1.125215
    6   H      6    1.4430  1.100     -3.107982      3.114260     -0.602213
    7   C      7    1.9255  1.100     -0.558398      2.126906     -0.073796
    8   H      8    1.4430  1.100     -0.509019      2.930557     -0.813781
    9   H      9    1.4430  1.100      0.272961      1.443662     -0.263452
   10   H     10    1.4430  1.100     -0.430018      2.559301      0.921963
   11   O     11    1.7500  1.100     -1.981700      0.326633      0.796305
   12   H     12    1.4430  1.100     -2.013685      0.970097     -1.175429
   13   H     13    1.4430  1.100     -1.408366     -0.396594      0.521257
 ------------------------------------------------------------------------------
 GePol: Number of generator spheres                  =      13
 GePol: Total number of spheres                      =      13
 GePol: Number of exposed spheres                    =      13 (100.00%)
 GePol: Number of points                             =    1064
 GePol: Average weight of points                     =       0.13
 GePol: Minimum weight of points                     =   0.73D-10
 GePol: Maximum weight of points                     =    0.20577
 GePol: Number of points with low weight             =      71
 GePol: Fraction of low-weight points (<1% of avg)   =       6.67%
 GePol: Cavity surface area                          =    141.757 Ang**2
 GePol: Cavity volume                                =    128.332 Ang**3
 Leave Link  301 at Fri Jun  2 11:18:37 2023, MaxMem=  7381975040 cpu:               0.6 elap:               2.1
 (Enter /software/commercial/gaussian/g16/AVX/g16/l302.exe)
 NPDir=0 NMtPBC=     1 NCelOv=     1 NCel=       1 NClECP=     1 NCelD=      1
         NCelK=      1 NCelE2=     1 NClLst=     1 CellRange=     0.0.
 One-electron integrals computed using PRISM.
 NBasis=   158 RedAO= T EigKep=  6.11D-05  NBF=   158
 NBsUse=   158 1.00D-06 EigRej= -1.00D+00 NBFU=   158
 Precomputing XC quadrature grid using
 IXCGrd= 4 IRadAn=           5 IRanWt=          -1 IRanGd=           0 AccXCQ= 0.00D+00.
 Generated NRdTot=       0 NPtTot=           0 NUsed=           0 NTot=          32
 NSgBfM=   163   163   163   163   163 MxSgAt=    13 MxSgA2=    13.
 Leave Link  302 at Fri Jun  2 11:18:40 2023, MaxMem=  7381975040 cpu:               0.8 elap:               1.1
 (Enter /software/commercial/gaussian/g16/AVX/g16/l303.exe)
 DipDrv:  MaxL=1.
 Leave Link  303 at Fri Jun  2 11:18:42 2023, MaxMem=  7381975040 cpu:               0.2 elap:               1.6
 (Enter /software/commercial/gaussian/g16/AVX/g16/l401.exe)
 Initial guess from the checkpoint file:  "/scratch1/svicchi/G09-659868.pbs02/02-freq/PG-isolated-freq.chk"
 B after Tr=     0.000000    0.000000    0.000000
         Rot=    1.000000    0.000000    0.000000    0.000000 Ang=   0.00 deg.
 Guess basis will be translated and rotated to current coordinates.
 JPrj=2 DoOrth=T DoCkMO=T.
 Leave Link  401 at Fri Jun  2 11:18:46 2023, MaxMem=  7381975040 cpu:               1.1 elap:               2.3
 (Enter /software/commercial/gaussian/g16/AVX/g16/l502.exe)
 Keep R1 ints in memory in canonical form, NReq=81101972.
 FoFCou: FMM=F IPFlag=           0 FMFlag=           0 FMFlg1=           0
         NFxFlg=           0 DoJE=F BraDBF=F KetDBF=F FulRan=T
         wScrn=  0.000000 ICntrl=       600 IOpCl=  0 I1Cent=           0 NGrid=           0
         NMat0=    1 NMatS0=  12561 NMatT0=    0 NMatD0=    1 NMtDS0=    0 NMtDT0=    0
 Symmetry not used in FoFCou.
 Two-electron integral symmetry not used.
 Closed shell SCF:
 Using DIIS extrapolation, IDIIS=  1040.
 NGot=  7381975040 LenX=  7303023600 LenY=  7302996590
 Requested convergence on RMS density matrix=1.00D-08 within 350 cycles.
 Requested convergence on MAX density matrix=1.00D-06.
 Requested convergence on             energy=1.00D-06.
 No special actions if energy rises.

 Cycle   1  Pass 1  IDiag  1:
 Inv3:  Mode=1 IEnd=     3396288.
 Iteration    1 A*A^-1 deviation from unit magnitude is 3.55D-15 for   1041.
 Iteration    1 A*A^-1 deviation from orthogonality  is 1.25D-15 for   1053    340.
 Iteration    1 A^-1*A deviation from unit magnitude is 3.44D-15 for   1053.
 Iteration    1 A^-1*A deviation from orthogonality  is 2.76D-14 for    892    870.
 E= -269.687774209665    
 DIIS: error= 1.55D-08 at cycle   1 NSaved=   1.
 NSaved= 1 IEnMin= 1 EnMin= -269.687774209665     IErMin= 1 ErrMin= 1.55D-08
 ErrMax= 1.55D-08  0.00D+00 EMaxC= 1.00D-01 BMatC= 5.84D-14 BMatP= 5.84D-14
 IDIUse=1 WtCom= 1.00D+00 WtEn= 0.00D+00
 Coeff-Com:  0.100D+01
 Coeff:      0.100D+01
 Gap=     0.287 Goal=   None    Shift=    0.000
 RMSDP=2.63D-09 MaxDP=7.74D-08              OVMax= 1.14D-07

 Error on total polarization charges =  0.01136
 SCF Done:  E(RB3LYP) =  -269.687774210     A.U. after    1 cycles
            NFock=  1  Conv=0.26D-08     -V/T= 2.0040
 KE= 2.686070375113D+02 PE=-1.020509434974D+03 EE= 2.879094893759D+02
 Leave Link  502 at Fri Jun  2 11:18:58 2023, MaxMem=  7381975040 cpu:              17.4 elap:              11.3
 (Enter /software/commercial/gaussian/g16/AVX/g16/l508.exe)
 QCSCF skips out because SCF is already converged.
 Leave Link  508 at Fri Jun  2 11:19:00 2023, MaxMem=  7381975040 cpu:               0.0 elap:               0.7
 (Enter /software/commercial/gaussian/g16/AVX/g16/l801.exe)
 DoSCS=F DFT=T ScalE2(SS,OS)=  1.000000  1.000000
 Range of M.O.s used for correlation:     1   158
 NBasis=   158 NAE=    21 NBE=    21 NFC=     0 NFV=     0
 NROrb=    158 NOA=    21 NOB=    21 NVA=   137 NVB=   137

 **** Warning!!: The largest alpha MO coefficient is  0.41809179D+02

 Leave Link  801 at Fri Jun  2 11:19:02 2023, MaxMem=  7381975040 cpu:               0.1 elap:               0.9
 (Enter /software/commercial/gaussian/g16/AVX/g16/l1002.exe)
 Minotr:  Closed shell wavefunction.
 NEqPCM:  Using equilibrium solvation (IEInf=0, Eps=  24.8520, EpsInf=   1.8526)
          Direct CPHF calculation.
          Differentiating once with respect to electric field.
                with respect to dipole field.
          Electric field/nuclear overlap derivatives assumed to be zero.
          Requested convergence is 1.0D-08 RMS, and 1.0D-07 maximum.
          Secondary convergence is 1.0D-12 RMS, and 1.0D-12 maximum.
          NewPWx=F KeepS1=T KeepF1=T KeepIn=T MapXYZ=F SortEE=F KeepMc=T.
         3973 words used for storage of precomputed grid.
 Keep R1 ints in memory in canonical form, NReq=82957817.
 FoFCou: FMM=F IPFlag=           0 FMFlag=           0 FMFlg1=           0
         NFxFlg=           0 DoJE=F BraDBF=F KetDBF=F FulRan=T
         wScrn=  0.000000 ICntrl=       600 IOpCl=  0 I1Cent=           0 NGrid=           0
         NMat0=    1 NMatS0=  12561 NMatT0=    0 NMatD0=    1 NMtDS0=    0 NMtDT0=    0
 Symmetry not used in FoFCou.
 Two-electron integral symmetry not used.
          MDV=    7381975040 using IRadAn=       1.
          Solving linear equations simultaneously, MaxMat=       0.
          There are     3 degrees of freedom in the 1st order CPHF.  IDoFFX=0 NUNeed=     3.
      3 vectors produced by pass  0 Test12= 9.59D-14 3.33D-08 XBig12= 2.78D+01 1.18D+00.
 AX will form     3 AO Fock derivatives at one time.
      3 vectors produced by pass  1 Test12= 9.59D-14 3.33D-08 XBig12= 3.16D+00 3.81D-01.
      3 vectors produced by pass  2 Test12= 9.59D-14 3.33D-08 XBig12= 7.41D-01 1.35D-01.
      3 vectors produced by pass  3 Test12= 9.59D-14 3.33D-08 XBig12= 8.46D-02 3.80D-02.
      3 vectors produced by pass  4 Test12= 9.59D-14 3.33D-08 XBig12= 1.66D-02 1.98D-02.
      3 vectors produced by pass  5 Test12= 9.59D-14 3.33D-08 XBig12= 8.16D-04 5.92D-03.
      3 vectors produced by pass  6 Test12= 9.59D-14 3.33D-08 XBig12= 3.27D-05 9.31D-04.
      3 vectors produced by pass  7 Test12= 9.59D-14 3.33D-08 XBig12= 7.19D-07 1.39D-04.
      3 vectors produced by pass  8 Test12= 9.59D-14 3.33D-08 XBig12= 1.23D-08 1.79D-05.
      3 vectors produced by pass  9 Test12= 9.59D-14 3.33D-08 XBig12= 2.53D-10 3.41D-06.
      3 vectors produced by pass 10 Test12= 9.59D-14 3.33D-08 XBig12= 4.98D-12 3.92D-07.
      1 vectors produced by pass 11 Test12= 9.59D-14 3.33D-08 XBig12= 7.65D-14 4.75D-08.
 InvSVY:  IOpt=1 It=  1 EMax= 8.03D-16
 Solved reduced A of dimension    34 with     3 vectors.
 End of Minotr F.D. properties file   721 does not exist.
 End of Minotr F.D. properties file   722 does not exist.
 End of Minotr F.D. properties file   788 does not exist.
 Leave Link 1002 at Fri Jun  2 11:19:52 2023, MaxMem=  7381975040 cpu:              83.9 elap:              48.6
 (Enter /software/commercial/gaussian/g16/AVX/g16/l1101.exe)
 Using compressed storage, NAtomX=    13.
 Will process     14 centers per pass.
 R6Disp: Adding Grimme-D3(BJ) dispersion energy 1st derivatives to the gradient.
 Leave Link 1101 at Fri Jun  2 11:19:55 2023, MaxMem=  7381975040 cpu:               0.4 elap:               1.3
 (Enter /software/commercial/gaussian/g16/AVX/g16/l1102.exe)
 Symmetrizing basis deriv contribution to polar:
 IMax=3 JMax=2 DiffMx= 0.00D+00
 Leave Link 1102 at Fri Jun  2 11:19:57 2023, MaxMem=  7381975040 cpu:               0.4 elap:               1.1
 (Enter /software/commercial/gaussian/g16/AVX/g16/l1110.exe)
 Forming Gx(P) for the SCF density, NAtomX=    13.
 Integral derivatives from FoFJK, PRISM(SPDF).
 Do as many integral derivatives as possible in FoFJK.
 G2DrvN: MDV=    7381973565.
 G2DrvN: will do    14 centers at a time, making    1 passes.
 PxScal for G2LodP:  IOpCl= 0 ISclPx=1 IMOff=     1 NMtTot=     4 NTT=   12561 ScalPx= 9.76D+00
 Calling FoFCou, ICntrl=  3107 FMM=F I1Cent=   0 AccDes= 0.00D+00.
 FoFJK:  IHMeth= 1 ICntrl=    3107 DoSepK=F KAlg= 0 I1Cent=           0 FoldK=F
 IRaf=         0 NMat=       1 IRICut=       1 DoRegI=T DoRafI=F ISym2E= 0 IDoP0=0 IntGTp=1.
 FoFCou: FMM=F IPFlag=           0 FMFlag=      100000 FMFlg1=           0
         NFxFlg=           0 DoJE=F BraDBF=F KetDBF=F FulRan=T
         wScrn=  0.000000 ICntrl=      3107 IOpCl=  0 I1Cent=           0 NGrid=           0
         NMat0=    1 NMatS0=      1 NMatT0=    0 NMatD0=    4 NMtDS0=    3 NMtDT0=    0
 Symmetry not used in FoFCou.
 PxScal for G2LodP:  IOpCl= 0 ISclPx=0 IMOff=     1 NMtTot=     4 NTT=   12561 ScalPx= 1.00D+00
 NEqPCM:  Using equilibrium solvation (IEInf=0, Eps=  24.8520, EpsInf=   1.8526)
 G2PCM: DoFxE=T DoFxN=T DoGrad=T DoDP/DQ/DG/TGxP=TFFF NFrqRd=   0 IEInf=0 SqF1=F DoCFld=F IF1Alg=4.
 GePol: Maximum number of non-zero 1st derivatives   =     203
 End of G2Drv F.D. properties file   721 does not exist.
 End of G2Drv F.D. properties file   722 does not exist.
 End of G2Drv F.D. properties file   788 does not exist.
 Leave Link 1110 at Fri Jun  2 11:22:05 2023, MaxMem=  7381975040 cpu:             246.4 elap:             127.0
 (Enter /software/commercial/gaussian/g16/AVX/g16/l1002.exe)
 Minotr:  Closed shell wavefunction.
          IDoAtm=1111111111111
 NEqPCM:  Using equilibrium solvation (IEInf=0, Eps=  24.8520, EpsInf=   1.8526)
          Direct CPHF calculation.
          Differentiating once with respect to electric field.
                with respect to dipole field.
          Differentiating once with respect to nuclear coordinates.
          Requested convergence is 1.0D-08 RMS, and 1.0D-07 maximum.
          Secondary convergence is 1.0D-12 RMS, and 1.0D-12 maximum.
          NewPWx=T KeepS1=F KeepF1=F KeepIn=T MapXYZ=F SortEE=F KeepMc=T.
         3973 words used for storage of precomputed grid.
 Keep R1 ints in memory in canonical form, NReq=82958116.
 FoFCou: FMM=F IPFlag=           0 FMFlag=           0 FMFlg1=           0
         NFxFlg=           0 DoJE=F BraDBF=F KetDBF=F FulRan=T
         wScrn=  0.000000 ICntrl=       600 IOpCl=  0 I1Cent=           0 NGrid=           0
         NMat0=    1 NMatS0=  12561 NMatT0=    0 NMatD0=    1 NMtDS0=    0 NMtDT0=    0
 Symmetry not used in FoFCou.
 Two-electron integral symmetry not used.
          MDV=    7381975040 using IRadAn=       1.
          Solving linear equations simultaneously, MaxMat=       0.
          There are    42 degrees of freedom in the 1st order CPHF.  IDoFFX=5 NUNeed=    42.
 Will reuse    3 saved solutions.
     36 vectors produced by pass  0 Test12= 6.85D-15 2.38D-09 XBig12= 9.82D-02 6.32D-02.
 AX will form    36 AO Fock derivatives at one time.
     36 vectors produced by pass  1 Test12= 6.85D-15 2.38D-09 XBig12= 8.38D-03 1.49D-02.
     36 vectors produced by pass  2 Test12= 6.85D-15 2.38D-09 XBig12= 8.14D-05 1.26D-03.
     36 vectors produced by pass  3 Test12= 6.85D-15 2.38D-09 XBig12= 3.99D-07 6.94D-05.
     36 vectors produced by pass  4 Test12= 6.85D-15 2.38D-09 XBig12= 9.67D-10 3.64D-06.
     27 vectors produced by pass  5 Test12= 6.85D-15 2.38D-09 XBig12= 1.17D-12 1.26D-07.
      2 vectors produced by pass  6 Test12= 6.85D-15 2.38D-09 XBig12= 1.01D-15 3.98D-09.
 InvSVY:  IOpt=1 It=  1 EMax= 1.55D-15
 Solved reduced A of dimension   209 with    36 vectors.
 FullF1:  Do perturbations      1 to       3.
 Isotropic polarizability for W=    0.000000       58.68 Bohr**3.
 FullF1:  Do perturbations      1 to       6.
 End of Minotr F.D. properties file   721 does not exist.
 End of Minotr F.D. properties file   722 does not exist.
 End of Minotr F.D. properties file   788 does not exist.
 Leave Link 1002 at Fri Jun  2 11:24:04 2023, MaxMem=  7381975040 cpu:             218.4 elap:             118.0
 (Enter /software/commercial/gaussian/g16/AVX/g16/l601.exe)
 Copying SCF densities to generalized density rwf, IOpCl= 0 IROHF=0.

 **********************************************************************

            Population analysis using the SCF Density.

 **********************************************************************

 Alpha  occ. eigenvalues --  -19.13540 -19.12844 -10.22910 -10.21877 -10.16515
 Alpha  occ. eigenvalues --   -1.04401  -1.01913  -0.77867  -0.68711  -0.60871
 Alpha  occ. eigenvalues --   -0.54028  -0.50222  -0.45933  -0.44000  -0.41654
 Alpha  occ. eigenvalues --   -0.40260  -0.38863  -0.35590  -0.33935  -0.29474
 Alpha  occ. eigenvalues --   -0.28568
 Alpha virt. eigenvalues --    0.00093   0.01923   0.02732   0.03497   0.05447
 Alpha virt. eigenvalues --    0.06343   0.07126   0.07728   0.08418   0.10785
 Alpha virt. eigenvalues --    0.11410   0.12278   0.15473   0.15882   0.16578
 Alpha virt. eigenvalues --    0.17624   0.18252   0.19969   0.20034   0.20782
 Alpha virt. eigenvalues --    0.22315   0.23292   0.24187   0.25073   0.25528
 Alpha virt. eigenvalues --    0.26605   0.27084   0.28557   0.29524   0.32227
 Alpha virt. eigenvalues --    0.32777   0.35049   0.41253   0.42772   0.45677
 Alpha virt. eigenvalues --    0.48634   0.51713   0.54352   0.54800   0.55877
 Alpha virt. eigenvalues --    0.59574   0.61440   0.62361   0.65163   0.66480
 Alpha virt. eigenvalues --    0.68287   0.69108   0.71425   0.73705   0.82700
 Alpha virt. eigenvalues --    0.92701   0.95042   0.95474   0.98253   1.06924
 Alpha virt. eigenvalues --    1.08099   1.09947   1.14057   1.14285   1.20150
 Alpha virt. eigenvalues --    1.25101   1.32920   1.35105   1.37380   1.42216
 Alpha virt. eigenvalues --    1.45228   1.46429   1.50240   1.52098   1.54728
 Alpha virt. eigenvalues --    1.55347   1.56501   1.58036   1.58678   1.59826
 Alpha virt. eigenvalues --    1.65497   1.69156   1.74073   1.75518   1.76001
 Alpha virt. eigenvalues --    1.84730   1.90156   1.93558   1.98138   1.98631
 Alpha virt. eigenvalues --    2.04004   2.07690   2.08989   2.13633   2.16773
 Alpha virt. eigenvalues --    2.24789   2.31657   2.35729   2.43647   2.44916
 Alpha virt. eigenvalues --    2.47478   2.51189   2.52093   2.56324   2.58757
 Alpha virt. eigenvalues --    2.59593   2.61721   2.67444   2.71017   2.76626
 Alpha virt. eigenvalues --    2.81633   2.85427   2.90297   2.96970   3.06281
 Alpha virt. eigenvalues --    3.10367   3.13468   3.17419   3.20016   3.29535
 Alpha virt. eigenvalues --    3.31571   3.42290   3.74200   3.80354   3.81426
 Alpha virt. eigenvalues --    3.86036   3.88145   3.93889   3.98941   4.13390
 Alpha virt. eigenvalues --    4.29165   5.03721   5.05309   5.36038   5.38323
 Alpha virt. eigenvalues --    5.61234   5.64905  23.76962  23.83072  23.95517
 Alpha virt. eigenvalues --   49.89261  49.91410
     Molecular Orbital Coefficients:
                           1         2         3         4         5
                           O         O         O         O         O
     Eigenvalues --   -19.13540 -19.12844 -10.22910 -10.21877 -10.16515
   1 1   O  1S          0.00006   0.55133   0.00000  -0.00002   0.00000
   2        2S          0.00004   0.46974   0.00001  -0.00007   0.00001
   3        2PX        -0.00001   0.00102   0.00003   0.00013   0.00002
   4        2PY        -0.00001  -0.00035   0.00001   0.00005   0.00001
   5        2PZ         0.00002   0.00063   0.00000   0.00003  -0.00000
   6        3S          0.00013   0.01357   0.00003   0.00052  -0.00005
   7        3PX         0.00005   0.00004  -0.00014   0.00002  -0.00010
   8        3PY         0.00006  -0.00015  -0.00000   0.00014  -0.00005
   9        3PZ        -0.00007   0.00007  -0.00001  -0.00009   0.00000
  10        4S         -0.00056  -0.00962  -0.00071  -0.00060   0.00020
  11        4PX        -0.00045  -0.00157  -0.00030   0.00002   0.00032
  12        4PY         0.00008  -0.00072  -0.00022   0.00015   0.00014
  13        4PZ        -0.00006  -0.00010   0.00002  -0.00017   0.00001
  14        5S         -0.00073   0.00630   0.00001   0.00713   0.00106
  15        5PX        -0.00022   0.00053  -0.00028   0.00223   0.00024
  16        5PY        -0.00025  -0.00027  -0.00007  -0.00033   0.00006
  17        5PZ         0.00006   0.00028   0.00009   0.00083  -0.00013
  18        6D 0        0.00003  -0.00000   0.00001   0.00012  -0.00001
  19        6D+1       -0.00002  -0.00000  -0.00002  -0.00006  -0.00001
  20        6D-1        0.00004  -0.00018   0.00001   0.00008  -0.00001
  21        6D+2        0.00000  -0.00017  -0.00002  -0.00003  -0.00000
  22        6D-2        0.00002  -0.00005  -0.00008  -0.00015  -0.00001
  23 2   C  1S         -0.00000   0.00001   0.00635   0.56300   0.00004
  24        2S          0.00001  -0.00006   0.00525   0.46326   0.00007
  25        2PX         0.00005  -0.00014   0.00036  -0.00081   0.00005
  26        2PY        -0.00004  -0.00011  -0.00034  -0.00061  -0.00004
  27        2PZ        -0.00003  -0.00003  -0.00013  -0.00013  -0.00000
  28        3S         -0.00015  -0.00001   0.00022   0.01882  -0.00029
  29        3PX        -0.00030  -0.00017  -0.00079   0.00095  -0.00029
  30        3PY         0.00031   0.00022   0.00104   0.00196   0.00026
  31        3PZ         0.00012   0.00010   0.00030   0.00036   0.00004
  32        4S         -0.00030   0.00496   0.00559  -0.01398   0.00099
  33        4PX        -0.00066  -0.00101   0.00166  -0.00045   0.00135
  34        4PY         0.00006  -0.00169  -0.00137   0.00203   0.00040
  35        4PZ        -0.00023  -0.00003  -0.00045  -0.00030   0.00033
  36        5S          0.01201  -0.01192   0.00017  -0.01470  -0.00047
  37        5PX         0.00224  -0.00042  -0.00013  -0.00313   0.00013
  38        5PY        -0.00219   0.00286  -0.00011   0.00089   0.00040
  39        5PZ         0.00019   0.00060  -0.00042  -0.00010   0.00021
  40        6D 0        0.00007   0.00014   0.00045   0.00087   0.00007
  41        6D+1        0.00000  -0.00002   0.00034   0.00013   0.00006
  42        6D-1       -0.00008   0.00001  -0.00037  -0.00033  -0.00002
  43        6D+2       -0.00005  -0.00010  -0.00029  -0.00070  -0.00004
  44        6D-2        0.00008  -0.00011   0.00067  -0.00026   0.00011
  45 3   H  1S         -0.00004   0.00005  -0.00002  -0.00008   0.00002
  46        2S          0.00030  -0.00005   0.00001   0.00084  -0.00014
  47        3S         -0.00044  -0.00123  -0.00060  -0.00246   0.00041
  48        4PX        -0.00002   0.00018   0.00000   0.00021   0.00000
  49        4PY         0.00012  -0.00065   0.00002   0.00038  -0.00001
  50        4PZ        -0.00006   0.00042  -0.00004  -0.00009  -0.00000
  51 4   C  1S          0.00001   0.00000   0.56303  -0.00638  -0.00104
  52        2S         -0.00003   0.00000   0.46333  -0.00523  -0.00086
  53        2PX        -0.00003  -0.00005   0.00002  -0.00036   0.00043
  54        2PY        -0.00006   0.00001  -0.00064   0.00035   0.00025
  55        2PZ         0.00014   0.00002   0.00080   0.00012   0.00006
  56        3S         -0.00023   0.00007   0.01858  -0.00013   0.00031
  57        3PX         0.00006   0.00028  -0.00015   0.00077  -0.00092
  58        3PY        -0.00043  -0.00010   0.00027  -0.00087  -0.00055
  59        3PZ        -0.00018  -0.00012  -0.00190  -0.00047  -0.00030
  60        4S          0.00435  -0.00169  -0.01986   0.00338   0.00092
  61        4PX        -0.00023   0.00044  -0.00029  -0.00122   0.00162
  62        4PY        -0.00029  -0.00124  -0.00150   0.00057   0.00080
  63        4PZ         0.00158   0.00022  -0.00235   0.00000  -0.00034
  64        5S         -0.02345   0.02046   0.00298   0.00695   0.01758
  65        5PX         0.00099  -0.00045   0.00140  -0.00151   0.00402
  66        5PY        -0.00185   0.00289   0.00144   0.00104   0.00267
  67        5PZ        -0.00396   0.00142   0.00153   0.00082   0.00051
  68        6D 0        0.00001   0.00006   0.00056   0.00041   0.00045
  69        6D+1        0.00005   0.00003   0.00018   0.00025  -0.00004
  70        6D-1        0.00014  -0.00002   0.00097  -0.00005   0.00007
  71        6D+2        0.00005  -0.00011   0.00015  -0.00005  -0.00027
  72        6D-2        0.00001   0.00012   0.00008   0.00076  -0.00050
  73 5   H  1S          0.00007   0.00005  -0.00013   0.00003   0.00005
  74        2S         -0.00035  -0.00115  -0.00066  -0.00254  -0.00063
  75        3S          0.00016  -0.00032   0.00030   0.00434  -0.00059
  76        4PX        -0.00004   0.00017   0.00017   0.00022  -0.00009
  77        4PY         0.00018   0.00026   0.00001   0.00061   0.00001
  78        4PZ         0.00008   0.00023   0.00026   0.00196   0.00013
  79 6   H  1S         -0.00001  -0.00001  -0.00009   0.00008   0.00005
  80        2S         -0.00019  -0.00077  -0.00113  -0.00334  -0.00049
  81        3S          0.00028  -0.00005   0.00039   0.00406  -0.00042
  82        4PX         0.00005   0.00010   0.00006  -0.00009  -0.00014
  83        4PY         0.00005   0.00021   0.00029   0.00158   0.00006
  84        4PZ        -0.00005  -0.00009  -0.00033  -0.00161  -0.00011
  85 7   C  1S          0.00000  -0.00000   0.00101  -0.00006   0.56294
  86        2S          0.00000   0.00000   0.00083  -0.00002   0.46318
  87        2PX        -0.00007  -0.00002  -0.00046  -0.00008  -0.00017
  88        2PY        -0.00005  -0.00001  -0.00025  -0.00003  -0.00007
  89        2PZ         0.00001   0.00000  -0.00007  -0.00000  -0.00005
  90        3S          0.00007  -0.00010   0.00016  -0.00025   0.01944
  91        3PX         0.00036   0.00011   0.00127   0.00049   0.00139
  92        3PY         0.00027   0.00005   0.00067   0.00018   0.00072
  93        3PZ        -0.00001   0.00000   0.00016   0.00001   0.00012
  94        4S         -0.00106   0.00107   0.00580   0.00073  -0.01093
  95        4PX         0.00036  -0.00062  -0.00224  -0.00065   0.00155
  96        4PY         0.00042   0.00023  -0.00109   0.00050   0.00042
  97        4PZ        -0.00057   0.00000   0.00006   0.00045  -0.00031
  98        5S          0.00738  -0.00890  -0.00576   0.00408  -0.02063
  99        5PX        -0.00163   0.00219   0.00170  -0.00159   0.00364
 100        5PY        -0.00123   0.00067   0.00058   0.00040   0.00181
 101        5PZ         0.00087  -0.00014  -0.00060   0.00007   0.00000
 102        6D 0        0.00009   0.00004   0.00046   0.00005   0.00036
 103        6D+1        0.00007   0.00001  -0.00021  -0.00005  -0.00010
 104        6D-1       -0.00004  -0.00001  -0.00018   0.00001  -0.00006
 105        6D+2       -0.00006  -0.00001  -0.00046  -0.00006  -0.00033
 106        6D-2       -0.00012  -0.00001  -0.00073  -0.00020  -0.00056
 107 8   H  1S          0.00001   0.00003  -0.00006   0.00002   0.00020
 108        2S         -0.00029  -0.00037  -0.00106  -0.00027  -0.00310
 109        3S          0.00039   0.00001   0.00058  -0.00076   0.00417
 110        4PX        -0.00004   0.00001  -0.00005   0.00010  -0.00007
 111        4PY         0.00005   0.00002   0.00025   0.00003   0.00151
 112        4PZ        -0.00005  -0.00006  -0.00029  -0.00011  -0.00141
 113 9   H  1S          0.00003   0.00003  -0.00005  -0.00005   0.00023
 114        2S         -0.00004  -0.00014  -0.00104  -0.00002  -0.00335
 115        3S         -0.00023   0.00028   0.00021   0.00057   0.00399
 116        4PX         0.00009   0.00005   0.00028   0.00003   0.00152
 117        4PY        -0.00001  -0.00000  -0.00025  -0.00007  -0.00143
 118        4PZ        -0.00000   0.00001  -0.00010  -0.00004  -0.00037
 119 10  H  1S          0.00004   0.00005  -0.00008   0.00004   0.00018
 120        2S         -0.00005  -0.00041  -0.00094  -0.00048  -0.00287
 121        3S          0.00019   0.00013   0.00074  -0.00077   0.00449
 122        4PX         0.00007   0.00004  -0.00009   0.00008   0.00008
 123        4PY         0.00009  -0.00001   0.00007   0.00001   0.00076
 124        4PZ         0.00006   0.00007   0.00027   0.00010   0.00188
 125 11  O  1S          0.55133  -0.00006  -0.00002   0.00000   0.00000
 126        2S          0.46973  -0.00006  -0.00004   0.00002   0.00001
 127        2PX         0.00068   0.00001   0.00003   0.00001   0.00000
 128        2PY        -0.00006  -0.00001   0.00010   0.00002   0.00004
 129        2PZ        -0.00101  -0.00000  -0.00009  -0.00002  -0.00002
 130        3S          0.01365   0.00008   0.00028  -0.00005  -0.00003
 131        3PX         0.00007  -0.00004  -0.00010  -0.00001  -0.00002
 132        3PY        -0.00011   0.00007   0.00004  -0.00009  -0.00016
 133        3PZ         0.00003  -0.00002  -0.00001   0.00008   0.00008
 134        4S         -0.00979   0.00007   0.00068  -0.00070   0.00005
 135        4PX         0.00016   0.00035   0.00000  -0.00049   0.00013
 136        4PY        -0.00146  -0.00051   0.00108   0.00056   0.00004
 137        4PZ         0.00080   0.00021   0.00004   0.00028  -0.00019
 138        5S          0.00958  -0.00251   0.00563  -0.00134   0.00249
 139        5PX         0.00035  -0.00003   0.00034  -0.00078   0.00105
 140        5PY         0.00060  -0.00072   0.00078   0.00057  -0.00056
 141        5PZ        -0.00075   0.00019  -0.00179   0.00052  -0.00077
 142        6D 0       -0.00013  -0.00001  -0.00005  -0.00003  -0.00003
 143        6D+1       -0.00007  -0.00001   0.00005   0.00004  -0.00002
 144        6D-1        0.00013   0.00004   0.00015   0.00000   0.00004
 145        6D+2       -0.00003  -0.00001   0.00009   0.00003   0.00004
 146        6D-2       -0.00021   0.00000   0.00007   0.00000  -0.00001
 147 12  H  1S          0.00004   0.00003  -0.00006  -0.00010  -0.00010
 148        2S         -0.00101  -0.00003  -0.00264  -0.00081  -0.00047
 149        3S          0.00062  -0.00108   0.00316   0.00015  -0.00052
 150        4PX         0.00002   0.00011  -0.00024  -0.00010  -0.00002
 151        4PY         0.00003  -0.00002  -0.00089  -0.00007  -0.00010
 152        4PZ        -0.00037  -0.00013  -0.00204  -0.00029  -0.00029
 153 13  H  1S          0.00006  -0.00000  -0.00008  -0.00005   0.00003
 154        2S         -0.00041  -0.00024   0.00072   0.00089  -0.00033
 155        3S         -0.00143  -0.00036  -0.00142   0.00124  -0.00215
 156        4PX         0.00054   0.00003  -0.00015  -0.00012   0.00002
 157        4PY        -0.00059  -0.00005   0.00028   0.00018  -0.00013
 158        4PZ        -0.00032  -0.00007  -0.00004   0.00007   0.00003
                           6         7         8         9        10
                           O         O         O         O         O
     Eigenvalues --    -1.04401  -1.01913  -0.77867  -0.68711  -0.60871
   1 1   O  1S         -0.06771  -0.08871   0.02219  -0.02646  -0.00305
   2        2S         -0.10826  -0.14197   0.03577  -0.04272  -0.00484
   3        2PX         0.02718   0.03064   0.01552  -0.04153  -0.02625
   4        2PY        -0.00808  -0.01019   0.02148  -0.05710  -0.08537
   5        2PZ         0.01449   0.01878  -0.01032   0.01832   0.01880
   6        3S          0.31231   0.41137  -0.10710   0.12819   0.01321
   7        3PX         0.04344   0.04955   0.02240  -0.06117  -0.03917
   8        3PY        -0.01147  -0.01456   0.03185  -0.08411  -0.12454
   9        3PZ         0.02280   0.02920  -0.01553   0.02700   0.02688
  10        4S          0.22800   0.30396  -0.08481   0.11285   0.00947
  11        4PX         0.02296   0.02432   0.01459  -0.03514  -0.02091
  12        4PY        -0.00165  -0.00138   0.01272  -0.04330  -0.07798
  13        4PZ         0.00791   0.01031  -0.00552   0.01278   0.01407
  14        5S         -0.02759  -0.03667  -0.00736   0.04360   0.00193
  15        5PX        -0.00611  -0.00882  -0.00086   0.00940  -0.00558
  16        5PY         0.00256  -0.00067   0.00346  -0.00567   0.00417
  17        5PZ        -0.00241  -0.00174  -0.00133   0.00614  -0.00083
  18        6D 0       -0.00337  -0.00362  -0.00106   0.00252   0.00130
  19        6D+1        0.00226   0.00253  -0.00035  -0.00020  -0.00003
  20        6D-1       -0.00374  -0.00471   0.00219  -0.00451  -0.00492
  21        6D+2        0.00074  -0.00006   0.00346  -0.00625  -0.00276
  22        6D-2        0.00207   0.00288   0.00145  -0.00461  -0.00772
  23 2   C  1S         -0.03131  -0.02746  -0.04924   0.07210   0.04164
  24        2S         -0.04821  -0.04225  -0.07640   0.11257   0.06538
  25        2PX        -0.01740  -0.03443   0.03855  -0.01272   0.04788
  26        2PY        -0.02026  -0.01509  -0.00342  -0.00822  -0.05985
  27        2PZ        -0.00047  -0.00219  -0.00719   0.00347  -0.00355
  28        3S          0.12432   0.11003   0.20425  -0.30722  -0.18041
  29        3PX        -0.02641  -0.05912   0.05629  -0.01255   0.07990
  30        3PY        -0.04037  -0.02724  -0.01094  -0.00368  -0.08358
  31        3PZ        -0.00246  -0.00343  -0.01283   0.00755  -0.00574
  32        4S          0.03756   0.01016   0.10801  -0.19228  -0.12373
  33        4PX         0.00259  -0.00922   0.01711  -0.00359   0.02277
  34        4PY        -0.00485   0.00499   0.00123  -0.00346  -0.04446
  35        4PZ         0.00436   0.00176  -0.00446  -0.00412  -0.00148
  36        5S          0.01703   0.15192   0.04084  -0.05343  -0.03944
  37        5PX        -0.00382   0.01887   0.01180  -0.01415   0.00161
  38        5PY        -0.00357  -0.03119  -0.00119   0.00180   0.00403
  39        5PZ        -0.00278  -0.00212   0.00349  -0.00301   0.00811
  40        6D 0       -0.01036  -0.00863  -0.00208  -0.00039  -0.00368
  41        6D+1        0.00023   0.00092  -0.00247  -0.00108  -0.00592
  42        6D-1        0.00111  -0.00021   0.00157  -0.00034   0.00399
  43        6D+2        0.00539   0.00664   0.00260   0.00108  -0.00661
  44        6D-2        0.00784   0.01724  -0.00816   0.00273  -0.01143
  45 3   H  1S          0.05632   0.07159  -0.03213   0.05830   0.06174
  46        2S          0.04474   0.05683  -0.03473   0.06374   0.07185
  47        3S          0.00741   0.00203   0.00243  -0.01080   0.01925
  48        4PX         0.00131  -0.00048   0.00196  -0.00516  -0.00175
  49        4PY         0.01240   0.01692  -0.00597   0.00911   0.00737
  50        4PZ        -0.00705  -0.00937   0.00395  -0.00711  -0.00730
  51 4   C  1S         -0.03611   0.01978  -0.07120   0.00915  -0.06035
  52        2S         -0.05573   0.03052  -0.11063   0.01437  -0.09490
  53        2PX        -0.00704  -0.00668   0.00695   0.07234  -0.02300
  54        2PY        -0.02243   0.02396   0.04062  -0.00601  -0.04143
  55        2PZ         0.02177  -0.01752  -0.00688  -0.00801  -0.00606
  56        3S          0.14472  -0.08104   0.29653  -0.04061   0.26546
  57        3PX        -0.01272  -0.01382   0.01132   0.11319  -0.03291
  58        3PY        -0.03440   0.04044   0.06115  -0.00879  -0.06845
  59        3PZ         0.04069  -0.03013  -0.00225  -0.01438   0.00139
  60        4S          0.04443  -0.00106   0.18906  -0.01992   0.18250
  61        4PX        -0.00407  -0.01159   0.01174   0.04702  -0.02238
  62        4PY        -0.00448   0.01328   0.02401  -0.00617  -0.03432
  63        4PZ        -0.00189  -0.00089   0.00218  -0.00334  -0.00899
  64        5S          0.02303  -0.25444  -0.10770  -0.07660  -0.02516
  65        5PX        -0.00053   0.00624  -0.01359  -0.02902  -0.03165
  66        5PY        -0.01000  -0.02735  -0.01683  -0.00871  -0.01032
  67        5PZ         0.01121  -0.02614  -0.01744   0.00192  -0.01357
  68        6D 0       -0.00036  -0.00261  -0.00560  -0.00161   0.00905
  69        6D+1       -0.00218  -0.00049  -0.00141   0.00549  -0.00360
  70        6D-1       -0.01484   0.01326   0.00418  -0.00007  -0.00719
  71        6D+2       -0.00691   0.00948   0.00559   0.00426  -0.00472
  72        6D-2       -0.00211  -0.00287   0.00084   0.01376   0.00421
  73 5   H  1S          0.01234   0.00984   0.03343  -0.05711  -0.05024
  74        2S          0.01875   0.01714   0.03896  -0.06855  -0.06285
  75        3S         -0.00625  -0.00450  -0.00552   0.00574  -0.00247
  76        4PX        -0.00099  -0.00166   0.00093   0.00039   0.00281
  77        4PY        -0.00324  -0.00195  -0.00281   0.00393   0.00013
  78        4PZ        -0.00498  -0.00436  -0.00695   0.01089   0.00845
  79 6   H  1S          0.01092   0.01105   0.03653  -0.06173  -0.06420
  80        2S          0.01926   0.01786   0.04114  -0.07653  -0.07997
  81        3S         -0.00500  -0.00195  -0.00656   0.00210  -0.00185
  82        4PX        -0.00053  -0.00092   0.00209  -0.00145   0.00081
  83        4PY        -0.00462  -0.00384  -0.00576   0.00864   0.00556
  84        4PZ         0.00340   0.00272   0.00482  -0.00811  -0.00819
  85 7   C  1S         -0.00708   0.00483  -0.06661  -0.07524   0.03554
  86        2S         -0.01087   0.00744  -0.10287  -0.11669   0.05527
  87        2PX        -0.00504   0.00305  -0.02426   0.01428  -0.03403
  88        2PY        -0.00422   0.00370  -0.00743  -0.00218  -0.02591
  89        2PZ         0.00112  -0.00106  -0.00276  -0.00171  -0.00535
  90        3S          0.02702  -0.01827   0.26814   0.30782  -0.14597
  91        3PX        -0.01365   0.00766  -0.04275   0.01750  -0.05082
  92        3PY        -0.00940   0.00736  -0.01411  -0.00455  -0.03879
  93        3PZ         0.00162  -0.00142  -0.00507  -0.00334  -0.00769
  94        4S          0.01534  -0.01321   0.13170   0.19404  -0.10000
  95        4PX        -0.00192   0.00400  -0.00239   0.01114  -0.02423
  96        4PY        -0.00539   0.00159   0.00257   0.00227  -0.01930
  97        4PZ         0.00345  -0.00301  -0.00393   0.00071  -0.00723
  98        5S         -0.00213   0.08946   0.07867   0.13117   0.04501
  99        5PX         0.00040  -0.02089  -0.01298  -0.02877  -0.00994
 100        5PY         0.00346  -0.01116  -0.00938  -0.01224  -0.00711
 101        5PZ        -0.00284   0.00284   0.00333   0.00039   0.00089
 102        6D 0       -0.00253   0.00133  -0.00416   0.00115  -0.00459
 103        6D+1       -0.00056   0.00040   0.00133   0.00043   0.00113
 104        6D-1        0.00033  -0.00021   0.00067   0.00017   0.00129
 105        6D+2        0.00183  -0.00062   0.00537  -0.00297   0.00355
 106        6D-2        0.00355  -0.00241   0.00429  -0.00071   0.00759
 107 8   H  1S          0.00213  -0.00124   0.04560   0.05972  -0.04288
 108        2S          0.00566  -0.00211   0.05350   0.07232  -0.05376
 109        3S         -0.00124   0.00195  -0.00787  -0.00530  -0.00677
 110        4PX        -0.00022   0.00005  -0.00168   0.00021  -0.00103
 111        4PY        -0.00123   0.00080  -0.00761  -0.00854   0.00384
 112        4PZ         0.00111  -0.00047   0.00656   0.00744  -0.00505
 113 9   H  1S          0.00322  -0.00271   0.04035   0.06736  -0.03756
 114        2S          0.00432  -0.00290   0.04944   0.08109  -0.04822
 115        3S         -0.00129  -0.00067  -0.00701  -0.00372  -0.00519
 116        4PX        -0.00163   0.00091  -0.00788  -0.00938   0.00335
 117        4PY         0.00044  -0.00030   0.00502   0.00780  -0.00492
 118        4PZ         0.00043  -0.00040   0.00140   0.00219  -0.00135
 119 10  H  1S          0.00327  -0.00236   0.04334   0.05883  -0.04428
 120        2S          0.00473  -0.00144   0.05307   0.07064  -0.05298
 121        3S         -0.00265   0.00250  -0.00648  -0.00835  -0.00215
 122        4PX        -0.00051   0.00020  -0.00230  -0.00055  -0.00057
 123        4PY        -0.00089   0.00077  -0.00412  -0.00458   0.00134
 124        4PZ        -0.00121   0.00055  -0.00877  -0.01028   0.00650
 125 11  O  1S         -0.08472   0.07270   0.03146   0.00077   0.01461
 126        2S         -0.13548   0.11635   0.05068   0.00128   0.02356
 127        2PX         0.01722  -0.01972  -0.01380   0.02126  -0.04475
 128        2PY         0.00271   0.00306   0.04764  -0.01745   0.10385
 129        2PZ        -0.02987   0.02417  -0.00852   0.00270  -0.04403
 130        3S          0.39070  -0.33701  -0.15083  -0.00439  -0.07030
 131        3PX         0.02700  -0.03086  -0.02045   0.03069  -0.06494
 132        3PY         0.00578   0.00296   0.07063  -0.02579   0.15199
 133        3PZ        -0.04818   0.03889  -0.01195   0.00432  -0.06530
 134        4S          0.28927  -0.25229  -0.12982  -0.00267  -0.06419
 135        4PX         0.00616  -0.01112  -0.00726   0.02215  -0.03976
 136        4PY         0.01130  -0.00392   0.03111  -0.01607   0.08749
 137        4PZ        -0.02266   0.01760  -0.00828   0.00109  -0.04344
 138        5S         -0.03835   0.05014  -0.00869  -0.00504  -0.02674
 139        5PX        -0.00002   0.00256  -0.00113  -0.00988  -0.00246
 140        5PY        -0.00682   0.00884  -0.00070   0.00618   0.00476
 141        5PZ         0.00655  -0.00686   0.00383   0.00154   0.00709
 142        6D 0       -0.00042   0.00030   0.00170  -0.00086   0.00617
 143        6D+1       -0.00333   0.00346   0.00096  -0.00250   0.00213
 144        6D-1       -0.00346   0.00195  -0.00501   0.00181  -0.00972
 145        6D+2       -0.00325   0.00274  -0.00119   0.00161  -0.00174
 146        6D-2       -0.00434   0.00337   0.00421   0.00095   0.00566
 147 12  H  1S          0.01498  -0.00726   0.04562  -0.00604   0.06748
 148        2S          0.02120  -0.01427   0.05190  -0.00836   0.08204
 149        3S         -0.00646   0.01237  -0.00387   0.00252   0.00499
 150        4PX         0.00001  -0.00092   0.00136   0.00298   0.00050
 151        4PY         0.00188  -0.00077   0.00581  -0.00092   0.00377
 152        4PZ         0.00677  -0.00348   0.00903  -0.00177   0.01072
 153 13  H  1S          0.06723  -0.06198  -0.05214   0.01671  -0.08175
 154        2S          0.05512  -0.05078  -0.05365   0.01290  -0.09756
 155        3S          0.00104  -0.00058   0.00095   0.01561  -0.00821
 156        4PX        -0.00966   0.00874   0.00749  -0.00011   0.00902
 157        4PY         0.01452  -0.01289  -0.00753   0.00208  -0.00844
 158        4PZ         0.00328  -0.00279  -0.00448   0.00071  -0.00932
                          11        12        13        14        15
                           O         O         O         O         O
     Eigenvalues --    -0.54028  -0.50222  -0.45933  -0.44000  -0.41654
   1 1   O  1S          0.01052  -0.01215  -0.01284   0.02284  -0.00313
   2        2S          0.01711  -0.01990  -0.02090   0.03717  -0.00500
   3        2PX        -0.00630   0.05559  -0.08123   0.08716  -0.11037
   4        2PY        -0.04655   0.15055   0.02744   0.00099  -0.03265
   5        2PZ         0.05471  -0.06647   0.03292   0.10661   0.00164
   6        3S         -0.05202   0.06289   0.06388  -0.11270   0.01238
   7        3PX        -0.01002   0.08281  -0.11776   0.12567  -0.16119
   8        3PY        -0.06696   0.21765   0.03999   0.00309  -0.04624
   9        3PZ         0.07932  -0.09524   0.04873   0.15535   0.00178
  10        4S         -0.06677   0.07740   0.07309  -0.14254   0.01856
  11        4PX        -0.00714   0.05334  -0.09295   0.09722  -0.12470
  12        4PY        -0.04108   0.14417   0.03538   0.00147  -0.02693
  13        4PZ         0.05516  -0.06315   0.04371   0.12409  -0.00130
  14        5S         -0.01858  -0.00443   0.07070  -0.04978   0.02311
  15        5PX         0.00255   0.00019   0.00997   0.00765  -0.01271
  16        5PY         0.00328   0.00943  -0.01794   0.01240  -0.01814
  17        5PZ        -0.00673  -0.00778   0.01247   0.00236   0.00880
  18        6D 0        0.00212  -0.00357   0.00447   0.00089   0.00296
  19        6D+1        0.00533  -0.00181   0.00139   0.01113  -0.00392
  20        6D-1       -0.00182   0.00820   0.00129   0.00137  -0.00283
  21        6D+2       -0.00169   0.00815  -0.00694   0.00476  -0.01065
  22        6D-2       -0.00338   0.00895   0.00375  -0.00060   0.00083
  23 2   C  1S         -0.00925   0.01400   0.00267  -0.01348  -0.00172
  24        2S         -0.01430   0.02140   0.00430  -0.02154  -0.00226
  25        2PX         0.03265  -0.10705  -0.00878  -0.04389   0.00614
  26        2PY        -0.00071  -0.03719   0.08560  -0.03200   0.13597
  27        2PZ         0.08353  -0.01822   0.06428   0.12081  -0.02824
  28        3S          0.03665  -0.05521  -0.01470   0.06021   0.00052
  29        3PX         0.04757  -0.16346  -0.00867  -0.06900   0.01489
  30        3PY         0.00102  -0.05683   0.12782  -0.05331   0.20293
  31        3PZ         0.12296  -0.02928   0.09617   0.17818  -0.04034
  32        4S          0.03604  -0.05339   0.01974   0.09497   0.03352
  33        4PX         0.02088  -0.07872  -0.00503  -0.01113   0.00057
  34        4PY        -0.01406  -0.02724   0.07595  -0.04812   0.12876
  35        4PZ         0.08186  -0.02617   0.03572   0.13824  -0.03101
  36        5S          0.01870  -0.05842   0.01803   0.03597   0.01878
  37        5PX         0.00198  -0.01749  -0.01591   0.02022  -0.00515
  38        5PY        -0.01334   0.00973   0.00102  -0.00401   0.00477
  39        5PZ         0.01483  -0.00148  -0.00718   0.02376  -0.00554
  40        6D 0        0.00413  -0.01268   0.00929   0.00376   0.01617
  41        6D+1        0.00049   0.01063   0.00135  -0.00884   0.00017
  42        6D-1       -0.00224   0.00085  -0.00213   0.00874  -0.01104
  43        6D+2       -0.00447   0.01365   0.00813  -0.00408  -0.01431
  44        6D-2       -0.00229   0.01106  -0.00361   0.01124  -0.01182
  45 3   H  1S          0.04446  -0.11139  -0.00349   0.02736   0.02722
  46        2S          0.06096  -0.14787  -0.01163   0.03650   0.04849
  47        3S          0.02814  -0.03406  -0.04086   0.02616  -0.00087
  48        4PX         0.00159   0.00644  -0.01094   0.00974  -0.01090
  49        4PY         0.00792  -0.01404   0.00219   0.00925   0.00007
  50        4PZ        -0.00087   0.00990   0.00309   0.00514  -0.00262
  51 4   C  1S          0.02480   0.00259  -0.01743   0.00447   0.01522
  52        2S          0.03876   0.00347  -0.02773   0.00699   0.02385
  53        2PX        -0.01828   0.01871   0.12039  -0.01273  -0.00406
  54        2PY         0.01689  -0.08358  -0.00967  -0.06451  -0.07956
  55        2PZ         0.12354   0.04346   0.03075  -0.04940  -0.01673
  56        3S         -0.10498  -0.00661   0.08038  -0.02048  -0.06858
  57        3PX        -0.02711   0.02515   0.17619  -0.01943  -0.00748
  58        3PY         0.02421  -0.12795  -0.01870  -0.09506  -0.12033
  59        3PZ         0.18481   0.07036   0.04974  -0.07255  -0.02380
  60        4S         -0.11041  -0.00669   0.08190  -0.03198  -0.07383
  61        4PX        -0.01962   0.01682   0.15159   0.00438  -0.00041
  62        4PY         0.03043  -0.06782  -0.01163  -0.08719  -0.06415
  63        4PZ         0.11040   0.03929   0.03994  -0.07601  -0.03666
  64        5S          0.01802   0.06061   0.02947  -0.03607  -0.00784
  65        5PX         0.01591  -0.00415   0.04437  -0.00772  -0.00131
  66        5PY         0.02215   0.01354   0.00799  -0.01281  -0.00284
  67        5PZ         0.00853   0.00190   0.00586  -0.02290  -0.00291
  68        6D 0        0.00336   0.00756   0.00082   0.00125   0.00734
  69        6D+1       -0.00909   0.00053   0.00978  -0.00855  -0.00714
  70        6D-1       -0.01154  -0.01895  -0.00165   0.00929  -0.01583
  71        6D+2        0.00037   0.00112  -0.00307   0.00254  -0.01185
  72        6D-2        0.00315   0.00508  -0.00296  -0.00147   0.00366
  73 5   H  1S          0.06541  -0.04645   0.06758   0.08740   0.02555
  74        2S          0.07580  -0.05224   0.09144   0.10703   0.03378
  75        3S          0.00362  -0.00629   0.03139   0.02754   0.01203
  76        4PX         0.00186  -0.00418  -0.00139  -0.00362  -0.00112
  77        4PY        -0.00423  -0.00009   0.00055  -0.00511   0.00547
  78        4PZ        -0.00485   0.00399  -0.00604  -0.00559  -0.00381
  79 6   H  1S         -0.02964  -0.02593   0.01291  -0.06940   0.10812
  80        2S         -0.03233  -0.03490   0.00896  -0.08446   0.14541
  81        3S          0.00332  -0.01030  -0.00665  -0.01942   0.05928
  82        4PX         0.00028  -0.00522  -0.00101  -0.00335   0.00092
  83        4PY         0.00452   0.00115   0.00364   0.00494  -0.00259
  84        4PZ         0.00066  -0.00249   0.00525   0.00052   0.00749
  85 7   C  1S         -0.01046  -0.00723   0.01067  -0.00197   0.00113
  86        2S         -0.01637  -0.01141   0.01669  -0.00308   0.00183
  87        2PX         0.01621   0.04073  -0.06726   0.07328   0.07350
  88        2PY         0.02455  -0.02743  -0.09390  -0.03909  -0.00588
  89        2PZ         0.04581   0.01696   0.03181  -0.04613  -0.08771
  90        3S          0.04306   0.03164  -0.04104   0.00787  -0.00728
  91        3PX         0.02413   0.05606  -0.09819   0.10416   0.10675
  92        3PY         0.03477  -0.04116  -0.13470  -0.05650  -0.01126
  93        3PZ         0.06707   0.02466   0.04347  -0.06612  -0.12460
  94        4S          0.04485   0.02953  -0.09708   0.01620   0.00005
  95        4PX         0.01234   0.03207  -0.04405   0.06130   0.06401
  96        4PY         0.01242  -0.02549  -0.06816  -0.03683  -0.00492
  97        4PZ         0.02996   0.01249   0.03717  -0.03920  -0.08690
  98        5S         -0.02759  -0.00803  -0.04701  -0.00310   0.00155
  99        5PX         0.00542   0.00320   0.00110   0.00985   0.00405
 100        5PY         0.00284  -0.00214   0.00239  -0.00607   0.00111
 101        5PZ        -0.00084   0.00347   0.00960  -0.00268  -0.00793
 102        6D 0        0.00358  -0.00028  -0.00836  -0.00328  -0.00439
 103        6D+1       -0.00696  -0.00295  -0.00026  -0.00074  -0.00201
 104        6D-1       -0.00094   0.00180   0.00587   0.00114  -0.00601
 105        6D+2       -0.00008  -0.00353   0.00557  -0.00379  -0.00624
 106        6D-2       -0.00317   0.00003   0.00945  -0.00648  -0.00710
 107 8   H  1S          0.00121  -0.01559  -0.08621   0.00526   0.05123
 108        2S          0.00141  -0.01804  -0.11251   0.00784   0.07396
 109        3S         -0.00293  -0.00434  -0.03283   0.00586   0.02774
 110        4PX         0.00114   0.00277  -0.00255   0.00473   0.00277
 111        4PY         0.00166   0.00014   0.00445  -0.00366  -0.00639
 112        4PZ         0.00284  -0.00046  -0.00733  -0.00194   0.00003
 113 9   H  1S          0.00192   0.04013  -0.00977   0.07538   0.06214
 114        2S         -0.00196   0.05096  -0.00817   0.10465   0.08604
 115        3S         -0.00134   0.01192  -0.00078   0.03711   0.03324
 116        4PX         0.00191  -0.00338  -0.00395  -0.00548  -0.00253
 117        4PY         0.00143   0.00307  -0.00656   0.00507   0.00600
 118        4PZ         0.00258   0.00235   0.00192  -0.00091  -0.00389
 119 10  H  1S          0.04894   0.01311  -0.02365  -0.03686  -0.06343
 120        2S          0.06307   0.01891  -0.02986  -0.04751  -0.08534
 121        3S          0.01102   0.00495  -0.01680  -0.01119  -0.03052
 122        4PX        -0.00099   0.00206  -0.00424   0.00448   0.00551
 123        4PY        -0.00225  -0.00297  -0.00446   0.00040   0.00339
 124        4PZ        -0.00511  -0.00148   0.00513   0.00283   0.00362
 125 11  O  1S         -0.01626  -0.00318   0.01732   0.01350  -0.01435
 126        2S         -0.02645  -0.00528   0.02814   0.02205  -0.02343
 127        2PX        -0.05716  -0.02320   0.11028  -0.00481  -0.07616
 128        2PY         0.10836   0.11943   0.03051  -0.04381   0.07071
 129        2PZ         0.03848  -0.03544  -0.03461  -0.05815  -0.02653
 130        3S          0.08026   0.01808  -0.08469  -0.06896   0.07246
 131        3PX        -0.08130  -0.03213   0.15998  -0.00839  -0.10881
 132        3PY         0.15707   0.17295   0.04561  -0.06416   0.10100
 133        3PZ         0.05499  -0.05331  -0.04930  -0.08396  -0.04047
 134        4S          0.10262   0.02290  -0.10985  -0.08117   0.10544
 135        4PX        -0.05812  -0.01641   0.13248  -0.01149  -0.09001
 136        4PY         0.10636   0.11707   0.03097  -0.04465   0.07877
 137        4PZ         0.04235  -0.03628  -0.03555  -0.06953  -0.03590
 138        5S          0.00893  -0.03371  -0.07547  -0.01885   0.03710
 139        5PX         0.00725  -0.01171  -0.01110  -0.00171  -0.01258
 140        5PY        -0.01752   0.01350   0.01278   0.00026   0.01958
 141        5PZ        -0.00251   0.00846   0.00695  -0.00261  -0.00383
 142        6D 0       -0.00352   0.00475  -0.00061   0.00475   0.00631
 143        6D+1        0.00472   0.00004  -0.00921  -0.00161   0.00272
 144        6D-1       -0.00627  -0.00882  -0.00161   0.00196  -0.00467
 145        6D+2       -0.00334  -0.00101   0.00221   0.00141  -0.00056
 146        6D-2        0.00462   0.00708   0.00459  -0.00330   0.00418
 147 12  H  1S         -0.10675  -0.01119  -0.01128   0.05209   0.02053
 148        2S         -0.12129  -0.00954  -0.00874   0.06036   0.02659
 149        3S         -0.01379  -0.00112   0.00526   0.01086   0.00005
 150        4PX        -0.00246   0.00068   0.00546   0.00063   0.00071
 151        4PY        -0.00549  -0.00319  -0.00103  -0.00064  -0.00197
 152        4PZ        -0.00805   0.00181   0.00037   0.00352   0.00224
 153 13  H  1S         -0.08148  -0.07340   0.02377   0.02752  -0.06461
 154        2S         -0.10174  -0.09841   0.02815   0.03984  -0.09165
 155        3S         -0.04400  -0.00558   0.04541   0.02174  -0.03044
 156        4PX         0.00833   0.00930   0.00622  -0.00402   0.00281
 157        4PY        -0.01020  -0.00458   0.00967   0.00274  -0.00631
 158        4PZ         0.00024  -0.00783  -0.00316  -0.00494  -0.00700
                          16        17        18        19        20
                           O         O         O         O         O
     Eigenvalues --    -0.40260  -0.38863  -0.35590  -0.33935  -0.29474
   1 1   O  1S          0.01027   0.00637   0.01185   0.02246   0.00000
   2        2S          0.01681   0.01031   0.01932   0.03659  -0.00004
   3        2PX         0.01690   0.05529   0.09743   0.11797  -0.00962
   4        2PY        -0.08780  -0.03082  -0.07350  -0.02445  -0.02145
   5        2PZ        -0.02549  -0.01152   0.00223   0.12981  -0.00054
   6        3S         -0.05288  -0.02937  -0.05771  -0.10900   0.00120
   7        3PX         0.02379   0.08030   0.14104   0.16944  -0.01327
   8        3PY        -0.12653  -0.04423  -0.10529  -0.03231  -0.03060
   9        3PZ        -0.03880  -0.01772   0.00151   0.18631  -0.00099
  10        4S         -0.06385  -0.05580  -0.08197  -0.17416  -0.01220
  11        4PX         0.02548   0.06218   0.12261   0.14415  -0.02060
  12        4PY        -0.10026  -0.03781  -0.08826  -0.01704  -0.03097
  13        4PZ        -0.03617  -0.01915  -0.00364   0.15737   0.00082
  14        5S         -0.01270  -0.03526  -0.02087  -0.06931  -0.00277
  15        5PX         0.00032   0.00926   0.02245   0.03286   0.00501
  16        5PY        -0.01236   0.00253  -0.01382  -0.00811  -0.00993
  17        5PZ        -0.00201  -0.00500   0.00355   0.03608  -0.00219
  18        6D 0       -0.00248  -0.00228  -0.00370   0.00018   0.00049
  19        6D+1       -0.00313  -0.00024   0.00100   0.00664  -0.00023
  20        6D-1       -0.00454  -0.00193  -0.00403  -0.00524   0.00027
  21        6D+2       -0.00135   0.00311   0.00291  -0.00026  -0.00021
  22        6D-2       -0.00438  -0.00217  -0.00370   0.00000  -0.00030
  23 2   C  1S         -0.01419  -0.00721  -0.01110   0.00626  -0.00203
  24        2S         -0.02234  -0.01145  -0.01787   0.00986  -0.00310
  25        2PX         0.02988   0.01077  -0.00740  -0.10663   0.00834
  26        2PY         0.01903  -0.03459  -0.01090   0.06625  -0.00616
  27        2PZ        -0.06606  -0.04080  -0.05170  -0.06171   0.01493
  28        3S          0.06357   0.03305   0.05436  -0.03122   0.00550
  29        3PX         0.04632   0.01307  -0.01056  -0.16174   0.01158
  30        3PY         0.02415  -0.04969  -0.02696   0.09075  -0.01007
  31        3PZ        -0.09619  -0.05969  -0.07110  -0.08565   0.02015
  32        4S          0.07503   0.03523   0.06744  -0.03094   0.03297
  33        4PX         0.03770   0.00612   0.01962  -0.09242   0.00231
  34        4PY         0.02599  -0.05366  -0.00989   0.05026  -0.02671
  35        4PZ        -0.08218  -0.03310  -0.05812  -0.03721   0.00352
  36        5S         -0.02663   0.05452   0.07742   0.01761   0.01970
  37        5PX         0.00328   0.01866   0.02805  -0.00018  -0.00822
  38        5PY         0.01390  -0.01295  -0.00295   0.00213  -0.00959
  39        5PZ        -0.00983  -0.00260  -0.00825   0.00563  -0.00122
  40        6D 0        0.00283  -0.00442  -0.00904  -0.00397   0.00671
  41        6D+1        0.00298   0.00025   0.00441  -0.01020  -0.00193
  42        6D-1       -0.00425  -0.00442  -0.00864  -0.01751   0.00715
  43        6D+2       -0.01710   0.00033  -0.00831  -0.00632  -0.00663
  44        6D-2       -0.00394   0.00516   0.00821   0.01897  -0.00287
  45 3   H  1S          0.04207   0.01462   0.04064   0.06773   0.00315
  46        2S          0.06020   0.02463   0.05702   0.11584  -0.01005
  47        3S          0.02372   0.02724   0.01751   0.04500   0.00443
  48        4PX         0.00020   0.00587   0.00626   0.00992  -0.00454
  49        4PY         0.00171   0.00214   0.00688   0.01530   0.00300
  50        4PZ        -0.00938  -0.00285  -0.00863   0.00243  -0.00169
  51 4   C  1S          0.00742   0.00047   0.00651   0.00631   0.00311
  52        2S          0.01174   0.00107   0.00982   0.01002   0.00508
  53        2PX        -0.05468   0.03275   0.01304   0.09062  -0.06086
  54        2PY        -0.03668   0.08171  -0.01102  -0.04048  -0.04957
  55        2PZ         0.00945   0.01061   0.09981  -0.05049  -0.05736
  56        3S         -0.03585  -0.00186  -0.02318  -0.02891  -0.01682
  57        3PX        -0.07893   0.05064   0.02114   0.13483  -0.08868
  58        3PY        -0.05503   0.12622  -0.02103  -0.05594  -0.07254
  59        3PZ         0.01400   0.01224   0.14868  -0.07444  -0.07834
  60        4S         -0.02872  -0.01890  -0.06390  -0.05987  -0.03453
  61        4PX        -0.05460   0.02635   0.02746   0.08483  -0.04413
  62        4PY        -0.06964   0.08863  -0.02598  -0.02873  -0.03911
  63        4PZ         0.00977   0.02190   0.06965  -0.09059  -0.06151
  64        5S         -0.03223  -0.06085  -0.16443  -0.04816   0.02629
  65        5PX        -0.02964   0.00284   0.00216   0.00828   0.02453
  66        5PY        -0.01728   0.00499  -0.03131  -0.00180   0.01740
  67        5PZ        -0.00166   0.00050  -0.01934  -0.02759  -0.01279
  68        6D 0       -0.00459  -0.00171  -0.01359   0.00839   0.02847
  69        6D+1        0.01155  -0.00307   0.00126   0.01095   0.01086
  70        6D-1        0.00293   0.00108  -0.02544  -0.00223   0.00246
  71        6D+2       -0.00050   0.02577  -0.00999   0.00037   0.00010
  72        6D-2       -0.01356  -0.00752  -0.00994   0.01371  -0.02097
  73 5   H  1S         -0.02375  -0.03658  -0.03950  -0.04699   0.02205
  74        2S         -0.02860  -0.05367  -0.05910  -0.07224   0.04161
  75        3S         -0.00180  -0.02876  -0.03818  -0.04853   0.03661
  76        4PX         0.00183   0.00045  -0.00130  -0.00485   0.00146
  77        4PY         0.00230  -0.00040   0.00165   0.00693  -0.00180
  78        4PZ        -0.00001   0.00242   0.00043   0.00150  -0.00029
  79 6   H  1S          0.06498   0.00772   0.04048   0.08426  -0.01101
  80        2S          0.08369   0.01428   0.06399   0.14117  -0.01854
  81        3S          0.02788   0.00817   0.02909   0.08736  -0.01741
  82        4PX         0.00098   0.00039   0.00096  -0.00480   0.00108
  83        4PY        -0.00583  -0.00266  -0.00576  -0.00553   0.00108
  84        4PZ         0.00220  -0.00165   0.00132   0.00504  -0.00024
  85 7   C  1S          0.00110  -0.00163   0.00022  -0.00427   0.01610
  86        2S          0.00179  -0.00255   0.00030  -0.00681   0.02579
  87        2PX         0.09869   0.01261  -0.01159  -0.06577   0.07328
  88        2PY        -0.06060  -0.14324   0.03025   0.01439   0.06479
  89        2PZ         0.12834  -0.06416  -0.08130   0.04631   0.00199
  90        3S         -0.00749   0.00795  -0.00035   0.01987  -0.08012
  91        3PX         0.14305   0.01863  -0.01870  -0.09461   0.10944
  92        3PY        -0.08558  -0.20309   0.04402   0.01793   0.09693
  93        3PZ         0.18440  -0.09284  -0.11500   0.06558  -0.00131
  94        4S          0.01774   0.00584   0.00241   0.03114  -0.08659
  95        4PX         0.08688   0.02497  -0.01797  -0.07380   0.09121
  96        4PY        -0.06620  -0.16498   0.03116   0.00951   0.05499
  97        4PZ         0.13247  -0.06661  -0.07306   0.06445   0.01431
  98        5S          0.06503   0.00058   0.05082   0.01438  -0.01511
  99        5PX        -0.00843   0.00598  -0.01188  -0.00894   0.00866
 100        5PY        -0.01451  -0.01943  -0.00521  -0.00143   0.00534
 101        5PZ         0.01157  -0.00385   0.00186   0.01325   0.01206
 102        6D 0        0.00285  -0.01570  -0.00495   0.00592   0.00728
 103        6D+1       -0.00199  -0.00343  -0.00609   0.00624   0.00293
 104        6D-1        0.01618  -0.00050  -0.01549   0.00476  -0.00255
 105        6D+2        0.00167   0.00915  -0.00331  -0.00441  -0.00677
 106        6D-2       -0.01031  -0.00802   0.00183   0.01113  -0.00237
 107 8   H  1S         -0.11215  -0.05363   0.07573  -0.01553   0.03418
 108        2S         -0.15472  -0.07557   0.11488  -0.02049   0.05778
 109        3S         -0.06296  -0.02438   0.07320  -0.00188   0.04516
 110        4PX         0.00668   0.00132  -0.00133  -0.00485   0.00520
 111        4PY         0.00899  -0.00236  -0.00573   0.00287   0.00197
 112        4PZ        -0.00363  -0.00938   0.00202   0.00119   0.00268
 113 9   H  1S          0.07987   0.10214  -0.01247  -0.06281  -0.00460
 114        2S          0.11221   0.13523  -0.01544  -0.09765  -0.01331
 115        3S          0.04991   0.05767  -0.00186  -0.05736  -0.01313
 116        4PX        -0.00337  -0.00980  -0.00037   0.00257   0.00467
 117        4PY         0.00311   0.00004   0.00035  -0.00396   0.00305
 118        4PZ         0.01006  -0.00169  -0.00533   0.00093   0.00014
 119 10  H  1S          0.08961  -0.10034  -0.06416   0.04506   0.02189
 120        2S          0.12283  -0.14101  -0.09768   0.06314   0.03996
 121        3S          0.04713  -0.06230  -0.06208   0.03111   0.01617
 122        4PX         0.00453   0.00255   0.00072  -0.00452   0.00262
 123        4PY        -0.00863  -0.00310   0.00520  -0.00130   0.00206
 124        4PZ        -0.00460   0.00961   0.00249  -0.00232  -0.00163
 125 11  O  1S          0.01357  -0.01356   0.01634  -0.01152  -0.00121
 126        2S          0.02209  -0.02202   0.02656  -0.01870  -0.00196
 127        2PX         0.02488  -0.00160   0.12889  -0.03255   0.19053
 128        2PY        -0.01770   0.00818   0.05168   0.03525   0.10744
 129        2PZ        -0.06370   0.14875  -0.12038   0.05450   0.14105
 130        3S         -0.06714   0.06449  -0.07774   0.05379   0.00536
 131        3PX         0.03405  -0.00118   0.18570  -0.04536   0.27475
 132        3PY        -0.02496   0.01127   0.07650   0.04883   0.15529
 133        3PZ        -0.09235   0.21614  -0.17341   0.07824   0.20395
 134        4S         -0.10004   0.10017  -0.12017   0.11571   0.01906
 135        4PX         0.02861  -0.00017   0.16319  -0.03585   0.27544
 136        4PY        -0.02248   0.01615   0.07055   0.04788   0.15329
 137        4PZ        -0.07201   0.18147  -0.14764   0.05826   0.19653
 138        5S         -0.05981   0.04407  -0.03224   0.06676  -0.01221
 139        5PX        -0.00736   0.01037   0.02419  -0.02145   0.07817
 140        5PY         0.00668  -0.01460   0.02516   0.01888   0.03787
 141        5PZ        -0.00267   0.02676  -0.02862   0.01928   0.06433
 142        6D 0        0.00278  -0.01001   0.00074   0.00037  -0.00656
 143        6D+1       -0.00152   0.00338  -0.00920   0.00102  -0.00266
 144        6D-1        0.00037   0.00028  -0.00269  -0.00174  -0.00452
 145        6D+2        0.00118   0.00033   0.00222   0.00210   0.00604
 146        6D-2       -0.00156   0.00127   0.00069   0.00506   0.00088
 147 12  H  1S          0.00217  -0.03913  -0.09400   0.04088   0.08340
 148        2S         -0.00253  -0.05073  -0.14626   0.05638   0.14417
 149        3S         -0.00005  -0.02119  -0.08817   0.02138   0.09454
 150        4PX        -0.00386   0.00122  -0.00176   0.00594  -0.00255
 151        4PY        -0.00125   0.00196  -0.00390  -0.00062   0.00190
 152        4PZ        -0.00023  -0.00354  -0.00499   0.00205   0.00602
 153 13  H  1S          0.02636  -0.02322   0.04134  -0.04555  -0.00518
 154        2S          0.03923  -0.02924   0.06128  -0.07963  -0.00708
 155        3S          0.03808  -0.02794   0.03663  -0.02270   0.00083
 156        4PX        -0.00104   0.00608   0.00519   0.00476   0.02068
 157        4PY         0.00518  -0.00552   0.01589  -0.00666   0.01051
 158        4PZ        -0.00455   0.01370  -0.00776   0.00146   0.01322
                          21        22        23        24        25
                           O         V         V         V         V
     Eigenvalues --    -0.28568   0.00093   0.01923   0.02732   0.03497
   1 1   O  1S         -0.00054   0.01483   0.02554   0.00589   0.00168
   2        2S         -0.00094   0.02475   0.04250   0.00984   0.00305
   3        2PX        -0.09276  -0.00216  -0.01808   0.01682   0.01056
   4        2PY         0.11738   0.03297   0.01196  -0.00265  -0.00643
   5        2PZ         0.20971  -0.00896  -0.01934  -0.00907   0.02153
   6        3S          0.00454  -0.08548  -0.14547  -0.03416  -0.01596
   7        3PX        -0.13360  -0.00302  -0.02611   0.02862   0.01629
   8        3PY         0.17024   0.04824   0.01743  -0.00900  -0.01070
   9        3PZ         0.30342  -0.01136  -0.02882  -0.01755   0.03437
  10        4S         -0.01282  -0.13393  -0.24469  -0.06255   0.02990
  11        4PX        -0.14003  -0.03111  -0.06894  -0.00751   0.01195
  12        4PY         0.16714   0.06624   0.02584   0.01900  -0.00951
  13        4PZ         0.29349  -0.04171  -0.04718  -0.00315   0.02844
  14        5S         -0.00345  -0.91301  -1.08767  -0.46101  -0.17961
  15        5PX        -0.02963  -0.21700  -0.22017   0.02297  -0.05964
  16        5PY         0.04118  -0.02981  -0.11509  -0.25183  -0.11831
  17        5PZ         0.09405   0.03875  -0.03450  -0.06863   0.13312
  18        6D 0        0.00871   0.00087  -0.00104   0.00024   0.00159
  19        6D+1        0.00404  -0.00046  -0.00156  -0.00160   0.00340
  20        6D-1       -0.00174   0.00024   0.00023  -0.00013   0.00158
  21        6D+2        0.00004   0.00042  -0.00054   0.00197   0.00184
  22        6D-2        0.00540  -0.00016   0.00242  -0.00253  -0.00193
  23 2   C  1S         -0.00406   0.00975  -0.00857   0.01907   0.00746
  24        2S         -0.00654   0.01674  -0.01350   0.03174   0.01238
  25        2PX         0.04066  -0.01537  -0.03537  -0.00781   0.00603
  26        2PY        -0.04788  -0.03721  -0.01960  -0.04896  -0.03381
  27        2PZ        -0.07472  -0.00589  -0.00833  -0.02703   0.04637
  28        3S          0.02044  -0.06929   0.02449  -0.10825  -0.04366
  29        3PX         0.06025  -0.01898  -0.04533   0.00032   0.01808
[...]
 Beta(0;0,0):
               (au)            (10**-30 esu)      (10**-50 SI)
   || (z)    -0.149110D+02     -0.128819D+00     -0.478100D-01
   _|_(z)    -0.497033D+01     -0.429398D-01     -0.159367D-01
   x          0.474669D+03      0.410077D+01      0.152196D+01
   y          0.340120D+03      0.293837D+01      0.109055D+01
   z         -0.745549D+02     -0.644097D+00     -0.239050D+00
   ||         0.117737D+03      0.101716D+01      0.377508D+00
   xxx        0.936571D+02      0.809125D+00      0.300299D+00
   xxy       -0.197474D+01     -0.170602D-01     -0.633172D-02
   yxy        0.454731D+02      0.392852D+00      0.145803D+00
   yyy        0.562585D+02      0.486029D+00      0.180385D+00
   xxz        0.112358D+02      0.970685D-01      0.360260D-01
   yxz        0.126284D+01      0.109099D-01      0.404911D-02
   yyz       -0.314067D+02     -0.271330D+00     -0.100701D+00
   zxz        0.190928D+02      0.164947D+00      0.612186D-01
   zyz        0.590896D+02      0.510488D+00      0.189463D+00
   zzz       -0.468071D+01     -0.404377D-01     -0.150080D-01

 ----------------------------------------------------------------------

 Dipole orientation:
     8         -1.66695176         -1.91968052         -8.31300870
     6         -0.71985869         -3.47959914         -6.32703758
     1         -0.88213346         -0.28565301         -8.09732840
     6         -0.89333428         -2.17636905         -3.77190066
     1          1.25655139         -3.99713446         -6.69153982
     1         -1.85410765         -5.20109091         -6.31943655
     6          0.10381675         -3.82201614         -1.63367067
     1         -1.01998739         -5.54783404         -1.46294482
     1          0.00050451         -2.81582664          0.16648956
     1          2.07244306         -4.34537615         -1.97713229
     8          0.55831946          0.11510526         -4.04283306
     1         -2.87352859         -1.67463833         -3.42248633
     1          0.16563337          1.23058564         -2.65958434

 Electric dipole moment (dipole orientation):
 (Debye = 10**-18 statcoulomb cm , SI units = C m)
                  (au)            (Debye)         (10**-30 SI)
   Tot        0.136649D+01      0.347327D+01      0.115856D+02
   x          0.000000D+00      0.000000D+00      0.000000D+00
   y          0.000000D+00      0.000000D+00      0.000000D+00
   z          0.136649D+01      0.347327D+01      0.115856D+02

 Dipole polarizability, Alpha (dipole orientation).
 (esu units = cm**3 , SI units = C**2 m**2 J**-1)
 Alpha(0;0):
               (au)            (10**-24 esu)      (10**-40 SI)
   iso        0.586797D+02      0.869543D+01      0.967498D+01
   aniso      0.594636D+01      0.881160D+00      0.980422D+00
   xx         0.555602D+02      0.823318D+01      0.916064D+01
   yx        -0.710975D-01     -0.105356D-01     -0.117224D-01
   yy         0.600037D+02      0.889163D+01      0.989328D+01
   zx         0.153212D+01      0.227036D+00      0.252612D+00
   zy        -0.144224D+01     -0.213718D+00     -0.237794D+00
   zz         0.604751D+02      0.896149D+01      0.997100D+01

 First dipole hyperpolarizability, Beta (dipole orientation).
 ||, _|_  parallel and perpendicular components, (z) with respect to z axis,
 vector components x,y,z.  Values do not include the 1/n! factor of 1/2.
 (esu units = statvolt**-1 cm**4 , SI units = C**3 m**3 J**-2)
 Beta(0;0,0):
               (au)            (10**-30 esu)      (10**-50 SI)
   || (z)     0.833770D+02      0.720312D+00      0.267337D+00
   _|_(z)     0.277923D+02      0.240104D+00      0.891122D-01
   x          0.934688D+02      0.807498D+00      0.299695D+00
   y         -0.404996D+03     -0.349885D+01     -0.129856D+01
   z          0.416885D+03      0.360156D+01      0.133668D+01
   ||         0.117737D+03      0.101716D+01      0.377508D+00
   xxx        0.331019D+02      0.285974D+00      0.106137D+00
   xxy       -0.504762D+02     -0.436075D+00     -0.161845D+00
   yxy       -0.262417D+02     -0.226708D+00     -0.841405D-01
   yyy       -0.886144D+02     -0.765559D+00     -0.284130D+00
   xxz        0.159195D+02      0.137532D+00      0.510435D-01
   yxz        0.253989D+01      0.219426D-01      0.814379D-02
   yyz        0.414512D+02      0.358106D+00      0.132907D+00
   zxz        0.242961D+02      0.209900D+00      0.779022D-01
   zyz        0.409201D+01      0.353518D-01      0.131205D-01
   zzz        0.815910D+02      0.704882D+00      0.261610D+00

 ----------------------------------------------------------------------
 Unable to Open any file for archive entry.
 1\1\GINC-NODE1938\Freq\RB3LYP\6-311+G(d,p)\C3H8O2\SVICCHI\02-Jun-2023\
 0\\#p freq=raman scale=0.967 pop=(nbo,full,hirshfeld) guess=read geom=
 allcheck b3lyp/6-311+G(d,p) int=grid=ultrafine EmpiricalDispersion=GD3
 BJ SCRF=(Solvent=ethanol) scf=(xqc,intrep,maxconventionalcycle=350) no
 symm\\PG-isolated.gjf\\0,1\O,-4.3130025769,1.5997473602,0.0240144448\C
 ,-3.0729416503,2.2994721047,0.1223871824\H,-4.2063771764,0.787591301,0
 .5360980579\C,-1.8881992748,1.392580391,-0.1711975895\H,-2.9545626653,
 2.7311880232,1.1252146984\H,-3.1079815535,3.1142596823,-0.602213464\C,
 -0.558397637,2.1269060991,-0.0737957201\H,-0.5090186548,2.9305565413,-
 0.8137808661\H,0.2729607531,1.4436620848,-0.2634516521\H,-0.4300180946
 ,2.5593013303,0.9219632252\O,-1.9817004528,0.326632535,0.7963047364\H,
 -2.0136846859,0.9700965309,-1.1754293822\H,-1.4083663308,-0.3965939835
 ,0.5212573288\\Version=ES64L-G16RevC.01\HF=-269.6877742\RMSD=2.631e-09
 \RMSF=1.445e-05\ZeroPoint=0.1089921\Thermal=0.115633\ETot=-269.5721412
 \HTot=-269.5711971\GTot=-269.6082364\Dipole=1.309312,-0.2228292,-0.321
 464\DipoleDeriv=-1.1424189,-0.2306679,0.0564551,-0.2913262,-0.6946642,
 -0.1109983,0.1010066,-0.0963518,-0.5586942,0.8422569,0.3002971,0.04089
 23,0.2921108,0.4576898,0.0820924,0.026218,0.0343523,0.4367412,0.383293
 7,0.0198431,-0.0723731,-0.0315749,0.3188074,0.0497644,-0.0657224,0.061
 6964,0.329802,0.4010139,0.0308259,0.0378849,0.1680559,0.8204649,-0.326
 9252,0.0145291,-0.3158809,0.5918112,-0.0420592,-0.0532848,-0.0361714,-
 0.0454146,-0.0076098,-0.0831352,-0.0488955,-0.1527066,-0.1751719,0.031
 3545,0.0060398,-0.0117805,-0.0267796,-0.0559821,0.090197,-0.0022045,0.
 1412391,-0.0259527,-0.1158253,-0.1316354,0.0349196,-0.0408352,0.002817
 8,0.0268041,-0.0143594,0.0313736,0.1135021,0.0685965,-0.0056495,-0.020
 5391,-0.0401487,-0.0589259,0.1255173,0.0099211,0.1385327,-0.0288302,-0
 .1046563,0.080379,0.0286263,0.1292075,-0.0446805,-0.0332198,0.024031,-
 0.0378409,0.0887574,0.0511292,-0.013788,0.0195588,-0.0357786,0.0473397
 ,-0.07795,-0.0493161,-0.1121769,-0.1314685,-0.6750719,-0.055631,-0.118
 5816,-0.1165063,-1.0622346,0.3358299,-0.0501301,0.3581979,-0.7232215,0
 .0026678,-0.0302548,-0.0394088,-0.0151577,-0.0704559,-0.0859386,-0.034
 6869,-0.030716,-0.2098715,0.2997192,0.0835265,0.0805177,0.0541475,0.34
 74334,0.0079621,0.0896092,-0.0197189,0.2925966\Polar=61.2516484,1.2449
 586,59.4393205,-0.1480802,-1.0338627,55.3481213\PolarDeriv=-11.7409611
 ,-1.0826832,0.1692534,-0.2705349,0.8180526,-0.0111192,-0.6770208,-1.69
 76982,4.1035924,0.3761165,-2.612924,2.4008437,-2.532525,-0.3431491,-3.
 3466701,-2.2080323,1.5479865,-1.7178144,1.2823193,3.3180632,-2.4510403
 ,-0.3151643,-1.3682297,-2.0694097,5.261825,-0.1880726,-6.4510695,-1.09
 90885,1.3697971,-7.0878936,0.8028566,-1.0503649,1.1141991,-1.048573,-9
 .1546448,-6.255892,0.584368,-1.2965215,-0.1639034,0.6548898,-0.0413341
 ,-0.2587174,-2.8814219,-1.2208875,-6.1280261,0.175459,2.4311918,-2.156
 7495,1.7920401,0.5260802,3.3001112,-0.4999378,-1.9711623,1.8091791,-0.
 7145622,-4.9589022,1.4658893,-0.067727,0.75782,1.8917947,-4.2057496,0.
 769562,3.7395379,0.7120484,-1.0176789,5.7323378,0.4111525,0.6541849,-1
 .4361234,2.3964289,8.1600545,11.8759861,1.2656907,0.7869646,0.7402873,
 2.1074613,0.9053563,1.1709054,-0.1515927,0.3683816,3.9849445,0.2250809
 ,2.6803538,2.8174028,2.477711,0.3278901,3.8349151,0.4256089,4.9775763,
 9.826457,-0.109823,1.2141449,-0.026189,-1.5098137,0.1222795,-0.216967,
 0.4602492,-0.7422949,7.6369334,0.3970856,-3.5057329,2.9836284,-1.93938
 11,0.405813,-4.2761696,-0.2992621,4.28794,-3.8942048,0.0920934,6.38312
 83,-2.4727316,0.8158082,-1.0134705,-1.027591,6.4928304,-3.2088054,-2.4
 068337,-1.1306289,2.9796638,-7.1146377,1.0784386,-1.0584925,3.3356806,
 -2.6213534,-7.4067853,-4.8303655,0.1981812,0.9290691,0.7600701,-1.5265
 989,-0.3519327,0.162846,1.0437359,1.9466344,7.4827108,-0.8272846,-4.02
 28515,3.6733341,-2.1596455,-0.9862452,-4.4825628,1.2262825,4.3328867,-
 5.0654845,9.3773796,-3.8797842,2.4159883,-1.3339058,0.4830731,1.183096
 7,-5.4917366,3.4506706,-3.9874051,0.6311332,-0.9521872,-0.4620258,-1.5
 713375,0.4324662,-1.1635423,2.0553009,-0.179715,-0.4687595,0.4045627,0
 .1083853,0.3872359,1.6565931,0.4400362,0.5859073,0.1457203,1.2606936,2
 .8851235,0.7187246,2.118058,2.7578752,2.714203,1.2065664,2.63919,2.106
 0189,3.5790724,9.0088346,-2.9130844,1.3126719,-4.5430552,2.1528116,-0.
 1776519,-1.560607,2.9211273,-3.9614068,0.3437467,-0.1605678,3.0624047,
 0.6887022,2.3546917,-0.54628,4.799106,-1.1339614,-3.649247,2.4839948,-
 0.4243079,0.1229967,-0.6736692,-2.1371839,-0.5709119,-1.3064943,0.1314
 515,-0.3955221,-3.0049478,-0.1754264,-2.6183452,-3.0647105,-2.2452097,
 -0.4421533,-2.5578018,-1.0763954,-3.5861575,-12.8259674,2.6981437,-2.9
 57533,4.3918642,-0.2266353,-0.0030869,1.4563555,-3.0494181,3.6187453,-
 8.1983071,0.1573479,0.0882505,-1.1681072,-1.1829948,0.8736843,-1.76033
 2,0.6778752,-0.9378044,0.0540365\HyperPolar=93.6571343,-1.9747363,45.4
 730681,56.2584665,11.2357913,1.2628376,-31.4067307,19.0928472,59.08961
 02,-4.6807089\Quadrupole=-10.2444064,6.6704452,3.5739612,4.5048905,-0.
 1942637,-0.5946151\PG=C01 [X(C3H8O2)]\NImag=0\\0.29359790,0.04889666,0
 .48495720,0.06846495,-0.22508094,0.20858164,-0.17163487,-0.07515524,-0
 .00984880,0.43176173,-0.03300135,-0.11524055,0.01146286,-0.00835645,0.
 56636049,-0.02878419,-0.00027911,-0.07526246,0.01185058,-0.04680191,0.
 60318421,-0.04658901,0.06626537,-0.05631090,-0.00236296,-0.03770605,0.
 02159017,0.05186476,0.02461773,-0.35309095,0.21237473,-0.00184762,-0.0
 2090020,0.01278296,-0.02313569,0.37309084,-0.03223604,0.22720042,-0.15
 120490,0.00004226,-0.00260191,0.00128072,0.03360720,-0.22359416,0.1498
 1927,-0.04618980,0.00707484,0.00672127,-0.12961719,0.04439102,0.025710
 70,-0.00188963,0.00178775,-0.00071382,0.49741181,-0.02506942,0.0062158
 0,0.00591216,0.06507827,-0.11785030,-0.02954618,-0.00372935,0.00255680
 ,0.00059364,-0.00536763,0.47792092,-0.00357891,0.00367562,0.00198180,0
 .01811023,-0.01975809,-0.08918049,0.00355626,0.00007433,0.00046301,0.0
 0597170,0.08130022,0.55429974,-0.01836849,-0.02256894,-0.02928963,-0.0
 4682411,-0.00352440,-0.01365109,0.00024247,0.00126557,-0.00071448,0.00
 027703,0.01111812,0.02582283,0.06380274,-0.01410806,-0.00967097,-0.015
 68404,-0.00236679,-0.08420426,-0.07807007,-0.00010905,0.00016398,-0.00
 115133,0.00167569,-0.00847955,-0.02159473,0.01247178,0.09047437,-0.007
 05811,-0.00420988,0.00599959,-0.01382227,-0.08065832,-0.25986574,-0.00
 054553,0.00044219,0.00036789,-0.00071208,-0.00230618,-0.00980326,0.020
 61543,0.09495046,0.27796667,-0.00597980,-0.03277574,0.02148873,-0.0499
 8739,0.01906241,-0.01343839,-0.00576970,-0.00262697,0.00035069,0.00288
 707,0.01367629,-0.01836129,0.00145331,0.00167591,-0.00019474,0.0610143
 2,-0.00644341,-0.01716149,0.01067714,0.01268918,-0.18914093,0.12649334
 ,-0.00314569,-0.00024827,-0.00000286,0.00001026,-0.01263770,0.01427706
 ,-0.00002325,0.01053518,-0.00769869,-0.00545231,0.21085011,0.00215025,
 -0.00216231,0.00549230,-0.00992244,0.13345113,-0.17333878,-0.00051780,
 -0.00200719,0.00118540,0.00113026,-0.00638953,0.00376943,-0.00263551,0
 .02108420,-0.01847408,0.00954987,-0.14282602,0.17899562,-0.00485739,0.
 00211871,0.00118180,-0.02847054,-0.01207225,-0.00263396,0.00022736,0.0
 0043018,-0.00013549,-0.16911393,-0.04488849,-0.01182992,0.00172951,-0.
 00088547,-0.00025046,0.00037393,-0.00074641,-0.00020077,0.49492553,0.0
 0949783,-0.00024931,-0.00145986,0.00867536,0.01470515,0.00188295,0.000
 10611,-0.00103138,0.00074282,-0.03622275,-0.09806911,-0.01335709,0.000
 34784,0.00005285,-0.00006372,-0.00018791,0.00014355,0.00039370,-0.0462
 0835,0.54076968,0.00102481,-0.00016876,0.00110173,0.00630833,0.0014614
 7,0.00035717,-0.00045684,0.00035756,-0.00031537,-0.01856253,-0.0142595
 5,-0.08009778,0.00079535,0.00028052,0.00022249,-0.00020545,0.00022433,
 -0.00002931,-0.00470143,-0.00396619,0.56934172,0.00065844,0.00034928,-
 0.00040114,0.00006960,0.00030609,0.00047880,0.00027806,-0.00020626,0.0
 0011695,0.00308119,-0.01746674,0.02024534,-0.00005108,0.00001369,-0.00
 001663,-0.00069098,0.00021144,0.00006921,-0.04797347,-0.00764694,0.005
 19551,0.04924898,-0.00031241,0.00018917,-0.00026883,0.00086771,-0.0002
 7905,0.00032585,0.00030599,-0.00001304,-0.00006048,0.00315616,-0.01041
 781,0.01019206,-0.00007418,0.00004179,-0.00002511,0.00007109,0.0005187
 3,-0.00018759,-0.00925365,-0.18626328,0.12927242,0.01001441,0.20135328
 ,0.00038851,-0.00013584,0.00005716,-0.00039727,0.00042520,-0.00004802,
 -0.00011991,-0.00004863,0.00005856,0.00013422,-0.00306110,0.00012851,0
 .00005020,0.00008211,0.00011246,0.00015148,-0.00027613,0.00020216,0.00
 677031,0.13003766,-0.16681973,-0.00741283,-0.14399524,0.17799687,-0.00
 316508,0.00026717,0.00059133,-0.00097543,-0.00534429,-0.00135655,0.000
 12105,0.00029821,-0.00025393,-0.02466206,0.02091797,0.00556080,0.00016
 752,0.00004108,0.00019984,0.00022996,0.00004330,-0.00023791,-0.1943571
 6,0.12492238,0.03496913,0.00170179,-0.00154523,-0.00111175,0.21400327,
 -0.00165684,0.00025097,0.00007992,-0.00155784,-0.00202483,0.00016171,0
 .00007330,0.00016700,-0.00012538,-0.01583086,0.01006299,0.00434747,-0.
 00008150,0.00007051,0.00011890,-0.00011462,0.00009069,-0.00014669,0.12
 722174,-0.15220065,-0.02996534,0.01727916,-0.01452903,-0.00500447,-0.1
 3564324,0.16328367,-0.00029028,-0.00011181,0.00049411,0.00002118,-0.00
 024032,0.00033535,-0.00003081,-0.00003931,0.00000369,-0.00238508,0.002
 88422,-0.00118880,-0.00028885,0.00036708,0.00026496,0.00011803,-0.0003
 7894,0.00001133,0.03482790,-0.03051421,-0.05420856,-0.01742368,0.01319
 797,0.00413679,-0.03772850,0.03266047,0.05406289,0.00006616,0.00038258
 ,0.00062423,0.00117621,-0.00087964,-0.00156149,0.00006380,-0.00002467,
 -0.00008024,-0.00462502,-0.01180842,-0.03002098,-0.00029150,0.00031861
 ,0.00056188,-0.00007477,0.00005581,0.00005594,-0.04976656,-0.01057926,
 -0.02361890,-0.00096897,0.00089620,0.00129851,0.00319216,0.00836143,0.
 02264346,0.05399987,-0.00008045,-0.00003956,0.00029523,0.00133793,0.00
 000388,0.00024806,0.00001178,0.00000291,-0.00010535,-0.00288352,-0.007
 68351,-0.01570472,-0.00014547,0.00048150,0.00033402,0.00002336,0.00001
 900,0.00005370,-0.01025027,-0.08667267,-0.09273027,0.00283935,0.011058
 65,0.02163241,-0.00310751,-0.00801482,-0.01833460,0.01398800,0.0902652
 1,-0.00018548,0.00002592,0.00025596,0.00091866,-0.00010688,0.00015055,
 0.00008462,-0.00002236,-0.00005836,-0.00089570,0.00026683,-0.00388585,
 -0.00042642,0.00035773,0.00029870,0.00000181,-0.00007875,0.00003440,-0
 .02577838,-0.09387718,-0.26476674,-0.00193849,-0.00867922,-0.01769888,
 -0.00018320,-0.00127937,-0.00415743,0.02886518,0.10407819,0.28649907,-
 0.00084337,0.00469643,-0.00151462,-0.00286149,0.02459574,-0.02147193,0
 .00285873,-0.00033814,-0.00096471,-0.07326356,0.01506967,0.00992707,0.
 00136184,-0.00120059,-0.00010181,-0.00426035,0.00339698,0.00095373,0.0
 0012500,-0.02702885,0.02574074,-0.00568242,-0.00439141,-0.00049651,0.0
 0313376,0.00081796,0.00011083,0.00207250,0.00133206,0.00014306,0.26576
 453,-0.00040024,0.00092287,0.00035526,0.00441137,-0.03713845,0.0289273
 0,-0.00053720,-0.00038149,-0.00102587,-0.00684716,-0.12732510,0.064350
 48,-0.00193035,0.00200513,-0.00008945,0.00602500,-0.00297721,-0.001249
 47,-0.00356407,-0.02629971,0.02460072,-0.00624229,-0.00275556,0.000055
 43,0.00023814,0.00262048,-0.00035374,0.00207964,0.00130101,-0.00071014
 ,-0.22970939,0.48422814,-0.00010271,0.00019388,0.00118614,-0.00290331,
 0.00383195,0.00229056,-0.00035738,-0.00021502,-0.00096024,0.02731639,0
 .03150361,-0.13373567,-0.00094767,0.00000649,0.00174008,0.00117189,-0.
 00107575,0.00096279,0.00331742,0.01253803,-0.00471312,0.00164639,0.000
 86132,0.00177895,-0.00068494,-0.00113047,-0.00007774,0.00101731,0.0002
 6633,0.00212618,-0.12714567,-0.00156930,0.23514139,0.00281426,-0.00073
 478,-0.00106395,0.00084317,0.01243421,0.02411101,-0.00020607,-0.000058
 04,0.00036645,-0.05525568,-0.01171400,-0.02577689,-0.00367231,0.002666
 25,0.00140483,0.00088211,-0.00064578,-0.00056552,-0.00463663,-0.014244
 36,-0.02669011,0.00084275,0.00015032,0.00060265,0.00129555,0.00101759,
 0.00006852,-0.00474700,-0.00310781,-0.00056937,0.00289622,0.00132524,0
 .00239563,0.05884746,-0.00087792,0.00181100,0.00199124,-0.00232498,-0.
 01040236,-0.02104828,0.00036188,-0.00009382,-0.00009438,-0.00953203,-0
 .09174027,-0.09738739,0.00357312,-0.00194923,-0.00095143,-0.00048374,0
 .00037939,0.00025479,-0.00175197,-0.00530151,-0.01395780,0.00036315,0.
 00027545,0.00019657,-0.00012830,0.00079860,0.00067409,-0.00279666,-0.0
 0073805,-0.00013028,0.00153491,0.00076825,0.03724868,0.01279332,0.1038
 1227,0.00003983,0.00122573,0.00111702,-0.00103652,-0.00487959,-0.00583
 491,-0.00018797,0.00006851,-0.00030815,-0.02518149,-0.09305961,-0.2473
 3123,0.00058364,-0.00074907,0.00087953,0.00050700,-0.00029292,0.000638
 87,-0.00028378,-0.00229526,-0.00017573,-0.00066701,-0.00061933,0.00020
 407,-0.00025089,0.00030238,0.00021224,0.00017749,0.00009775,0.00128006
 ,-0.00119622,0.00757652,-0.02983103,0.02649275,0.09298478,0.27830911,0
 .00049106,0.00118367,-0.00064327,-0.00111673,0.00009493,-0.00084367,0.
 00116115,-0.00016206,0.00061515,0.00095977,-0.00581627,0.00037375,0.00
 017308,-0.00019304,-0.00008035,-0.00007771,0.00004987,0.00017068,0.001
 79435,-0.00143110,0.00020141,-0.00051389,0.00011498,0.00014239,-0.0006
 8534,0.00011372,0.00035728,-0.00009687,0.00004256,-0.00003631,-0.19130
 141,0.23515132,0.09527664,0.00009617,-0.00073078,0.00100316,0.18911636
 ,-0.00106212,0.00110583,-0.00065487,-0.00145090,-0.00388860,0.00492337
 ,0.00123860,-0.00022239,0.00022483,0.01858823,-0.02255316,-0.01041523,
 -0.00042835,0.00047870,0.00015720,0.00110721,-0.00037105,-0.00026874,-
 0.00014969,0.00041640,-0.00114912,0.00018564,0.00082070,0.00009203,-0.
 00095968,-0.00057559,0.00018911,0.00000638,0.00001645,0.00015552,0.211
 22461,-0.29496838,-0.08245977,0.00011785,0.00238028,-0.00035987,-0.228
 41780,0.31736081,0.00016736,-0.00017292,0.00019991,0.00067936,0.004414
 42,-0.00406816,-0.00031109,-0.00017362,-0.00033153,-0.01853385,0.02616
 148,0.00458060,0.00008619,0.00012065,0.00029071,-0.00113963,0.00095817
 ,0.00054987,-0.00028323,-0.00006166,0.00010322,0.00010756,-0.00001382,
 -0.00010890,0.00048657,-0.00001914,0.00011119,0.00003761,-0.00013075,-
 0.00007767,0.11601602,-0.12086775,-0.07590827,-0.00077600,0.00021941,0
 .00084016,-0.09653684,0.08956553,0.07381886\\-0.00001131,0.00005503,-0
 .00003070,-0.00000170,-0.00000235,-0.00000773,0.00000623,-0.00004260,0
 .00002884,-0.00000097,-0.00000581,0.00000132,0.00000015,0.00000273,-0.
 00000419,0.00000048,-0.00000192,-0.00000604,0.00000076,-0.00000156,-0.
 00000307,0.00000148,-0.00000871,-0.00000229,-0.00000047,-0.00000378,0.
 00000056,-0.00000037,-0.00000167,-0.00000805,0.00001342,-0.00000045,0.
 00001845,-0.00000048,-0.00000505,0.00000067,-0.00000722,0.00001615,0.0
 0001223\\\@
 The archive entry for this job was punched.


 "THE TIME HAS COME", THE WALRUS SAID,
 "TO TALK OF MANY THINGS,
 OF SHOES AND SHIPS AND SEALING WAX,
 OF CABBAGES AND KINGS,
 AND WHY THE SEA IS BOILING HOT,
 AND WHETHER PIGS HAVE WINGS."
 Job cpu time:       0 days  0 hours 14 minutes 13.9 seconds.
 Elapsed time:       0 days  0 hours  7 minutes 56.9 seconds.
 File lengths (MBytes):  RWF=     70 Int=      0 D2E=      0 Chk=     12 Scr=      1
 Normal termination of Gaussian 16 at Fri Jun  2 11:26:50 2023.
