 Entering Gaussian System, Link 0=g16
 Input=124triz-H_dissociation-site_index-3-freq.gjf
 Output=124triz-H_dissociation-site_index-3-freq.log
 Initial command:
 /software/commercial/gaussian/g16/AVX/g16/l1.exe "/scratch1/svicchi/G09-659775.pbs02/Gau-2939732.inp" -scrdir="/scratch1/svicchi/G09-659775.pbs02/"
 Entering Link 1 = /software/commercial/gaussian/g16/AVX/g16/l1.exe PID=   2939733.
  
 Copyright (c) 1988-2019, Gaussian, Inc.  All Rights Reserved.
  
 This is part of the Gaussian(R) 16 program.  It is based on
 the Gaussian(R) 09 system (copyright 2009, Gaussian, Inc.),
 the Gaussian(R) 03 system (copyright 2003, Gaussian, Inc.),
 the Gaussian(R) 98 system (copyright 1998, Gaussian, Inc.),
 the Gaussian(R) 94 system (copyright 1995, Gaussian, Inc.),
 the Gaussian 92(TM) system (copyright 1992, Gaussian, Inc.),
 the Gaussian 90(TM) system (copyright 1990, Gaussian, Inc.),
 the Gaussian 88(TM) system (copyright 1988, Gaussian, Inc.),
 the Gaussian 86(TM) system (copyright 1986, Carnegie Mellon
 University), and the Gaussian 82(TM) system (copyright 1983,
 Carnegie Mellon University). Gaussian is a federally registered
 trademark of Gaussian, Inc.
  
 This software contains proprietary and confidential information,
 including trade secrets, belonging to Gaussian, Inc.
  
 This software is provided under written license and may be
 used, copied, transmitted, or stored only in accord with that
 written license.
  
 The following legend is applicable only to US Government
 contracts under FAR:
  
                    RESTRICTED RIGHTS LEGEND
  
 Use, reproduction and disclosure by the US Government is
 subject to restrictions as set forth in subparagraphs (a)
 and (c) of the Commercial Computer Software - Restricted
 Rights clause in FAR 52.227-19.
  
 Gaussian, Inc.
 340 Quinnipiac St., Bldg. 40, Wallingford CT 06492
  
  
 ---------------------------------------------------------------
 Warning -- This program may not be used in any manner that
 competes with the business of Gaussian, Inc. or will provide
 assistance to any competitor of Gaussian, Inc.  The licensee
 of this program is prohibited from giving any competitor of
 Gaussian, Inc. access to this program.  By using this program,
 the user acknowledges that Gaussian, Inc. is engaged in the
 business of creating and licensing software in the field of
 computational chemistry and represents and warrants to the
 licensee that it is not a competitor of Gaussian, Inc. and that
 it will not use this program in any manner prohibited above.
 ---------------------------------------------------------------
  

 Cite this work as:
 Gaussian 16, Revision C.01,
 M. J. Frisch, G. W. Trucks, H. B. Schlegel, G. E. Scuseria, 
 M. A. Robb, J. R. Cheeseman, G. Scalmani, V. Barone, 
 G. A. Petersson, H. Nakatsuji, X. Li, M. Caricato, A. V. Marenich, 
 J. Bloino, B. G. Janesko, R. Gomperts, B. Mennucci, H. P. Hratchian, 
 J. V. Ortiz, A. F. Izmaylov, J. L. Sonnenberg, D. Williams-Young, 
 F. Ding, F. Lipparini, F. Egidi, J. Goings, B. Peng, A. Petrone, 
 T. Henderson, D. Ranasinghe, V. G. Zakrzewski, J. Gao, N. Rega, 
 G. Zheng, W. Liang, M. Hada, M. Ehara, K. Toyota, R. Fukuda, 
 J. Hasegawa, M. Ishida, T. Nakajima, Y. Honda, O. Kitao, H. Nakai, 
 T. Vreven, K. Throssell, J. A. Montgomery, Jr., J. E. Peralta, 
 F. Ogliaro, M. J. Bearpark, J. J. Heyd, E. N. Brothers, K. N. Kudin, 
 V. N. Staroverov, T. A. Keith, R. Kobayashi, J. Normand, 
 K. Raghavachari, A. P. Rendell, J. C. Burant, S. S. Iyengar, 
 J. Tomasi, M. Cossi, J. M. Millam, M. Klene, C. Adamo, R. Cammi, 
 J. W. Ochterski, R. L. Martin, K. Morokuma, O. Farkas, 
 J. B. Foresman, and D. J. Fox, Gaussian, Inc., Wallingford CT, 2019.
 
 ******************************************
 Gaussian 16:  ES64L-G16RevC.01  3-Jul-2019
                 2-Jun-2023 
 ******************************************
 %NProcShared=2
 Will use up to    2 processors via shared memory.
 %mem=55gb
 %chk=/scratch1/svicchi/G09-659775.pbs02/02-freq/124triz-H_dissociation-site_inde
 x-3-freq.chk
 ----------------------------------------------------------------------
 #p freq=raman scale=0.967 pop=(nbo,full,hirshfeld) guess=read geom=all
 check b3lyp/6-311+G(d,p) int=grid=ultrafine EmpiricalDispersion=GD3BJ 
 SCRF=(Solvent=ethanol) scf=(xqc,intrep,maxconventionalcycle=350) nosym
 m
 ----------------------------------------------------------------------
 1/10=4,29=7,30=1,38=1,114=967000/1,3;
 2/12=2,15=1,40=1/2;
 3/5=4,6=6,7=111,11=2,14=-4,25=1,30=1,70=2201,71=2,72=4,74=-5,75=-5,116=-2,124=41,140=1/1,2,3;
 4/5=1/1;
 5/5=2,8=3,13=1,17=20,38=6,53=4,85=350,98=1/2,8;
 8/6=4,10=90,11=11/1;
 10/13=10,15=4,31=1/2;
 11/6=3,8=1,9=11,15=111,16=1,31=1/1,2,10;
 10/6=1,31=1/2;
 6/7=3,28=1,40=1,79=1/1,7;
 7/8=1,10=1,25=1,30=1/1,2,3,16;
 1/10=4,30=1/3;
 99//99;
 Leave Link    1 at Fri Jun  2 11:07:57 2023, MaxMem=  7381975040 cpu:               1.0 elap:               1.2
 (Enter /software/commercial/gaussian/g16/AVX/g16/l101.exe)
 Structure from the checkpoint file:  "/scratch1/svicchi/G09-659775.pbs02/02-freq/124triz-H_dissociation-site_index-3-freq.chk"
 ---------------------------------------
 124triz-H_dissociation-site_index-3.gjf
 ---------------------------------------
 Charge =  0 Multiplicity = 1
 No Z-Matrix found in chk file; cartesian coordinates used.
  C                                                -1.648665441072      1.403564643519     -0.000000000001
  N                                                -1.737895359066      0.042420518266     -0.000000000001
  C                                                -0.469582326244     -0.341270509610      0.000000000001
  N                                                 0.329090397519      0.739737137038      0.000000000002
  N                                                -0.412459699395      1.875251233316      0.000000000001
  H                                                -0.098683148127     -1.353844407267     -0.000000000000
  H                                                -2.507959384988      2.056051200555     -0.000000000000
  H                                                 1.338099961373      0.783501184181     -0.000000000002
 Recover connectivity data from disk.
 ITRead=  0  0  0  0  0  0  0  0
 MicOpt= -1 -1 -1 -1 -1 -1 -1 -1
 NAtoms=      8 NQM=        8 NQMF=       0 NMMI=      0 NMMIF=      0
                NMic=       0 NMicF=      0.
                    Isotopes and Nuclear Properties:
 (Nuclear quadrupole moments (NQMom) in fm**2, nuclear magnetic moments (NMagM)
  in nuclear magnetons)

  Atom         1           2           3           4           5           6           7           8
 IAtWgt=          12          14          12          14          14           1           1           1
 AtmWgt=  12.0000000  14.0030740  12.0000000  14.0030740  14.0030740   1.0078250   1.0078250   1.0078250
 NucSpn=           0           2           0           2           2           1           1           1
 AtZEff=   3.6000000   4.5500000   3.6000000   4.5500000   4.5500000   1.0000000   1.0000000   1.0000000
 NQMom=    0.0000000   2.0440000   0.0000000   2.0440000   2.0440000   0.0000000   0.0000000   0.0000000
 NMagM=    0.0000000   0.4037610   0.0000000   0.4037610   0.4037610   2.7928460   2.7928460   2.7928460
 AtZNuc=   6.0000000   7.0000000   6.0000000   7.0000000   7.0000000   1.0000000   1.0000000   1.0000000
 Leave Link  101 at Fri Jun  2 11:07:59 2023, MaxMem=  7381975040 cpu:               0.4 elap:               0.9
 (Enter /software/commercial/gaussian/g16/AVX/g16/l103.exe)

 GradGradGradGradGradGradGradGradGradGradGradGradGradGradGradGradGradGrad
 Berny optimization.
 Initialization pass.
 Trust Radius=3.00D-01 FncErr=1.00D-07 GrdErr=1.00D-07 EigMax=2.50D+02 EigMin=1.00D-04
 Number of steps in this run=      2 maximum allowed number of steps=      2.
 GradGradGradGradGradGradGradGradGradGradGradGradGradGradGradGradGradGrad

 Leave Link  103 at Fri Jun  2 11:08:01 2023, MaxMem=  7381975040 cpu:               0.1 elap:               0.9
 (Enter /software/commercial/gaussian/g16/AVX/g16/l202.exe)
                          Input orientation:                          
 ---------------------------------------------------------------------
 Center     Atomic      Atomic             Coordinates (Angstroms)
 Number     Number       Type             X           Y           Z
 ---------------------------------------------------------------------
      1          6           0       -1.648665    1.403565   -0.000000
      2          7           0       -1.737895    0.042421   -0.000000
      3          6           0       -0.469582   -0.341271    0.000000
      4          7           0        0.329090    0.739737    0.000000
      5          7           0       -0.412460    1.875251    0.000000
      6          1           0       -0.098683   -1.353844   -0.000000
      7          1           0       -2.507959    2.056051   -0.000000
      8          1           0        1.338100    0.783501   -0.000000
 ---------------------------------------------------------------------
                    Distance matrix (angstroms):
                    1          2          3          4          5
     1  C    0.000000
     2  N    1.364066   0.000000
     3  C    2.105870   1.325080   0.000000
     4  N    2.086189   2.181440   1.344045   0.000000
     5  N    1.323138   2.261868   2.217258   1.356204   0.000000
     6  H    3.163187   2.153270   1.078365   2.136837   3.244305
     7  H    1.078946   2.155854   3.146765   3.127544   2.103285
     8  H    3.050450   3.164008   2.129044   1.009958   2.063099
                    6          7          8
     6  H    0.000000
     7  H    4.175165   0.000000
     8  H    2.575382   4.051118   0.000000
 Symmetry turned off by external request.
 Stoichiometry    C2H3N3
 Framework group  CS[SG(C2H3N3)]
 Deg. of freedom    13
 Full point group                 CS      NOp   2
 Rotational constants (GHZ):          10.1842648           9.9384220           5.0299208
 Leave Link  202 at Fri Jun  2 11:08:02 2023, MaxMem=  7381975040 cpu:               0.0 elap:               0.5
 (Enter /software/commercial/gaussian/g16/AVX/g16/l301.exe)
 Standard basis: 6-311+G(d,p) (5D, 7F)
 Ernie: Thresh=  0.10000D-02 Tol=  0.10000D-05 Strict=F.
   128 basis functions,   204 primitive gaussians,   133 cartesian basis functions
    18 alpha electrons       18 beta electrons
       nuclear repulsion energy       165.3817408177 Hartrees.
 IExCor=  402 DFT=T Ex+Corr=B3LYP ExCW=0 ScaHFX=  0.200000
 ScaDFX=  0.800000  0.720000  1.000000  0.810000 ScalE2=  1.000000  1.000000
 IRadAn=      5 IRanWt=     -1 IRanGd=            0 ICorTp=0 IEmpDi=141
 NAtoms=    8 NActive=    8 NUniq=    8 SFac= 1.00D+00 NAtFMM=   60 NAOKFM=F Big=F
 Integral buffers will be    131072 words long.
 Raffenetti 2 integral format.
 Two-electron integral symmetry is turned off.
 R6Disp:  Grimme-D3(BJ) Dispersion energy=       -0.0097193923 Hartrees.
 Nuclear repulsion after empirical dispersion term =      165.3720214254 Hartrees.
 Force inversion solution in PCM.
 ------------------------------------------------------------------------------
 Polarizable Continuum Model (PCM)
 =================================
 Model                : PCM.
 Atomic radii         : UFF (Universal Force Field).
 Polarization charges : Total charges.
 Charge compensation  : None.
 Solution method      : Matrix inversion.
 Cavity type          : Scaled VdW (van der Waals Surface) (Alpha=1.100).
 Cavity algorithm     : GePol (No added spheres)
                        Default sphere list used, NSphG=    8.
                        Lebedev-Laikov grids with approx.  5.0 points / Ang**2.
                        Smoothing algorithm: York/Karplus (Gamma=1.0000).
                        Polarization charges: spherical gaussians, with
                                              point-specific exponents (IZeta= 3).
                        Self-potential: point-specific (ISelfS= 7).
                        Self-field    : sphere-specific E.n sum rule (ISelfD= 2).
 1st derivatives      : Analytical E(r).r(x)/FMM algorithm (CHGder, D1EAlg=3).
                        Cavity 1st derivative terms included.
 2nd derivatives      : Analytical E(r).r(xy)/FMM algorithm (CHGder, D2EAlg=3).
                        Cavity 2nd derivative terms included.
 Solvent              : Ethanol, Eps=  24.852000 Eps(inf)=   1.852593
 ------------------------------------------------------------------------------
 Spheres list:
 ISph  on   Nord     Re0    Alpha      Xe            Ye            Ze
    1   C      1    1.9255  1.100     -1.648665      1.403565     -0.000000
    2   N      2    1.8300  1.100     -1.737895      0.042421     -0.000000
    3   C      3    1.9255  1.100     -0.469582     -0.341271      0.000000
    4   N      4    1.8300  1.100      0.329090      0.739737      0.000000
    5   N      5    1.8300  1.100     -0.412460      1.875251      0.000000
    6   H      6    1.4430  1.100     -0.098683     -1.353844     -0.000000
    7   H      7    1.4430  1.100     -2.507959      2.056051     -0.000000
    8   H      8    1.4430  1.100      1.338100      0.783501     -0.000000
 ------------------------------------------------------------------------------
 GePol: Number of generator spheres                  =       8
 GePol: Total number of spheres                      =       8
 GePol: Number of exposed spheres                    =       8 (100.00%)
 GePol: Number of points                             =     835
 GePol: Average weight of points                     =       0.14
 GePol: Minimum weight of points                     =   0.16D-06
 GePol: Maximum weight of points                     =    0.20577
 GePol: Number of points with low weight             =      29
 GePol: Fraction of low-weight points (<1% of avg)   =       3.47%
 GePol: Cavity surface area                          =    113.064 Ang**2
 GePol: Cavity volume                                =    100.410 Ang**3
 Leave Link  301 at Fri Jun  2 11:08:04 2023, MaxMem=  7381975040 cpu:               0.4 elap:               1.3
 (Enter /software/commercial/gaussian/g16/AVX/g16/l302.exe)
 NPDir=0 NMtPBC=     1 NCelOv=     1 NCel=       1 NClECP=     1 NCelD=      1
         NCelK=      1 NCelE2=     1 NClLst=     1 CellRange=     0.0.
 One-electron integrals computed using PRISM.
 NBasis=   128 RedAO= T EigKep=  1.27D-04  NBF=   128
 NBsUse=   128 1.00D-06 EigRej= -1.00D+00 NBFU=   128
 Precomputing XC quadrature grid using
 IXCGrd= 4 IRadAn=           5 IRanWt=          -1 IRanGd=           0 AccXCQ= 0.00D+00.
 Generated NRdTot=       0 NPtTot=           0 NUsed=           0 NTot=          32
 NSgBfM=   133   133   133   133   133 MxSgAt=     8 MxSgA2=     8.
 Leave Link  302 at Fri Jun  2 11:08:07 2023, MaxMem=  7381975040 cpu:               0.6 elap:               1.4
 (Enter /software/commercial/gaussian/g16/AVX/g16/l303.exe)
 DipDrv:  MaxL=1.
 Leave Link  303 at Fri Jun  2 11:08:09 2023, MaxMem=  7381975040 cpu:               0.2 elap:               1.4
 (Enter /software/commercial/gaussian/g16/AVX/g16/l401.exe)
 Initial guess from the checkpoint file:  "/scratch1/svicchi/G09-659775.pbs02/02-freq/124triz-H_dissociation-site_index-3-freq.chk"
 B after Tr=     0.000000    0.000000    0.000000
         Rot=    1.000000    0.000000    0.000000    0.000000 Ang=   0.00 deg.
 Guess basis will be translated and rotated to current coordinates.
 JPrj=2 DoOrth=T DoCkMO=T.
 Leave Link  401 at Fri Jun  2 11:08:11 2023, MaxMem=  7381975040 cpu:               0.4 elap:               1.0
 (Enter /software/commercial/gaussian/g16/AVX/g16/l502.exe)
 Keep R1 ints in memory in canonical form, NReq=36005155.
 FoFCou: FMM=F IPFlag=           0 FMFlag=           0 FMFlg1=           0
         NFxFlg=           0 DoJE=F BraDBF=F KetDBF=F FulRan=T
         wScrn=  0.000000 ICntrl=       600 IOpCl=  0 I1Cent=           0 NGrid=           0
         NMat0=    1 NMatS0=   8256 NMatT0=    0 NMatD0=    1 NMtDS0=    0 NMtDT0=    0
 Symmetry not used in FoFCou.
 Two-electron integral symmetry not used.
 Closed shell SCF:
 Using DIIS extrapolation, IDIIS=  1040.
 NGot=  7381975040 LenX=  7347852721 LenY=  7347834591
 Requested convergence on RMS density matrix=1.00D-08 within 350 cycles.
 Requested convergence on MAX density matrix=1.00D-06.
 Requested convergence on             energy=1.00D-06.
 No special actions if energy rises.

 Cycle   1  Pass 1  IDiag  1:
 Inv3:  Mode=1 IEnd=     2091675.
 Iteration    1 A*A^-1 deviation from unit magnitude is 3.11D-15 for    832.
 Iteration    1 A*A^-1 deviation from orthogonality  is 2.40D-15 for    818    275.
 Iteration    1 A^-1*A deviation from unit magnitude is 2.89D-15 for    832.
 Iteration    1 A^-1*A deviation from orthogonality  is 1.48D-15 for    815    177.
 E= -242.341240676402    
 DIIS: error= 3.99D-08 at cycle   1 NSaved=   1.
 NSaved= 1 IEnMin= 1 EnMin= -242.341240676402     IErMin= 1 ErrMin= 3.99D-08
 ErrMax= 3.99D-08  0.00D+00 EMaxC= 1.00D-01 BMatC= 1.49D-13 BMatP= 1.49D-13
 IDIUse=1 WtCom= 1.00D+00 WtEn= 0.00D+00
 Coeff-Com:  0.100D+01
 Coeff:      0.100D+01
 Gap=     0.273 Goal=   None    Shift=    0.000
 RMSDP=5.50D-09 MaxDP=1.22D-07              OVMax= 2.68D-07

 Error on total polarization charges =  0.01085
 SCF Done:  E(RB3LYP) =  -242.341240676     A.U. after    1 cycles
            NFock=  1  Conv=0.55D-08     -V/T= 2.0039
 KE= 2.413914098964D+02 PE=-8.959378483059D+02 EE= 2.468331763076D+02
 Leave Link  502 at Fri Jun  2 11:08:17 2023, MaxMem=  7381975040 cpu:               8.3 elap:               5.5
 (Enter /software/commercial/gaussian/g16/AVX/g16/l508.exe)
 QCSCF skips out because SCF is already converged.
 Leave Link  508 at Fri Jun  2 11:08:20 2023, MaxMem=  7381975040 cpu:               0.0 elap:               1.0
 (Enter /software/commercial/gaussian/g16/AVX/g16/l801.exe)
 DoSCS=F DFT=T ScalE2(SS,OS)=  1.000000  1.000000
 Range of M.O.s used for correlation:     1   128
 NBasis=   128 NAE=    18 NBE=    18 NFC=     0 NFV=     0
 NROrb=    128 NOA=    18 NOB=    18 NVA=   110 NVB=   110

 **** Warning!!: The largest alpha MO coefficient is  0.35790383D+02

 Leave Link  801 at Fri Jun  2 11:08:21 2023, MaxMem=  7381975040 cpu:               0.1 elap:               0.8
 (Enter /software/commercial/gaussian/g16/AVX/g16/l1002.exe)
 Minotr:  Closed shell wavefunction.
 NEqPCM:  Using equilibrium solvation (IEInf=0, Eps=  24.8520, EpsInf=   1.8526)
          Direct CPHF calculation.
          Differentiating once with respect to electric field.
                with respect to dipole field.
          Electric field/nuclear overlap derivatives assumed to be zero.
          Requested convergence is 1.0D-08 RMS, and 1.0D-07 maximum.
          Secondary convergence is 1.0D-12 RMS, and 1.0D-12 maximum.
          NewPWx=F KeepS1=T KeepF1=T KeepIn=T MapXYZ=F SortEE=F KeepMc=T.
         2427 words used for storage of precomputed grid.
 Keep R1 ints in memory in canonical form, NReq=37161166.
 FoFCou: FMM=F IPFlag=           0 FMFlag=           0 FMFlg1=           0
         NFxFlg=           0 DoJE=F BraDBF=F KetDBF=F FulRan=T
         wScrn=  0.000000 ICntrl=       600 IOpCl=  0 I1Cent=           0 NGrid=           0
         NMat0=    1 NMatS0=   8256 NMatT0=    0 NMatD0=    1 NMtDS0=    0 NMtDT0=    0
 Symmetry not used in FoFCou.
 Two-electron integral symmetry not used.
          MDV=    7381975040 using IRadAn=       1.
          Solving linear equations simultaneously, MaxMat=       0.
          There are     3 degrees of freedom in the 1st order CPHF.  IDoFFX=0 NUNeed=     3.
      3 vectors produced by pass  0 Test12= 6.60D-14 3.33D-08 XBig12= 4.65D+01 3.96D+00.
 AX will form     3 AO Fock derivatives at one time.
      3 vectors produced by pass  1 Test12= 6.60D-14 3.33D-08 XBig12= 2.61D+01 1.37D+00.
      3 vectors produced by pass  2 Test12= 6.60D-14 3.33D-08 XBig12= 1.83D+00 3.60D-01.
      3 vectors produced by pass  3 Test12= 6.60D-14 3.33D-08 XBig12= 4.80D-01 2.34D-01.
      3 vectors produced by pass  4 Test12= 6.60D-14 3.33D-08 XBig12= 3.29D-02 4.50D-02.
      3 vectors produced by pass  5 Test12= 6.60D-14 3.33D-08 XBig12= 1.21D-02 2.58D-02.
      3 vectors produced by pass  6 Test12= 6.60D-14 3.33D-08 XBig12= 6.74D-04 4.76D-03.
      3 vectors produced by pass  7 Test12= 6.60D-14 3.33D-08 XBig12= 1.35D-05 8.53D-04.
      3 vectors produced by pass  8 Test12= 6.60D-14 3.33D-08 XBig12= 2.97D-07 1.16D-04.
      2 vectors produced by pass  9 Test12= 6.60D-14 3.33D-08 XBig12= 1.22D-08 3.22D-05.
      2 vectors produced by pass 10 Test12= 6.60D-14 3.33D-08 XBig12= 3.96D-10 5.01D-06.
      1 vectors produced by pass 11 Test12= 6.60D-14 3.33D-08 XBig12= 3.85D-12 5.61D-07.
      1 vectors produced by pass 12 Test12= 6.60D-14 3.33D-08 XBig12= 6.28D-14 5.60D-08.
 InvSVY:  IOpt=1 It=  1 EMax= 1.17D-15
 Solved reduced A of dimension    33 with     3 vectors.
 End of Minotr F.D. properties file   721 does not exist.
 End of Minotr F.D. properties file   722 does not exist.
 End of Minotr F.D. properties file   788 does not exist.
 Leave Link 1002 at Fri Jun  2 11:08:46 2023, MaxMem=  7381975040 cpu:              41.3 elap:              23.3
 (Enter /software/commercial/gaussian/g16/AVX/g16/l1101.exe)
 Using compressed storage, NAtomX=     8.
 Will process      9 centers per pass.
 R6Disp: Adding Grimme-D3(BJ) dispersion energy 1st derivatives to the gradient.
 Leave Link 1101 at Fri Jun  2 11:08:47 2023, MaxMem=  7381975040 cpu:               0.6 elap:               0.8
 (Enter /software/commercial/gaussian/g16/AVX/g16/l1102.exe)
 Symmetrizing basis deriv contribution to polar:
 IMax=3 JMax=2 DiffMx= 0.00D+00
 Leave Link 1102 at Fri Jun  2 11:08:49 2023, MaxMem=  7381975040 cpu:               0.3 elap:               1.3
 (Enter /software/commercial/gaussian/g16/AVX/g16/l1110.exe)
 Forming Gx(P) for the SCF density, NAtomX=     8.
 Integral derivatives from FoFJK, PRISM(SPDF).
 Do as many integral derivatives as possible in FoFJK.
 G2DrvN: MDV=    7381974096.
 G2DrvN: will do     9 centers at a time, making    1 passes.
 PxScal for G2LodP:  IOpCl= 0 ISclPx=1 IMOff=     1 NMtTot=     4 NTT=    8256 ScalPx= 6.07D+00
 Calling FoFCou, ICntrl=  3107 FMM=F I1Cent=   0 AccDes= 0.00D+00.
 FoFJK:  IHMeth= 1 ICntrl=    3107 DoSepK=F KAlg= 0 I1Cent=           0 FoldK=F
 IRaf=         0 NMat=       1 IRICut=       1 DoRegI=T DoRafI=F ISym2E= 0 IDoP0=0 IntGTp=1.
 FoFCou: FMM=F IPFlag=           0 FMFlag=      100000 FMFlg1=           0
         NFxFlg=           0 DoJE=F BraDBF=F KetDBF=F FulRan=T
         wScrn=  0.000000 ICntrl=      3107 IOpCl=  0 I1Cent=           0 NGrid=           0
         NMat0=    1 NMatS0=      1 NMatT0=    0 NMatD0=    4 NMtDS0=    3 NMtDT0=    0
 Symmetry not used in FoFCou.
 PxScal for G2LodP:  IOpCl= 0 ISclPx=0 IMOff=     1 NMtTot=     4 NTT=    8256 ScalPx= 1.00D+00
 NEqPCM:  Using equilibrium solvation (IEInf=0, Eps=  24.8520, EpsInf=   1.8526)
 G2PCM: DoFxE=T DoFxN=T DoGrad=T DoDP/DQ/DG/TGxP=TFFF NFrqRd=   0 IEInf=0 SqF1=F DoCFld=F IF1Alg=4.
 GePol: Maximum number of non-zero 1st derivatives   =     204
 End of G2Drv F.D. properties file   721 does not exist.
 End of G2Drv F.D. properties file   722 does not exist.
 End of G2Drv F.D. properties file   788 does not exist.
 Leave Link 1110 at Fri Jun  2 11:09:48 2023, MaxMem=  7381975040 cpu:             112.6 elap:              57.6
 (Enter /software/commercial/gaussian/g16/AVX/g16/l1002.exe)
 Minotr:  Closed shell wavefunction.
          IDoAtm=11111111
 NEqPCM:  Using equilibrium solvation (IEInf=0, Eps=  24.8520, EpsInf=   1.8526)
          Direct CPHF calculation.
          Differentiating once with respect to electric field.
                with respect to dipole field.
          Differentiating once with respect to nuclear coordinates.
          Requested convergence is 1.0D-08 RMS, and 1.0D-07 maximum.
          Secondary convergence is 1.0D-12 RMS, and 1.0D-12 maximum.
          NewPWx=T KeepS1=F KeepF1=F KeepIn=T MapXYZ=F SortEE=F KeepMc=T.
         2427 words used for storage of precomputed grid.
 Keep R1 ints in memory in canonical form, NReq=37161350.
 FoFCou: FMM=F IPFlag=           0 FMFlag=           0 FMFlg1=           0
         NFxFlg=           0 DoJE=F BraDBF=F KetDBF=F FulRan=T
         wScrn=  0.000000 ICntrl=       600 IOpCl=  0 I1Cent=           0 NGrid=           0
         NMat0=    1 NMatS0=   8256 NMatT0=    0 NMatD0=    1 NMtDS0=    0 NMtDT0=    0
 Symmetry not used in FoFCou.
 Two-electron integral symmetry not used.
          MDV=    7381975040 using IRadAn=       1.
          Solving linear equations simultaneously, MaxMat=       0.
          There are    27 degrees of freedom in the 1st order CPHF.  IDoFFX=5 NUNeed=    27.
 Will reuse    3 saved solutions.
     21 vectors produced by pass  0 Test12= 7.33D-15 3.70D-09 XBig12= 1.35D-01 1.30D-01.
 AX will form    21 AO Fock derivatives at one time.
     21 vectors produced by pass  1 Test12= 7.33D-15 3.70D-09 XBig12= 4.37D-02 9.66D-02.
     21 vectors produced by pass  2 Test12= 7.33D-15 3.70D-09 XBig12= 7.02D-04 5.60D-03.
     21 vectors produced by pass  3 Test12= 7.33D-15 3.70D-09 XBig12= 5.96D-06 4.37D-04.
     21 vectors produced by pass  4 Test12= 7.33D-15 3.70D-09 XBig12= 2.05D-08 2.02D-05.
     21 vectors produced by pass  5 Test12= 7.33D-15 3.70D-09 XBig12= 4.43D-11 1.34D-06.
      9 vectors produced by pass  6 Test12= 7.33D-15 3.70D-09 XBig12= 7.16D-14 5.49D-08.
 InvSVY:  IOpt=1 It=  1 EMax= 1.11D-15
 Solved reduced A of dimension   135 with    21 vectors.
 FullF1:  Do perturbations      1 to       3.
 Isotropic polarizability for W=    0.000000       52.29 Bohr**3.
 FullF1:  Do perturbations      1 to       6.
 End of Minotr F.D. properties file   721 does not exist.
 End of Minotr F.D. properties file   722 does not exist.
 End of Minotr F.D. properties file   788 does not exist.
 Leave Link 1002 at Fri Jun  2 11:10:45 2023, MaxMem=  7381975040 cpu:             102.6 elap:              55.5
 (Enter /software/commercial/gaussian/g16/AVX/g16/l601.exe)
 Copying SCF densities to generalized density rwf, IOpCl= 0 IROHF=0.

 **********************************************************************

            Population analysis using the SCF Density.

 **********************************************************************

 Alpha  occ. eigenvalues --  -14.41027 -14.35605 -14.32269 -10.25419 -10.23246
 Alpha  occ. eigenvalues --   -1.09496  -0.91107  -0.84672  -0.65587  -0.63509
 Alpha  occ. eigenvalues --   -0.58052  -0.48195  -0.47785  -0.44065  -0.35172
 Alpha  occ. eigenvalues --   -0.31768  -0.30234  -0.28891
 Alpha virt. eigenvalues --   -0.01594   0.00910   0.02051   0.03127   0.03847
 Alpha virt. eigenvalues --    0.05494   0.05595   0.05816   0.08552   0.09417
 Alpha virt. eigenvalues --    0.12147   0.13076   0.15223   0.15947   0.16565
 Alpha virt. eigenvalues --    0.19175   0.19604   0.19839   0.20677   0.20794
 Alpha virt. eigenvalues --    0.22219   0.22705   0.23337   0.24706   0.27038
 Alpha virt. eigenvalues --    0.28926   0.31399   0.40184   0.42283   0.44161
 Alpha virt. eigenvalues --    0.50304   0.53222   0.55094   0.55390   0.59539
 Alpha virt. eigenvalues --    0.63429   0.67725   0.71058   0.75813   0.77595
 Alpha virt. eigenvalues --    0.78272   0.82015   0.82946   0.83881   0.86017
 Alpha virt. eigenvalues --    0.86868   0.89239   0.93780   0.98591   1.01700
 Alpha virt. eigenvalues --    1.02615   1.11601   1.16532   1.19889   1.22309
 Alpha virt. eigenvalues --    1.28424   1.30555   1.38429   1.40712   1.60407
 Alpha virt. eigenvalues --    1.62870   1.65733   1.70142   1.72734   1.76539
 Alpha virt. eigenvalues --    1.81960   1.85082   1.91074   1.95500   2.03100
 Alpha virt. eigenvalues --    2.15276   2.26959   2.28546   2.29545   2.37161
 Alpha virt. eigenvalues --    2.41068   2.42341   2.52545   2.56207   2.62276
 Alpha virt. eigenvalues --    2.66359   2.67063   2.73095   2.76752   2.79473
 Alpha virt. eigenvalues --    2.83519   2.85393   2.86162   2.93280   3.03410
 Alpha virt. eigenvalues --    3.09979   3.32827   3.48688   3.54437   3.62844
 Alpha virt. eigenvalues --    3.69985   3.72785   3.88800   3.93404   4.03374
 Alpha virt. eigenvalues --    4.39733   4.57235   4.75470   5.01991   5.42191
 Alpha virt. eigenvalues --   23.88300  23.91791  35.44872  35.54020  35.64313
     Molecular Orbital Coefficients:
                           1         2         3         4         5
                           O         O         O         O         O
     Eigenvalues --   -14.41027 -14.35605 -14.32269 -10.25419 -10.23246
   1 1   C  1S         -0.00001  -0.00000   0.00001  -0.00006   0.56289
   2        2S          0.00001   0.00009   0.00003  -0.00004   0.46327
   3        2PX        -0.00004   0.00047  -0.00008  -0.00004   0.00019
   4        2PY         0.00011   0.00024  -0.00044   0.00006  -0.00020
   5        2PZ        -0.00000   0.00000   0.00000  -0.00000   0.00000
   6        3S         -0.00040   0.00038   0.00031  -0.00029   0.01907
   7        3PX        -0.00018  -0.00155   0.00016   0.00021   0.00002
   8        3PY        -0.00040  -0.00074   0.00115  -0.00049   0.00055
   9        3PZ         0.00000  -0.00000   0.00000   0.00000   0.00000
  10        4S          0.00195   0.00377   0.00372   0.00262  -0.00929
  11        4PX        -0.00024   0.00395   0.00106   0.00282  -0.00189
  12        4PY        -0.00145  -0.00036  -0.00315  -0.00229   0.00142
  13        4PZ         0.00000  -0.00000  -0.00000   0.00000  -0.00000
  14        5S          0.00446  -0.01206  -0.00247   0.00802  -0.01439
  15        5PX         0.00006  -0.00238   0.00029   0.00055  -0.00141
  16        5PY        -0.00223   0.00276   0.00089  -0.00329   0.00300
  17        5PZ        -0.00000  -0.00000  -0.00000   0.00000  -0.00000
  18        6D 0       -0.00026   0.00027   0.00008  -0.00012  -0.00182
  19        6D+1        0.00000  -0.00000  -0.00000   0.00000  -0.00000
  20        6D-1        0.00000  -0.00000   0.00000  -0.00000   0.00000
  21        6D+2       -0.00002  -0.00105   0.00113  -0.00006   0.00044
  22        6D-2       -0.00047  -0.00101  -0.00022  -0.00022  -0.00057
  23 2   N  1S         -0.00006  -0.00018   0.55735  -0.00007  -0.00005
  24        2S         -0.00000  -0.00009   0.46580  -0.00002  -0.00005
  25        2PX         0.00009   0.00002   0.00118   0.00054   0.00009
  26        2PY        -0.00003   0.00010   0.00080  -0.00007   0.00043
  27        2PZ         0.00000  -0.00000   0.00000  -0.00000  -0.00000
  28        3S         -0.00001  -0.00016   0.01583   0.00075   0.00084
  29        3PX        -0.00060  -0.00014   0.00117  -0.00166  -0.00029
  30        3PY         0.00013  -0.00056   0.00043   0.00017  -0.00100
  31        3PZ        -0.00000  -0.00000   0.00000   0.00000  -0.00000
  32        4S         -0.00431  -0.00155  -0.01444  -0.00546  -0.00359
  33        4PX        -0.00142  -0.00087  -0.00268  -0.00215  -0.00049
  34        4PY        -0.00101  -0.00034  -0.00167  -0.00023  -0.00136
  35        4PZ         0.00000   0.00000  -0.00000  -0.00000   0.00000
  36        5S         -0.00401  -0.00135   0.00350   0.00596   0.00679
  37        5PX        -0.00004  -0.00199  -0.00005   0.00387   0.00010
  38        5PY        -0.00246   0.00168   0.00024  -0.00146   0.00427
  39        5PZ        -0.00000   0.00000  -0.00000   0.00000   0.00000
  40        6D 0        0.00011   0.00012  -0.00045   0.00085   0.00069
  41        6D+1       -0.00000   0.00000  -0.00000  -0.00000   0.00000
  42        6D-1        0.00000  -0.00000   0.00000   0.00000   0.00000
  43        6D+2       -0.00021   0.00018   0.00006  -0.00090   0.00072
  44        6D-2        0.00009  -0.00014  -0.00031   0.00035  -0.00020
  45 3   C  1S          0.00000  -0.00000  -0.00000   0.56291   0.00006
  46        2S          0.00006   0.00001   0.00009   0.46323   0.00005
  47        2PX         0.00038   0.00006  -0.00053   0.00027   0.00003
  48        2PY         0.00032  -0.00000   0.00006   0.00046  -0.00003
  49        2PZ         0.00000   0.00000  -0.00000  -0.00000   0.00000
  50        3S          0.00046  -0.00015   0.00025   0.01917  -0.00021
  51        3PX        -0.00127  -0.00030   0.00178  -0.00047  -0.00024
  52        3PY        -0.00076  -0.00037  -0.00017  -0.00019   0.00027
  53        3PZ        -0.00000   0.00000   0.00000   0.00000  -0.00000
  54        4S          0.00589   0.00095   0.00558  -0.00713   0.00174
  55        4PX        -0.00064  -0.00000  -0.00313   0.00037  -0.00083
  56        4PY         0.00517  -0.00159   0.00323  -0.00132   0.00250
  57        4PZ        -0.00000  -0.00000   0.00000   0.00000  -0.00000
  58        5S         -0.00532   0.00906   0.00024  -0.01482   0.00660
  59        5PX         0.00139  -0.00214   0.00004   0.00163  -0.00315
  60        5PY        -0.00098   0.00194   0.00078  -0.00251   0.00102
  61        5PZ        -0.00000  -0.00000   0.00000  -0.00000  -0.00000
  62        6D 0        0.00024  -0.00014   0.00021  -0.00194  -0.00009
  63        6D+1       -0.00000  -0.00000  -0.00000  -0.00000   0.00000
  64        6D-1       -0.00000  -0.00000   0.00000  -0.00000  -0.00000
  65        6D+2        0.00040  -0.00008  -0.00124  -0.00051  -0.00003
  66        6D-2       -0.00126  -0.00040   0.00079  -0.00082  -0.00013
  67 4   N  1S          0.55736  -0.00113   0.00005  -0.00006   0.00000
  68        2S          0.46566  -0.00093   0.00009  -0.00006  -0.00000
  69        2PX        -0.00013  -0.00016  -0.00002  -0.00032   0.00006
  70        2PY         0.00033   0.00026  -0.00010  -0.00037  -0.00000
  71        2PZ         0.00000   0.00000  -0.00000  -0.00000   0.00000
  72        3S          0.01628  -0.00014  -0.00014   0.00085   0.00001
  73        3PX         0.00012   0.00033   0.00029   0.00085  -0.00026
  74        3PY        -0.00071  -0.00050   0.00055   0.00094   0.00009
  75        3PZ        -0.00000  -0.00000   0.00000   0.00000  -0.00000
  76        4S         -0.01190   0.00446  -0.00114  -0.00246  -0.00030
  77        4PX         0.00601  -0.00179   0.00245   0.00169  -0.00027
  78        4PY         0.00045   0.00161   0.00032   0.00129   0.00009
  79        4PZ         0.00000   0.00000  -0.00000  -0.00000  -0.00000
  80        5S          0.00954  -0.01553  -0.00423   0.01983  -0.01434
  81        5PX        -0.00371   0.00182   0.00188  -0.00246   0.00554
  82        5PY         0.00210  -0.00394  -0.00100   0.00102  -0.00330
  83        5PZ         0.00000   0.00000  -0.00000   0.00000   0.00000
  84        6D 0       -0.00077   0.00006   0.00000   0.00065  -0.00002
  85        6D+1        0.00000  -0.00000   0.00000  -0.00000   0.00000
  86        6D-1       -0.00000   0.00000  -0.00000  -0.00000  -0.00000
  87        6D+2        0.00060   0.00019   0.00023   0.00017   0.00011
  88        6D-2        0.00037   0.00046  -0.00031  -0.00083  -0.00004
  89 5   N  1S          0.00111   0.55737   0.00017   0.00000  -0.00008
  90        2S          0.00095   0.46586   0.00021  -0.00000  -0.00003
  91        2PX         0.00017  -0.00010  -0.00007   0.00001  -0.00051
  92        2PY        -0.00022  -0.00178  -0.00002   0.00004  -0.00024
  93        2PZ        -0.00000  -0.00000  -0.00000  -0.00000  -0.00000
  94        3S          0.00005   0.01563  -0.00024   0.00001   0.00067
  95        3PX        -0.00028  -0.00122   0.00048   0.00002   0.00157
  96        3PY         0.00028  -0.00037   0.00016  -0.00015   0.00072
  97        3PZ         0.00000   0.00000   0.00000   0.00000   0.00000
  98        4S          0.00315  -0.01522  -0.00039  -0.00082  -0.00332
  99        4PX        -0.00013   0.00099  -0.00004  -0.00028   0.00085
 100        4PY        -0.00160   0.00300   0.00047   0.00034   0.00034
 101        4PZ        -0.00000  -0.00000   0.00000  -0.00000   0.00000
 102        5S         -0.00691   0.02090   0.00268  -0.01409   0.02167
 103        5PX        -0.00160   0.00195   0.00007  -0.00122  -0.00053
 104        5PY         0.00260  -0.00512  -0.00036   0.00507  -0.00542
 105        5PZ        -0.00000  -0.00000   0.00000  -0.00000   0.00000
 106        6D 0        0.00020  -0.00030   0.00006  -0.00005   0.00079
 107        6D+1       -0.00000  -0.00000   0.00000   0.00000  -0.00000
 108        6D-1        0.00000   0.00000  -0.00000   0.00000  -0.00000
 109        6D+2        0.00019   0.00039  -0.00012  -0.00008  -0.00065
 110        6D-2        0.00036   0.00022  -0.00018   0.00008  -0.00070
 111 6   H  1S         -0.00021  -0.00001  -0.00018   0.00004  -0.00011
 112        2S          0.00046  -0.00090  -0.00008  -0.00432   0.00081
 113        3S          0.00164  -0.00040   0.00157   0.00191   0.00108
 114        4PX        -0.00018   0.00009   0.00048   0.00086  -0.00005
 115        4PY        -0.00029  -0.00022  -0.00019  -0.00240   0.00008
 116        4PZ         0.00000   0.00000   0.00000  -0.00000   0.00000
 117 7   H  1S         -0.00010  -0.00025  -0.00018  -0.00016   0.00008
 118        2S         -0.00024  -0.00009  -0.00024   0.00105  -0.00430
 119        3S          0.00066   0.00088   0.00097   0.00146   0.00132
 120        4PX        -0.00008  -0.00050  -0.00008   0.00009  -0.00198
 121        4PY         0.00016  -0.00002   0.00047  -0.00007   0.00153
 122        4PZ        -0.00000  -0.00000   0.00000  -0.00000   0.00000
 123 8   H  1S          0.00016  -0.00008  -0.00002   0.00002  -0.00008
 124        2S         -0.00430  -0.00030  -0.00108  -0.00067   0.00054
 125        3S          0.00232   0.00135  -0.00057  -0.00176  -0.00145
 126        4PX         0.00202   0.00022   0.00024   0.00016  -0.00005
 127        4PY         0.00009  -0.00017   0.00001  -0.00010  -0.00001
 128        4PZ        -0.00000  -0.00000  -0.00000  -0.00000  -0.00000
                           6         7         8         9        10
                           O         O         O         O         O
     Eigenvalues --    -1.09496  -0.91107  -0.84672  -0.65587  -0.63509
   1 1   C  1S         -0.04031  -0.03421  -0.05732   0.02447  -0.06849
   2        2S         -0.06161  -0.05284  -0.08834   0.03833  -0.10688
   3        2PX         0.03646  -0.01628   0.05038   0.07542  -0.02894
   4        2PY        -0.01537  -0.05805   0.02858   0.06544   0.04982
   5        2PZ        -0.00000  -0.00000  -0.00000   0.00000   0.00000
   6        3S          0.15677   0.14020   0.23612  -0.10733   0.29628
   7        3PX         0.05337  -0.02061   0.07049   0.10276  -0.03862
   8        3PY        -0.02359  -0.08700   0.03684   0.09255   0.06744
   9        3PZ         0.00000  -0.00000   0.00000   0.00000  -0.00000
  10        4S          0.04897   0.06951   0.11687  -0.07572   0.21181
  11        4PX        -0.00029   0.00382   0.01463   0.02290  -0.00909
  12        4PY         0.00383  -0.01063  -0.00014   0.02565   0.02000
  13        4PZ        -0.00000  -0.00000  -0.00000   0.00000  -0.00000
  14        5S          0.03786   0.01015   0.09680  -0.03088   0.01296
  15        5PX         0.01190  -0.00337   0.01848   0.00663  -0.01047
  16        5PY        -0.00308  -0.00459  -0.01956   0.01803   0.00286
  17        5PZ        -0.00000  -0.00000  -0.00000   0.00000  -0.00000
  18        6D 0       -0.01237  -0.00768  -0.00981   0.00073  -0.00523
  19        6D+1       -0.00000  -0.00000  -0.00000  -0.00000   0.00000
  20        6D-1        0.00000   0.00000  -0.00000  -0.00000  -0.00000
  21        6D+2        0.00495  -0.02109   0.01205   0.01652   0.00028
  22        6D-2       -0.00320  -0.00593   0.00945  -0.00275   0.00532
  23 2   N  1S         -0.03844  -0.08963   0.00886   0.03762   0.02824
  24        2S         -0.05990  -0.14080   0.01396   0.05988   0.04500
  25        2PX         0.03091   0.04842  -0.02354   0.05245  -0.04784
  26        2PY         0.01859   0.02725   0.02769  -0.06849   0.05374
  27        2PZ         0.00000   0.00000   0.00000  -0.00000   0.00000
  28        3S          0.15902   0.38749  -0.03910  -0.17152  -0.12797
  29        3PX         0.04562   0.07079  -0.03568   0.07517  -0.06893
  30        3PY         0.02786   0.04127   0.04153  -0.10305   0.07810
  31        3PZ         0.00000   0.00000   0.00000   0.00000   0.00000
  32        4S          0.11298   0.25406  -0.02571  -0.15166  -0.11782
  33        4PX         0.02342   0.02441  -0.01003   0.03716  -0.03547
  34        4PY         0.01286   0.01491   0.01258  -0.04723   0.03800
  35        4PZ         0.00000  -0.00000   0.00000  -0.00000   0.00000
  36        5S         -0.01989  -0.06769  -0.00578  -0.01379   0.00099
  37        5PX        -0.00324  -0.01750   0.00669  -0.02095   0.00468
  38        5PY        -0.00211  -0.01103  -0.01567   0.01179  -0.01516
  39        5PZ         0.00000   0.00000   0.00000  -0.00000   0.00000
  40        6D 0       -0.00659  -0.00886   0.00052   0.00037   0.00144
  41        6D+1       -0.00000  -0.00000   0.00000  -0.00000   0.00000
  42        6D-1        0.00000   0.00000   0.00000  -0.00000   0.00000
  43        6D+2        0.00187   0.00066  -0.00932   0.01540  -0.01007
  44        6D-2        0.00244  -0.00181   0.00400  -0.00111   0.00448
  45 3   C  1S         -0.04457  -0.03491   0.05826  -0.06323  -0.01137
  46        2S         -0.06806  -0.05387   0.08997  -0.09880  -0.01782
  47        2PX        -0.00268  -0.07406  -0.02683   0.02199   0.11024
  48        2PY         0.04344   0.00459  -0.02620  -0.00140   0.00714
  49        2PZ        -0.00000  -0.00000  -0.00000   0.00000   0.00000
  50        3S          0.17375   0.14475  -0.24310   0.27551   0.04866
  51        3PX        -0.00250  -0.10521  -0.03817   0.03091   0.15447
  52        3PY         0.06083   0.00828  -0.03942   0.00102   0.01285
  53        3PZ         0.00000  -0.00000   0.00000   0.00000   0.00000
  54        4S          0.03303   0.06462  -0.12127   0.17684   0.03404
  55        4PX         0.00851  -0.01202  -0.00432   0.00495   0.04113
  56        4PY        -0.01410   0.00367  -0.01210   0.00020   0.00087
  57        4PZ        -0.00000   0.00000  -0.00000   0.00000  -0.00000
  58        5S          0.02082   0.01773  -0.08734   0.05374  -0.00009
  59        5PX         0.00133  -0.00046   0.01420   0.00005   0.01957
  60        5PY         0.00624   0.00094  -0.01884   0.00595   0.00146
  61        5PZ        -0.00000   0.00000  -0.00000   0.00000  -0.00000
  62        6D 0       -0.01308  -0.00740   0.00929  -0.00770  -0.00107
  63        6D+1       -0.00000  -0.00000   0.00000  -0.00000   0.00000
  64        6D-1       -0.00000   0.00000   0.00000  -0.00000  -0.00000
  65        6D+2       -0.00558   0.01097  -0.00413  -0.01131  -0.00411
  66        6D-2        0.00140  -0.02151  -0.01162   0.00378   0.01356
  67 4   N  1S         -0.07664   0.05615   0.05544   0.02961  -0.00736
  68        2S         -0.12027   0.08876   0.08766   0.04720  -0.01163
  69        2PX        -0.03939  -0.01353  -0.02604  -0.12923   0.03645
  70        2PY         0.01208  -0.03289   0.07798  -0.06689  -0.13669
  71        2PZ        -0.00000   0.00000   0.00000   0.00000   0.00000
  72        3S          0.33017  -0.25149  -0.24815  -0.13673   0.03002
  73        3PX        -0.06282  -0.01767  -0.04000  -0.18841   0.05563
  74        3PY         0.02252  -0.05440   0.11615  -0.09767  -0.20396
  75        3PZ         0.00000  -0.00000  -0.00000  -0.00000   0.00000
  76        4S          0.20696  -0.17662  -0.19093  -0.13611   0.02325
  77        4PX        -0.04074  -0.00571  -0.01608  -0.10134   0.04384
  78        4PY        -0.00043  -0.01475   0.04304  -0.05808  -0.12094
  79        4PZ         0.00000  -0.00000  -0.00000   0.00000  -0.00000
  80        5S         -0.02217   0.00775   0.13052  -0.06531  -0.00720
  81        5PX         0.01128  -0.02670  -0.03991  -0.02541  -0.01061
  82        5PY         0.00600   0.00404   0.01131   0.00205   0.01424
  83        5PZ         0.00000  -0.00000   0.00000  -0.00000   0.00000
  84        6D 0       -0.01268   0.00536   0.00285   0.00073   0.00122
  85        6D+1       -0.00000   0.00000  -0.00000  -0.00000   0.00000
  86        6D-1       -0.00000  -0.00000   0.00000  -0.00000  -0.00000
  87        6D+2        0.00130   0.00355  -0.00045  -0.00590   0.00304
  88        6D-2       -0.00406   0.00748  -0.01586   0.00237   0.01034
  89 5   N  1S         -0.06145   0.03486  -0.07106  -0.02163   0.02010
  90        2S         -0.09618   0.05499  -0.11212  -0.03438   0.03216
  91        2PX        -0.00301  -0.02937  -0.05781  -0.05786  -0.10560
  92        2PY        -0.05470   0.02522  -0.01981  -0.00543   0.04381
  93        2PZ         0.00000  -0.00000   0.00000  -0.00000  -0.00000
  94        3S          0.26265  -0.15459   0.31644   0.09745  -0.09714
  95        3PX        -0.00194  -0.04852  -0.08311  -0.08574  -0.15684
  96        3PY        -0.08711   0.04117  -0.03267  -0.00944   0.06859
  97        3PZ         0.00000  -0.00000   0.00000   0.00000  -0.00000
  98        4S          0.14409  -0.10462   0.22741   0.09551  -0.07016
  99        4PX        -0.00359  -0.00964  -0.02996  -0.03937  -0.06457
 100        4PY        -0.02118   0.01171  -0.01492  -0.00855   0.02360
 101        4PZ        -0.00000   0.00000   0.00000   0.00000   0.00000
 102        5S         -0.05483  -0.00410  -0.14976   0.00742  -0.01401
 103        5PX         0.00604   0.00307   0.00268   0.01239   0.00447
 104        5PY         0.01027  -0.00087   0.03912  -0.00851  -0.00373
 105        5PZ        -0.00000   0.00000   0.00000  -0.00000  -0.00000
 106        6D 0       -0.01144   0.00411  -0.00546  -0.00166   0.00226
 107        6D+1       -0.00000   0.00000  -0.00000  -0.00000  -0.00000
 108        6D-1        0.00000  -0.00000  -0.00000  -0.00000  -0.00000
 109        6D+2       -0.00589   0.00288   0.00792  -0.00280   0.01126
 110        6D-2       -0.00342   0.01201   0.00889   0.00977   0.01490
 111 6   H  1S          0.00910   0.01021  -0.03380   0.06296   0.02865
 112        2S          0.00324   0.01022  -0.03964   0.07777   0.03817
 113        3S         -0.00797  -0.00118  -0.00050   0.01023   0.00144
 114        4PX         0.00029  -0.00405   0.00158  -0.00147   0.00249
 115        4PY         0.00058  -0.00024  -0.00812   0.00937   0.00690
 116        4PZ         0.00000  -0.00000   0.00000  -0.00000  -0.00000
 117 7   H  1S          0.00742   0.01236   0.02890  -0.03365   0.09391
 118        2S          0.00393   0.01406   0.03210  -0.04545   0.11756
 119        3S         -0.00379   0.00080   0.00440  -0.00189   0.01248
 120        4PX         0.00056   0.00009   0.00653  -0.00356   0.01315
 121        4PY         0.00011  -0.00454  -0.00163   0.00804  -0.00903
 122        4PZ         0.00000   0.00000   0.00000  -0.00000   0.00000
 123 8   H  1S          0.03277  -0.04999  -0.05824  -0.11779   0.02988
 124        2S          0.03962  -0.04930  -0.05593  -0.13311   0.02812
 125        3S         -0.00817   0.02239   0.01079   0.01992   0.00700
 126        4PX        -0.01013   0.01155   0.01125   0.01769  -0.00391
 127        4PY        -0.00007  -0.00045   0.00466  -0.00174  -0.00697
 128        4PZ        -0.00000   0.00000   0.00000   0.00000   0.00000
                          11        12        13        14        15
                           O         O         O         O         O
     Eigenvalues --    -0.58052  -0.48195  -0.47785  -0.44065  -0.35172
   1 1   C  1S         -0.00006  -0.00789   0.00000   0.00067   0.03300
   2        2S          0.00005  -0.01256   0.00000   0.00100   0.05317
   3        2PX         0.00265  -0.13407   0.00000  -0.11270  -0.02680
   4        2PY         0.07748  -0.02627   0.00000   0.13863  -0.00836
   5        2PZ         0.00000   0.00000   0.08841   0.00000  -0.00000
   6        3S          0.00021   0.03015  -0.00000  -0.01523  -0.15887
   7        3PX        -0.00022  -0.18997   0.00000  -0.15647  -0.05128
   8        3PY         0.10959  -0.03760  -0.00000   0.19693  -0.00528
   9        3PZ        -0.00000   0.00000   0.13883   0.00000  -0.00000
  10        4S         -0.01702   0.04683  -0.00000   0.02156  -0.21994
  11        4PX        -0.01634  -0.10452   0.00000  -0.09346  -0.05157
  12        4PY         0.04827  -0.01735   0.00000   0.11749   0.02083
  13        4PZ         0.00000   0.00000   0.08571   0.00000  -0.00000
  14        5S         -0.04116   0.02728   0.00000  -0.02806  -0.07820
  15        5PX        -0.00363  -0.01348   0.00000  -0.00608  -0.02396
  16        5PY         0.02077  -0.02008  -0.00000   0.02970   0.00929
  17        5PZ         0.00000  -0.00000   0.01500  -0.00000  -0.00000
  18        6D 0        0.00441   0.00153  -0.00000   0.00183   0.00464
  19        6D+1       -0.00000   0.00000   0.01980   0.00000   0.00000
  20        6D-1       -0.00000  -0.00000  -0.01083  -0.00000   0.00000
  21        6D+2        0.00214  -0.00110   0.00000   0.00593  -0.01652
  22        6D-2        0.01254  -0.00616   0.00000  -0.02031   0.03421
  23 2   N  1S         -0.01274   0.00502  -0.00000   0.00307  -0.03774
  24        2S         -0.02032   0.00803  -0.00000   0.00484  -0.06068
  25        2PX         0.01577  -0.08297   0.00000   0.06814  -0.11449
  26        2PY        -0.09121   0.03759  -0.00000  -0.11832  -0.02798
  27        2PZ        -0.00000   0.00000   0.09160  -0.00000  -0.00000
  28        3S          0.05976  -0.02406   0.00000  -0.01360   0.17524
  29        3PX         0.02304  -0.12310   0.00000   0.09889  -0.15971
  30        3PY        -0.13132   0.05258  -0.00000  -0.17395  -0.03977
  31        3PZ        -0.00000   0.00000   0.13763  -0.00000  -0.00000
  32        4S          0.04554  -0.02006  -0.00000  -0.02928   0.26766
  33        4PX         0.00435  -0.07400  -0.00000   0.04918  -0.12617
  34        4PY        -0.07349   0.02964   0.00000  -0.10084  -0.02221
  35        4PZ        -0.00000   0.00000   0.10314  -0.00000  -0.00000
  36        5S          0.02509  -0.01821   0.00000  -0.01219   0.13647
  37        5PX        -0.00105   0.01107   0.00000  -0.00731  -0.00219
  38        5PY         0.02577  -0.01563  -0.00000   0.01056  -0.00468
  39        5PZ        -0.00000  -0.00000  -0.01921  -0.00000  -0.00000
  40        6D 0        0.00262   0.00184   0.00000   0.00002   0.00719
  41        6D+1       -0.00000   0.00000   0.01466  -0.00000  -0.00000
  42        6D-1       -0.00000   0.00000   0.00846  -0.00000  -0.00000
  43        6D+2        0.00494  -0.01467   0.00000   0.02265  -0.00175
  44        6D-2       -0.01438  -0.01001   0.00000  -0.01277  -0.00398
  45 3   C  1S         -0.02986  -0.01557   0.00000  -0.00633   0.00480
  46        2S         -0.04680  -0.02484   0.00000  -0.00995   0.00778
  47        2PX        -0.05240   0.07523  -0.00000  -0.09389   0.07253
  48        2PY        -0.14377  -0.08867   0.00000   0.09822   0.05805
  49        2PZ        -0.00000   0.00000   0.10566  -0.00000   0.00000
  50        3S          0.12801   0.06601  -0.00000   0.04118  -0.01658
  51        3PX        -0.07178   0.10505  -0.00000  -0.13060   0.11327
  52        3PY        -0.19636  -0.12204   0.00000   0.13730   0.08420
  53        3PZ         0.00000   0.00000   0.16534  -0.00000  -0.00000
  54        4S          0.16000   0.10309   0.00000   0.01963  -0.01739
  55        4PX        -0.02399   0.05341   0.00000  -0.08610   0.05315
  56        4PY        -0.04982  -0.06915   0.00000   0.08409   0.05992
  57        4PZ         0.00000   0.00000   0.09329   0.00000   0.00000
  58        5S          0.02888  -0.00395  -0.00000   0.03407   0.00417
  59        5PX        -0.02369   0.01786   0.00000  -0.02722   0.01185
  60        5PY        -0.00832  -0.00413  -0.00000   0.01011   0.00825
  61        5PZ        -0.00000   0.00000   0.01722   0.00000   0.00000
  62        6D 0        0.00263   0.00129  -0.00000   0.00009   0.00279
  63        6D+1        0.00000   0.00000  -0.00216  -0.00000   0.00000
  64        6D-1       -0.00000   0.00000   0.02474   0.00000   0.00000
  65        6D+2        0.02034  -0.01987   0.00000   0.01132   0.01220
  66        6D-2       -0.00718  -0.00100   0.00000   0.01433   0.02731
  67 4   N  1S          0.01280   0.00020  -0.00000  -0.01380   0.00334
  68        2S          0.02057   0.00006  -0.00000  -0.02241   0.00526
  69        2PX         0.13537  -0.10653   0.00000  -0.04558  -0.02578
  70        2PY         0.04965   0.07776  -0.00000   0.00584  -0.10413
  71        2PZ        -0.00000   0.00000   0.16316   0.00000   0.00000
  72        3S         -0.06047   0.00736   0.00000   0.07111  -0.01320
  73        3PX         0.19752  -0.15523   0.00000  -0.06785  -0.03004
  74        3PY         0.07116   0.11784  -0.00000   0.01083  -0.15713
  75        3PZ         0.00000   0.00000   0.24926   0.00000   0.00000
  76        4S         -0.08143  -0.00153  -0.00000   0.08898  -0.05329
  77        4PX         0.15686  -0.08926   0.00000  -0.04359   0.02884
  78        4PY         0.04219   0.08010   0.00000   0.03107  -0.11261
  79        4PZ        -0.00000   0.00000   0.20148   0.00000   0.00000
  80        5S         -0.02520  -0.00992  -0.00000  -0.00620  -0.07765
  81        5PX         0.04314  -0.01650   0.00000   0.00143   0.00824
  82        5PY        -0.01296   0.02036  -0.00000  -0.02014  -0.01213
  83        5PZ         0.00000  -0.00000   0.00050  -0.00000  -0.00000
  84        6D 0        0.00187  -0.00007   0.00000   0.00122   0.00298
  85        6D+1        0.00000  -0.00000  -0.01556  -0.00000  -0.00000
  86        6D-1        0.00000   0.00000   0.00273   0.00000  -0.00000
  87        6D+2       -0.00150  -0.02141   0.00000   0.00200  -0.01736
  88        6D-2       -0.00467  -0.00703  -0.00000   0.00735   0.01080
  89 5   N  1S         -0.03104   0.00096  -0.00000   0.00936  -0.04982
  90        2S         -0.04958   0.00156  -0.00000   0.01503  -0.08001
  91        2PX        -0.01486   0.13364  -0.00000   0.04491   0.04839
  92        2PY         0.05716  -0.03979   0.00000   0.02335   0.17019
  93        2PZ        -0.00000   0.00000   0.12049   0.00000  -0.00000
  94        3S          0.14292  -0.00140   0.00000  -0.04486   0.22747
  95        3PX        -0.02085   0.19752  -0.00000   0.06539   0.06999
  96        3PY         0.08435  -0.06407   0.00000   0.03680   0.24439
  97        3PZ        -0.00000   0.00000   0.18412   0.00000   0.00000
  98        4S          0.16905   0.00914  -0.00000  -0.06495   0.38880
  99        4PX        -0.00890   0.10259  -0.00000   0.02734   0.04922
 100        4PY         0.03228  -0.03402   0.00000   0.03507   0.16552
 101        4PZ         0.00000   0.00000   0.12872  -0.00000  -0.00000
 102        5S          0.07564   0.00485   0.00000   0.01813   0.21050
 103        5PX         0.00069  -0.01337   0.00000   0.01893   0.00081
 104        5PY        -0.02065   0.00723  -0.00000  -0.01367   0.00563
 105        5PZ        -0.00000   0.00000  -0.00361   0.00000   0.00000
 106        6D 0        0.00307  -0.00071   0.00000   0.00035   0.01155
 107        6D+1       -0.00000   0.00000  -0.00247   0.00000   0.00000
 108        6D-1       -0.00000  -0.00000  -0.02338   0.00000  -0.00000
 109        6D+2        0.01881  -0.01377  -0.00000   0.00179   0.00687
 110        6D-2       -0.00312  -0.02030   0.00000  -0.01639  -0.00576
 111 6   H  1S          0.10642   0.10476  -0.00000  -0.09826  -0.04446
 112        2S          0.14528   0.14193   0.00000  -0.14003  -0.06595
 113        3S          0.02197   0.02888  -0.00000  -0.04113  -0.03905
 114        4PX        -0.01092  -0.00158  -0.00000   0.00097   0.00489
 115        4PY         0.01671   0.01237   0.00000  -0.00994   0.00164
 116        4PZ        -0.00000  -0.00000   0.00810   0.00000   0.00000
 117 7   H  1S          0.02829   0.07958  -0.00000   0.14412  -0.04116
 118        2S          0.03582   0.10661  -0.00000   0.20195  -0.06813
 119        3S         -0.01104   0.02061   0.00000   0.05828  -0.05995
 120        4PX         0.00669   0.00537  -0.00000   0.01313  -0.00135
 121        4PY        -0.00165  -0.00908   0.00000  -0.00769  -0.00045
 122        4PZ        -0.00000   0.00000   0.00654   0.00000  -0.00000
 123 8   H  1S          0.08549  -0.09187   0.00000  -0.02195  -0.04084
 124        2S          0.08785  -0.13525  -0.00000  -0.03593  -0.09140
 125        3S         -0.01612  -0.02142   0.00000  -0.01250  -0.03346
 126        4PX        -0.00994   0.01045  -0.00000   0.00295   0.00588
 127        4PY         0.00207   0.00526  -0.00000   0.00044  -0.00631
 128        4PZ        -0.00000   0.00000   0.01074   0.00000   0.00000
                          16        17        18        19        20
                           O         O         O         V         V
     Eigenvalues --    -0.31768  -0.30234  -0.28891  -0.01594   0.00910
   1 1   C  1S          0.00000   0.00483   0.00000   0.00000   0.01311
   2        2S          0.00000   0.00801   0.00000  -0.00000   0.02287
   3        2PX        -0.00000   0.05240  -0.00000  -0.00000   0.02331
   4        2PY        -0.00000   0.07107  -0.00000   0.00000  -0.01188
   5        2PZ         0.08615   0.00000   0.14383  -0.09366   0.00000
   6        3S         -0.00000  -0.02347  -0.00000   0.00000  -0.10655
   7        3PX        -0.00000   0.07400   0.00000  -0.00000   0.02834
   8        3PY         0.00000   0.11153   0.00000   0.00000  -0.02203
   9        3PZ         0.13630   0.00000   0.22530  -0.14546   0.00000
  10        4S          0.00000  -0.05864   0.00000  -0.00000   0.13821
  11        4PX         0.00000   0.00692   0.00000  -0.00000   0.15011
  12        4PY        -0.00000   0.03506   0.00000   0.00000  -0.12753
  13        4PZ         0.11421   0.00000   0.19463  -0.24269   0.00000
  14        5S          0.00000   0.00492   0.00000   0.00000   1.94651
  15        5PX         0.00000   0.00044   0.00000   0.00000   0.15885
  16        5PY        -0.00000  -0.00191  -0.00000   0.00000  -0.05755
  17        5PZ         0.01383  -0.00000   0.02756  -0.26839   0.00000
  18        6D 0       -0.00000   0.00108  -0.00000   0.00000   0.00632
  19        6D+1       -0.00740   0.00000   0.02202   0.02720   0.00000
  20        6D-1       -0.02758  -0.00000   0.01155   0.02355   0.00000
  21        6D+2       -0.00000   0.02796   0.00000   0.00000   0.00302
  22        6D-2       -0.00000   0.01933  -0.00000   0.00000  -0.00770
  23 2   N  1S         -0.00000  -0.03372   0.00000  -0.00000   0.00904
  24        2S         -0.00000  -0.05414   0.00000  -0.00000   0.01491
  25        2PX        -0.00000  -0.16261   0.00000   0.00000   0.00196
  26        2PY        -0.00000  -0.13990   0.00000  -0.00000  -0.00237
  27        2PZ         0.19588  -0.00000  -0.03193  -0.06466  -0.00000
  28        3S          0.00000   0.14940   0.00000  -0.00000  -0.04803
  29        3PX         0.00000  -0.23587   0.00000  -0.00000  -0.00233
  30        3PY        -0.00000  -0.20335  -0.00000  -0.00000  -0.00644
  31        3PZ         0.29640  -0.00000  -0.04831  -0.09492  -0.00000
  32        4S         -0.00000   0.26935  -0.00000   0.00000  -0.18670
  33        4PX         0.00000  -0.18089  -0.00000   0.00000  -0.04820
  34        4PY        -0.00000  -0.16677   0.00000   0.00000  -0.03915
  35        4PZ         0.26509  -0.00000  -0.04355  -0.14527  -0.00000
  36        5S          0.00000   0.13081   0.00000   0.00000  -0.84808
  37        5PX         0.00000  -0.03060   0.00000   0.00000  -0.12289
  38        5PY        -0.00000  -0.02522  -0.00000   0.00000  -0.19382
  39        5PZ         0.03558  -0.00000  -0.00750  -0.15036  -0.00000
  40        6D 0        0.00000   0.01014   0.00000  -0.00000   0.00554
  41        6D+1        0.01744  -0.00000  -0.01268   0.01343   0.00000
  42        6D-1        0.01346  -0.00000   0.01308  -0.02029  -0.00000
  43        6D+2        0.00000  -0.00518  -0.00000  -0.00000   0.00317
  44        6D-2       -0.00000  -0.01246   0.00000   0.00000   0.00675
  45 3   C  1S         -0.00000   0.02392  -0.00000  -0.00000   0.01397
  46        2S         -0.00000   0.03892  -0.00000   0.00000   0.02451
  47        2PX         0.00000   0.03256   0.00000   0.00000  -0.00524
  48        2PY         0.00000  -0.02448   0.00000   0.00000   0.04671
  49        2PZ         0.05713  -0.00000  -0.14680   0.17508   0.00000
  50        3S          0.00000  -0.12278   0.00000   0.00000  -0.11897
  51        3PX        -0.00000   0.04933  -0.00000   0.00000  -0.02119
  52        3PY         0.00000  -0.04709   0.00000  -0.00000   0.07182
  53        3PZ         0.09035  -0.00000  -0.23215   0.26602   0.00000
  54        4S         -0.00000  -0.20887  -0.00000  -0.00000   0.22870
  55        4PX         0.00000  -0.00400  -0.00000   0.00000  -0.01466
  56        4PY        -0.00000  -0.07455  -0.00000  -0.00000   0.21874
  57        4PZ         0.08578  -0.00000  -0.19827   0.48933   0.00000
  58        5S         -0.00000  -0.08474  -0.00000  -0.00000   1.72330
  59        5PX         0.00000  -0.00759   0.00000  -0.00000   0.47932
  60        5PY        -0.00000  -0.02887  -0.00000  -0.00000  -0.00220
  61        5PZ         0.01058   0.00000  -0.02660   0.47485   0.00000
  62        6D 0        0.00000   0.00237   0.00000   0.00000   0.00662
  63        6D+1       -0.03570  -0.00000  -0.00617  -0.00700   0.00000
  64        6D-1       -0.00239  -0.00000  -0.01233  -0.02118  -0.00000
  65        6D+2        0.00000   0.00632   0.00000   0.00000  -0.00690
  66        6D-2        0.00000   0.03168  -0.00000   0.00000  -0.00535
  67 4   N  1S          0.00000  -0.01956   0.00000  -0.00000   0.02201
  68        2S          0.00000  -0.03179   0.00000   0.00000   0.03655
  69        2PX        -0.00000  -0.03275   0.00000  -0.00000  -0.05026
  70        2PY        -0.00000   0.00185  -0.00000  -0.00000  -0.00181
  71        2PZ        -0.16327  -0.00000  -0.10411  -0.16955  -0.00000
  72        3S         -0.00000   0.09939  -0.00000  -0.00000  -0.12607
  73        3PX        -0.00000  -0.05470  -0.00000  -0.00000  -0.07503
  74        3PY        -0.00000   0.00961  -0.00000  -0.00000   0.00206
  75        3PZ        -0.24862  -0.00000  -0.15728  -0.25033  -0.00000
  76        4S          0.00000   0.17336   0.00000   0.00000  -0.27764
  77        4PX        -0.00000  -0.07070  -0.00000  -0.00000  -0.06936
  78        4PY         0.00000  -0.03742  -0.00000   0.00000   0.00508
  79        4PZ        -0.24437  -0.00000  -0.15495  -0.37445  -0.00000
  80        5S          0.00000   0.15442   0.00000  -0.00000  -0.87171
  81        5PX        -0.00000  -0.01901  -0.00000   0.00000   0.36009
  82        5PY         0.00000  -0.01787   0.00000  -0.00000   0.51219
  83        5PZ        -0.05048  -0.00000  -0.02738  -0.44220   0.00000
  84        6D 0       -0.00000   0.00139   0.00000  -0.00000   0.00334
  85        6D+1        0.00156  -0.00000  -0.00171  -0.01676  -0.00000
  86        6D-1       -0.01015   0.00000   0.02369  -0.00145  -0.00000
  87        6D+2       -0.00000   0.00815  -0.00000  -0.00000   0.00982
  88        6D-2       -0.00000  -0.01223   0.00000  -0.00000   0.00174
  89 5   N  1S         -0.00000   0.01919  -0.00000  -0.00000   0.00882
  90        2S         -0.00000   0.03076  -0.00000  -0.00000   0.01484
  91        2PX         0.00000  -0.09441   0.00000   0.00000   0.00102
  92        2PY         0.00000  -0.13226   0.00000  -0.00000  -0.01843
  93        2PZ        -0.07886   0.00000   0.17288   0.16268  -0.00000
  94        3S          0.00000  -0.08318   0.00000  -0.00000  -0.05718
  95        3PX         0.00000  -0.13320  -0.00000   0.00000   0.00690
  96        3PY        -0.00000  -0.19585  -0.00000   0.00000  -0.02596
  97        3PZ        -0.12097   0.00000   0.26019   0.23840  -0.00000
  98        4S         -0.00000  -0.13703  -0.00000   0.00000  -0.06407
  99        4PX         0.00000  -0.12254   0.00000  -0.00000  -0.00010
 100        4PY         0.00000  -0.15592   0.00000  -0.00000  -0.02446
 101        4PZ        -0.10522   0.00000   0.24995   0.34461   0.00000
 102        5S         -0.00000  -0.08914  -0.00000   0.00000  -1.06010
 103        5PX        -0.00000  -0.02549  -0.00000   0.00000   0.08841
 104        5PY         0.00000  -0.01943   0.00000  -0.00000   0.08757
 105        5PZ        -0.01732   0.00000   0.03965   0.39097  -0.00000
 106        6D 0        0.00000  -0.00758   0.00000  -0.00000   0.00332
 107        6D+1       -0.01247  -0.00000  -0.01896  -0.00465  -0.00000
 108        6D-1        0.01379  -0.00000  -0.01114   0.00318   0.00000
 109        6D+2        0.00000  -0.00849  -0.00000   0.00000  -0.00635
 110        6D-2       -0.00000   0.00559  -0.00000   0.00000   0.00663
 111 6   H  1S          0.00000  -0.01145   0.00000  -0.00000  -0.01473
 112        2S         -0.00000  -0.02030  -0.00000   0.00000   0.05530
 113        3S         -0.00000  -0.03696  -0.00000  -0.00000  -0.19172
 114        4PX        -0.00000   0.00166   0.00000  -0.00000   0.00742
 115        4PY         0.00000   0.00215   0.00000   0.00000  -0.01170
 116        4PZ         0.00450  -0.00000  -0.01227   0.02443   0.00000
 117 7   H  1S         -0.00000  -0.00946  -0.00000   0.00000  -0.00692
 118        2S         -0.00000  -0.01642  -0.00000   0.00000   0.06343
 119        3S          0.00000  -0.01836   0.00000  -0.00000  -0.12288
 120        4PX        -0.00000   0.00375  -0.00000   0.00000  -0.00669
 121        4PY         0.00000   0.00459  -0.00000  -0.00000   0.00573
 122        4PZ         0.00703   0.00000   0.01177  -0.01279   0.00000
 123 8   H  1S         -0.00000  -0.00702  -0.00000  -0.00000   0.01440
 124        2S          0.00000  -0.00083   0.00000   0.00000   0.08857
 125        3S         -0.00000  -0.01583  -0.00000  -0.00000   0.03158
 126        4PX         0.00000  -0.00194  -0.00000   0.00000   0.02043
 127        4PY        -0.00000  -0.00112   0.00000  -0.00000  -0.00123
 128        4PZ        -0.01486   0.00000  -0.00984  -0.02391  -0.00000
                          21        22        23        24        25
                           V         V         V         V         V
     Eigenvalues --     0.02051   0.03127   0.03847   0.05494   0.05595
   1 1   C  1S          0.00000   0.01463  -0.00542   0.01432   0.01609
   2        2S          0.00000   0.02505  -0.00909   0.02302   0.02576
   3        2PX         0.00000   0.04756  -0.01444   0.01106   0.02481
   4        2PY        -0.00000  -0.03835  -0.00468  -0.02089  -0.00605
   5        2PZ         0.15428  -0.00000  -0.00000   0.00000  -0.00000
   6        3S          0.00000  -0.10322   0.03097  -0.05470  -0.05926
   7        3PX         0.00000   0.08788  -0.01223   0.03884   0.05169
   8        3PY        -0.00000  -0.07424   0.00400  -0.01995  -0.02370
   9        3PZ         0.23080  -0.00000  -0.00000   0.00000  -0.00000
  10        4S         -0.00000   0.04315   0.13142  -0.47598  -0.45830
  11        4PX        -0.00000   0.02274   0.02811  -0.27243   0.06260
  12        4PY        -0.00000   0.02395  -0.09183  -0.20967   0.22464
  13        4PZ         0.47621  -0.00000   0.00000   0.00000  -0.00000
  14        5S         -0.00000  -0.57381   1.55788  -2.82659  -0.55122
  15        5PX        -0.00000  -0.88789   0.17771  -2.81506  -0.19035
  16        5PY         0.00000   1.35818  -1.21929  -0.87949   1.72386
  17        5PZ         0.76470  -0.00000   0.00000  -0.00000   0.00000
  18        6D 0        0.00000   0.00574   0.00026  -0.00802  -0.01495
  19        6D+1       -0.01255   0.00000  -0.00000   0.00000  -0.00000
  20        6D-1        0.02250  -0.00000   0.00000  -0.00000   0.00000
  21        6D+2       -0.00000   0.00055  -0.00200   0.01200  -0.00608
  22        6D-2        0.00000   0.00158   0.00251  -0.00255  -0.00359
  23 2   N  1S          0.00000   0.00826   0.01219   0.00056  -0.02454
  24        2S          0.00000   0.01375   0.02036   0.00106  -0.04004
  25        2PX         0.00000   0.00841   0.03332   0.02179  -0.00052
  26        2PY         0.00000   0.02289   0.02112  -0.00102   0.00445
  27        2PZ        -0.17656   0.00000  -0.00000  -0.00000   0.00000
  28        3S          0.00000  -0.04972  -0.07505  -0.00586   0.12053
  29        3PX        -0.00000   0.01755   0.05727   0.03411  -0.00391
  30        3PY         0.00000   0.03408   0.03729  -0.00010   0.00471
  31        3PZ        -0.26240   0.00000  -0.00000   0.00000  -0.00000
  32        4S         -0.00000  -0.07211  -0.06868   0.01859   0.51096
  33        4PX        -0.00000  -0.02857   0.01891   0.03225   0.15692
  34        4PY        -0.00000   0.04053  -0.00113  -0.00788   0.09023
  35        4PZ        -0.38133   0.00000  -0.00000  -0.00000   0.00000
  36        5S         -0.00000  -1.46867  -2.22079  -0.22956   3.17188
  37        5PX        -0.00000  -0.33941  -0.30570   0.56455   0.04390
  38        5PY         0.00000   0.06538   0.06973  -0.75111   0.28565
  39        5PZ        -0.62301   0.00000  -0.00000   0.00000  -0.00000
  40        6D 0        0.00000   0.00044  -0.00247  -0.00388  -0.00560
  41        6D+1       -0.00368   0.00000  -0.00000   0.00000  -0.00000
  42        6D-1        0.00555  -0.00000  -0.00000   0.00000   0.00000
  43        6D+2       -0.00000   0.00079   0.00053   0.00439   0.00199
  44        6D-2       -0.00000   0.00317   0.00403   0.00180   0.00491
  45 3   C  1S         -0.00000  -0.00615   0.01644  -0.00830   0.02050
  46        2S         -0.00000  -0.01034   0.02734  -0.01374   0.03295
  47        2PX         0.00000   0.00173  -0.03271   0.00362  -0.00622
  48        2PY        -0.00000  -0.03483   0.03283   0.00876   0.03125
  49        2PZ         0.08578  -0.00000   0.00000   0.00000  -0.00000
  50        3S         -0.00000   0.03796  -0.08967   0.04269  -0.07209
  51        3PX         0.00000   0.02240  -0.04025  -0.00784  -0.02161
  52        3PY        -0.00000  -0.05998   0.07443   0.01390   0.05295
  53        3PZ         0.12649  -0.00000   0.00000   0.00000  -0.00000
  54        4S          0.00000   0.05368  -0.20443   0.20876  -0.90860
  55        4PX        -0.00000  -0.16969  -0.18539   0.16582   0.15859
  56        4PY         0.00000   0.03298  -0.09201   0.19570  -0.21019
  57        4PZ         0.29017  -0.00000   0.00000   0.00000  -0.00000
  58        5S          0.00000   1.97397  -1.33630   1.20537  -1.75186
  59        5PX        -0.00000  -1.47928  -0.64585   0.95264   1.15566
  60        5PY         0.00000   0.91330  -1.85014   1.04179  -1.47798
  61        5PZ         0.48741  -0.00000   0.00000  -0.00000   0.00000
  62        6D 0       -0.00000   0.00239   0.00253  -0.00821  -0.01336
  63        6D+1        0.03436  -0.00000   0.00000  -0.00000   0.00000
  64        6D-1       -0.00693   0.00000  -0.00000   0.00000  -0.00000
  65        6D+2       -0.00000  -0.00224  -0.00513   0.00587  -0.00039
  66        6D-2       -0.00000   0.00115   0.00765  -0.00651  -0.00735
  67 4   N  1S          0.00000  -0.01193  -0.01916   0.02010  -0.01352
  68        2S          0.00000  -0.01969  -0.03183   0.03260  -0.02239
  69        2PX         0.00000   0.04427   0.03618  -0.00371  -0.00269
  70        2PY        -0.00000   0.00571  -0.00933  -0.02229  -0.00055
  71        2PZ        -0.01925   0.00000  -0.00000   0.00000   0.00000
  72        3S         -0.00000   0.06429   0.10975  -0.08911   0.07317
  73        3PX         0.00000   0.07048   0.05692  -0.01090  -0.00456
  74        3PY         0.00000   0.00528  -0.01112  -0.02761   0.00584
  75        3PZ        -0.03280   0.00000  -0.00000   0.00000   0.00000
  76        4S         -0.00000   0.15236   0.23178  -0.48941   0.26047
  77        4PX         0.00000   0.08545   0.04302   0.07512  -0.17816
  78        4PY         0.00000   0.03749  -0.03015  -0.09642  -0.07702
  79        4PZ        -0.03812  -0.00000  -0.00000  -0.00000   0.00000
  80        5S         -0.00000  -0.80649   3.09735  -2.20296   0.85806
  81        5PX         0.00000  -0.31139  -0.58513   0.53368  -0.99271
  82        5PY        -0.00000  -0.93436   0.03680   0.12843  -0.01521
  83        5PZ        -0.07101   0.00000   0.00000   0.00000  -0.00000
  84        6D 0       -0.00000   0.00193   0.00405  -0.00938  -0.00746
  85        6D+1        0.00131  -0.00000   0.00000  -0.00000   0.00000
  86        6D-1       -0.02402   0.00000  -0.00000  -0.00000   0.00000
  87        6D+2        0.00000   0.00008   0.00058  -0.00111   0.00239
  88        6D-2       -0.00000  -0.00028   0.00009  -0.00730  -0.00390
  89 5   N  1S         -0.00000   0.00670  -0.00412  -0.02929  -0.00239
  90        2S         -0.00000   0.01092  -0.00712  -0.04833  -0.00413
  91        2PX        -0.00000  -0.01744   0.00186   0.01789  -0.00941
  92        2PY        -0.00000  -0.00200   0.04598  -0.00365  -0.00054
  93        2PZ        -0.11335   0.00000  -0.00000   0.00000  -0.00000
  94        3S          0.00000  -0.03298   0.03249   0.15764   0.01932
  95        3PX         0.00000  -0.01994   0.00059   0.02926  -0.01329
  96        3PY         0.00000  -0.00094   0.06830  -0.00487  -0.00935
  97        3PZ        -0.17037   0.00000   0.00000   0.00000  -0.00000
  98        4S          0.00000  -0.11517  -0.07574   0.46583  -0.02037
  99        4PX        -0.00000  -0.05319   0.02991  -0.00761  -0.03039
 100        4PY        -0.00000   0.01745   0.11748  -0.15823   0.05984
 101        4PZ        -0.24419   0.00000  -0.00000   0.00000  -0.00000
 102        5S          0.00000   1.03857  -0.55013   4.41207  -0.64065
 103        5PX         0.00000   0.81854  -0.49493  -0.75429   0.36759
 104        5PY        -0.00000  -0.43716   0.34351  -0.47475  -0.14214
 105        5PZ        -0.36539   0.00000  -0.00000   0.00000   0.00000
 106        6D 0       -0.00000   0.00215   0.00170  -0.00112  -0.00627
 107        6D+1       -0.01826   0.00000  -0.00000  -0.00000   0.00000
 108        6D-1        0.00737  -0.00000   0.00000  -0.00000   0.00000
 109        6D+2       -0.00000  -0.00228   0.00290  -0.00212  -0.00512
 110        6D-2        0.00000   0.00191  -0.00595   0.00318  -0.00405
 111 6   H  1S         -0.00000   0.00840  -0.00920  -0.00580   0.02195
 112        2S          0.00000   0.00494   0.06300   0.00273   0.11805
 113        3S          0.00000   0.18848  -0.34808   0.03923  -0.15320
 114        4PX        -0.00000  -0.00893  -0.00474   0.00524   0.00866
 115        4PY         0.00000   0.00822  -0.01507   0.00469  -0.01087
 116        4PZ         0.01591  -0.00000   0.00000  -0.00000   0.00000
 117 7   H  1S         -0.00000  -0.02465  -0.00503   0.01486   0.01208
 118        2S          0.00000   0.02518  -0.00591   0.08983   0.09086
 119        3S         -0.00000  -0.45100   0.00705  -0.10245  -0.08928
 120        4PX         0.00000  -0.01355   0.00157  -0.01338  -0.00309
 121        4PY         0.00000   0.01019  -0.00723  -0.00258   0.01200
 122        4PZ         0.02556  -0.00000   0.00000  -0.00000   0.00000
 123 8   H  1S          0.00000  -0.00270  -0.00973   0.02404   0.00065
 124        2S         -0.00000  -0.07050  -0.06379   0.08613   0.01849
 125        3S          0.00000   0.09280  -0.17047   0.23332   0.46099
 126        4PX         0.00000  -0.01351  -0.01705   0.00762  -0.01042
 127        4PY         0.00000   0.00431  -0.00335  -0.01043  -0.00620
 128        4PZ        -0.00058  -0.00000  -0.00000  -0.00000   0.00000
                          26        27        28        29        30
                           V         V         V         V         V
     Eigenvalues --     0.05816   0.08552   0.09417   0.12147   0.13076
   1 1   C  1S          0.00000   0.00437   0.00000  -0.00248  -0.00000
   2        2S          0.00000   0.00729   0.00000  -0.00213  -0.00000
   3        2PX        -0.00000  -0.00901  -0.00000   0.00724   0.00000
   4        2PY        -0.00000   0.00757  -0.00000   0.01964   0.00000
   5        2PZ        -0.12270  -0.00000  -0.08842   0.00000   0.01598
   6        3S         -0.00000  -0.02000  -0.00000  -0.04945  -0.00000
   7        3PX        -0.00000  -0.00306  -0.00000  -0.00579  -0.00000
   8        3PY         0.00000   0.02877  -0.00000   0.04183   0.00000
   9        3PZ        -0.17287  -0.00000  -0.11449   0.00000   0.02775
  10        4S          0.00000  -0.30019   0.00000   0.61296   0.00000
  11        4PX        -0.00000  -0.24744   0.00000   0.00489  -0.00000
  12        4PY        -0.00000   0.10814  -0.00000   0.06818   0.00000
  13        4PZ        -0.42757  -0.00000  -0.34210   0.00000   0.04015
  14        5S          0.00000   1.76506  -0.00000  17.68991   0.00000
  15        5PX        -0.00000  -0.01307   0.00000   2.81970   0.00000
  16        5PY        -0.00000  -0.47907   0.00000  -5.96677  -0.00000
  17        5PZ         0.67023   0.00000   1.60821   0.00000  -0.23047
  18        6D 0        0.00000   0.02089  -0.00000   0.00320   0.00000
  19        6D+1       -0.00851   0.00000  -0.00651  -0.00000   0.00078
  20        6D-1       -0.00261   0.00000   0.00755   0.00000  -0.00234
  21        6D+2        0.00000  -0.00274  -0.00000   0.00397   0.00000
  22        6D-2       -0.00000   0.00525  -0.00000  -0.00485   0.00000
  23 2   N  1S          0.00000  -0.00709  -0.00000   0.00143   0.00000
  24        2S          0.00000  -0.01093  -0.00000   0.00232   0.00000
  25        2PX         0.00000   0.00660  -0.00000   0.01446   0.00000
  26        2PY        -0.00000  -0.01507  -0.00000  -0.01863  -0.00000
  27        2PZ         0.06813  -0.00000   0.00259  -0.00000   0.04964
  28        3S         -0.00000   0.01202   0.00000  -0.00582  -0.00000
  29        3PX         0.00000   0.01628  -0.00000   0.02932   0.00000
  30        3PY        -0.00000  -0.01966   0.00000  -0.04530  -0.00000
  31        3PZ         0.08060  -0.00000   0.00275  -0.00000   0.05037
  32        4S         -0.00000   0.35984  -0.00000  -0.01136   0.00000
  33        4PX        -0.00000   0.11880  -0.00000  -0.01631   0.00000
  34        4PY        -0.00000   0.01409  -0.00000   0.03430   0.00000
  35        4PZ         0.26937  -0.00000   0.00890  -0.00000   0.21826
  36        5S         -0.00000  -0.68219  -0.00000   0.02054   0.00000
  37        5PX         0.00000   0.02941  -0.00000   1.07987   0.00000
  38        5PY        -0.00000  -0.67943  -0.00000  -2.00188  -0.00000
  39        5PZ        -0.25987   0.00000  -0.01439   0.00000  -0.87089
  40        6D 0       -0.00000   0.00603   0.00000  -0.00206  -0.00000
  41        6D+1       -0.00765   0.00000   0.00505  -0.00000   0.01031
  42        6D-1       -0.00649  -0.00000  -0.00773  -0.00000   0.00758
  43        6D+2        0.00000  -0.00055  -0.00000   0.00670   0.00000
  44        6D-2       -0.00000  -0.00431   0.00000  -0.00108  -0.00000
  45 3   C  1S         -0.00000   0.00968   0.00000  -0.00108  -0.00000
  46        2S         -0.00000   0.01614   0.00000  -0.00330  -0.00000
  47        2PX         0.00000  -0.00792  -0.00000  -0.01844  -0.00000
  48        2PY        -0.00000  -0.02425   0.00000   0.01181   0.00000
  49        2PZ        -0.11380   0.00000   0.07769   0.00000   0.01142
  50        3S          0.00000  -0.04384  -0.00000   0.05429   0.00000
  51        3PX         0.00000  -0.02028   0.00000  -0.04069  -0.00000
  52        3PY        -0.00000  -0.04054   0.00000   0.02849   0.00000
  53        3PZ        -0.16167   0.00000   0.10075   0.00000   0.02147
  54        4S          0.00000  -0.50878   0.00000  -0.32533  -0.00000
  55        4PX         0.00000   0.23448  -0.00000  -0.00685   0.00000
  56        4PY        -0.00000  -0.19836   0.00000   0.08330   0.00000
  57        4PZ        -0.40053   0.00000   0.29838   0.00000   0.00461
  58        5S         -0.00000   1.18111   0.00000 -17.51317  -0.00000
[...]
      1  0.836691D+00
      2 -0.150691D+00  0.661477D+00
      3  0.000000D+00  0.000000D+00  0.157436D+00
      4 -0.109809D+00 -0.812462D-02  0.000000D+00  0.576925D+00
      5 -0.116335D-01 -0.267704D+00  0.000000D+00 -0.560314D-02  0.475882D+00
      6  0.000000D+00  0.000000D+00 -0.805074D-01  0.000000D+00  0.000000D+00
      7 -0.937485D-02  0.107791D+00  0.000000D+00 -0.346543D+00  0.761758D-01
      8  0.342081D-01 -0.644946D-01  0.000000D+00  0.698613D-01 -0.131215D+00
      9  0.000000D+00  0.000000D+00  0.112604D-01  0.000000D+00  0.000000D+00
     10 -0.127530D+00  0.110661D-01  0.000000D+00 -0.111232D+00  0.215630D-01
     11  0.540013D-01 -0.214164D-01  0.000000D+00 -0.662123D-01  0.117831D-02
     12  0.000000D+00  0.000000D+00  0.137504D-01  0.000000D+00  0.000000D+00
     13 -0.339206D+00 -0.105536D+00  0.000000D+00 -0.154397D-01 -0.101864D+00
     14 -0.750816D-01 -0.136241D+00  0.000000D+00 -0.767459D-02 -0.610044D-01
     15  0.000000D+00  0.000000D+00 -0.800202D-01  0.000000D+00  0.000000D+00
     16 -0.629377D-02  0.134456D-02  0.000000D+00 -0.476386D-02  0.281683D-01
     17 -0.296626D-03  0.649395D-03  0.000000D+00  0.157035D-02  0.165684D-02
     18  0.000000D+00  0.000000D+00  0.684384D-02  0.000000D+00  0.000000D+00
     19 -0.245103D+00  0.141285D+00  0.000000D+00  0.864421D-02 -0.468867D-02
     20  0.144010D+00 -0.163557D+00  0.000000D+00  0.233216D-01 -0.147651D-01
     21  0.000000D+00  0.000000D+00 -0.329023D-01  0.000000D+00  0.000000D+00
     22  0.626381D-03  0.286533D-02  0.000000D+00  0.221873D-02 -0.211722D-02
     23  0.548306D-02 -0.871446D-02  0.000000D+00 -0.713863D-02 -0.402842D-02
     24  0.000000D+00  0.000000D+00  0.413935D-02  0.000000D+00  0.000000D+00
                6             7             8             9            10 
      6  0.103814D+00
      7  0.000000D+00  0.655160D+00
      8  0.000000D+00 -0.127304D+00  0.884362D+00
      9 -0.791094D-01  0.000000D+00  0.000000D+00  0.145983D+00
     10  0.000000D+00 -0.180932D+00 -0.103622D+00  0.000000D+00  0.101101D+01
     11  0.000000D+00 -0.983137D-01 -0.266109D+00  0.000000D+00  0.631420D-01
     12  0.212962D-01  0.000000D+00  0.000000D+00 -0.632292D-01  0.000000D+00
     13  0.000000D+00 -0.213988D-01  0.298867D-01  0.000000D+00 -0.142488D+00
     14  0.000000D+00 -0.274734D-01 -0.106015D+00  0.000000D+00  0.313879D-01
     15  0.326329D-01  0.000000D+00  0.000000D+00  0.189883D-01  0.000000D+00
     16  0.000000D+00 -0.915433D-01  0.963085D-01  0.000000D+00  0.131576D-01
     17  0.000000D+00  0.921878D-01 -0.323593D+00  0.000000D+00  0.107766D-01
     18 -0.302179D-02  0.000000D+00  0.000000D+00 -0.319258D-01  0.000000D+00
     19  0.000000D+00  0.527504D-03 -0.266609D-02  0.000000D+00 -0.474424D-02
     20  0.000000D+00 -0.152295D-02 -0.621489D-02  0.000000D+00 -0.508733D-02
     21 -0.266455D-02  0.000000D+00  0.000000D+00  0.572373D-02  0.000000D+00
     22  0.000000D+00 -0.589512D-02  0.332750D-02  0.000000D+00 -0.457239D+00
     23  0.000000D+00 -0.215404D-01  0.132805D-01  0.000000D+00 -0.292267D-01
     24  0.755964D-02  0.000000D+00  0.000000D+00 -0.769117D-02  0.000000D+00
               11            12            13            14            15 
     11  0.586070D+00
     12  0.000000D+00  0.946024D-01
     13  0.925982D-01  0.000000D+00  0.547226D+00
     14 -0.211182D+00  0.000000D+00  0.660942D-01  0.494471D+00
     15  0.000000D+00 -0.645230D-01  0.000000D+00  0.000000D+00  0.101675D+00
     16 -0.223517D-01  0.000000D+00 -0.225948D-02 -0.384761D-02  0.000000D+00
     17 -0.150421D-01  0.000000D+00 -0.242240D-02 -0.174162D-03  0.000000D+00
     18  0.000000D+00 -0.790308D-03  0.000000D+00  0.000000D+00  0.612099D-02
     19 -0.219717D-02  0.000000D+00 -0.177929D-01  0.178686D-01  0.000000D+00
     20  0.128796D-02  0.000000D+00 -0.109746D-01  0.110014D-01  0.000000D+00
     21  0.000000D+00  0.695337D-02  0.000000D+00  0.000000D+00 -0.452479D-02
     22 -0.206667D-01  0.000000D+00 -0.864139D-02 -0.127348D-02  0.000000D+00
     23 -0.747871D-01  0.000000D+00  0.322186D-01  0.914373D-02  0.000000D+00
     24  0.000000D+00 -0.805991D-02  0.000000D+00  0.000000D+00 -0.103493D-01
               16            17            18            19            20 
     16  0.912724D-01
     17 -0.101566D+00  0.336708D+00
     18  0.000000D+00  0.000000D+00  0.234700D-01
     19  0.583803D-03  0.613057D-04  0.000000D+00  0.257909D+00
     20  0.143137D-02  0.175584D-03  0.000000D+00 -0.150956D+00  0.170971D+00
     21  0.000000D+00  0.000000D+00  0.754021D-03  0.000000D+00  0.000000D+00
     22 -0.153304D-03 -0.310982D-03  0.000000D+00 -0.238277D-04 -0.222729D-03
     23  0.512686D-03 -0.380001D-03  0.000000D+00  0.129304D-02  0.110075D-02
     24  0.000000D+00  0.000000D+00 -0.145099D-02  0.000000D+00  0.000000D+00
               21            22            23            24 
     21  0.249558D-01
     22  0.000000D+00  0.469107D+00
     23  0.000000D+00  0.183983D-01  0.643850D-01
     24  0.170478D-02  0.000000D+00  0.000000D+00  0.141476D-01
 Leave Link  716 at Fri Jun  2 11:12:10 2023, MaxMem=  7381975040 cpu:               0.1 elap:               1.6
 (Enter /software/commercial/gaussian/g16/AVX/g16/l103.exe)

 GradGradGradGradGradGradGradGradGradGradGradGradGradGradGradGradGradGrad
 Berny optimization.
 Search for a local minimum.
 Step number   1 out of a maximum of    2
 All quantities printed in internal units (Hartrees-Bohrs-Radians)
 Second derivative matrix not updated -- analytic derivatives used.
 ITU=  0
     Eigenvalues ---    0.02514   0.03417   0.05736   0.06909   0.06919
     Eigenvalues ---    0.14120   0.21439   0.23694   0.24500   0.27532
     Eigenvalues ---    0.36735   0.58597   0.71579   0.84959   0.95060
     Eigenvalues ---    1.18716   1.23526   1.37288
 Angle between quadratic step and forces=  47.48 degrees.
 Linear search not attempted -- first point.
 B after Tr=    -0.000025   -0.000019   -0.000000
         Rot=    1.000000    0.000000   -0.000000    0.000003 Ang=   0.00 deg.
 Variable       Old X    -DE/DX   Delta X   Delta X   Delta X     New X
                                 (Linear)    (Quad)   (Total)
    X1       -3.11553  -0.00001   0.00000  -0.00002  -0.00003  -3.11555
    Y1        2.65235   0.00001   0.00000   0.00003   0.00003   2.65239
    Z1       -0.00000   0.00000   0.00000   0.00000   0.00000   0.00000
    X2       -3.28415  -0.00013   0.00000  -0.00018  -0.00020  -3.28435
    Y2        0.08016   0.00004   0.00000   0.00004   0.00005   0.08021
    Z2       -0.00000   0.00000   0.00000   0.00000   0.00000   0.00000
    X3       -0.88738   0.00006   0.00000   0.00002  -0.00001  -0.88739
    Y3       -0.64491  -0.00015   0.00000  -0.00019  -0.00020  -0.64511
    Z3        0.00000  -0.00000   0.00000  -0.00000  -0.00000  -0.00000
    X4        0.62189   0.00011   0.00000   0.00010   0.00009   0.62198
    Y4        1.39790   0.00007   0.00000   0.00004   0.00001   1.39791
    Z4        0.00000  -0.00000   0.00000  -0.00000  -0.00000  -0.00000
    X5       -0.77944  -0.00002   0.00000  -0.00000  -0.00000  -0.77944
    Y5        3.54371   0.00002   0.00000   0.00000  -0.00001   3.54370
    Z5        0.00000  -0.00000   0.00000  -0.00000  -0.00000  -0.00000
    X6       -0.18648   0.00001   0.00000   0.00014   0.00010  -0.18638
    Y6       -2.55840   0.00000   0.00000  -0.00013  -0.00015  -2.55855
    Z6       -0.00000   0.00000   0.00000   0.00000   0.00000   0.00000
    X7       -4.73936  -0.00001   0.00000   0.00001   0.00001  -4.73935
    Y7        3.88537  -0.00000   0.00000   0.00010   0.00011   3.88548
    Z7       -0.00000  -0.00000   0.00000  -0.00000   0.00000  -0.00000
    X8        2.52864  -0.00002   0.00000   0.00006   0.00004   2.52868
    Y8        1.48060   0.00001   0.00000   0.00020   0.00016   1.48077
    Z8       -0.00000   0.00000   0.00000   0.00000   0.00000   0.00000
         Item               Value     Threshold  Converged?
 Maximum Force            0.000150     0.000450     YES
 RMS     Force            0.000052     0.000300     YES
 Maximum Displacement     0.000202     0.001800     YES
 RMS     Displacement     0.000084     0.001200     YES
 Predicted change in Energy=-3.481773D-08
 Optimization completed.
    -- Stationary point found.
 GradGradGradGradGradGradGradGradGradGradGradGradGradGradGradGradGradGrad

 Leave Link  103 at Fri Jun  2 11:12:13 2023, MaxMem=  7381975040 cpu:               1.2 elap:               2.3
 (Enter /software/commercial/gaussian/g16/AVX/g16/l9999.exe)

 ----------------------------------------------------------------------

 Electric dipole moment (input orientation):
 (Debye = 10**-18 statcoulomb cm , SI units = C m)
                  (au)            (Debye)         (10**-30 SI)
   Tot        0.146863D+01      0.373289D+01      0.124516D+02
   x          0.135859D+01      0.345319D+01      0.115186D+02
   y         -0.557777D+00     -0.141773D+01     -0.472903D+01
   z          0.000000D+00      0.000000D+00      0.000000D+00

 Dipole polarizability, Alpha (input orientation).
 (esu units = cm**3 , SI units = C**2 m**2 J**-1)
 Alpha(0;0):
               (au)            (10**-24 esu)      (10**-40 SI)
   iso        0.522947D+02      0.774928D+01      0.862223D+01
   aniso      0.276728D+02      0.410068D+01      0.456262D+01
   xx         0.612338D+02      0.907392D+01      0.100961D+02
   yx         0.102637D+00      0.152093D-01      0.169226D-01
   yy         0.618008D+02      0.915794D+01      0.101896D+02
   zx         0.000000D+00      0.000000D+00      0.000000D+00
   zy         0.000000D+00      0.000000D+00      0.000000D+00
   zz         0.338495D+02      0.501598D+01      0.558103D+01

 First dipole hyperpolarizability, Beta (input orientation).
 ||, _|_  parallel and perpendicular components, (z) with respect to z axis,
 vector components x,y,z.  Values do not include the 1/n! factor of 1/2.
 (esu units = statvolt**-1 cm**4 , SI units = C**3 m**3 J**-2)
 Beta(0;0,0):
               (au)            (10**-30 esu)      (10**-50 SI)
   || (z)     0.000000D+00      0.000000D+00      0.000000D+00
   _|_(z)     0.000000D+00      0.000000D+00      0.000000D+00
   x         -0.148144D+03     -0.127985D+01     -0.475003D+00
   y          0.646235D+00      0.558297D-02      0.207206D-02
   z          0.000000D+00      0.000000D+00      0.000000D+00
   ||         0.296291D+02      0.255972D+00      0.950015D-01
   xxx       -0.324735D+02     -0.280546D+00     -0.104122D+00
   xxy        0.180140D+02      0.155627D+00      0.577593D-01
   yxy        0.105979D+02      0.915575D-01      0.339807D-01
   yyy       -0.207691D+02     -0.179429D+00     -0.665932D-01
   xxz        0.000000D+00      0.000000D+00      0.000000D+00
   yxz        0.000000D+00      0.000000D+00      0.000000D+00
   yyz        0.000000D+00      0.000000D+00      0.000000D+00
   zxz       -0.275057D+02     -0.237627D+00     -0.881931D-01
   zyz        0.297052D+01      0.256630D-01      0.952457D-02
   zzz        0.000000D+00      0.000000D+00      0.000000D+00

 ----------------------------------------------------------------------

 Dipole orientation:
     6          0.48247388          1.17517048         -3.88943078
     7         -0.44555234         -1.08524002         -3.06851430
     6         -0.35457863         -0.86365368         -0.57595936
     7          0.58083704          1.41475545          0.04437894
     7          1.13260628          2.75870992         -2.06691371
     1         -0.92575649         -2.25488207          0.79915193
     1          0.68145215          1.65982551         -5.85988307
     1          0.88492973          2.15543960          1.77685014

 Electric dipole moment (dipole orientation):
 (Debye = 10**-18 statcoulomb cm , SI units = C m)
                  (au)            (Debye)         (10**-30 SI)
   Tot        0.146863D+01      0.373289D+01      0.124516D+02
   x          0.000000D+00      0.000000D+00      0.000000D+00
   y          0.000000D+00      0.000000D+00      0.000000D+00
   z          0.146863D+01      0.373289D+01      0.124516D+02

 Dipole polarizability, Alpha (dipole orientation).
 (esu units = cm**3 , SI units = C**2 m**2 J**-1)
 Alpha(0;0):
               (au)            (10**-24 esu)      (10**-40 SI)
   iso        0.522947D+02      0.774928D+01      0.862223D+01
   aniso      0.276728D+02      0.410068D+01      0.456262D+01
   xx         0.378799D+02      0.561322D+01      0.624555D+01
   yx         0.981692D+01      0.145472D+01      0.161859D+01
   yy         0.577607D+02      0.855926D+01      0.952346D+01
   zx        -0.479217D-01     -0.710126D-02     -0.790122D-02
   zy        -0.116724D+00     -0.172967D-01     -0.192451D-01
   zz         0.612435D+02      0.907535D+01      0.100977D+02

 First dipole hyperpolarizability, Beta (dipole orientation).
 ||, _|_  parallel and perpendicular components, (z) with respect to z axis,
 vector components x,y,z.  Values do not include the 1/n! factor of 1/2.
 (esu units = statvolt**-1 cm**4 , SI units = C**3 m**3 J**-2)
 Beta(0;0,0):
               (au)            (10**-30 esu)      (10**-50 SI)
   || (z)    -0.274578D+02     -0.237214D+00     -0.880397D-01
   _|_(z)    -0.915260D+01     -0.790714D-01     -0.293466D-01
   x         -0.211417D+02     -0.182648D+00     -0.677880D-01
   y         -0.514953D+02     -0.444879D+00     -0.165113D+00
   z         -0.137289D+03     -0.118607D+01     -0.440198D+00
   ||         0.296291D+02      0.255972D+00      0.950015D-01
   xxx       -0.754337D+01     -0.651689D-01     -0.241868D-01
   xxy       -0.413014D+01     -0.356812D-01     -0.132427D-01
   yxy        0.436272D+01      0.376905D-01      0.139885D-01
   yyy       -0.361703D+01     -0.312483D-01     -0.115975D-01
   xxz       -0.200424D+02     -0.173151D+00     -0.642632D-01
   yxz        0.159064D+02      0.137419D+00      0.510016D-01
   yyz        0.121706D+02      0.105145D+00      0.390234D-01
   zxz       -0.386659D+01     -0.334044D-01     -0.123977D-01
   zyz       -0.941793D+01     -0.813636D-01     -0.301973D-01
   zzz       -0.378912D+02     -0.327351D+00     -0.121493D+00

 ----------------------------------------------------------------------
 Unable to Open any file for archive entry.
 1\1\GINC-NODE1749\Freq\RB3LYP\6-311+G(d,p)\C2H3N3\SVICCHI\02-Jun-2023\
 0\\#p freq=raman scale=0.967 pop=(nbo,full,hirshfeld) guess=read geom=
 allcheck b3lyp/6-311+G(d,p) int=grid=ultrafine EmpiricalDispersion=GD3
 BJ SCRF=(Solvent=ethanol) scf=(xqc,intrep,maxconventionalcycle=350) no
 symm\\124triz-H_dissociation-site_index-3.gjf\\0,1\C,-1.6486654411,1.4
 035646435,0.\N,-1.7378953591,0.0424205183,0.\C,-0.4695823262,-0.341270
 5096,0.\N,0.3290903975,0.739737137,0.\N,-0.4124596994,1.8752512333,0.\
 H,-0.0986831481,-1.3538444073,0.\H,-2.507959385,2.0560512006,0.\H,1.33
 80999614,0.7835011842,0.\\Version=ES64L-G16RevC.01\HF=-242.3412407\RMS
 D=5.496e-09\RMSF=5.159e-05\ZeroPoint=0.0578567\Thermal=0.0614609\ETot=
 -242.2797798\HTot=-242.2788356\GTot=-242.3095494\Dipole=1.3585887,-0.5
 577774,0.\DipoleDeriv=0.3693517,0.032876,0.,0.0336372,0.6732759,0.,0.,
 0.,0.0015798,-0.7515798,0.0063024,0.,0.033643,-0.6843969,0.,0.,0.,-0.3
 816385,0.8077449,0.1432051,0.,0.1462036,0.2055654,0.,0.,0.,0.0881487,-
 0.7722103,-0.1233151,0.,0.0849846,0.0403505,0.,0.,0.,-0.213578,-0.1763
 516,-0.1620694,0.,-0.3985134,-0.590198,0.,0.,0.,-0.2684823,0.0996173,0
 .0203837,0.,0.043441,0.0661482,0.,0.,0.,0.1990325,0.0500234,0.0591751,
 0.,0.0556866,0.0491028,0.,0.,0.,0.1793978,0.3734043,0.0234423,0.,0.000
 9174,0.240152,0.,0.,0.,0.3955402\Polar=61.2338203,0.1026374,61.8008153
 ,0.,0.,33.8494869\PolarDeriv=-1.9818486,-3.2450803,-10.4848654,0.,0.,-
 4.4226723,6.9400755,0.7495127,-9.3848751,0.,0.,1.8599871,0.,0.,0.,-5.0
 118567,2.742085,0.,-5.2209437,-2.6742684,-10.3947748,0.,0.,-2.8056006,
 -7.3757562,-1.5885273,6.0650492,0.,0.,-1.3389986,0.,0.,0.,-3.5174716,-
 2.413999,0.,-3.0281391,1.6423143,8.8292044,0.,0.,1.4065014,-4.7504366,
 -0.7699538,-4.1860395,0.,0.,-3.7017137,0.,0.,0.,1.7744183,-5.7790002,0
 .,0.2452655,-0.4011719,-0.421885,0.,0.,1.4724191,-0.2382518,-2.4702703
 ,2.491215,0.,0.,2.5686639,0.,0.,0.,3.5051704,1.4610001,0.,2.214237,2.6
 539316,11.0676366,0.,0.,3.7410701,3.2254556,3.1653776,11.4823455,0.,0.
 ,0.986178,0.,0.,0.,2.8304101,3.7824708,0.,1.9973214,-2.7570048,2.95116
 79,0.,0.,0.3028335,-2.356818,3.265763,-11.821658,0.,0.,-1.0547248,0.,0
 .,0.,0.1040738,-0.0973402,0.,-8.1601532,4.2221618,-3.558635,0.,0.,-0.8
 252735,3.8446484,-4.0831829,4.8417341,0.,0.,0.6100647,0.,0.,0.,-0.1373
 915,0.431193,0.,13.9342607,0.5591176,2.0121512,0.,0.,1.1307222,0.71108
 31,1.731281,0.5122288,0.,0.,0.0705434,0.,0.,0.,0.4526471,-0.1264094,0.
 \HyperPolar=-32.4735109,18.0139726,10.597886,-20.7690834,0.,0.,0.,-27.
 5056596,2.9705224,0.\Quadrupole=0.953093,-1.2385162,0.2854232,-2.37049
 49,0.,0.\PG=CS [SG(C2H3N3)]\NImag=0\\0.83669052,-0.15069118,0.66147745
 ,0.,0.,0.15743582,-0.10980883,-0.00812462,0.,0.57692509,-0.01163348,-0
 .26770376,0.,-0.00560314,0.47588187,0.,0.,-0.08050737,0.,0.,0.10381433
 ,-0.00937485,0.10779139,0.,-0.34654332,0.07617577,0.,0.65515969,0.0342
 0811,-0.06449463,0.,0.06986134,-0.13121538,0.,-0.12730449,0.88436159,0
 .,0.,0.01126042,0.,0.,-0.07910942,0.,0.,0.14598321,-0.12752962,0.01106
 608,0.,-0.11123229,0.02156297,0.,-0.18093173,-0.10362160,0.,1.01100650
 ,0.05400130,-0.02141638,0.,-0.06621226,0.00117831,0.,-0.09831367,-0.26
 610878,0.,0.06314202,0.58606962,0.,0.,0.01375045,0.,0.,0.02129624,0.,0
 .,-0.06322924,0.,0.,0.09460242,-0.33920641,-0.10553627,0.,-0.01543973,
 -0.10186449,0.,-0.02139884,0.02988674,0.,-0.14248753,0.09259819,0.,0.5
 4722631,-0.07508157,-0.13624095,0.,-0.00767459,-0.06100439,0.,-0.02747
 343,-0.10601526,0.,0.03138791,-0.21118153,0.,0.06609421,0.49447117,0.,
 0.,-0.08002020,0.,0.,0.03263291,0.,0.,0.01898826,0.,0.,-0.06452303,0.,
 0.,0.10167521,-0.00629377,0.00134456,0.,-0.00476386,0.02816826,0.,-0.0
 9154333,0.09630849,0.,0.01315756,-0.02235167,0.,-0.00225948,-0.0038476
 1,0.,0.09127239,-0.00029663,0.00064939,0.,0.00157035,0.00165684,0.,0.0
 9218782,-0.32359315,0.,0.01077661,-0.01504210,0.,-0.00242240,-0.000174
 16,0.,-0.10156608,0.33670759,0.,0.,0.00684384,0.,0.,-0.00302179,0.,0.,
 -0.03192580,0.,0.,-0.00079031,0.,0.,0.00612099,0.,0.,0.02347004,-0.245
 10343,0.14128469,0.,0.00864421,-0.00468867,0.,0.00052750,-0.00266609,0
 .,-0.00474424,-0.00219717,0.,-0.01779293,0.01786856,0.,0.00058380,0.00
 006131,0.,0.25790891,0.14401038,-0.16355666,0.,0.02332155,-0.01476506,
 0.,-0.00152295,-0.00621489,0.,-0.00508733,0.00128796,0.,-0.01097463,0.
 01100139,0.,0.00143137,0.00017558,0.,-0.15095567,0.17097094,0.,0.,-0.0
 3290231,0.,0.,-0.00266455,0.,0.,0.00572373,0.,0.,0.00695337,0.,0.,-0.0
 0452479,0.,0.,0.00075402,0.,0.,0.02495575,0.00062638,0.00286533,0.,0.0
 0221873,-0.00211722,0.,-0.00589512,0.00332750,0.,-0.45723865,-0.020666
 74,0.,-0.00864139,-0.00127348,0.,-0.00015330,-0.00031098,0.,-0.0000238
 3,-0.00022273,0.,0.46910718,0.00548306,-0.00871446,0.,-0.00713863,-0.0
 0402842,0.,-0.02154043,0.01328052,0.,-0.02922667,-0.07478710,0.,0.0322
 1864,0.00914373,0.,0.00051269,-0.00038000,0.,0.00129304,0.00110075,0.,
 0.01839831,0.06438498,0.,0.,0.00413935,0.,0.,0.00755964,0.,0.,-0.00769
 117,0.,0.,-0.00805991,0.,0.,-0.01034934,0.,0.,-0.00145099,0.,0.,0.0017
 0478,0.,0.,0.01414764\\0.00001117,-0.00000835,0.,0.00012998,-0.0000378
 2,0.,-0.00005670,0.00014984,0.,-0.00011369,-0.00007403,0.,0.00001824,-
 0.00001532,0.,-0.00001415,-0.00000447,0.,0.00000684,0.00000049,0.,0.00
 001830,-0.00001034,0.\\\@
 The archive entry for this job was punched.


 LIVE PURE, SPEAK TRUE, RIGHT WRONG, FOLLOW THE KING...
 ELSE, WHEREFORE BORN......
           IDYLLS OF THE KING, TENNYSON
 Job cpu time:       0 days  0 hours  6 minutes 53.5 seconds.
 Elapsed time:       0 days  0 hours  3 minutes 57.5 seconds.
 File lengths (MBytes):  RWF=     68 Int=      0 D2E=      0 Chk=      8 Scr=      1
 Normal termination of Gaussian 16 at Fri Jun  2 11:12:17 2023.
