 Entering Gaussian System, Link 0=g16
 Input=3ethylthiazolium-H_dissociation-site_index-1-freq.gjf
 Output=3ethylthiazolium-H_dissociation-site_index-1-freq.log
 Initial command:
 /software/commercial/gaussian/g16/AVX/g16/l1.exe "/scratch1/svicchi/G09-659735.pbs02/Gau-1180935.inp" -scrdir="/scratch1/svicchi/G09-659735.pbs02/"
 Entering Link 1 = /software/commercial/gaussian/g16/AVX/g16/l1.exe PID=   1180936.
  
 Copyright (c) 1988-2019, Gaussian, Inc.  All Rights Reserved.
  
 This is part of the Gaussian(R) 16 program.  It is based on
 the Gaussian(R) 09 system (copyright 2009, Gaussian, Inc.),
 the Gaussian(R) 03 system (copyright 2003, Gaussian, Inc.),
 the Gaussian(R) 98 system (copyright 1998, Gaussian, Inc.),
 the Gaussian(R) 94 system (copyright 1995, Gaussian, Inc.),
 the Gaussian 92(TM) system (copyright 1992, Gaussian, Inc.),
 the Gaussian 90(TM) system (copyright 1990, Gaussian, Inc.),
 the Gaussian 88(TM) system (copyright 1988, Gaussian, Inc.),
 the Gaussian 86(TM) system (copyright 1986, Carnegie Mellon
 University), and the Gaussian 82(TM) system (copyright 1983,
 Carnegie Mellon University). Gaussian is a federally registered
 trademark of Gaussian, Inc.
  
 This software contains proprietary and confidential information,
 including trade secrets, belonging to Gaussian, Inc.
  
 This software is provided under written license and may be
 used, copied, transmitted, or stored only in accord with that
 written license.
  
 The following legend is applicable only to US Government
 contracts under FAR:
  
                    RESTRICTED RIGHTS LEGEND
  
 Use, reproduction and disclosure by the US Government is
 subject to restrictions as set forth in subparagraphs (a)
 and (c) of the Commercial Computer Software - Restricted
 Rights clause in FAR 52.227-19.
  
 Gaussian, Inc.
 340 Quinnipiac St., Bldg. 40, Wallingford CT 06492
  
  
 ---------------------------------------------------------------
 Warning -- This program may not be used in any manner that
 competes with the business of Gaussian, Inc. or will provide
 assistance to any competitor of Gaussian, Inc.  The licensee
 of this program is prohibited from giving any competitor of
 Gaussian, Inc. access to this program.  By using this program,
 the user acknowledges that Gaussian, Inc. is engaged in the
 business of creating and licensing software in the field of
 computational chemistry and represents and warrants to the
 licensee that it is not a competitor of Gaussian, Inc. and that
 it will not use this program in any manner prohibited above.
 ---------------------------------------------------------------
  

 Cite this work as:
 Gaussian 16, Revision C.01,
 M. J. Frisch, G. W. Trucks, H. B. Schlegel, G. E. Scuseria, 
 M. A. Robb, J. R. Cheeseman, G. Scalmani, V. Barone, 
 G. A. Petersson, H. Nakatsuji, X. Li, M. Caricato, A. V. Marenich, 
 J. Bloino, B. G. Janesko, R. Gomperts, B. Mennucci, H. P. Hratchian, 
 J. V. Ortiz, A. F. Izmaylov, J. L. Sonnenberg, D. Williams-Young, 
 F. Ding, F. Lipparini, F. Egidi, J. Goings, B. Peng, A. Petrone, 
 T. Henderson, D. Ranasinghe, V. G. Zakrzewski, J. Gao, N. Rega, 
 G. Zheng, W. Liang, M. Hada, M. Ehara, K. Toyota, R. Fukuda, 
 J. Hasegawa, M. Ishida, T. Nakajima, Y. Honda, O. Kitao, H. Nakai, 
 T. Vreven, K. Throssell, J. A. Montgomery, Jr., J. E. Peralta, 
 F. Ogliaro, M. J. Bearpark, J. J. Heyd, E. N. Brothers, K. N. Kudin, 
 V. N. Staroverov, T. A. Keith, R. Kobayashi, J. Normand, 
 K. Raghavachari, A. P. Rendell, J. C. Burant, S. S. Iyengar, 
 J. Tomasi, M. Cossi, J. M. Millam, M. Klene, C. Adamo, R. Cammi, 
 J. W. Ochterski, R. L. Martin, K. Morokuma, O. Farkas, 
 J. B. Foresman, and D. J. Fox, Gaussian, Inc., Wallingford CT, 2019.
 
 ******************************************
 Gaussian 16:  ES64L-G16RevC.01  3-Jul-2019
                 2-Jun-2023 
 ******************************************
 %NProcShared=2
 Will use up to    2 processors via shared memory.
 %mem=55gb
 %chk=/scratch1/svicchi/G09-659735.pbs02/02-freq/3ethylthiazolium-H_dissociation-
 site_index-1-freq.chk
 ----------------------------------------------------------------------
 #p freq=raman scale=0.967 pop=(nbo,full,hirshfeld) guess=read geom=all
 check b3lyp/6-311+G(d,p) int=grid=ultrafine EmpiricalDispersion=GD3BJ 
 SCRF=(Solvent=ethanol) scf=(xqc,intrep,maxconventionalcycle=350) nosym
 m
 ----------------------------------------------------------------------
 1/10=4,29=7,30=1,38=1,114=967000/1,3;
 2/12=2,15=1,40=1/2;
 3/5=4,6=6,7=111,11=2,14=-4,25=1,30=1,70=2201,71=2,72=4,74=-5,75=-5,116=-2,124=41,140=1/1,2,3;
 4/5=1/1;
 5/5=2,8=3,13=1,17=20,38=6,53=4,85=350,98=1/2,8;
 8/6=4,10=90,11=11/1;
 10/13=10,15=4,31=1/2;
 11/6=3,8=1,9=11,15=111,16=1,31=1/1,2,10;
 10/6=1,31=1/2;
 6/7=3,28=1,40=1,79=1/1,7;
 7/8=1,10=1,25=1,30=1/1,2,3,16;
 1/10=4,30=1/3;
 99//99;
 Leave Link    1 at Fri Jun  2 10:52:00 2023, MaxMem=  7381975040 cpu:               1.1 elap:               1.2
 (Enter /software/commercial/gaussian/g16/AVX/g16/l101.exe)
 Structure from the checkpoint file:  "/scratch1/svicchi/G09-659735.pbs02/02-freq/3ethylthiazolium-H_dissociation-site_index-1-freq.chk"
 ------------------------------------------------
 3ethylthiazolium-H_dissociation-site_index-1.gjf
 ------------------------------------------------
 Charge =  0 Multiplicity = 1
 No Z-Matrix found in chk file; cartesian coordinates used.
  N                                                -0.028701003862      0.106899129770     -0.023208850642
  C                                                 1.086343575572     -0.640833783988      0.048070404827
  C                                                -0.446595537449      0.573278240005     -1.275146316062
  C                                                 0.375902208107      0.187843793775     -2.269593146823
  S                                                 1.668261307677     -0.769227816902     -1.580185393039
  C                                                -0.838543029932      0.390513474325      1.178893128658
  C                                                -2.064321487920     -0.511695903158      1.263218178971
  H                                                -2.630816132544     -0.280476919213      2.168058296669
  H                                                -2.723661019222     -0.369336089377      0.403789483515
  H                                                -1.764550845333     -1.561371902740      1.300519959418
  H                                                -1.125224579039      1.443636170888      1.148080241353
  H                                                -0.181070723929      0.240340833364      2.032735614532
  H                                                -1.338105530084      1.177087736431     -1.351517707682
  H                                                 0.297273797957      0.414065036820     -3.320641893694
 Recover connectivity data from disk.
 ITRead=  0  0  0  0  0  0  0  0  0  0  0  0  0  0
 MicOpt= -1 -1 -1 -1 -1 -1 -1 -1 -1 -1 -1 -1 -1 -1
 NAtoms=     14 NQM=       14 NQMF=       0 NMMI=      0 NMMIF=      0
                NMic=       0 NMicF=      0.
                    Isotopes and Nuclear Properties:
 (Nuclear quadrupole moments (NQMom) in fm**2, nuclear magnetic moments (NMagM)
  in nuclear magnetons)

  Atom         1           2           3           4           5           6           7           8           9          10
 IAtWgt=          14          12          12          12          32          12          12           1           1           1
 AtmWgt=  14.0030740  12.0000000  12.0000000  12.0000000  31.9720718  12.0000000  12.0000000   1.0078250   1.0078250   1.0078250
 NucSpn=           2           0           0           0           0           0           0           1           1           1
 AtZEff=   4.5500000   3.6000000   3.6000000   3.6000000  13.6000000   3.6000000   3.6000000   1.0000000   1.0000000   1.0000000
 NQMom=    2.0440000   0.0000000   0.0000000   0.0000000   0.0000000   0.0000000   0.0000000   0.0000000   0.0000000   0.0000000
 NMagM=    0.4037610   0.0000000   0.0000000   0.0000000   0.0000000   0.0000000   0.0000000   2.7928460   2.7928460   2.7928460
 AtZNuc=   7.0000000   6.0000000   6.0000000   6.0000000  16.0000000   6.0000000   6.0000000   1.0000000   1.0000000   1.0000000

  Atom        11          12          13          14
 IAtWgt=           1           1           1           1
 AtmWgt=   1.0078250   1.0078250   1.0078250   1.0078250
 NucSpn=           1           1           1           1
 AtZEff=   1.0000000   1.0000000   1.0000000   1.0000000
 NQMom=    0.0000000   0.0000000   0.0000000   0.0000000
 NMagM=    2.7928460   2.7928460   2.7928460   2.7928460
 AtZNuc=   1.0000000   1.0000000   1.0000000   1.0000000
 Leave Link  101 at Fri Jun  2 10:52:02 2023, MaxMem=  7381975040 cpu:               0.4 elap:               1.0
 (Enter /software/commercial/gaussian/g16/AVX/g16/l103.exe)

 GradGradGradGradGradGradGradGradGradGradGradGradGradGradGradGradGradGrad
 Berny optimization.
 Initialization pass.
 Trust Radius=3.00D-01 FncErr=1.00D-07 GrdErr=1.00D-07 EigMax=2.50D+02 EigMin=1.00D-04
 Number of steps in this run=      2 maximum allowed number of steps=      2.
 GradGradGradGradGradGradGradGradGradGradGradGradGradGradGradGradGradGrad

 Leave Link  103 at Fri Jun  2 10:52:03 2023, MaxMem=  7381975040 cpu:               0.1 elap:               0.8
 (Enter /software/commercial/gaussian/g16/AVX/g16/l202.exe)
                          Input orientation:                          
 ---------------------------------------------------------------------
 Center     Atomic      Atomic             Coordinates (Angstroms)
 Number     Number       Type             X           Y           Z
 ---------------------------------------------------------------------
      1          7           0       -0.028701    0.106899   -0.023209
      2          6           0        1.086344   -0.640834    0.048070
      3          6           0       -0.446596    0.573278   -1.275146
      4          6           0        0.375902    0.187844   -2.269593
      5         16           0        1.668261   -0.769228   -1.580185
      6          6           0       -0.838543    0.390513    1.178893
      7          6           0       -2.064321   -0.511696    1.263218
      8          1           0       -2.630816   -0.280477    2.168058
      9          1           0       -2.723661   -0.369336    0.403789
     10          1           0       -1.764551   -1.561372    1.300520
     11          1           0       -1.125225    1.443636    1.148080
     12          1           0       -0.181071    0.240341    2.032736
     13          1           0       -1.338106    1.177088   -1.351518
     14          1           0        0.297274    0.414065   -3.320642
 ---------------------------------------------------------------------
                    Distance matrix (angstroms):
                    1          2          3          4          5
     1  N    0.000000
     2  C    1.344437   0.000000
     3  C    1.399819   2.361117   0.000000
     4  C    2.283965   2.561835   1.346843   0.000000
     5  S    2.464032   1.733877   2.523488   1.749703   0.000000
     6  C    1.476933   2.459192   2.491854   3.661695   3.904047
     7  C    2.486223   3.379342   3.199609   4.350265   4.699302
     8  H    3.423845   4.294355   4.165978   5.380746   5.724533
     9  H    2.769826   3.836194   2.982008   4.130946   4.835809
    10  H    2.747464   3.247094   3.595524   4.515197   4.550841
    11  H    2.088336   3.232038   2.662722   3.938386   4.488180
    12  H    2.065897   2.514300   3.335181   4.338549   4.182398
    13  H    2.150407   3.337909   1.079448   2.181579   3.588687
    14  H    3.327713   3.617135   2.182371   1.077990   2.511768
                    6          7          8          9         10
     6  C    0.000000
     7  C    1.524344   0.000000
     8  H    2.154279   1.092298   0.000000
     9  H    2.175276   1.092526   1.768943   0.000000
    10  H    2.163825   1.092279   1.773057   1.773406   0.000000
    11  H    1.091881   2.172207   2.505938   2.528999   3.076044
    12  H    1.088057   2.168951   2.508150   3.080574   2.507931
    13  H    2.696524   3.196283   4.022811   2.718877   3.835925
    14  H    4.640738   5.238887   6.259547   4.859131   5.432183
                   11         12         13         14
    11  H    0.000000
    12  H    1.766907   0.000000
    13  H    2.522768   3.697214   0.000000
    14  H    4.801354   5.377513   2.670977   0.000000
 Symmetry turned off by external request.
 Stoichiometry    C5H7NS
 Framework group  C1[X(C5H7NS)]
 Deg. of freedom    36
 Full point group                 C1      NOp   1
 Rotational constants (GHZ):           5.6522186           1.4938315           1.2996181
 Leave Link  202 at Fri Jun  2 10:52:05 2023, MaxMem=  7381975040 cpu:               0.0 elap:               0.5
 (Enter /software/commercial/gaussian/g16/AVX/g16/l301.exe)
 Standard basis: 6-311+G(d,p) (5D, 7F)
 Ernie: Thresh=  0.10000D-02 Tol=  0.10000D-05 Strict=F.
   204 basis functions,   322 primitive gaussians,   211 cartesian basis functions
    30 alpha electrons       30 beta electrons
       nuclear repulsion energy       349.1804009632 Hartrees.
 IExCor=  402 DFT=T Ex+Corr=B3LYP ExCW=0 ScaHFX=  0.200000
 ScaDFX=  0.800000  0.720000  1.000000  0.810000 ScalE2=  1.000000  1.000000
 IRadAn=      5 IRanWt=     -1 IRanGd=            0 ICorTp=0 IEmpDi=141
 NAtoms=   14 NActive=   14 NUniq=   14 SFac= 1.00D+00 NAtFMM=   60 NAOKFM=F Big=F
 Integral buffers will be    131072 words long.
 Raffenetti 2 integral format.
 Two-electron integral symmetry is turned off.
 R6Disp:  Grimme-D3(BJ) Dispersion energy=       -0.0239670207 Hartrees.
 Nuclear repulsion after empirical dispersion term =      349.1564339425 Hartrees.
 Force inversion solution in PCM.
 ------------------------------------------------------------------------------
 Polarizable Continuum Model (PCM)
 =================================
 Model                : PCM.
 Atomic radii         : UFF (Universal Force Field).
 Polarization charges : Total charges.
 Charge compensation  : None.
 Solution method      : Matrix inversion.
 Cavity type          : Scaled VdW (van der Waals Surface) (Alpha=1.100).
 Cavity algorithm     : GePol (No added spheres)
                        Default sphere list used, NSphG=   14.
                        Lebedev-Laikov grids with approx.  5.0 points / Ang**2.
                        Smoothing algorithm: York/Karplus (Gamma=1.0000).
                        Polarization charges: spherical gaussians, with
                                              point-specific exponents (IZeta= 3).
                        Self-potential: point-specific (ISelfS= 7).
                        Self-field    : sphere-specific E.n sum rule (ISelfD= 2).
 1st derivatives      : Analytical E(r).r(x)/FMM algorithm (CHGder, D1EAlg=3).
                        Cavity 1st derivative terms included.
 2nd derivatives      : Analytical E(r).r(xy)/FMM algorithm (CHGder, D2EAlg=3).
                        Cavity 2nd derivative terms included.
 Solvent              : Ethanol, Eps=  24.852000 Eps(inf)=   1.852593
 ------------------------------------------------------------------------------
 Spheres list:
 ISph  on   Nord     Re0    Alpha      Xe            Ye            Ze
    1   N      1    1.8300  1.100     -0.028701      0.106899     -0.023209
    2   C      2    1.9255  1.100      1.086344     -0.640834      0.048070
    3   C      3    1.9255  1.100     -0.446596      0.573278     -1.275146
    4   C      4    1.9255  1.100      0.375902      0.187844     -2.269593
    5   S      5    2.0175  1.100      1.668261     -0.769228     -1.580185
    6   C      6    1.9255  1.100     -0.838543      0.390513      1.178893
    7   C      7    1.9255  1.100     -2.064321     -0.511696      1.263218
    8   H      8    1.4430  1.100     -2.630816     -0.280477      2.168058
    9   H      9    1.4430  1.100     -2.723661     -0.369336      0.403789
   10   H     10    1.4430  1.100     -1.764551     -1.561372      1.300520
   11   H     11    1.4430  1.100     -1.125225      1.443636      1.148080
   12   H     12    1.4430  1.100     -0.181071      0.240341      2.032736
   13   H     13    1.4430  1.100     -1.338106      1.177088     -1.351518
   14   H     14    1.4430  1.100      0.297274      0.414065     -3.320642
 ------------------------------------------------------------------------------
 GePol: Number of generator spheres                  =      14
 GePol: Total number of spheres                      =      14
 GePol: Number of exposed spheres                    =      14 (100.00%)
 GePol: Number of points                             =    1272
 GePol: Average weight of points                     =       0.14
 GePol: Minimum weight of points                     =   0.13D-09
 GePol: Maximum weight of points                     =    0.20577
 GePol: Number of points with low weight             =      69
 GePol: Fraction of low-weight points (<1% of avg)   =       5.42%
 GePol: Cavity surface area                          =    173.190 Ang**2
 GePol: Cavity volume                                =    167.835 Ang**3
 Leave Link  301 at Fri Jun  2 10:52:07 2023, MaxMem=  7381975040 cpu:               0.4 elap:               0.8
 (Enter /software/commercial/gaussian/g16/AVX/g16/l302.exe)
 NPDir=0 NMtPBC=     1 NCelOv=     1 NCel=       1 NClECP=     1 NCelD=      1
         NCelK=      1 NCelE2=     1 NClLst=     1 CellRange=     0.0.
 One-electron integrals computed using PRISM.
 NBasis=   204 RedAO= T EigKep=  2.42D-05  NBF=   204
 NBsUse=   204 1.00D-06 EigRej= -1.00D+00 NBFU=   204
 Precomputing XC quadrature grid using
 IXCGrd= 4 IRadAn=           5 IRanWt=          -1 IRanGd=           0 AccXCQ= 0.00D+00.
 Generated NRdTot=       0 NPtTot=           0 NUsed=           0 NTot=          32
 NSgBfM=   211   211   211   211   211 MxSgAt=    14 MxSgA2=    14.
 Leave Link  302 at Fri Jun  2 10:52:08 2023, MaxMem=  7381975040 cpu:               0.6 elap:               1.0
 (Enter /software/commercial/gaussian/g16/AVX/g16/l303.exe)
 DipDrv:  MaxL=1.
 Leave Link  303 at Fri Jun  2 10:52:09 2023, MaxMem=  7381975040 cpu:               0.1 elap:               0.5
 (Enter /software/commercial/gaussian/g16/AVX/g16/l401.exe)
 Initial guess from the checkpoint file:  "/scratch1/svicchi/G09-659735.pbs02/02-freq/3ethylthiazolium-H_dissociation-site_index-1-freq.chk"
 B after Tr=     0.000000    0.000000    0.000000
         Rot=    1.000000    0.000000    0.000000    0.000000 Ang=   0.00 deg.
 Guess basis will be translated and rotated to current coordinates.
 JPrj=2 DoOrth=T DoCkMO=T.
 Leave Link  401 at Fri Jun  2 10:52:11 2023, MaxMem=  7381975040 cpu:               0.4 elap:               0.8
 (Enter /software/commercial/gaussian/g16/AVX/g16/l502.exe)
 Keep R1 ints in memory in canonical form, NReq=223389504.
 FoFCou: FMM=F IPFlag=           0 FMFlag=           0 FMFlg1=           0
         NFxFlg=           0 DoJE=F BraDBF=F KetDBF=F FulRan=T
         wScrn=  0.000000 ICntrl=       600 IOpCl=  0 I1Cent=           0 NGrid=           0
         NMat0=    1 NMatS0=  20910 NMatT0=    0 NMatD0=    1 NMtDS0=    0 NMtDT0=    0
 Symmetry not used in FoFCou.
 Two-electron integral symmetry not used.
 Closed shell SCF:
 Using DIIS extrapolation, IDIIS=  1040.
 NGot=  7381975040 LenX=  7163258250 LenY=  7163213288
 Requested convergence on RMS density matrix=1.00D-08 within 350 cycles.
 Requested convergence on MAX density matrix=1.00D-06.
 Requested convergence on             energy=1.00D-06.
 No special actions if energy rises.

 Cycle   1  Pass 1  IDiag  1:
 Inv3:  Mode=1 IEnd=     4853952.
 Iteration    1 A*A^-1 deviation from unit magnitude is 4.44D-15 for   1268.
 Iteration    1 A*A^-1 deviation from orthogonality  is 2.01D-15 for    842    532.
 Iteration    1 A^-1*A deviation from unit magnitude is 4.44D-15 for   1268.
 Iteration    1 A^-1*A deviation from orthogonality  is 1.18D-14 for    879    842.
 E= -647.754754350956    
 DIIS: error= 3.69D-08 at cycle   1 NSaved=   1.
 NSaved= 1 IEnMin= 1 EnMin= -647.754754350956     IErMin= 1 ErrMin= 3.69D-08
 ErrMax= 3.69D-08  0.00D+00 EMaxC= 1.00D-01 BMatC= 1.80D-13 BMatP= 1.80D-13
 IDIUse=1 WtCom= 1.00D+00 WtEn= 0.00D+00
 Coeff-Com:  0.100D+01
 Coeff:      0.100D+01
 Gap=     0.216 Goal=   None    Shift=    0.000
 RMSDP=4.75D-09 MaxDP=1.71D-07              OVMax= 3.71D-07

 Error on total polarization charges =  0.01816
 SCF Done:  E(RB3LYP) =  -647.754754351     A.U. after    1 cycles
            NFock=  1  Conv=0.47D-08     -V/T= 2.0026
 KE= 6.460579966732D+02 PE=-2.224243138803D+03 EE= 5.812739538360D+02
 Leave Link  502 at Fri Jun  2 10:52:26 2023, MaxMem=  7381975040 cpu:              25.4 elap:              14.3
 (Enter /software/commercial/gaussian/g16/AVX/g16/l508.exe)
 QCSCF skips out because SCF is already converged.
 Leave Link  508 at Fri Jun  2 10:52:29 2023, MaxMem=  7381975040 cpu:               0.0 elap:               0.7
 (Enter /software/commercial/gaussian/g16/AVX/g16/l801.exe)
 DoSCS=F DFT=T ScalE2(SS,OS)=  1.000000  1.000000
 Range of M.O.s used for correlation:     1   204
 NBasis=   204 NAE=    30 NBE=    30 NFC=     0 NFV=     0
 NROrb=    204 NOA=    30 NOB=    30 NVA=   174 NVB=   174

 **** Warning!!: The largest alpha MO coefficient is  0.61099609D+02

 Leave Link  801 at Fri Jun  2 10:52:31 2023, MaxMem=  7381975040 cpu:               0.3 elap:               1.4
 (Enter /software/commercial/gaussian/g16/AVX/g16/l1002.exe)
 Minotr:  Closed shell wavefunction.
 NEqPCM:  Using equilibrium solvation (IEInf=0, Eps=  24.8520, EpsInf=   1.8526)
          Direct CPHF calculation.
          Differentiating once with respect to electric field.
                with respect to dipole field.
          Electric field/nuclear overlap derivatives assumed to be zero.
          Requested convergence is 1.0D-08 RMS, and 1.0D-07 maximum.
          Secondary convergence is 1.0D-12 RMS, and 1.0D-12 maximum.
          NewPWx=F KeepS1=T KeepF1=T KeepIn=T MapXYZ=F SortEE=F KeepMc=T.
         4306 words used for storage of precomputed grid.
 Keep R1 ints in memory in canonical form, NReq=223777824.
 FoFCou: FMM=F IPFlag=           0 FMFlag=           0 FMFlg1=           0
         NFxFlg=           0 DoJE=F BraDBF=F KetDBF=F FulRan=T
         wScrn=  0.000000 ICntrl=       600 IOpCl=  0 I1Cent=           0 NGrid=           0
         NMat0=    1 NMatS0=  20910 NMatT0=    0 NMatD0=    1 NMtDS0=    0 NMtDT0=    0
 Symmetry not used in FoFCou.
 Two-electron integral symmetry not used.
          MDV=    7381975040 using IRadAn=       1.
          Solving linear equations simultaneously, MaxMat=       0.
          There are     3 degrees of freedom in the 1st order CPHF.  IDoFFX=0 NUNeed=     3.
      3 vectors produced by pass  0 Test12= 1.74D-13 3.33D-08 XBig12= 9.80D+01 5.47D+00.
 AX will form     3 AO Fock derivatives at one time.
      3 vectors produced by pass  1 Test12= 1.74D-13 3.33D-08 XBig12= 4.70D+01 1.97D+00.
      3 vectors produced by pass  2 Test12= 1.74D-13 3.33D-08 XBig12= 5.52D+00 5.51D-01.
      3 vectors produced by pass  3 Test12= 1.74D-13 3.33D-08 XBig12= 1.49D+00 2.52D-01.
      3 vectors produced by pass  4 Test12= 1.74D-13 3.33D-08 XBig12= 2.14D-01 8.91D-02.
      3 vectors produced by pass  5 Test12= 1.74D-13 3.33D-08 XBig12= 2.73D-02 2.90D-02.
      3 vectors produced by pass  6 Test12= 1.74D-13 3.33D-08 XBig12= 2.39D-03 8.26D-03.
      3 vectors produced by pass  7 Test12= 1.74D-13 3.33D-08 XBig12= 1.03D-04 2.67D-03.
      3 vectors produced by pass  8 Test12= 1.74D-13 3.33D-08 XBig12= 3.70D-06 2.55D-04.
      3 vectors produced by pass  9 Test12= 1.74D-13 3.33D-08 XBig12= 1.11D-07 5.51D-05.
      3 vectors produced by pass 10 Test12= 1.74D-13 3.33D-08 XBig12= 3.81D-09 9.58D-06.
      3 vectors produced by pass 11 Test12= 1.74D-13 3.33D-08 XBig12= 1.09D-10 1.68D-06.
      3 vectors produced by pass 12 Test12= 1.74D-13 3.33D-08 XBig12= 2.42D-12 2.66D-07.
      1 vectors produced by pass 13 Test12= 1.74D-13 3.33D-08 XBig12= 6.02D-14 5.81D-08.
 InvSVY:  IOpt=1 It=  1 EMax= 3.55D-15
 Solved reduced A of dimension    40 with     3 vectors.
 End of Minotr F.D. properties file   721 does not exist.
 End of Minotr F.D. properties file   722 does not exist.
 End of Minotr F.D. properties file   788 does not exist.
 Leave Link 1002 at Fri Jun  2 10:53:50 2023, MaxMem=  7381975040 cpu:             148.0 elap:              77.8
 (Enter /software/commercial/gaussian/g16/AVX/g16/l1101.exe)
 Using compressed storage, NAtomX=    14.
 Will process     15 centers per pass.
 R6Disp: Adding Grimme-D3(BJ) dispersion energy 1st derivatives to the gradient.
 Leave Link 1101 at Fri Jun  2 10:53:52 2023, MaxMem=  7381975040 cpu:               0.7 elap:               1.3
 (Enter /software/commercial/gaussian/g16/AVX/g16/l1102.exe)
 Symmetrizing basis deriv contribution to polar:
 IMax=3 JMax=2 DiffMx= 0.00D+00
 Leave Link 1102 at Fri Jun  2 10:53:53 2023, MaxMem=  7381975040 cpu:               0.1 elap:               0.4
 (Enter /software/commercial/gaussian/g16/AVX/g16/l1110.exe)
 Forming Gx(P) for the SCF density, NAtomX=    14.
 Integral derivatives from FoFJK, PRISM(SPDF).
 Do as many integral derivatives as possible in FoFJK.
 G2DrvN: MDV=    7381973462.
 G2DrvN: will do    15 centers at a time, making    1 passes.
 PxScal for G2LodP:  IOpCl= 0 ISclPx=1 IMOff=     1 NMtTot=     4 NTT=   20910 ScalPx= 1.09D+01
 Calling FoFCou, ICntrl=  3107 FMM=F I1Cent=   0 AccDes= 0.00D+00.
 FoFJK:  IHMeth= 1 ICntrl=    3107 DoSepK=F KAlg= 0 I1Cent=           0 FoldK=F
 IRaf=         0 NMat=       1 IRICut=       1 DoRegI=T DoRafI=F ISym2E= 0 IDoP0=0 IntGTp=1.
 FoFCou: FMM=F IPFlag=           0 FMFlag=      100000 FMFlg1=           0
         NFxFlg=           0 DoJE=F BraDBF=F KetDBF=F FulRan=T
         wScrn=  0.000000 ICntrl=      3107 IOpCl=  0 I1Cent=           0 NGrid=           0
         NMat0=    1 NMatS0=      1 NMatT0=    0 NMatD0=    4 NMtDS0=    3 NMtDT0=    0
 Symmetry not used in FoFCou.
 PxScal for G2LodP:  IOpCl= 0 ISclPx=0 IMOff=     1 NMtTot=     4 NTT=   20910 ScalPx= 1.00D+00
 NEqPCM:  Using equilibrium solvation (IEInf=0, Eps=  24.8520, EpsInf=   1.8526)
 G2PCM: DoFxE=T DoFxN=T DoGrad=T DoDP/DQ/DG/TGxP=TFFF NFrqRd=   0 IEInf=0 SqF1=F DoCFld=F IF1Alg=4.
 GePol: Maximum number of non-zero 1st derivatives   =     279
 End of G2Drv F.D. properties file   721 does not exist.
 End of G2Drv F.D. properties file   722 does not exist.
 End of G2Drv F.D. properties file   788 does not exist.
 Leave Link 1110 at Fri Jun  2 10:57:23 2023, MaxMem=  7381975040 cpu:             414.3 elap:             209.6
 (Enter /software/commercial/gaussian/g16/AVX/g16/l1002.exe)
 Minotr:  Closed shell wavefunction.
          IDoAtm=11111111111111
 NEqPCM:  Using equilibrium solvation (IEInf=0, Eps=  24.8520, EpsInf=   1.8526)
          Direct CPHF calculation.
          Differentiating once with respect to electric field.
                with respect to dipole field.
          Differentiating once with respect to nuclear coordinates.
          Requested convergence is 1.0D-08 RMS, and 1.0D-07 maximum.
          Secondary convergence is 1.0D-12 RMS, and 1.0D-12 maximum.
          NewPWx=T KeepS1=F KeepF1=F KeepIn=T MapXYZ=F SortEE=F KeepMc=T.
         4306 words used for storage of precomputed grid.
 Keep R1 ints in memory in canonical form, NReq=223778146.
 FoFCou: FMM=F IPFlag=           0 FMFlag=           0 FMFlg1=           0
         NFxFlg=           0 DoJE=F BraDBF=F KetDBF=F FulRan=T
         wScrn=  0.000000 ICntrl=       600 IOpCl=  0 I1Cent=           0 NGrid=           0
         NMat0=    1 NMatS0=  20910 NMatT0=    0 NMatD0=    1 NMtDS0=    0 NMtDT0=    0
 Symmetry not used in FoFCou.
 Two-electron integral symmetry not used.
          MDV=    7381975040 using IRadAn=       1.
          Solving linear equations simultaneously, MaxMat=       0.
          There are    45 degrees of freedom in the 1st order CPHF.  IDoFFX=5 NUNeed=    45.
 Will reuse    3 saved solutions.
     39 vectors produced by pass  0 Test12= 1.16D-14 2.22D-09 XBig12= 1.42D-01 1.12D-01.
 AX will form    39 AO Fock derivatives at one time.
     39 vectors produced by pass  1 Test12= 1.16D-14 2.22D-09 XBig12= 2.58D-02 5.12D-02.
     39 vectors produced by pass  2 Test12= 1.16D-14 2.22D-09 XBig12= 3.08D-04 3.81D-03.
     39 vectors produced by pass  3 Test12= 1.16D-14 2.22D-09 XBig12= 1.71D-06 1.88D-04.
     39 vectors produced by pass  4 Test12= 1.16D-14 2.22D-09 XBig12= 5.09D-09 9.58D-06.
     34 vectors produced by pass  5 Test12= 1.16D-14 2.22D-09 XBig12= 8.36D-12 3.16D-07.
      9 vectors produced by pass  6 Test12= 1.16D-14 2.22D-09 XBig12= 1.23D-14 1.56D-08.
 InvSVY:  IOpt=1 It=  1 EMax= 2.00D-15
 Solved reduced A of dimension   238 with    39 vectors.
 FullF1:  Do perturbations      1 to       3.
 Isotropic polarizability for W=    0.000000      110.62 Bohr**3.
 FullF1:  Do perturbations      1 to       6.
 End of Minotr F.D. properties file   721 does not exist.
 End of Minotr F.D. properties file   722 does not exist.
 End of Minotr F.D. properties file   788 does not exist.
 Leave Link 1002 at Fri Jun  2 11:01:28 2023, MaxMem=  7381975040 cpu:             467.5 elap:             244.0
 (Enter /software/commercial/gaussian/g16/AVX/g16/l601.exe)
 Copying SCF densities to generalized density rwf, IOpCl= 0 IROHF=0.

 **********************************************************************

            Population analysis using the SCF Density.

 **********************************************************************

 Alpha  occ. eigenvalues --  -88.88111 -14.38947 -10.22308 -10.21727 -10.20970
 Alpha  occ. eigenvalues --  -10.20903 -10.17008  -7.96758  -5.93055  -5.92591
 Alpha  occ. eigenvalues --   -5.92420  -1.00525  -0.83930  -0.76054  -0.75603
 Alpha  occ. eigenvalues --   -0.65228  -0.61530  -0.55446  -0.52381  -0.47486
 Alpha  occ. eigenvalues --   -0.45491  -0.44076  -0.42385  -0.39262  -0.38200
 Alpha  occ. eigenvalues --   -0.36529  -0.35105  -0.29307  -0.26226  -0.24480
 Alpha virt. eigenvalues --   -0.02926  -0.00224   0.00571   0.01206   0.02367
 Alpha virt. eigenvalues --    0.03038   0.03198   0.04194   0.05206   0.05531
 Alpha virt. eigenvalues --    0.06436   0.07306   0.08280   0.08384   0.08697
 Alpha virt. eigenvalues --    0.09198   0.10273   0.10704   0.12285   0.12534
 Alpha virt. eigenvalues --    0.13748   0.13967   0.15147   0.15630   0.16291
 Alpha virt. eigenvalues --    0.16622   0.17356   0.18818   0.19600   0.20334
 Alpha virt. eigenvalues --    0.21257   0.22166   0.22589   0.23010   0.23635
 Alpha virt. eigenvalues --    0.24333   0.25411   0.26638   0.27974   0.28734
 Alpha virt. eigenvalues --    0.30280   0.31470   0.32983   0.35555   0.38025
 Alpha virt. eigenvalues --    0.39121   0.40768   0.42281   0.44880   0.46333
 Alpha virt. eigenvalues --    0.46917   0.50423   0.54054   0.54881   0.56250
 Alpha virt. eigenvalues --    0.57747   0.58103   0.60762   0.62075   0.62897
 Alpha virt. eigenvalues --    0.64411   0.66090   0.66426   0.67795   0.68824
 Alpha virt. eigenvalues --    0.71587   0.72571   0.74361   0.75003   0.75863
 Alpha virt. eigenvalues --    0.77000   0.81324   0.81491   0.83184   0.88212
 Alpha virt. eigenvalues --    0.89740   0.92528   0.93743   0.96018   0.97450
 Alpha virt. eigenvalues --    0.99883   1.02497   1.06332   1.08764   1.15520
 Alpha virt. eigenvalues --    1.16788   1.21320   1.25733   1.30862   1.34612
 Alpha virt. eigenvalues --    1.40197   1.44447   1.46367   1.48833   1.50212
 Alpha virt. eigenvalues --    1.53186   1.54464   1.57133   1.59377   1.60322
 Alpha virt. eigenvalues --    1.62123   1.65217   1.65704   1.67000   1.69230
 Alpha virt. eigenvalues --    1.71596   1.74495   1.75805   1.76537   1.80036
 Alpha virt. eigenvalues --    1.81073   1.85882   1.88997   1.91988   1.95597
 Alpha virt. eigenvalues --    1.96782   2.01975   2.05729   2.06980   2.09876
 Alpha virt. eigenvalues --    2.11056   2.13724   2.20826   2.26370   2.29293
 Alpha virt. eigenvalues --    2.37248   2.41229   2.42368   2.44554   2.46138
 Alpha virt. eigenvalues --    2.49876   2.54825   2.56038   2.56524   2.61469
 Alpha virt. eigenvalues --    2.61951   2.67139   2.68089   2.68390   2.72953
 Alpha virt. eigenvalues --    2.75177   2.77778   2.83274   2.84148   2.87091
 Alpha virt. eigenvalues --    2.88552   2.93060   3.10030   3.14628   3.20361
 Alpha virt. eigenvalues --    3.25337   3.45913   3.48210   3.56824   3.65919
 Alpha virt. eigenvalues --    3.79530   3.81284   3.82996   3.89178   4.06442
 Alpha virt. eigenvalues --    4.22228   4.82062   4.92068   7.93338  17.28005
 Alpha virt. eigenvalues --   17.39821  17.45455  23.64341  23.71752  23.85442
 Alpha virt. eigenvalues --   23.96166  24.18289  35.48705 189.08924
     Molecular Orbital Coefficients:
                           1         2         3         4         5
                           O         O         O         O         O
     Eigenvalues --   -88.88111 -14.38947 -10.22308 -10.21727 -10.20970
   1 1   N  1S         -0.00000   0.55737  -0.00004  -0.00002   0.00000
   2        2S          0.00001   0.46574  -0.00007  -0.00006   0.00004
   3        2PX         0.00001  -0.00017  -0.00005  -0.00009  -0.00004
   4        2PY        -0.00000   0.00009   0.00008   0.00004   0.00004
   5        2PZ         0.00000  -0.00000  -0.00032   0.00020  -0.00009
   6        3S         -0.00001   0.01598   0.00067   0.00040  -0.00009
   7        3PX        -0.00004   0.00042  -0.00012  -0.00008   0.00013
   8        3PY         0.00002  -0.00028   0.00000   0.00002  -0.00018
   9        3PZ         0.00001  -0.00039   0.00053  -0.00017   0.00064
  10        4S         -0.00011  -0.01465  -0.00043   0.00089  -0.00166
  11        4PX         0.00019   0.00071   0.00224  -0.00002   0.00168
  12        4PY        -0.00009  -0.00034  -0.00120  -0.00031  -0.00080
  13        4PZ        -0.00019   0.00064  -0.00110   0.00044  -0.00177
  14        5S          0.00045   0.01033   0.01561   0.01070   0.00057
  15        5PX         0.00106   0.00169  -0.00030  -0.00506   0.00148
  16        5PY        -0.00048  -0.00129   0.00129   0.00161   0.00041
  17        5PZ        -0.00114   0.00018  -0.00972   0.00694  -0.00801
  18        6D 0        0.00001   0.00006  -0.00052  -0.00019  -0.00018
  19        6D+1       -0.00001   0.00010  -0.00017   0.00026  -0.00022
  20        6D-1        0.00001  -0.00017   0.00028  -0.00015   0.00019
  21        6D+2       -0.00000   0.00018  -0.00004  -0.00005   0.00006
  22        6D-2        0.00001  -0.00045   0.00018   0.00008  -0.00004
  23 2   C  1S          0.00000  -0.00001  -0.00023  -0.00031  -0.00356
  24        2S         -0.00000   0.00015  -0.00017  -0.00021  -0.00292
  25        2PX         0.00002  -0.00034   0.00002  -0.00002  -0.00000
  26        2PY        -0.00001   0.00023  -0.00002  -0.00001  -0.00001
  27        2PZ        -0.00005  -0.00000   0.00006  -0.00000   0.00007
  28        3S          0.00007   0.00004  -0.00016  -0.00035  -0.00020
  29        3PX        -0.00005   0.00093   0.00004   0.00019   0.00019
  30        3PY         0.00002  -0.00064  -0.00002  -0.00005  -0.00010
  31        3PZ         0.00010   0.00006  -0.00015  -0.00003  -0.00013
  32        4S         -0.00033   0.00038  -0.00258   0.00035  -0.00189
  33        4PX         0.00011  -0.00092   0.00097  -0.00054  -0.00013
  34        4PY        -0.00008   0.00066  -0.00073   0.00025  -0.00020
  35        4PZ         0.00002  -0.00059   0.00093  -0.00014   0.00161
  36        5S         -0.00129  -0.00929  -0.00419   0.00671   0.00355
  37        5PX         0.00030   0.00232  -0.00143  -0.00007  -0.00030
  38        5PY        -0.00019  -0.00181   0.00032   0.00031   0.00015
  39        5PZ        -0.00004   0.00176   0.00358  -0.00101  -0.00017
  40        6D 0       -0.00009   0.00054   0.00009   0.00001   0.00007
  41        6D+1        0.00004  -0.00012   0.00010  -0.00008   0.00001
  42        6D-1        0.00000   0.00007  -0.00009  -0.00001  -0.00002
  43        6D+2       -0.00000  -0.00030  -0.00001   0.00004  -0.00001
  44        6D-2       -0.00001   0.00078  -0.00002  -0.00008   0.00002
  45 3   C  1S         -0.00000   0.00001   0.56266   0.00024  -0.01624
  46        2S          0.00000   0.00001   0.46299   0.00020  -0.01301
  47        2PX        -0.00000   0.00012   0.00005  -0.00001   0.00058
  48        2PY         0.00000  -0.00015  -0.00017  -0.00001  -0.00027
  49        2PZ        -0.00000   0.00041   0.00081   0.00004  -0.00075
  50        3S         -0.00002   0.00030   0.01989  -0.00004  -0.00139
  51        3PX        -0.00003  -0.00028   0.00045  -0.00001  -0.00330
  52        3PY         0.00002   0.00037   0.00009   0.00009   0.00160
  53        3PZ         0.00003  -0.00114  -0.00220  -0.00028   0.00377
  54        4S         -0.00004   0.00531  -0.01418  -0.00173   0.00027
  55        4PX        -0.00013   0.00268  -0.00403  -0.00247   0.00171
  56        4PY         0.00006  -0.00219   0.00257   0.00116  -0.00097
  57        4PZ         0.00007   0.00211   0.00031   0.00247  -0.00144
  58        5S         -0.00232  -0.00108  -0.00326  -0.00581  -0.01478
  59        5PX        -0.00043   0.00052   0.00164  -0.00141  -0.00124
  60        5PY         0.00025   0.00057   0.00096   0.00199   0.00144
  61        5PZ         0.00021  -0.00096  -0.00939  -0.00042  -0.00313
  62        6D 0       -0.00001  -0.00046   0.00006  -0.00003  -0.00060
  63        6D+1        0.00003  -0.00072  -0.00116  -0.00008   0.00220
  64        6D-1       -0.00002   0.00055   0.00042   0.00003  -0.00114
  65        6D+2        0.00000   0.00020   0.00097   0.00009  -0.00065
  66        6D-2       -0.00002  -0.00021  -0.00189  -0.00013   0.00068
  67 4   C  1S          0.00000  -0.00001   0.01604  -0.00016   0.56267
  68        2S         -0.00001   0.00005   0.01354  -0.00010   0.46300
  69        2PX         0.00004  -0.00004  -0.00043   0.00001   0.00069
  70        2PY        -0.00003   0.00001   0.00018  -0.00000  -0.00045
  71        2PZ         0.00001   0.00007   0.00064   0.00002  -0.00002
  72        3S          0.00008  -0.00024  -0.00018  -0.00034   0.01977
  73        3PX        -0.00011   0.00044   0.00219   0.00000  -0.00292
  74        3PY         0.00007  -0.00013  -0.00090   0.00001   0.00180
  75        3PZ        -0.00002  -0.00088  -0.00347  -0.00016   0.00098
  76        4S          0.00017  -0.00207   0.00127   0.00442  -0.01202
  77        4PX         0.00010  -0.00026  -0.00099  -0.00112   0.00046
  78        4PY        -0.00005   0.00058   0.00039   0.00045   0.00044
  79        4PZ        -0.00012  -0.00264   0.00177   0.00205  -0.00465
  80        5S          0.00120  -0.00380  -0.00723   0.00900   0.01348
  81        5PX        -0.00028  -0.00098   0.00413   0.00032   0.00105
  82        5PY         0.00014   0.00023  -0.00297  -0.00114  -0.00148
  83        5PZ         0.00026   0.00009  -0.00048   0.00276   0.00426
  84        6D 0        0.00004   0.00013  -0.00043   0.00003   0.00233
  85        6D+1       -0.00007   0.00035   0.00180   0.00001  -0.00165
  86        6D-1        0.00004  -0.00026  -0.00094  -0.00001   0.00030
  87        6D+2       -0.00001  -0.00007  -0.00057   0.00001   0.00046
  88        6D-2        0.00005   0.00002   0.00066  -0.00001  -0.00056
  89 5   S  1S          0.41089  -0.00000  -0.00000  -0.00000  -0.00000
  90        2S          0.65437   0.00000   0.00000   0.00000  -0.00001
  91        3S          0.01535  -0.00004  -0.00001  -0.00004   0.00006
  92        4S         -0.00456   0.00009   0.00002   0.00009  -0.00017
  93        5S          0.00183  -0.00011  -0.00000  -0.00028   0.00054
  94        6S         -0.00151   0.00031  -0.00024   0.00059   0.00198
  95        7S          0.00067   0.00668   0.00015  -0.00439  -0.00993
  96        7PX        -0.00039  -0.00189   0.00067   0.00054   0.00295
  97        7PY         0.00025   0.00142  -0.00067  -0.00019  -0.00175
  98        7PZ         0.00010  -0.00029   0.00226  -0.00071  -0.00070
  99        8PX        -0.00007   0.00001   0.00000   0.00000  -0.00001
 100        8PY         0.00004  -0.00000  -0.00000  -0.00000   0.00000
 101        8PZ         0.00002  -0.00000  -0.00000  -0.00000  -0.00001
 102        9PX         0.00003  -0.00004  -0.00003  -0.00000   0.00007
 103        9PY        -0.00002   0.00003   0.00002   0.00000  -0.00005
 104        9PZ        -0.00001   0.00000   0.00001   0.00000   0.00006
 105       10PX        -0.00000   0.00014   0.00009   0.00000  -0.00026
 106       10PY         0.00000  -0.00011  -0.00004  -0.00000   0.00021
 107       10PZ        -0.00001   0.00005  -0.00008  -0.00001  -0.00025
 108       11PX        -0.00009  -0.00024  -0.00015   0.00009  -0.00048
 109       11PY         0.00005   0.00026   0.00003  -0.00006   0.00029
 110       11PZ         0.00009  -0.00052   0.00034   0.00002   0.00023
 111       12PX         0.00045   0.00019   0.00043  -0.00034  -0.00084
 112       12PY        -0.00026  -0.00029  -0.00025   0.00020   0.00046
 113       12PZ        -0.00025   0.00056  -0.00017   0.00056   0.00041
 114       13D 0        0.00002  -0.00014   0.00003   0.00002  -0.00003
 115       13D+1       -0.00000   0.00007  -0.00017   0.00001   0.00006
 116       13D-1       -0.00001  -0.00002   0.00010   0.00000  -0.00003
 117       13D+2        0.00001   0.00001   0.00003  -0.00002  -0.00000
 118       13D-2       -0.00002  -0.00006  -0.00001   0.00001  -0.00001
 119 6   C  1S         -0.00000   0.00001  -0.00023   0.56301   0.00016
 120        2S          0.00000  -0.00002  -0.00019   0.46324   0.00016
 121        2PX        -0.00000   0.00015  -0.00001   0.00026  -0.00000
 122        2PY        -0.00000  -0.00009  -0.00003  -0.00031  -0.00001
 123        2PZ        -0.00000  -0.00025   0.00005  -0.00079   0.00001
 124        3S         -0.00005   0.00005  -0.00018   0.01937  -0.00050
 125        3PX         0.00000  -0.00013   0.00009   0.00037   0.00008
 126        3PY         0.00001   0.00036   0.00011   0.00137   0.00010
 127        3PZ         0.00000   0.00045  -0.00020   0.00156  -0.00001
 128        4S          0.00059   0.00413   0.00298  -0.01643   0.00546
 129        4PX         0.00015   0.00057   0.00003   0.00052   0.00062
 130        4PY        -0.00005  -0.00023  -0.00063   0.00115  -0.00025
 131        4PZ        -0.00021  -0.00147  -0.00083   0.00239  -0.00197
 132        5S          0.00157  -0.01030  -0.00143  -0.02944   0.00706
 133        5PX         0.00026   0.00156   0.00104   0.00104   0.00114
 134        5PY        -0.00020   0.00222   0.00222   0.00337  -0.00014
 135        5PZ        -0.00036   0.00107  -0.00186   0.00371  -0.00247
 136        6D 0        0.00000  -0.00026   0.00011  -0.00023   0.00006
 137        6D+1       -0.00000   0.00040  -0.00001   0.00102  -0.00000
 138        6D-1        0.00000  -0.00014  -0.00005  -0.00028  -0.00002
 139        6D+2        0.00000  -0.00018  -0.00003  -0.00041  -0.00004
 140        6D-2       -0.00000   0.00009   0.00002  -0.00037  -0.00001
 141 7   C  1S         -0.00000  -0.00000   0.00000   0.00138  -0.00001
 142        2S          0.00000   0.00001  -0.00000   0.00110   0.00000
 143        2PX         0.00000   0.00007   0.00002   0.00039   0.00003
 144        2PY         0.00000   0.00005  -0.00000   0.00030   0.00002
 145        2PZ        -0.00000  -0.00001   0.00002   0.00004  -0.00001
 146        3S         -0.00001  -0.00008   0.00012   0.00027   0.00002
 147        3PX        -0.00002  -0.00041  -0.00008  -0.00102  -0.00014
 148        3PY        -0.00001  -0.00028   0.00002  -0.00075  -0.00007
 149        3PZ         0.00001   0.00005  -0.00008  -0.00013   0.00007
 150        4S         -0.00001  -0.00025  -0.00117   0.00504  -0.00122
 151        4PX         0.00005   0.00001  -0.00044   0.00115   0.00013
 152        4PY         0.00004  -0.00033  -0.00022   0.00121  -0.00019
 153        4PZ        -0.00002  -0.00012   0.00062  -0.00009   0.00026
 154        5S         -0.00030   0.00997   0.00709   0.01575   0.00032
 155        5PX        -0.00005   0.00235   0.00158   0.00325   0.00012
 156        5PY        -0.00002   0.00109   0.00077   0.00195   0.00019
 157        5PZ         0.00004  -0.00099  -0.00045  -0.00089   0.00001
 158        6D 0        0.00000   0.00011   0.00002   0.00051   0.00001
 159        6D+1       -0.00000  -0.00002   0.00000  -0.00006  -0.00002
 160        6D-1        0.00000   0.00007   0.00003   0.00001   0.00004
 161        6D+2        0.00000  -0.00005   0.00000  -0.00016   0.00000
 162        6D-2        0.00000  -0.00013   0.00000  -0.00076   0.00000
 163 8   H  1S         -0.00000  -0.00005  -0.00001  -0.00002  -0.00003
 164        2S          0.00001   0.00001   0.00005  -0.00111   0.00017
 165        3S          0.00007   0.00011  -0.00043  -0.00047   0.00021
 166        4PX         0.00000  -0.00001   0.00001  -0.00018   0.00001
 167        4PY         0.00000   0.00005   0.00002   0.00009   0.00004
 168        4PZ         0.00000   0.00005  -0.00001   0.00036  -0.00002
 169 9   H  1S         -0.00000   0.00005   0.00002  -0.00004  -0.00003
 170        2S          0.00001  -0.00024   0.00008  -0.00101   0.00032
 171        3S          0.00012  -0.00034  -0.00016  -0.00035   0.00032
 172        4PX         0.00000  -0.00016  -0.00007  -0.00019   0.00001
 173        4PY        -0.00000   0.00002  -0.00005   0.00009  -0.00002
 174        4PZ        -0.00000  -0.00003   0.00004  -0.00029   0.00004
 175 10  H  1S         -0.00000   0.00006  -0.00003  -0.00007  -0.00002
 176        2S          0.00002  -0.00038   0.00032  -0.00074   0.00016
 177        3S          0.00006  -0.00053  -0.00036  -0.00033   0.00035
 178        4PX        -0.00000  -0.00003   0.00000   0.00015   0.00001
 179        4PY         0.00000  -0.00014   0.00002  -0.00024   0.00002
 180        4PZ        -0.00000   0.00007  -0.00000   0.00003  -0.00003
 181 11  H  1S          0.00000   0.00000   0.00001   0.00004   0.00004
 182        2S         -0.00006  -0.00120  -0.00032  -0.00251  -0.00076
 183        3S          0.00027   0.00060  -0.00017   0.00377   0.00049
 184        4PX        -0.00000  -0.00011   0.00001  -0.00065  -0.00003
 185        4PY         0.00001   0.00031   0.00005   0.00200   0.00011
 186        4PZ        -0.00000   0.00001   0.00012  -0.00024   0.00003
 187 12  H  1S          0.00000   0.00000   0.00006   0.00006   0.00004
 188        2S         -0.00006  -0.00097  -0.00045  -0.00311  -0.00051
 189        3S          0.00015   0.00027   0.00197   0.00324   0.00164
 190        4PX         0.00000   0.00013   0.00004   0.00138   0.00005
 191        4PY        -0.00000  -0.00005   0.00001  -0.00047  -0.00003
 192        4PZ         0.00001   0.00023   0.00001   0.00170   0.00007
 193 13  H  1S         -0.00000  -0.00015   0.00015   0.00008  -0.00020
 194        2S         -0.00008  -0.00022  -0.00467  -0.00114  -0.00043
 195        3S          0.00011   0.00175   0.00149  -0.00036   0.00109
 196        4PX        -0.00002  -0.00023  -0.00203  -0.00010  -0.00042
 197        4PY         0.00001   0.00020   0.00141   0.00009   0.00025
 198        4PZ         0.00000  -0.00031  -0.00037  -0.00021   0.00022
 199 14  H  1S          0.00000   0.00001  -0.00019  -0.00000   0.00011
 200        2S         -0.00011  -0.00119  -0.00097  -0.00009  -0.00476
 201        3S         -0.00003  -0.00023   0.00127   0.00046   0.00182
 202        4PX        -0.00002   0.00001   0.00013   0.00005  -0.00038
 203        4PY         0.00002   0.00005   0.00003  -0.00003   0.00067
 204        4PZ        -0.00003  -0.00031  -0.00070  -0.00007  -0.00247
                           6         7         8         9        10
                           O         O         O         O         O
     Eigenvalues --   -10.20903 -10.17008  -7.96758  -5.93055  -5.92591
   1 1   N  1S         -0.00006   0.00000  -0.00000  -0.00000  -0.00000
   2        2S          0.00001   0.00002   0.00002  -0.00001  -0.00002
   3        2PX         0.00051  -0.00004   0.00003   0.00003  -0.00002
   4        2PY        -0.00035   0.00001  -0.00003  -0.00003   0.00001
   5        2PZ         0.00005   0.00004   0.00004   0.00005   0.00002
   6        3S          0.00042  -0.00011  -0.00004   0.00018   0.00019
   7        3PX        -0.00163   0.00022  -0.00031  -0.00014   0.00017
   8        3PY         0.00111  -0.00002   0.00021   0.00014  -0.00007
   9        3PZ        -0.00018  -0.00019   0.00003  -0.00026  -0.00019
  10        4S         -0.00288   0.00050  -0.00143  -0.00171  -0.00025
  11        4PX         0.00020  -0.00072   0.00268  -0.00016   0.00021
  12        4PY         0.00009   0.00025  -0.00141  -0.00011  -0.00046
  13        4PZ        -0.00023   0.00011  -0.00234   0.00163   0.00163
  14        5S          0.02075   0.00464   0.00877   0.00331   0.00095
  15        5PX         0.01239  -0.00512   0.01788  -0.00200  -0.00013
  16        5PY        -0.00938   0.00209  -0.00792   0.00080   0.00010
  17        5PZ         0.00266   0.00300  -0.01986   0.00187  -0.00107
  18        6D 0        0.00072  -0.00002   0.00008   0.00007  -0.00008
  19        6D+1       -0.00011   0.00005  -0.00018  -0.00004   0.00002
  20        6D-1        0.00009  -0.00002   0.00010   0.00002   0.00000
  21        6D+2       -0.00046   0.00001   0.00000  -0.00003   0.00001
  22        6D-2        0.00113   0.00003   0.00006   0.00008  -0.00002
  23 2   C  1S          0.56294  -0.00000  -0.00005  -0.00006   0.00007
  24        2S          0.46374  -0.00000   0.00001  -0.00010   0.00010
  25        2PX        -0.00073   0.00000   0.00020   0.00011  -0.00011
  26        2PY         0.00078   0.00001  -0.00006  -0.00004   0.00004
  27        2PZ        -0.00190  -0.00001  -0.00052  -0.00022   0.00019
  28        3S          0.01734   0.00005   0.00096   0.00051  -0.00013
  29        3PX        -0.00185  -0.00006  -0.00056  -0.00009   0.00012
  30        3PY         0.00111  -0.00002   0.00018   0.00007  -0.00013
  31        3PZ         0.00045   0.00004   0.00148  -0.00002   0.00034
  32        4S         -0.01828   0.00067  -0.00544   0.00023  -0.00324
  33        4PX         0.00239   0.00044   0.00176   0.00037  -0.00005
  34        4PY        -0.00155   0.00024  -0.00142  -0.00007  -0.00024
  35        4PZ         0.00074  -0.00062   0.00048  -0.00112   0.00193
  36        5S         -0.02348   0.00217  -0.02080  -0.00307   0.00564
  37        5PX         0.00714   0.00043   0.00505  -0.00293  -0.00073
  38        5PY        -0.00477   0.00044  -0.00329   0.00118   0.00055
  39        5PZ         0.00134  -0.00093  -0.00128   0.00433  -0.00120
  40        6D 0       -0.00064   0.00005  -0.00125  -0.00025  -0.00009
  41        6D+1        0.00007   0.00003   0.00051   0.00001   0.00001
  42        6D-1       -0.00003  -0.00000   0.00002   0.00004   0.00003
  43        6D+2        0.00041  -0.00007  -0.00006   0.00006  -0.00005
  44        6D-2       -0.00100  -0.00000   0.00003  -0.00014   0.00011
  45 3   C  1S          0.00012  -0.00000  -0.00001   0.00000   0.00000
  46        2S          0.00014  -0.00001   0.00001  -0.00002  -0.00002
  47        2PX        -0.00005  -0.00001  -0.00007  -0.00003  -0.00001
  48        2PY         0.00002  -0.00001   0.00004   0.00001   0.00000
  49        2PZ         0.00008   0.00000  -0.00002   0.00003   0.00003
  50        3S         -0.00036   0.00018  -0.00010   0.00012   0.00013
  51        3PX         0.00010  -0.00000  -0.00008   0.00037   0.00043
  52        3PY         0.00002   0.00004   0.00005  -0.00020  -0.00024
  53        3PZ        -0.00045   0.00006   0.00028  -0.00026  -0.00018
  54        4S          0.00250  -0.00166  -0.00078   0.00179   0.00385
  55        4PX         0.00116   0.00027  -0.00200   0.00177   0.00331
  56        4PY        -0.00090   0.00025   0.00087  -0.00137  -0.00226
  57        4PZ         0.00070  -0.00144   0.00140   0.00123   0.00056
  58        5S         -0.00549  -0.00099  -0.04397   0.00311  -0.00222
  59        5PX        -0.00217   0.00076  -0.00824   0.00024  -0.00023
  60        5PY         0.00028   0.00025   0.00486   0.00069   0.00005
  61        5PZ         0.01088  -0.00499   0.00322  -0.00419   0.00123
  62        6D 0       -0.00014  -0.00006  -0.00017   0.00011   0.00014
  63        6D+1       -0.00008   0.00003   0.00029  -0.00019  -0.00014
  64        6D-1        0.00005   0.00004  -0.00019   0.00011   0.00008
  65        6D+2        0.00012   0.00001   0.00004   0.00001  -0.00003
  66        6D-2       -0.00026   0.00001  -0.00023   0.00004   0.00015
  67 4   C  1S          0.00356   0.00001  -0.00004   0.00006   0.00004
  68        2S          0.00296   0.00002  -0.00003   0.00015   0.00007
  69        2PX         0.00001   0.00001   0.00046  -0.00022  -0.00014
  70        2PY        -0.00000   0.00000  -0.00033   0.00016   0.00010
  71        2PZ        -0.00001   0.00001   0.00018  -0.00009  -0.00004
  72        3S          0.00001  -0.00011   0.00104  -0.00067   0.00002
  73        3PX         0.00003  -0.00006  -0.00147   0.00009   0.00009
  74        3PY         0.00001  -0.00000   0.00104  -0.00005  -0.00002
  75        3PZ        -0.00028  -0.00003  -0.00041  -0.00010  -0.00037
  76        4S         -0.00163  -0.00012   0.00246  -0.00171  -0.00470
  77        4PX        -0.00002   0.00027   0.00135  -0.00123  -0.00111
  78        4PY         0.00030  -0.00025  -0.00052   0.00100   0.00147
  79        4PZ        -0.00157   0.00087  -0.00206  -0.00117  -0.00449
  80        5S          0.00917  -0.00406   0.02472   0.00310   0.00592
  81        5PX        -0.00650   0.00148  -0.00450   0.00478   0.00028
  82        5PY         0.00377  -0.00095   0.00198  -0.00348  -0.00015
  83        5PZ         0.00165   0.00054   0.00531   0.00144  -0.00057
  84        6D 0        0.00017   0.00000   0.00049  -0.00018  -0.00010
  85        6D+1        0.00013  -0.00002  -0.00084   0.00034   0.00009
  86        6D-1       -0.00013   0.00001   0.00055  -0.00017  -0.00002
  87        6D+2       -0.00003   0.00002  -0.00023  -0.00006  -0.00006
  88        6D-2        0.00001  -0.00001   0.00083   0.00001   0.00010
  89 5   S  1S         -0.00000  -0.00000  -0.11961  -0.00025  -0.00076
  90        2S         -0.00000   0.00000  -0.32015  -0.00068  -0.00205
  91        3S          0.00002  -0.00002   0.51741   0.00116   0.00336
  92        4S         -0.00008   0.00004   0.59255   0.00127   0.00411
  93        5S          0.00036  -0.00012   0.05598  -0.00031  -0.00137
  94        6S          0.00144  -0.00020  -0.02899   0.00127   0.00602
  95        7S          0.00989  -0.00040   0.00962  -0.00085  -0.00762
  96        7PX        -0.00279  -0.00041  -0.00632   0.00035   0.00056
  97        7PY         0.00230  -0.00000   0.00399  -0.00033  -0.00041
  98        7PZ        -0.00290  -0.00006   0.00183   0.00096   0.00077
  99        8PX         0.00000   0.00000  -0.00183   0.14244   0.28091
 100        8PY        -0.00000   0.00000   0.00113  -0.14244  -0.15953
 101        8PZ         0.00001   0.00000   0.00051   0.31958  -0.19631
 102        9PX         0.00000  -0.00000  -0.00400   0.26666   0.52549
 103        9PY         0.00001  -0.00000   0.00247  -0.26667  -0.29844
 104        9PZ        -0.00008  -0.00000   0.00111   0.59830  -0.36725
 105       10PX        -0.00000   0.00001  -0.00011   0.02283   0.04484
 106       10PY        -0.00005   0.00001   0.00009  -0.02282  -0.02545
 107       10PZ         0.00037   0.00002  -0.00019   0.05113  -0.03128
 108       11PX        -0.00052   0.00005  -0.00196  -0.00354  -0.00753
 109       11PY         0.00031  -0.00009   0.00109   0.00349   0.00429
 110       11PZ         0.00012  -0.00012   0.00152  -0.00757   0.00486
 111       12PX        -0.00017  -0.00028   0.00800   0.00166   0.00241
 112       12PY        -0.00007   0.00018  -0.00463  -0.00184  -0.00130
 113       12PZ         0.00102   0.00030  -0.00447   0.00492  -0.00199
 114       13D 0       -0.00010  -0.00002   0.00045   0.00033   0.00019
 115       13D+1        0.00001  -0.00002  -0.00002  -0.00036   0.00025
 116       13D-1        0.00001  -0.00000  -0.00019   0.00019  -0.00019
 117       13D+2        0.00001   0.00000   0.00022  -0.00006  -0.00012
 118       13D-2       -0.00003   0.00001  -0.00053   0.00026   0.00018
 119 6   C  1S          0.00030  -0.00139  -0.00000  -0.00000   0.00000
 120        2S          0.00028  -0.00118   0.00004   0.00000  -0.00000
 121        2PX        -0.00006  -0.00039   0.00000   0.00001   0.00001
 122        2PY         0.00001  -0.00029  -0.00002  -0.00001  -0.00000
 123        2PZ        -0.00005   0.00000  -0.00001   0.00000   0.00001
 124        3S         -0.00044   0.00038  -0.00078  -0.00000   0.00009
 125        3PX         0.00018   0.00082   0.00004  -0.00006  -0.00004
 126        3PY         0.00010   0.00072   0.00016   0.00005   0.00000
 127        3PZ         0.00023   0.00018   0.00002   0.00003  -0.00004
 128        4S          0.00277   0.00120   0.00843  -0.00106  -0.00127
 129        4PX        -0.00095  -0.00196   0.00222  -0.00035  -0.00092
 130        4PY        -0.00091  -0.00097  -0.00067  -0.00032   0.00064
 131        4PZ        -0.00101   0.00097  -0.00306   0.00048   0.00005
 132        5S         -0.01572   0.02166   0.02838  -0.01088  -0.00426
 133        5PX         0.00273  -0.00408   0.00472  -0.00028   0.00023
 134        5PY         0.00221  -0.00315  -0.00369   0.00257   0.00056
 135        5PZ         0.00257  -0.00146  -0.00650   0.00065   0.00075
 136        6D 0       -0.00015   0.00028   0.00006   0.00002   0.00001
 137        6D+1        0.00008   0.00020  -0.00006   0.00004   0.00001
 138        6D-1        0.00001   0.00001   0.00002  -0.00001  -0.00002
 139        6D+2        0.00005  -0.00022   0.00001   0.00001  -0.00005
 140        6D-2       -0.00011  -0.00062  -0.00006   0.00002   0.00003
 141 7   C  1S          0.00000   0.56295  -0.00000  -0.00000  -0.00000
 142        2S          0.00000   0.46317   0.00002  -0.00000   0.00000
 143        2PX         0.00001   0.00021   0.00006   0.00000  -0.00001
 144        2PY         0.00003   0.00019   0.00002  -0.00001   0.00000
 145        2PZ        -0.00001  -0.00000  -0.00002   0.00000   0.00000
 146        3S          0.00015   0.01954  -0.00013   0.00007  -0.00002
 147        3PX        -0.00002  -0.00128  -0.00028  -0.00000   0.00006
 148        3PY        -0.00012  -0.00095  -0.00009   0.00004  -0.00000
 149        3PZ         0.00008   0.00006   0.00011  -0.00002   0.00000
 150        4S         -0.00194  -0.01198   0.00012  -0.00051   0.00028
 151        4PX        -0.00088  -0.00208   0.00099  -0.00022   0.00019
 152        4PY        -0.00003  -0.00100   0.00070  -0.00001  -0.00020
 153        4PZ         0.00056   0.00081  -0.00030   0.00009   0.00044
 154        5S          0.01161  -0.02042  -0.00565   0.00606   0.00224
 155        5PX         0.00291  -0.00328  -0.00104   0.00151   0.00038
 156        5PY         0.00108  -0.00243  -0.00033   0.00049   0.00036
 157        5PZ        -0.00053   0.00053   0.00080  -0.00025  -0.00009
 158        6D 0        0.00003   0.00040   0.00002   0.00001  -0.00002
 159        6D+1       -0.00003   0.00006   0.00000  -0.00000  -0.00002
 160        6D-1        0.00004   0.00008   0.00003  -0.00000   0.00001
 161        6D+2       -0.00001  -0.00018   0.00001  -0.00000   0.00002
 162        6D-2       -0.00000  -0.00066   0.00004   0.00001  -0.00000
 163 8   H  1S         -0.00001   0.00022  -0.00003   0.00000   0.00001
 164        2S          0.00001  -0.00336   0.00014   0.00000  -0.00011
 165        3S         -0.00019   0.00348   0.00102  -0.00006  -0.00027
 166        4PX         0.00003  -0.00099   0.00004   0.00001  -0.00005
 167        4PY        -0.00000   0.00055   0.00001  -0.00001   0.00002
 168        4PZ         0.00002   0.00179   0.00000   0.00000  -0.00001
 169 9   H  1S         -0.00005   0.00020  -0.00002  -0.00000  -0.00003
 170        2S          0.00051  -0.00306   0.00014   0.00004   0.00026
 171        3S          0.00063   0.00365   0.00207   0.00008  -0.00003
 172        4PX         0.00013  -0.00113   0.00007   0.00001   0.00002
 173        4PY        -0.00000   0.00034  -0.00003  -0.00000   0.00001
 174        4PZ        -0.00000  -0.00169  -0.00003   0.00000   0.00003
 175 10  H  1S         -0.00002   0.00017  -0.00004  -0.00002  -0.00000
 176        2S          0.00038  -0.00285   0.00035   0.00017  -0.00006
 177        3S         -0.00071   0.00336   0.00100  -0.00025  -0.00015
 178        4PX        -0.00011   0.00070  -0.00003  -0.00001   0.00002
 179        4PY        -0.00002  -0.00192   0.00003   0.00002   0.00000
 180        4PZ         0.00001   0.00004  -0.00002  -0.00001  -0.00002
 181 11  H  1S          0.00007  -0.00010   0.00006  -0.00001   0.00000
 182        2S         -0.00063  -0.00040  -0.00079   0.00014  -0.00009
 183        3S          0.00304  -0.00259   0.00439   0.00013   0.00001
 184        4PX         0.00002  -0.00009  -0.00006   0.00001   0.00004
 185        4PY         0.00011   0.00028   0.00009  -0.00001   0.00001
 186        4PZ        -0.00003   0.00002  -0.00005  -0.00000   0.00001
 187 12  H  1S         -0.00007  -0.00009   0.00003   0.00002  -0.00003
 188        2S         -0.00029  -0.00054  -0.00070  -0.00018   0.00049
 189        3S         -0.00011  -0.00152   0.00255   0.00035   0.00033
 190        4PX         0.00001   0.00018   0.00003   0.00001  -0.00004
 191        4PY         0.00006  -0.00004  -0.00006   0.00002   0.00000
 192        4PZ         0.00008   0.00021   0.00009   0.00001  -0.00002
 193 13  H  1S         -0.00006  -0.00001   0.00001  -0.00004  -0.00004
 194        2S         -0.00011   0.00021  -0.00097   0.00077   0.00116
 195        3S          0.00304  -0.00123   0.00186   0.00055   0.00106
 196        4PX        -0.00007   0.00001  -0.00012   0.00015   0.00020
 197        4PY         0.00004   0.00003   0.00008  -0.00009  -0.00014
 198        4PZ         0.00002  -0.00004   0.00003  -0.00008  -0.00002
 199 14  H  1S         -0.00001  -0.00003   0.00001   0.00003   0.00008
 200        2S         -0.00059   0.00029  -0.00148   0.00018  -0.00078
 201        3S          0.00026   0.00036  -0.00082  -0.00017  -0.00232
 202        4PX         0.00002   0.00001  -0.00021   0.00028   0.00008
 203        4PY         0.00001  -0.00001   0.00019  -0.00020  -0.00004
 204        4PZ        -0.00014   0.00002  -0.00032   0.00014  -0.00009
                          11        12        13        14        15
                           O         O         O         O         O
     Eigenvalues --    -5.92420  -1.00525  -0.83930  -0.76054  -0.75603
   1 1   N  1S          0.00000  -0.09737   0.03427   0.02463   0.02544
   2        2S          0.00000  -0.15304   0.05427   0.03911   0.04038
   3        2PX         0.00000   0.01087   0.03067  -0.07530   0.01312
   4        2PY         0.00001  -0.00633  -0.00901   0.04835  -0.02353
   5        2PZ         0.00000  -0.01610  -0.05067  -0.02103   0.05621
   6        3S         -0.00001   0.42131  -0.15489  -0.11247  -0.11721
   7        3PX        -0.00001   0.01319   0.04655  -0.11072   0.02058
   8        3PY        -0.00005  -0.00782  -0.01385   0.07132  -0.03608
   9        3PZ        -0.00002  -0.02214  -0.07679  -0.03305   0.08511
  10        4S          0.00007   0.28886  -0.11921  -0.08539  -0.08820
  11        4PX        -0.00002   0.00086   0.03238  -0.05984   0.00688
  12        4PY         0.00009  -0.00032  -0.01113   0.03684  -0.01736
  13        4PZ         0.00006  -0.01687  -0.04450  -0.00779   0.04501
  14        5S          0.00038  -0.17548  -0.02128   0.03945  -0.01116
  15        5PX        -0.00154  -0.03091  -0.05970   0.02072  -0.02729
  16        5PY        -0.00069   0.01877   0.02205  -0.01727   0.01888
  17        5PZ         0.00047   0.03209   0.08038   0.02823   0.01381
  18        6D 0        0.00000   0.00484  -0.00012   0.00921  -0.00431
  19        6D+1       -0.00000  -0.00164   0.00204  -0.00024  -0.00718
  20        6D-1        0.00000  -0.00224  -0.00028  -0.00196   0.00446
  21        6D+2       -0.00001   0.00436  -0.00125  -0.00207   0.00206
  22        6D-2       -0.00001  -0.00941   0.00095   0.00654  -0.00031
  23 2   C  1S          0.00000  -0.04318  -0.01505   0.05553  -0.02415
  24        2S          0.00000  -0.06609  -0.02331   0.08625  -0.03772
  25        2PX        -0.00001  -0.03984   0.01715   0.03574   0.01492
  26        2PY        -0.00001   0.02869  -0.00537  -0.02724  -0.00721
  27        2PZ        -0.00000  -0.01628  -0.03515   0.01829  -0.02377
  28        3S          0.00001   0.16779   0.05887  -0.23301   0.10119
  29        3PX         0.00008  -0.05550   0.02824   0.04633   0.02514
  30        3PY         0.00013   0.04117  -0.00914  -0.03775  -0.01151
  31        3PZ         0.00004  -0.03075  -0.05686   0.03740  -0.04324
  32        4S          0.00002   0.08388   0.04393  -0.12761   0.07087
  33        4PX         0.00009  -0.01068   0.00089   0.00927   0.00423
  34        4PY         0.00005   0.00786   0.00173  -0.00653  -0.00118
  35        4PZ        -0.00005  -0.00319  -0.01363   0.00481  -0.01160
  36        5S          0.00090   0.11975   0.04970  -0.05908   0.00212
  37        5PX        -0.00002  -0.02341  -0.02087   0.01008  -0.02110
  38        5PY         0.00027   0.01799   0.01481  -0.00979   0.00631
  39        5PZ        -0.00027  -0.02062   0.01090   0.00574   0.02520
  40        6D 0       -0.00004  -0.00245   0.01423   0.00016   0.01224
  41        6D+1       -0.00010   0.00335  -0.00120   0.00141  -0.00920
  42        6D-1       -0.00017  -0.00409  -0.00261   0.00099   0.00313
  43        6D+2        0.00002   0.00575  -0.00156  -0.00443   0.00052
  44        6D-2        0.00005  -0.01499   0.00308   0.01078   0.00291
  45 3   C  1S         -0.00000  -0.04546  -0.02690  -0.06170   0.05169
  46        2S         -0.00000  -0.06969  -0.04160  -0.09575   0.08028
  47        2PX         0.00001   0.02196   0.02925   0.00853  -0.00574
  48        2PY         0.00001  -0.01930  -0.01300  -0.00181   0.00579
  49        2PZ        -0.00000   0.03096  -0.03661  -0.02989  -0.02204
  50        3S          0.00002   0.17614   0.10811   0.25587  -0.21585
  51        3PX        -0.00002   0.03133   0.03999   0.01258  -0.00722
  52        3PY        -0.00003  -0.02836  -0.01728  -0.00329   0.00872
  53        3PZ         0.00002   0.04844  -0.05381  -0.03967  -0.03844
  54        4S         -0.00008   0.06497   0.06001   0.14228  -0.10995
  55        4PX         0.00028   0.00475   0.01447   0.00310   0.00574
  56        4PY        -0.00003  -0.00267  -0.00774  -0.00148  -0.00292
  57        4PZ        -0.00026   0.00078  -0.00794  -0.01044  -0.00862
  58        5S          0.00059   0.13617   0.19064  -0.03681   0.12222
  59        5PX         0.00029   0.02070   0.03189  -0.02208   0.02904
  60        5PY         0.00033  -0.02014  -0.01726   0.00786  -0.01886
  61        5PZ         0.00001   0.00580  -0.00239   0.04080  -0.01448
  62        6D 0        0.00000   0.00997  -0.00462   0.00621  -0.00849
  63        6D+1        0.00000   0.00607  -0.00725  -0.01147  -0.00461
  64        6D-1        0.00001  -0.00796   0.00485   0.00463   0.00552
  65        6D+2       -0.00001   0.00185   0.00440   0.00338  -0.00073
  66        6D-2        0.00001  -0.00729  -0.00723  -0.00391   0.00374
  67 4   C  1S          0.00000  -0.02230  -0.05971  -0.05660  -0.00202
  68        2S          0.00000  -0.03424  -0.09250  -0.08784  -0.00331
  69        2PX        -0.00001  -0.00316   0.00544  -0.02926   0.03822
  70        2PY        -0.00002  -0.00121  -0.00795   0.01621  -0.02333
  71        2PZ        -0.00000   0.02123   0.02917   0.01923  -0.01319
  72        3S         -0.00001   0.08618   0.23922   0.23114   0.00796
  73        3PX         0.00012  -0.00241   0.02160  -0.03351   0.06141
  74        3PY         0.00019  -0.00326  -0.02053   0.01750  -0.03812
  75        3PZ         0.00002   0.03109   0.04231   0.02809  -0.01704
  76        4S         -0.00021   0.04114   0.13636   0.14419   0.00548
  77        4PX        -0.00006  -0.00102   0.00071  -0.00634   0.01485
  78        4PY        -0.00018  -0.00188  -0.00277   0.00275  -0.00875
  79        4PZ        -0.00008   0.01550   0.01470   0.01093  -0.00831
  80        5S         -0.00040  -0.06798  -0.14301   0.05708  -0.11246
  81        5PX         0.00008   0.01302   0.01150  -0.01510   0.00838
  82        5PY        -0.00003  -0.00203  -0.00244   0.00881  -0.00062
  83        5PZ        -0.00010  -0.02286  -0.03719   0.00598  -0.02724
  84        6D 0        0.00002   0.00507   0.00213   0.00411  -0.00621
  85        6D+1        0.00006  -0.00172   0.00364  -0.00581   0.01042
  86        6D-1        0.00006  -0.00082  -0.00482   0.00162  -0.00609
  87        6D+2        0.00016   0.00150   0.00402   0.00309   0.00067
  88        6D-2        0.00006  -0.00312  -0.01118  -0.00522  -0.00536
  89 5   S  1S         -0.00001   0.00641   0.01915  -0.00400   0.01915
  90        2S         -0.00002   0.01820   0.05451  -0.01140   0.05459
  91        3S          0.00003  -0.03857  -0.11694   0.02455  -0.11773
  92        4S          0.00005  -0.06611  -0.19882   0.04178  -0.19981
  93        5S         -0.00004   0.11484   0.35865  -0.07716   0.36651
  94        6S          0.00013   0.06146   0.21018  -0.05103   0.22941
  95        7S         -0.00036  -0.06399   0.02463   0.04537   0.03201
  96        7PX        -0.00140   0.01472  -0.00100  -0.01469   0.00661
  97        7PY        -0.00224  -0.00994  -0.00098   0.01140  -0.00428
  98        7PZ        -0.00035  -0.00189   0.00405  -0.00395   0.00861
  99        8PX         0.20903   0.00762   0.01485   0.00216   0.00619
 100        8PY         0.31174  -0.00419  -0.00939  -0.00378  -0.00312
 101        8PZ         0.04578  -0.00530  -0.00260   0.01554  -0.00554
 102        9PX         0.39110   0.01481   0.02898   0.00420   0.01223
 103        9PY         0.58326  -0.00813  -0.01832  -0.00737  -0.00618
 104        9PZ         0.08565  -0.01030  -0.00506   0.03026  -0.01092
 105       10PX         0.03274  -0.01864  -0.03950  -0.00582  -0.01796
 106       10PY         0.04881   0.01023   0.02495   0.01026   0.00908
 107       10PZ         0.00716   0.01307   0.00701  -0.04217   0.01612
 108       11PX        -0.00434  -0.02902  -0.05674  -0.00703  -0.02324
 109       11PY        -0.00642   0.01584   0.03610   0.01374   0.01208
 110       11PZ        -0.00093   0.02043   0.00834  -0.06036   0.01814
 111       12PX         0.00259  -0.00092  -0.00812   0.00621  -0.01155
 112       12PY         0.00398   0.00152   0.00409  -0.00598   0.00656
 113       12PZ         0.00057  -0.00517   0.00930   0.00937   0.00495
 114       13D 0        0.00002   0.00300   0.00189  -0.01642   0.01084
 115       13D+1       -0.00000  -0.00687   0.00176   0.01669  -0.00070
 116       13D-1        0.00009   0.00218  -0.00456  -0.00771  -0.00345
 117       13D+2       -0.00039   0.00457   0.00678   0.00075   0.00196
 118       13D-2       -0.00018  -0.00831  -0.01717  -0.00751  -0.00473
 119 6   C  1S          0.00000  -0.02971   0.05349  -0.03482  -0.04842
 120        2S          0.00000  -0.04568   0.08264  -0.05397  -0.07524
 121        2PX         0.00000   0.01507  -0.00856  -0.02720  -0.02136
 122        2PY         0.00000  -0.00574   0.00838  -0.00143  -0.01443
 123        2PZ         0.00000  -0.02344   0.01936   0.00293   0.01766
 124        3S         -0.00001   0.11739  -0.21693   0.14342   0.20259
 125        3PX        -0.00003   0.02456  -0.01186  -0.04391  -0.03401
 126        3PY        -0.00002  -0.01241   0.01675  -0.00386  -0.02664
 127        3PZ         0.00000  -0.04141   0.03349   0.00263   0.02294
 128        4S         -0.00002   0.04213  -0.10751   0.08218   0.11207
 129        4PX        -0.00016   0.00271   0.00006  -0.02236  -0.01507
 130        4PY         0.00014   0.00123   0.00402  -0.00146  -0.00621
 131        4PZ         0.00001  -0.00445   0.00799   0.00043   0.01169
 132        5S         -0.00176   0.06201  -0.15055  -0.09350  -0.09016
 133        5PX         0.00096  -0.01895  -0.02301   0.01252  -0.00125
 134        5PY         0.00041  -0.01550   0.01478   0.01485   0.01989
 135        5PZ        -0.00007   0.00100   0.03479   0.01346   0.01087
 136        6D 0       -0.00002   0.00653  -0.00379  -0.00042  -0.00697
 137        6D+1        0.00001  -0.01031   0.00761   0.00287   0.00197
 138        6D-1        0.00000   0.00363  -0.00270  -0.00245   0.00009
 139        6D+2       -0.00001   0.00328  -0.00303  -0.00172   0.00192
 140        6D-2        0.00000  -0.00226   0.00007   0.00639   0.00492
 141 7   C  1S         -0.00000  -0.00725   0.02753  -0.04467  -0.05968
 142        2S         -0.00000  -0.01113   0.04242  -0.06905  -0.09226
 143        2PX        -0.00001   0.00574  -0.01378   0.00863   0.01305
 144        2PY         0.00000   0.00279  -0.00864   0.00938   0.00986
 145        2PZ         0.00001  -0.00246   0.00295  -0.00119   0.00215
 146        3S          0.00006   0.02806  -0.10978   0.18085   0.24080
 147        3PX         0.00004   0.01172  -0.02462   0.01640   0.02456
 148        3PY        -0.00000   0.00650  -0.01611   0.01662   0.01849
 149        3PZ        -0.00005  -0.00366   0.00432  -0.00148   0.00255
 150        4S         -0.00025   0.01247  -0.05561   0.09423   0.13886
 151        4PX        -0.00026   0.00284  -0.00765   0.00012   0.00271
 152        4PY        -0.00007  -0.00022  -0.00534   0.00123   0.00179
 153        4PZ         0.00046  -0.00208   0.00114   0.00102   0.00158
 154        5S          0.00128  -0.07895   0.02704   0.06752   0.05971
 155        5PX        -0.00005  -0.01845   0.00840   0.01355   0.00864
 156        5PY         0.00044  -0.00889   0.00274   0.00553   0.00543
 157        5PZ         0.00037   0.00502  -0.00556  -0.00192  -0.00213
 158        6D 0        0.00001  -0.00167   0.00295  -0.00161  -0.00262
 159        6D+1       -0.00001  -0.00072   0.00085  -0.00017   0.00015
 160        6D-1        0.00001  -0.00076   0.00078  -0.00011   0.00035
 161        6D+2        0.00000   0.00130  -0.00194   0.00027   0.00130
 162        6D-2       -0.00001   0.00250  -0.00484   0.00352   0.00421
 163 8   H  1S          0.00001   0.00229  -0.01467   0.03087   0.04233
 164        2S         -0.00008   0.00367  -0.01791   0.03652   0.04954
 165        3S         -0.00035   0.00051   0.00189  -0.00394  -0.00730
 166        4PX        -0.00000   0.00073  -0.00253   0.00380   0.00523
 167        4PY         0.00001  -0.00008   0.00041  -0.00089  -0.00129
 168        4PZ         0.00001  -0.00099   0.00321  -0.00540  -0.00722
 169 9   H  1S         -0.00001   0.00377  -0.01596   0.03146   0.03904
 170        2S          0.00009   0.00451  -0.01977   0.03890   0.04526
 171        3S          0.00010  -0.00081  -0.00379  -0.00144  -0.00909
 172        4PX         0.00002   0.00120  -0.00333   0.00488   0.00522
 173        4PY        -0.00001  -0.00002   0.00019  -0.00013  -0.00057
 174        4PZ         0.00000   0.00069  -0.00285   0.00492   0.00672
 175 10  H  1S         -0.00000   0.00375  -0.01606   0.02871   0.04079
 176        2S          0.00003   0.00391  -0.02029   0.03439   0.04704
 177        3S         -0.00010   0.00189  -0.00126  -0.00664  -0.00578
 178        4PX        -0.00001   0.00019   0.00039  -0.00149  -0.00157
 179        4PY        -0.00000   0.00136  -0.00434   0.00632   0.00858
 180        4PZ        -0.00001  -0.00043   0.00048  -0.00019  -0.00006
 181 11  H  1S          0.00001   0.01302  -0.03099   0.02961   0.03094
 182        2S         -0.00013   0.01685  -0.03716   0.03101   0.03707
 183        3S         -0.00011  -0.01207  -0.00558   0.00321  -0.01106
 184        4PX        -0.00000   0.00163  -0.00230   0.00016   0.00100
 185        4PY         0.00002  -0.00439   0.00768  -0.00523  -0.00725
 186        4PZ         0.00001  -0.00046   0.00026   0.00037   0.00106
 187 12  H  1S         -0.00000   0.01309  -0.03134   0.01777   0.03789
 188        2S          0.00003   0.01839  -0.03811   0.02320   0.04308
 189        3S         -0.00012  -0.00958  -0.00467  -0.00365  -0.00128
 190        4PX         0.00000  -0.00225   0.00453  -0.00365  -0.00584
 191        4PY        -0.00000   0.00047  -0.00091   0.00065   0.00046
 192        4PZ        -0.00001  -0.00417   0.00658  -0.00331  -0.00511
 193 13  H  1S         -0.00001   0.01420   0.00554   0.04611  -0.03505
 194        2S          0.00012   0.01694   0.00688   0.05444  -0.03797
 195        3S         -0.00012  -0.00897  -0.00595   0.00248   0.00134
 196        4PX         0.00001   0.00265   0.00061   0.00779  -0.00569
 197        4PY        -0.00000  -0.00204   0.00003  -0.00514   0.00377
 198        4PZ         0.00000   0.00194  -0.00240  -0.00109  -0.00116
 199 14  H  1S         -0.00000   0.00467   0.02797   0.03742   0.00401
 200        2S          0.00000   0.00845   0.03233   0.04377   0.00487
 201        3S         -0.00001  -0.00041  -0.00449  -0.00058  -0.00248
 202        4PX        -0.00001  -0.00005   0.00125  -0.00076   0.00220
 203        4PY        -0.00002  -0.00014  -0.00180  -0.00081  -0.00162
 204        4PZ        -0.00000   0.00118   0.00609   0.00783   0.00095
                          16        17        18        19        20
                           O         O         O         O         O
     Eigenvalues --    -0.65228  -0.61530  -0.55446  -0.52381  -0.47486
   1 1   N  1S         -0.00003  -0.00035  -0.03630   0.00081  -0.00526
   2        2S          0.00004  -0.00064  -0.05816   0.00131  -0.00848
   3        2PX         0.05514  -0.09752  -0.05926   0.02808   0.06764
   4        2PY        -0.03974   0.07592   0.01306   0.02339   0.06488
   5        2PZ        -0.08147  -0.07578   0.01192  -0.09733  -0.03472
   6        3S         -0.00086   0.00263   0.17203  -0.00595   0.02667
   7        3PX         0.08037  -0.14035  -0.08793   0.03765   0.10340
   8        3PY        -0.05873   0.10973   0.01880   0.03742   0.09756
   9        3PZ        -0.12066  -0.11132   0.01658  -0.14100  -0.05060
  10        4S         -0.01139  -0.00269   0.18885   0.00332   0.01826
  11        4PX         0.05633  -0.10302  -0.06910   0.06114   0.06479
  12        4PY        -0.04148   0.07859   0.01316   0.01252   0.09736
  13        4PZ        -0.08891  -0.07105   0.01656  -0.12898  -0.03853
  14        5S          0.02508  -0.05647   0.08752  -0.05181   0.00967
  15        5PX        -0.00257  -0.01424   0.01208   0.00305  -0.00187
  16        5PY         0.00932   0.00331  -0.00261  -0.00947  -0.01257
  17        5PZ        -0.00588   0.03600  -0.00415   0.02098  -0.00113
  18        6D 0       -0.00417   0.00330   0.00223   0.00977  -0.00995
  19        6D+1        0.00483   0.00299   0.00003  -0.00232   0.00251
  20        6D-1       -0.00409  -0.00235  -0.00186   0.00079   0.00101
  21        6D+2        0.00096  -0.00058   0.00009  -0.00187   0.00141
  22        6D-2       -0.00092   0.00105   0.00287   0.00282  -0.00618
  23 2   C  1S         -0.02344   0.02439   0.04173   0.02424  -0.01671
  24        2S         -0.03654   0.03778   0.06573   0.03851  -0.02656
  25        2PX        -0.02442   0.06496  -0.02290  -0.01032   0.00852
  26        2PY         0.01482  -0.03688   0.00317   0.01728   0.03620
  27        2PZ        -0.01604  -0.03789   0.03198  -0.01299  -0.00796
  28        3S          0.10060  -0.10647  -0.18114  -0.11202   0.07825
  29        3PX        -0.03392   0.09062  -0.03537  -0.01441   0.01350
[...]
     1         -1.83603411         -2.54051851          2.61640223
     1         -3.12947917         -2.25481480         -0.44857729
     1          1.64261939          0.47032441          3.86593159
     1          5.63379375          2.49412835          1.53116241

 Electric dipole moment (dipole orientation):
 (Debye = 10**-18 statcoulomb cm , SI units = C m)
                  (au)            (Debye)         (10**-30 SI)
   Tot        0.210833D+01      0.535883D+01      0.178751D+02
   x          0.000000D+00      0.000000D+00      0.000000D+00
   y          0.000000D+00      0.000000D+00      0.000000D+00
   z          0.210833D+01      0.535883D+01      0.178751D+02

 Dipole polarizability, Alpha (dipole orientation).
 (esu units = cm**3 , SI units = C**2 m**2 J**-1)
 Alpha(0;0):
               (au)            (10**-24 esu)      (10**-40 SI)
   iso        0.110625D+03      0.163929D+02      0.182395D+02
   aniso      0.484740D+02      0.718311D+01      0.799229D+01
   xx         0.123892D+03      0.183588D+02      0.204270D+02
   yx         0.181616D+02      0.269127D+01      0.299444D+01
   yy         0.873276D+02      0.129406D+02      0.143984D+02
   zx        -0.607833D+01     -0.900716D+00     -0.100218D+01
   zy        -0.260294D+01     -0.385716D+00     -0.429167D+00
   zz         0.120654D+03      0.178791D+02      0.198932D+02

 First dipole hyperpolarizability, Beta (dipole orientation).
 ||, _|_  parallel and perpendicular components, (z) with respect to z axis,
 vector components x,y,z.  Values do not include the 1/n! factor of 1/2.
 (esu units = statvolt**-1 cm**4 , SI units = C**3 m**3 J**-2)
 Beta(0;0,0):
               (au)            (10**-30 esu)      (10**-50 SI)
   || (z)    -0.286412D+03     -0.247438D+01     -0.918341D+00
   _|_(z)    -0.954707D+02     -0.824793D+00     -0.306114D+00
   x         -0.441656D+03     -0.381557D+01     -0.141611D+01
   y         -0.349662D+03     -0.302081D+01     -0.112114D+01
   z         -0.143206D+04     -0.123719D+02     -0.459171D+01
   ||         0.307774D+03      0.265893D+01      0.986835D+00
   xxx       -0.567082D+02     -0.489915D+00     -0.181827D+00
   xxy       -0.423607D+02     -0.365963D+00     -0.135824D+00
   yxy       -0.196965D+02     -0.170162D+00     -0.631540D-01
   yyy       -0.139719D+02     -0.120707D+00     -0.447991D-01
   xxz       -0.162285D+03     -0.140202D+01     -0.520345D+00
   yxz       -0.166879D+02     -0.144170D+00     -0.535073D-01
   yyz       -0.100050D+03     -0.864354D+00     -0.320796D+00
   zxz       -0.708141D+02     -0.611779D+00     -0.227056D+00
   zyz       -0.602213D+02     -0.520265D+00     -0.193091D+00
   zzz       -0.215018D+03     -0.185759D+01     -0.689427D+00

 ----------------------------------------------------------------------
 Unable to Open any file for archive entry.
 1\1\GINC-NODE1718\Freq\RB3LYP\6-311+G(d,p)\C5H7N1S1\SVICCHI\02-Jun-202
 3\0\\#p freq=raman scale=0.967 pop=(nbo,full,hirshfeld) guess=read geo
 m=allcheck b3lyp/6-311+G(d,p) int=grid=ultrafine EmpiricalDispersion=G
 D3BJ SCRF=(Solvent=ethanol) scf=(xqc,intrep,maxconventionalcycle=350) 
 nosymm\\3ethylthiazolium-H_dissociation-site_index-1.gjf\\0,1\N,-0.028
 7010039,0.1068991298,-0.0232088506\C,1.0863435756,-0.640833784,0.04807
 04048\C,-0.4465955374,0.57327824,-1.2751463161\C,0.3759022081,0.187843
 7938,-2.2695931468\S,1.6682613077,-0.7692278169,-1.580185393\C,-0.8385
 430299,0.3905134743,1.1788931287\C,-2.0643214879,-0.5116959032,1.26321
 8179\H,-2.6308161325,-0.2804769192,2.1680582967\H,-2.7236610192,-0.369
 3360894,0.4037894835\H,-1.7645508453,-1.5613719027,1.3005199594\H,-1.1
 25224579,1.4436361709,1.1480802414\H,-0.1810707239,0.2403408334,2.0327
 356145\H,-1.3381055301,1.1770877364,-1.3515177077\H,0.297273798,0.4140
 650368,-3.3206418937\\Version=ES64L-G16RevC.01\HF=-647.7547544\RMSD=4.
 746e-09\RMSF=5.908e-06\ZeroPoint=0.1074219\Thermal=0.1144181\ETot=-647
 .6403362\HTot=-647.639392\GTot=-647.6789318\Dipole=-1.7141027,1.107333
 3,-0.5298177\DipoleDeriv=-0.5639903,0.1501482,0.2803728,0.2281115,-0.2
 748738,-0.1372269,0.1903448,-0.0313438,-0.5223314,0.0507504,-0.2798597
 ,-0.2613058,-0.293431,-0.2990146,0.0642852,-0.3408132,0.1194983,0.2301
 529,-0.2091726,0.1024899,0.0451689,0.1351181,-0.0857167,-0.0743317,-0.
 070918,-0.0202999,0.2136133,0.0273142,-0.2209052,-0.0417009,-0.2427165
 ,-0.1357051,0.0392743,0.1846691,-0.0907002,-0.3726153,0.0676982,0.0071
 39,0.1909519,-0.0029166,0.1492212,-0.0620399,0.2913835,-0.0875198,-0.2
 750972,0.4734706,0.0133893,-0.2216853,-0.0279698,0.3385386,0.0610531,-
 0.3903475,0.0956045,0.6321689,-0.0074396,-0.0521684,0.0716317,-0.03817
 14,0.0378139,-0.0426565,0.0799171,-0.0464301,0.0190812,-0.0244614,0.00
 93612,0.1355907,-0.0081067,0.0818263,-0.0422249,0.1390297,-0.048203,-0
 .091019,-0.0052498,-0.0220533,-0.0879816,0.0072325,0.0574813,0.0586894
 ,-0.1437122,0.0290461,-0.0727936,0.0312627,0.077667,-0.0082525,0.00804
 18,-0.1427916,0.0172721,-0.0062528,0.0016085,0.0981165,0.0024462,0.035
 8661,0.0912241,0.0485863,-0.1556535,-0.0371849,0.0592975,0.0558796,0.0
 224803,-0.0393531,-0.0201232,-0.0923277,0.0044117,0.0887932,0.0403384,
 -0.0113452,-0.012411,-0.0393339,0.0573931,0.1181174,-0.01527,0.1096181
 ,0.160698,0.0213979,0.0278664,-0.0047984,0.1118769,0.1393314,0.0809318
 ,-0.0864163,0.0721919,0.1793827,0.0933543,-0.0091193,0.0400693,0.04570
 02\Polar=114.8643663,-18.1412646,91.0687583,-11.3079024,-2.9629914,125
 .9403898\PolarDeriv=1.6585502,-1.4084685,0.3819484,-0.4692485,2.759723
 8,-9.0263739,-2.5254771,0.3039579,1.3849782,0.6436139,-0.6498734,8.074
 5091,6.1950813,-2.77868,1.8247551,-2.1394171,2.7312348,-1.1702455,2.02
 91314,-0.8965482,-2.0766525,6.1499543,-1.3956885,6.0129919,2.0609008,1
 .9682982,-3.8214557,1.0810439,6.0617547,-4.1825634,5.3959373,-1.302274
 7,1.3276193,-5.6139328,2.4556692,12.4442126,-6.976213,-1.6243231,-0.54
 55083,0.4642975,0.7927012,-3.6735072,-3.0396191,-2.0048925,6.350897,-0
 .3174202,1.7418898,0.8480686,1.6218134,-0.0420745,5.533467,4.1586898,-
 4.1879949,14.2966074,2.4537528,0.1465525,3.3220865,-0.3081009,-5.52023
 07,4.999245,-0.2191663,1.6447337,-0.2966173,-4.9695867,-4.0362337,-5.5
 976073,-4.5259991,0.2662301,-4.4224332,0.4896233,-0.9350473,-7.3082952
 ,17.2238458,-2.8346222,4.030341,-6.531493,1.2140341,7.8310754,-2.77895
 19,5.483353,-8.5548247,1.5106658,-4.2851909,-4.8967496,-6.509269,2.001
 1195,-2.9212859,9.9042597,-5.4814854,-11.0393032,2.0309248,1.4129784,3
 .4678284,-3.6661777,-0.0018899,-7.6966667,3.1403703,3.9289608,-10.3180
 74,0.3265666,-2.3301139,1.9216902,-0.1291,-0.7863544,1.5095892,-5.0078
 663,-0.1913715,-0.6126252,-1.4320597,-2.8091037,-4.2286671,2.1437816,1
 .1361402,6.8953054,-5.6112174,-2.6028643,8.1750148,1.8557729,-0.229224
 1,-3.9853254,-1.1463076,1.5055411,-1.3222259,8.9064457,-2.1580177,-3.3
 617976,-5.3680787,0.8738404,-0.0567066,4.4459042,-0.5705007,-4.3474437
 ,2.164845,-1.0710004,0.5256,-1.0550619,1.9478997,2.0043935,5.040649,-0
 .4568091,1.5548669,-6.3783794,1.1772073,9.7940471,-6.3122048,0.5657748
 ,-0.4009555,-3.1206247,-0.0679756,-2.9221447,1.2239597,-0.7670864,-0.1
 475271,-0.1218365,-1.3514486,1.2285124,-4.3737077,-0.38286,-1.1360456,
 -3.7380328,0.5530452,-5.5789853,2.0151267,-1.2855577,2.5368491,-0.4673
 857,-0.1960845,0.0961448,-1.4359107,0.1727908,-11.1882351,0.1932961,1.
 232288,-1.42443,-0.0554636,-0.0165623,0.4065669,-0.6105829,-1.6648977,
 0.7878846,-2.598534,2.2887336,-2.4940803,1.5881476,-0.7977438,0.039947
 ,2.4909176,-3.1144179,12.8087091,-1.8330696,2.8928793,2.5938737,-0.723
 725,-0.3524606,-0.1714438,0.5345867,2.2492256,-0.1643809,4.2915303,-0.
 2337497,0.7426,2.277695,0.6864093,4.8076474,-1.7380034,0.5256997,0.718
 8757,0.6163362,1.4687619,-1.460962,1.9549245,0.5165152,0.8840624,3.189
 5662,0.3682666,8.6631777,-9.214483,6.0349244,-4.8102199,-1.0787244,0.5
 983773,-1.738922,6.6106074,-4.0728033,3.3863091,0.8136304,-1.2596217,0
 .8919199,-1.0991268,1.0831299,-1.1646529,-2.0450794,1.1573797,0.043370
 6,0.1987111,-0.230431,0.1311369,-1.4280254,1.3627279,-1.2772987,-0.343
 2548,-0.3947295,0.97635,1.2560491,-1.2037671,3.9846701,-1.6457066,0.74
 55396,-1.9028395,-1.6498808,3.9267861,-16.793667\HyperPolar=194.467492
 6,4.9816964,38.7611116,-120.2404272,32.3447339,-22.1804255,45.9176242,
 125.1911797,-94.8366121,222.6030428\Quadrupole=-2.2287607,-2.0467108,4
 .2754715,0.404183,-1.9903749,-0.0433523\PG=C01 [X(C5H7N1S1)]\NImag=0\\
 0.51622036,-0.21661246,0.29585830,-0.08344020,-0.02608373,0.61400808,-
 0.24066881,0.12468767,-0.01123607,0.33378199,0.12502008,-0.13366656,0.
 01318347,-0.17919308,0.18508052,0.00173740,0.00641160,-0.09173334,0.00
 236435,-0.03432520,0.26163808,-0.10975330,0.03698146,-0.03420888,-0.02
 821730,0.03043290,-0.01470121,0.64239387,0.03213633,-0.08808480,0.0456
 0720,0.03678945,-0.01130420,0.01335306,-0.32402677,0.33485213,-0.00055
 069,0.02282022,-0.19781484,-0.05422872,0.03919085,-0.00611747,-0.12287
 135,0.00679434,0.58568126,0.01649964,-0.00982364,0.03464974,-0.0015271
 4,0.01087071,-0.01758378,-0.22231700,0.08541880,0.15109257,0.35814826,
 -0.00533681,0.01268140,-0.00942822,0.00702921,0.00289456,0.02057106,0.
 08133934,-0.10009788,-0.06239166,-0.15786495,0.19629190,-0.00392699,0.
 01589456,-0.07844140,0.00868540,0.00295570,-0.04675976,0.17652904,-0.0
 7930506,-0.28774505,-0.13163242,-0.02964243,0.80771093,-0.04353350,0.0
 2971493,0.01677333,-0.04219271,0.00120609,0.00503488,-0.04573378,0.032
 86210,0.02970408,-0.10254628,0.04892413,-0.01993104,0.23447955,0.02633
 533,-0.00989155,-0.00338618,-0.00533374,-0.03655458,0.00857456,0.03850
 678,-0.01213303,-0.01785926,0.05121930,-0.06920230,0.01670529,-0.11968
 398,0.12300552,0.04161308,-0.02079353,-0.04115343,0.04869658,-0.019548
 04,-0.11212608,-0.00934686,0.00761177,-0.00110744,-0.03592370,0.027247
 86,-0.05399623,-0.03561562,-0.00219271,0.20660834,-0.10805164,0.023043
 20,0.03513938,-0.02241847,0.00804339,0.02223673,0.01070942,-0.00768385
 ,-0.00289388,-0.00033549,0.00279037,-0.00674223,-0.00082526,0.00480182
 ,0.00236151,0.50473174,0.02368375,-0.07969118,-0.01042499,0.01015259,-
 0.01092994,-0.01631537,-0.00960746,0.00292782,0.00471207,0.00068597,-0
 .00024637,0.00453971,0.00715776,0.00432163,-0.00150711,-0.04969354,0.5
 7077306,0.03199874,-0.00494640,-0.15933099,0.01302780,-0.00957229,0.00
 079651,0.01391425,-0.00600745,-0.03127797,-0.00323536,0.00244756,-0.00
 020465,-0.00262609,0.00153832,0.00658585,0.08950896,-0.02774566,0.5240
 0569,-0.02428089,-0.00785700,0.01390095,0.00028795,-0.00212923,0.00040
 944,-0.00021687,-0.00034106,-0.00148966,-0.00014343,0.00005880,0.00018
 356,0.00061062,0.00089776,0.00012156,-0.14630998,-0.05456869,-0.004496
 75,0.50365425,0.00633228,0.00727569,0.00242819,0.00104672,0.00054214,-
 0.00119898,0.00062976,-0.00016730,0.00099537,0.00060587,-0.00015451,-0
 .00077926,-0.00024798,-0.00066722,-0.00120991,-0.05829946,-0.12550534,
 0.00146382,-0.04989518,0.53473613,0.03459854,0.01533069,-0.00920806,-0
 .00204927,0.00369824,-0.00022811,0.00207624,0.00038697,0.00142934,0.00
 045657,-0.00053972,-0.00041301,0.00028027,-0.00122044,-0.00202437,-0.0
 0866403,-0.00143668,-0.07695527,0.00543103,0.00783792,0.57107486,-0.00
 562685,-0.00342408,0.00098003,0.00084453,-0.00119153,0.00013673,-0.000
 59137,0.00027846,-0.00111183,-0.00035516,0.00024791,0.00060719,-0.0000
 0090,0.00026002,0.00081960,-0.01185854,0.00794826,0.02131884,-0.115848
 70,0.02836812,0.11170784,0.12541166,-0.00453753,-0.00153141,0.00057933
 ,0.00009105,-0.00048335,0.00018066,-0.00027976,0.00006343,-0.00025148,
 -0.00008293,0.00005048,0.00006645,-0.00020291,0.00042582,0.00063164,-0
 .00853662,0.00413008,0.01723955,0.02977997,-0.05947224,-0.04883911,-0.
 02983753,0.06036619,0.00043237,0.00000855,0.00102611,-0.00051894,0.000
 51610,0.00009042,0.00000582,-0.00011988,0.00051325,0.00003023,0.000039
 57,0.00002234,0.00013109,-0.00014828,-0.00022965,-0.00077248,-0.000419
 00,-0.00141202,0.11357911,-0.04738066,-0.22895631,-0.12462089,0.052397
 40,0.24608031,0.00187860,0.00054888,-0.00111137,-0.00027843,0.00035504
 ,0.00025464,-0.00024531,0.00024796,0.00011043,-0.00012307,0.00013545,0
 .00044155,0.00023003,-0.00026667,0.00005036,-0.01818003,0.00335364,-0.
 02196576,-0.13941067,0.02219982,-0.12248335,0.01134957,-0.00298385,0.0
 1322039,0.15247473,0.00122395,0.00028511,-0.00000666,-0.00010252,0.000
 24980,0.00017621,-0.00016844,0.00021279,-0.00024968,-0.00008613,0.0000
 0993,0.00025123,0.00017049,-0.00009629,0.00002741,-0.01322831,0.002269
 87,-0.01851690,0.02274645,-0.05317817,0.03052969,-0.00476110,0.0000525
 8,-0.00541184,-0.02057181,0.05445502,-0.00038012,-0.00030786,0.0012941
 5,0.00024545,-0.00027889,-0.00004583,-0.00001314,0.00035312,-0.0001021
 6,-0.00012052,0.00008909,0.00017955,-0.00004074,-0.00007566,0.00019284
 ,0.00311017,-0.00052770,0.00158699,-0.12445812,0.02891420,-0.21109664,
 -0.01600135,0.00413940,-0.01975413,0.13603023,-0.03265145,0.22693619,0
 .00221901,0.00021894,-0.00109667,0.00039689,0.00026482,-0.00017531,0.0
 0007206,0.00012873,0.00024086,0.00010427,-0.00003796,-0.00017967,-0.00
 016104,0.00000312,-0.00008555,0.00632597,-0.02938621,0.00151328,-0.068
 80105,0.07487344,-0.00299752,-0.00498596,0.01511338,-0.00189513,-0.005
 57488,0.01764397,0.00071785,0.07341437,0.00105035,0.00138432,-0.000513
 87,-0.00005217,0.00034243,0.00013432,-0.00008992,-0.00002096,0.0001031
 8,-0.00007737,0.00000073,-0.00005334,-0.00020441,0.00005246,0.00036160
 ,0.00495827,-0.02068827,0.00019074,0.07188819,-0.28763055,0.00932885,0
 .00138794,-0.00487172,0.00004578,0.00095812,-0.00291353,0.00028947,-0.
 07626479,0.31424137,-0.00101384,0.00061760,0.00047862,0.00015693,-0.00
 012656,0.00005538,-0.00013346,0.00014842,-0.00029720,-0.00004985,0.000
 01794,0.00009737,-0.00002882,-0.00004029,0.00009252,0.00073460,0.00164
 811,-0.00142058,-0.00355634,0.00869519,-0.04801606,0.00652651,-0.02598
 733,0.00202895,-0.00649421,0.02500418,-0.00025389,0.00331326,-0.009738
 99,0.04597089,-0.01024887,0.02017239,0.00241694,0.00038593,0.00127636,
 0.00220121,0.00024298,0.00007035,-0.00173557,-0.00047542,-0.00000043,0
 .00032860,-0.00126757,-0.00049309,0.00169192,-0.06532796,0.06435404,-0
 .00370670,0.00719031,-0.02853179,0.00145069,0.00097153,0.00101055,0.00
 008300,0.00120784,0.00086522,-0.00034649,-0.00428013,-0.00365879,0.000
 24064,0.07539650,0.00387549,-0.00381537,-0.00088418,-0.00027589,-0.000
 31700,-0.00099371,0.00027419,0.00056874,0.00163761,0.00053386,0.000005
 06,-0.00075613,-0.00014812,0.00041251,-0.00057138,0.06763699,-0.291427
 16,0.00966437,0.00361064,-0.01834257,0.00185755,-0.00009796,0.00050011
 ,0.00032639,0.00023638,0.00093187,-0.00050234,-0.00339870,-0.00080136,
 0.00029155,-0.07254484,0.31516560,0.01601604,-0.03143773,-0.00495060,-
 0.00179993,0.00001053,-0.00237084,0.00046804,-0.00082693,0.00142570,0.
 00019895,-0.00054273,0.00026935,0.00173566,0.00023194,-0.00146968,-0.0
 0827188,0.01761956,-0.05250719,-0.00127508,0.00109605,0.00063176,-0.00
 000102,0.00009849,0.00014779,0.00060098,-0.00039936,0.00022142,0.00075
 603,0.00012087,0.00108889,-0.00276397,-0.01060320,0.05683722,0.0096021
 2,-0.00282893,0.02170371,0.00036241,-0.00091338,0.00124202,-0.00213937
 ,0.00225899,0.00125598,0.00023048,-0.00031317,0.00144982,0.00043160,-0
 .00009154,-0.00001602,-0.14931394,0.02616673,-0.13665142,-0.01685846,0
 .00304151,-0.01975878,0.00063556,0.00044231,0.00034964,-0.00312915,-0.
 00354750,0.00093330,0.00133933,0.00012324,0.00033466,-0.00412674,0.000
 66359,-0.00557848,0.16321390,-0.00332129,0.00047570,-0.00759125,-0.000
 19748,0.00076755,-0.00047945,0.00083639,-0.00024437,0.00047922,0.00012
 867,0.00020709,-0.00034319,-0.00024330,-0.00019190,-0.00017469,0.02660
 314,-0.05683345,0.03459538,-0.01424108,0.00274201,-0.01678853,0.000860
 01,0.00072178,0.00028353,-0.00377634,-0.00177811,0.00023010,0.00085503
 ,0.00088062,-0.00048329,0.01746592,-0.00276495,0.02434908,-0.02486740,
 0.05595165,-0.01292920,0.00519639,-0.03278597,-0.00309783,0.00222660,0
 .00155777,0.00345352,-0.00334551,-0.00098444,-0.00028176,0.00062565,-0
 .00124947,0.00012315,0.00005399,0.00060802,-0.12418400,0.02879089,-0.2
 1071059,0.00155429,-0.00094750,0.00414983,-0.00042929,-0.00026695,0.00
 039070,0.00104930,0.00090036,0.00112031,-0.00009787,-0.00018101,0.0000
 7360,0.00008833,0.00087914,0.00134668,0.13435224,-0.03371098,0.2364943
 2,-0.00361740,0.00131543,0.00120022,0.00116905,0.00131644,0.00031392,-
 0.25079020,0.14906622,-0.01433346,-0.00533551,0.00738719,-0.00402394,0
 .00100297,0.00335604,0.00062272,-0.00024923,-0.00018610,0.00070667,0.0
 0017661,-0.00010801,0.00009854,0.00002811,0.00003620,-0.00003277,-0.00
 019955,-0.00015357,0.00030063,-0.00004341,0.00000699,-0.00004341,0.000
 25409,-0.00028062,-0.00013466,0.00003195,-0.00016883,-0.00004933,0.258
 44741,0.00550478,-0.00496205,-0.00161981,0.00148617,0.00202082,0.00113
 173,0.14830317,-0.13025919,0.01402399,0.00396481,0.00199484,0.00223403
 ,0.00282283,0.00423646,0.00085396,-0.00021252,-0.00016125,-0.00045776,
 0.00013087,-0.00012494,0.00009616,-0.00010763,0.00004532,-0.00016159,-
 0.00042878,-0.00045364,0.00026812,-0.00001337,0.00004830,-0.00006134,0
 .00003197,-0.00002729,0.00013216,-0.00002783,0.00006192,-0.00004403,-0
 .15975240,0.13009626,-0.02621705,0.01727548,-0.00029334,-0.00118855,0.
 00199952,-0.00504242,-0.00836308,0.00950055,-0.05554258,0.01757829,-0.
 01204285,0.00774448,0.00410202,-0.00140436,-0.00180550,-0.00094773,0.0
 0069525,0.00108942,0.00011802,0.00012359,-0.00029447,0.00003079,-0.000
 00601,0.00005066,0.00029593,0.00034606,-0.00031113,-0.00001720,-0.0000
 9428,0.00009234,0.00003060,-0.00033343,-0.00071838,0.00014086,-0.00028
 534,0.00014925,0.01549618,-0.01583907,0.05475744,-0.00063847,0.0038632
 2,0.00432890,-0.00192589,0.00464139,-0.00347101,0.00658617,-0.00720571
 ,0.01681125,-0.04182415,0.01564093,-0.02178888,-0.00049374,0.00048884,
 -0.01498958,0.00110340,-0.00006074,0.00069355,-0.00004969,-0.00001510,
 -0.00014677,0.00002652,-0.00001233,0.00000855,0.00000033,-0.00003069,0
 .00002284,-0.00002543,-0.00002566,0.00001333,0.00007750,-0.00008502,0.
 00004932,-0.00027968,0.00006658,0.00044845,-0.00087489,-0.00170209,-0.
 00105908,0.03831802,0.00464575,0.00368241,-0.00185930,0.00387203,0.001
 35783,0.00277951,-0.00313162,0.00368681,-0.01000476,0.01450702,-0.0444
 3492,0.06823245,-0.00212762,-0.00371752,0.00926313,-0.00022290,0.00106
 049,0.00010671,-0.00008042,-0.00005313,-0.00024160,0.00006909,0.000002
 95,0.00002394,-0.00000784,-0.00004720,0.00006041,-0.00000040,-0.000023
 83,0.00001481,-0.00001786,-0.00008819,0.00015128,-0.00010661,0.0000044
 7,-0.00017703,-0.00183500,-0.00251555,0.00006488,-0.01556362,0.0410853
 8,0.00206193,0.00001416,-0.00109498,0.00094279,0.00006997,0.00028570,-
 0.00680892,0.00584940,-0.00806040,-0.01517895,0.06354888,-0.34721447,0
 .00035784,-0.00077691,-0.00017517,-0.00061511,0.00037093,-0.00024520,-
 0.00002201,-0.00003804,-0.00009350,0.00003686,0.00001797,0.00000159,0.
 00000086,0.00000076,0.00003233,0.00000365,0.00000668,0.00000918,0.0000
 2081,-0.00001222,0.00004788,0.00024247,-0.00008058,-0.00016000,-0.0001
 2132,-0.00055654,0.00012423,0.01907912,-0.06841445,0.35654281\\-0.0000
 0452,0.00000661,0.00000065,0.00001434,-0.00000167,0.00000384,-0.000007
 54,-0.00000313,-0.00000686,-0.00000860,-0.00000378,-0.00000279,0.00000
 776,-0.00000110,0.00000189,0.00000208,0.00000492,-0.00000373,0.0000022
 7,0.00000277,0.00001296,0.00000396,-0.00000020,0.00000079,-0.00000599,
 0.,-0.00000806,0.00000606,-0.00001287,0.00000550,-0.00000285,0.0000091
 3,-0.00000366,0.00000701,0.00000300,0.00000531,-0.00000950,-0.00000079
 ,-0.00000156,-0.00000447,-0.00000286,-0.00000429\\\@
 The archive entry for this job was punched.


 THE PROGRESS OF RIVERS TO THE SEA IS NOT AS RAPID
 AS THAT OF MAN TO ERROR.
                                              -- VOLTAIRE
 Job cpu time:       0 days  0 hours 25 minutes 16.3 seconds.
 Elapsed time:       0 days  0 hours 13 minutes 14.8 seconds.
 File lengths (MBytes):  RWF=    128 Int=      0 D2E=      0 Chk=     16 Scr=      1
 Normal termination of Gaussian 16 at Fri Jun  2 11:05:36 2023.
