 Entering Gaussian System, Link 0=g16
 Input=IMIDCOCH3-CO2_binding-site_index-5-freq.gjf
 Output=IMIDCOCH3-CO2_binding-site_index-5-freq.log
 Initial command:
 /software/commercial/gaussian/g16/AVX2/g16/l1.exe "/scratch1/svicchi/G09-1868838.pbs02/Gau-358537.inp" -scrdir="/scratch1/svicchi/G09-1868838.pbs02/"
 Entering Link 1 = /software/commercial/gaussian/g16/AVX2/g16/l1.exe PID=    358538.
  
 Copyright (c) 1988-2021, Gaussian, Inc.  All Rights Reserved.
  
 This is part of the Gaussian(R) 16 program.  It is based on
 the Gaussian(R) 09 system (copyright 2009, Gaussian, Inc.),
 the Gaussian(R) 03 system (copyright 2003, Gaussian, Inc.),
 the Gaussian(R) 98 system (copyright 1998, Gaussian, Inc.),
 the Gaussian(R) 94 system (copyright 1995, Gaussian, Inc.),
 the Gaussian 92(TM) system (copyright 1992, Gaussian, Inc.),
 the Gaussian 90(TM) system (copyright 1990, Gaussian, Inc.),
 the Gaussian 88(TM) system (copyright 1988, Gaussian, Inc.),
 the Gaussian 86(TM) system (copyright 1986, Carnegie Mellon
 University), and the Gaussian 82(TM) system (copyright 1983,
 Carnegie Mellon University). Gaussian is a federally registered
 trademark of Gaussian, Inc.
  
 This software contains proprietary and confidential information,
 including trade secrets, belonging to Gaussian, Inc.
  
 This software is provided under written license and may be
 used, copied, transmitted, or stored only in accord with that
 written license.
  
 The following legend is applicable only to US Government
 contracts under FAR:
  
                    RESTRICTED RIGHTS LEGEND
  
 Use, reproduction and disclosure by the US Government is
 subject to restrictions as set forth in subparagraphs (a)
 and (c) of the Commercial Computer Software - Restricted
 Rights clause in FAR 52.227-19.
  
 Gaussian, Inc.
 340 Quinnipiac St., Bldg. 40, Wallingford CT 06492
  
  
 ---------------------------------------------------------------
 Warning -- This program may not be used in any manner that
 competes with the business of Gaussian, Inc. or will provide
 assistance to any competitor of Gaussian, Inc.  The licensee
 of this program is prohibited from giving any competitor of
 Gaussian, Inc. access to this program.  By using this program,
 the user acknowledges that Gaussian, Inc. is engaged in the
 business of creating and licensing software in the field of
 computational chemistry and represents and warrants to the
 licensee that it is not a competitor of Gaussian, Inc. and that
 it will not use this program in any manner prohibited above.
 ---------------------------------------------------------------
  

 Cite this work as:
 Gaussian 16, Revision C.02,
 M. J. Frisch, G. W. Trucks, H. B. Schlegel, G. E. Scuseria, 
 M. A. Robb, J. R. Cheeseman, G. Scalmani, V. Barone, 
 G. A. Petersson, H. Nakatsuji, X. Li, M. Caricato, A. V. Marenich, 
 J. Bloino, B. G. Janesko, R. Gomperts, B. Mennucci, H. P. Hratchian, 
 J. V. Ortiz, A. F. Izmaylov, J. L. Sonnenberg, D. Williams-Young, 
 F. Ding, F. Lipparini, F. Egidi, J. Goings, B. Peng, A. Petrone, 
 T. Henderson, D. Ranasinghe, V. G. Zakrzewski, J. Gao, N. Rega, 
 G. Zheng, W. Liang, M. Hada, M. Ehara, K. Toyota, R. Fukuda, 
 J. Hasegawa, M. Ishida, T. Nakajima, Y. Honda, O. Kitao, H. Nakai, 
 T. Vreven, K. Throssell, J. A. Montgomery, Jr., J. E. Peralta, 
 F. Ogliaro, M. J. Bearpark, J. J. Heyd, E. N. Brothers, K. N. Kudin, 
 V. N. Staroverov, T. A. Keith, R. Kobayashi, J. Normand, 
 K. Raghavachari, A. P. Rendell, J. C. Burant, S. S. Iyengar, 
 J. Tomasi, M. Cossi, J. M. Millam, M. Klene, C. Adamo, R. Cammi, 
 J. W. Ochterski, R. L. Martin, K. Morokuma, O. Farkas, 
 J. B. Foresman, and D. J. Fox, Gaussian, Inc., Wallingford CT, 2019.
 
 ******************************************
 Gaussian 16:  ES64L-G16RevC.02  7-Dec-2021
                11-Jan-2024 
 ******************************************
 %NProcShared=12
 Will use up to   12 processors via shared memory.
 %mem=110gb
 %chk=/scratch1/svicchi/G09-1868838.pbs02/02-freq/IMIDCOCH3-CO2_binding-site_inde
 x-5-freq.chk
 ----------------------------------------------------------------------
 #p freq=raman scale=0.967 guess=read geom=allcheck b3lyp/6-311+G(d,p) 
 int=grid=ultrafine EmpiricalDispersion=GD3BJ SCRF=(Solvent=ethanol) sc
 f=(xqc,intrep,maxconventionalcycle=350) nosymm
 ----------------------------------------------------------------------
 1/10=4,29=7,30=1,38=1,114=967000/1,3;
 2/12=2,15=1,40=1/2;
 3/5=4,6=6,7=111,11=2,14=-4,25=1,30=1,70=2201,71=2,72=4,74=-5,75=-5,116=-2,124=41,140=1/1,2,3;
 4/5=1/1;
 5/5=2,8=3,13=1,17=20,38=6,53=4,85=350,98=1/2,8;
 8/6=4,10=90,11=11/1;
 10/13=10,15=4,31=1/2;
 11/6=3,8=1,9=11,15=111,16=1,31=1/1,2,10;
 10/6=1,31=1/2;
 6/7=2,8=2,9=2,10=2,28=1/1;
 7/8=1,10=1,25=1,30=1/1,2,3,16;
 1/10=4,30=1/3;
 99//99;
 Leave Link    1 at Thu Jan 11 12:35:35 2024, MaxMem= 14763950080 cpu:               0.1 elap:               0.1
 (Enter /software/commercial/gaussian/g16/AVX2/g16/l101.exe)
 Structure from the checkpoint file:  "/scratch1/svicchi/G09-1868838.pbs02/02-freq/IMIDCOCH3-CO2_binding-site_index-5-freq.chk"
 ----------------------------------
 IMIDCOCH3-CO2_binding-site_index-5
 ----------------------------------
 Charge = -1 Multiplicity = 1
 No Z-Matrix found in chk file; cartesian coordinates used.
  C                                                -1.616344357442      3.763095643135     -0.098409633529
  N                                                -1.917702402613      2.458778069815     -0.097402530754
  C                                                -2.178034129903      2.139069406533     -1.394462914805
  C                                                -2.038592533810      3.262000230510     -2.193034504943
  H                                                -2.453781119356      1.139891400426     -1.695473901679
  N                                                -1.683122232119      4.283422349304     -1.365449586135
  H                                                -2.143581059921      3.405196358538     -3.255777766168
  C                                                -1.387712957139      4.560800632396      1.112160418070
  O                                                -1.443895343671      5.784551652589      1.088431434030
  C                                                -1.085006484893      3.797287079692      2.377977410449
  H                                                -1.758365014632      2.947502372447      2.493555532802
  H                                                -0.068181590920      3.395871714778      2.319683687710
  H                                                -1.158214230104      4.467357213892      3.233554780274
  C                                                -1.251750774414      5.669015519363     -1.884310239924
  O                                                -0.066898919665      5.926692518954     -1.669857255439
  O                                                -2.157801749398      6.263459737627     -2.474789529960
 Recover connectivity data from disk.
 ITRead=  0  0  0  0  0  0  0  0  0  0  0  0  0  0  0  0
 MicOpt= -1 -1 -1 -1 -1 -1 -1 -1 -1 -1 -1 -1 -1 -1 -1 -1
 NAtoms=     16 NQM=       16 NQMF=       0 NMMI=      0 NMMIF=      0
                NMic=       0 NMicF=      0.
                    Isotopes and Nuclear Properties:
 (Nuclear quadrupole moments (NQMom) in fm**2, nuclear magnetic moments (NMagM)
  in nuclear magnetons)

  Atom         1           2           3           4           5           6           7           8           9          10
 IAtWgt=          12          14          12          12           1          14           1          12          16          12
 AtmWgt=  12.0000000  14.0030740  12.0000000  12.0000000   1.0078250  14.0030740   1.0078250  12.0000000  15.9949146  12.0000000
 NucSpn=           0           2           0           0           1           2           1           0           0           0
 AtZEff=   3.6000000   4.5500000   3.6000000   3.6000000   1.0000000   4.5500000   1.0000000   3.6000000   5.6000000   3.6000000
 NQMom=    0.0000000   2.0440000   0.0000000   0.0000000   0.0000000   2.0440000   0.0000000   0.0000000   0.0000000   0.0000000
 NMagM=    0.0000000   0.4037610   0.0000000   0.0000000   2.7928460   0.4037610   2.7928460   0.0000000   0.0000000   0.0000000
 AtZNuc=   6.0000000   7.0000000   6.0000000   6.0000000   1.0000000   7.0000000   1.0000000   6.0000000   8.0000000   6.0000000

  Atom        11          12          13          14          15          16
 IAtWgt=           1           1           1          12          16          16
 AtmWgt=   1.0078250   1.0078250   1.0078250  12.0000000  15.9949146  15.9949146
 NucSpn=           1           1           1           0           0           0
 AtZEff=   1.0000000   1.0000000   1.0000000   3.6000000   5.6000000   5.6000000
 NQMom=    0.0000000   0.0000000   0.0000000   0.0000000   0.0000000   0.0000000
 NMagM=    2.7928460   2.7928460   2.7928460   0.0000000   0.0000000   0.0000000
 AtZNuc=   1.0000000   1.0000000   1.0000000   6.0000000   8.0000000   8.0000000
 Leave Link  101 at Thu Jan 11 12:35:36 2024, MaxMem= 14763950080 cpu:               0.2 elap:               0.2
 (Enter /software/commercial/gaussian/g16/AVX2/g16/l103.exe)

 GradGradGradGradGradGradGradGradGradGradGradGradGradGradGradGradGradGrad
 Berny optimization.
 Initialization pass.
 Trust Radius=3.00D-01 FncErr=1.00D-07 GrdErr=1.00D-07 EigMax=2.50D+02 EigMin=1.00D-04
 Number of steps in this run=      2 maximum allowed number of steps=      2.
 GradGradGradGradGradGradGradGradGradGradGradGradGradGradGradGradGradGrad

 Leave Link  103 at Thu Jan 11 12:35:36 2024, MaxMem= 14763950080 cpu:               0.1 elap:               0.1
 (Enter /software/commercial/gaussian/g16/AVX2/g16/l202.exe)
                          Input orientation:                          
 ---------------------------------------------------------------------
 Center     Atomic      Atomic             Coordinates (Angstroms)
 Number     Number       Type             X           Y           Z
 ---------------------------------------------------------------------
      1          6           0       -1.616344    3.763096   -0.098410
      2          7           0       -1.917702    2.458778   -0.097403
      3          6           0       -2.178034    2.139069   -1.394463
      4          6           0       -2.038593    3.262000   -2.193035
      5          1           0       -2.453781    1.139891   -1.695474
      6          7           0       -1.683122    4.283422   -1.365450
      7          1           0       -2.143581    3.405196   -3.255778
      8          6           0       -1.387713    4.560801    1.112160
      9          8           0       -1.443895    5.784552    1.088431
     10          6           0       -1.085006    3.797287    2.377977
     11          1           0       -1.758365    2.947502    2.493556
     12          1           0       -0.068182    3.395872    2.319684
     13          1           0       -1.158214    4.467357    3.233555
     14          6           0       -1.251751    5.669016   -1.884310
     15          8           0       -0.066899    5.926693   -1.669857
     16          8           0       -2.157802    6.263460   -2.474790
 ---------------------------------------------------------------------
                    Distance matrix (angstroms):
                    1          2          3          4          5
     1  C    0.000000
     2  N    1.338679   0.000000
     3  C    2.152373   1.361011   0.000000
     4  C    2.194731   2.247544   1.384967   0.000000
     5  H    3.183255   2.140251   1.079352   2.218850   0.000000
     6  N    1.371346   2.234345   2.200916   1.361822   3.253401
     7  H    3.221032   3.304854   2.251390   1.077474   2.768100
     8  C    1.467680   2.482424   3.573870   3.610380   4.552135
     9  O    2.350450   3.562508   4.471383   4.181501   5.508436
    10  C    2.532979   2.934705   4.263297   4.700001   5.052554
    11  H    2.720964   2.641459   3.993291   4.705482   4.615087
    12  H    2.894622   3.184522   4.452630   4.925958   5.186716
    13  H    3.436256   3.963141   5.280105   5.628128   6.086530
    14  C    2.637214   3.733920   3.682183   2.551108   4.689723
    15  O    3.090531   4.233736   4.344977   3.355872   5.348956
    16  O    3.491730   4.492796   4.263580   3.017011   5.190943
                    6          7          8          9         10
     6  N    0.000000
     7  H    2.134630   0.000000
     8  C    2.510529   4.581009   0.000000
     9  O    2.886547   5.002304   1.225270   0.000000
    10  C    3.821952   5.745739   1.508932   2.396028   0.000000
    11  H    4.084393   5.780373   2.156007   3.181527   1.090369
    12  H    4.120193   5.949213   2.134557   3.019000   1.094744
    13  H    4.632516   6.649103   2.135817   2.533411   1.089204
    14  C    1.541157   2.793056   3.197728   2.981185   4.658140
    15  O    2.324904   3.631211   3.368951   3.086176   4.685710
    16  O    2.318729   2.963075   4.044539   3.665455   5.548175
                   11         12         13         14         15
    11  H    0.000000
    12  H    1.757267   0.000000
    13  H    1.793806   1.780846   0.000000
    14  C    5.179672   4.923574   5.257877   0.000000
    15  O    5.391719   4.724563   5.231069   1.231366   0.000000
    16  O    5.986616   5.964608   6.067154   1.234082   2.265657
                   16
    16  O    0.000000
 Symmetry turned off by external request.
 Stoichiometry    C6H5N2O3(1-)
 Framework group  C1[X(C6H5N2O3)]
 Deg. of freedom    42
 Full point group                 C1      NOp   1
 Rotational constants (GHZ):           1.5499885           1.1388460           0.7299358
 Leave Link  202 at Thu Jan 11 12:35:36 2024, MaxMem= 14763950080 cpu:               0.1 elap:               0.0
 (Enter /software/commercial/gaussian/g16/AVX2/g16/l301.exe)
 Standard basis: 6-311+G(d,p) (5D, 7F)
 Ernie: Thresh=  0.10000D-02 Tol=  0.10000D-05 Strict=F.
   272 basis functions,   436 primitive gaussians,   283 cartesian basis functions
    40 alpha electrons       40 beta electrons
       nuclear repulsion energy       591.2882267515 Hartrees.
 IExCor=  402 DFT=T Ex+Corr=B3LYP ExCW=0 ScaHFX=  0.200000
 ScaDFX=  0.800000  0.720000  1.000000  0.810000 ScalE2=  1.000000  1.000000
 IRadAn=      5 IRanWt=     -1 IRanGd=            0 ICorTp=0 IEmpDi=141
 NAtoms=   16 NActive=   16 NUniq=   16 SFac= 1.00D+00 NAtFMM=   60 NAOKFM=F Big=F
 Integral buffers will be    131072 words long.
 Raffenetti 2 integral format.
 Two-electron integral symmetry is turned off.
 R6Disp:  Grimme-D3(BJ) Dispersion energy=       -0.0281377196 Hartrees.
 Nuclear repulsion after empirical dispersion term =      591.2600890319 Hartrees.
 Force inversion solution in PCM.
 ------------------------------------------------------------------------------
 Polarizable Continuum Model (PCM)
 =================================
 Model                : PCM.
 Atomic radii         : UFF (Universal Force Field).
 Polarization charges : Total charges.
 Charge compensation  : None.
 Solution method      : Matrix inversion.
 Cavity type          : Scaled VdW (van der Waals Surface) (Alpha=1.100).
 Cavity algorithm     : GePol (No added spheres)
                        Default sphere list used, NSphG=   16.
                        Lebedev-Laikov grids with approx.  5.0 points / Ang**2.
                        Smoothing algorithm: York/Karplus (Gamma=1.0000).
                        Polarization charges: spherical gaussians, with
                                              point-specific exponents (IZeta= 3).
                        Self-potential: point-specific (ISelfS= 7).
                        Self-field    : sphere-specific E.n sum rule (ISelfD= 2).
 1st derivatives      : Analytical E(r).r(x)/FMM algorithm (CHGder, D1EAlg=3).
                        Cavity 1st derivative terms included.
 2nd derivatives      : Analytical E(r).r(xy)/FMM algorithm (CHGder, D2EAlg=3).
                        Cavity 2nd derivative terms included.
 Solvent              : Ethanol, Eps=  24.852000 Eps(inf)=   1.852593
 ------------------------------------------------------------------------------
 Spheres list:
 ISph  on   Nord     Re0    Alpha      Xe            Ye            Ze
    1   C      1    1.9255  1.100     -1.616344      3.763096     -0.098410
    2   N      2    1.8300  1.100     -1.917702      2.458778     -0.097403
    3   C      3    1.9255  1.100     -2.178034      2.139069     -1.394463
    4   C      4    1.9255  1.100     -2.038593      3.262000     -2.193035
    5   H      5    1.4430  1.100     -2.453781      1.139891     -1.695474
    6   N      6    1.8300  1.100     -1.683122      4.283422     -1.365450
    7   H      7    1.4430  1.100     -2.143581      3.405196     -3.255778
    8   C      8    1.9255  1.100     -1.387713      4.560801      1.112160
    9   O      9    1.7500  1.100     -1.443895      5.784552      1.088431
   10   C     10    1.9255  1.100     -1.085006      3.797287      2.377977
   11   H     11    1.4430  1.100     -1.758365      2.947502      2.493556
   12   H     12    1.4430  1.100     -0.068182      3.395872      2.319684
   13   H     13    1.4430  1.100     -1.158214      4.467357      3.233555
   14   C     14    1.9255  1.100     -1.251751      5.669016     -1.884310
   15   O     15    1.7500  1.100     -0.066899      5.926693     -1.669857
   16   O     16    1.7500  1.100     -2.157802      6.263460     -2.474790
 ------------------------------------------------------------------------------
 GePol: Number of generator spheres                  =      16
 GePol: Total number of spheres                      =      16
 GePol: Number of exposed spheres                    =      16 (100.00%)
 GePol: Number of points                             =    1530
 GePol: Average weight of points                     =       0.13
 GePol: Minimum weight of points                     =   0.90D-10
 GePol: Maximum weight of points                     =    0.20577
 GePol: Number of points with low weight             =      81
 GePol: Fraction of low-weight points (<1% of avg)   =       5.29%
 GePol: Cavity surface area                          =    201.838 Ang**2
 GePol: Cavity volume                                =    199.650 Ang**3
 Leave Link  301 at Thu Jan 11 12:35:37 2024, MaxMem= 14763950080 cpu:               0.1 elap:               0.1
 (Enter /software/commercial/gaussian/g16/AVX2/g16/l302.exe)
 NPDir=0 NMtPBC=     1 NCelOv=     1 NCel=       1 NClECP=     1 NCelD=      1
         NCelK=      1 NCelE2=     1 NClLst=     1 CellRange=     0.0.
 One-electron integrals computed using PRISM.
 NBasis=   272 RedAO= T EigKep=  9.48D-06  NBF=   272
 NBsUse=   272 1.00D-06 EigRej= -1.00D+00 NBFU=   272
 Precomputing XC quadrature grid using
 IXCGrd= 4 IRadAn=           5 IRanWt=          -1 IRanGd=           0 AccXCQ= 0.00D+00.
 Generated NRdTot=       0 NPtTot=           0 NUsed=           0 NTot=          32
 NSgBfM=   283   283   283   283   283 MxSgAt=    16 MxSgA2=    16.
 Leave Link  302 at Thu Jan 11 12:35:37 2024, MaxMem= 14763950080 cpu:               1.5 elap:               0.2
 (Enter /software/commercial/gaussian/g16/AVX2/g16/l303.exe)
 DipDrv:  MaxL=1.
 Leave Link  303 at Thu Jan 11 12:35:37 2024, MaxMem= 14763950080 cpu:               0.1 elap:               0.1
 (Enter /software/commercial/gaussian/g16/AVX2/g16/l401.exe)
 Initial guess from the checkpoint file:  "/scratch1/svicchi/G09-1868838.pbs02/02-freq/IMIDCOCH3-CO2_binding-site_index-5-freq.chk"
 B after Tr=     0.000000    0.000000    0.000000
         Rot=    1.000000    0.000000    0.000000    0.000000 Ang=   0.00 deg.
 Guess basis will be translated and rotated to current coordinates.
 JPrj=2 DoOrth=T DoCkMO=T.
 Leave Link  401 at Thu Jan 11 12:35:38 2024, MaxMem= 14763950080 cpu:               0.6 elap:               0.2
 (Enter /software/commercial/gaussian/g16/AVX2/g16/l502.exe)
 Two-electron integral symmetry not used.
 Closed shell SCF:
 Using DIIS extrapolation, IDIIS=  1040.
 NGot= 14763950080 LenX= 14763784061 LenY= 14763703531
 Requested convergence on RMS density matrix=1.00D-08 within 350 cycles.
 Requested convergence on MAX density matrix=1.00D-06.
 Requested convergence on             energy=1.00D-06.
 No special actions if energy rises.
 Fock matrices will be formed incrementally for  20 cycles.

 Cycle   1  Pass 1  IDiag  1:
 FoFJK:  IHMeth= 1 ICntrl=       0 DoSepK=F KAlg= 0 I1Cent=           0 FoldK=F
 IRaf= 920000000 NMat=       1 IRICut=       1 DoRegI=T DoRafI=F ISym2E= 0 IDoP0=0 IntGTp=1.
 FoFCou: FMM=F IPFlag=           0 FMFlag=      100000 FMFlg1=           0
         NFxFlg=           0 DoJE=F BraDBF=F KetDBF=F FulRan=T
         wScrn=  0.000000 ICntrl=         0 IOpCl=  0 I1Cent=           0 NGrid=           0
         NMat0=    1 NMatS0=      1 NMatT0=    0 NMatD0=    1 NMtDS0=    0 NMtDT0=    0
 Symmetry not used in FoFCou.
 Inv3:  Mode=1 IEnd=     7022700.
 Iteration    1 A*A^-1 deviation from unit magnitude is 4.11D-15 for   1401.
 Iteration    1 A*A^-1 deviation from orthogonality  is 3.77D-15 for   1264     44.
 Iteration    1 A^-1*A deviation from unit magnitude is 4.00D-15 for   1401.
 Iteration    1 A^-1*A deviation from orthogonality  is 1.78D-15 for   1293    371.
 E= -567.194650327350    
 DIIS: error= 6.06D-08 at cycle   1 NSaved=   1.
 NSaved= 1 IEnMin= 1 EnMin= -567.194650327350     IErMin= 1 ErrMin= 6.06D-08
 ErrMax= 6.06D-08  0.00D+00 EMaxC= 1.00D-01 BMatC= 1.00D-12 BMatP= 1.00D-12
 IDIUse=1 WtCom= 1.00D+00 WtEn= 0.00D+00
 Coeff-Com:  0.100D+01
 Coeff:      0.100D+01
 Gap=     0.180 Goal=   None    Shift=    0.000
 RMSDP=1.11D-08 MaxDP=2.63D-07              OVMax= 9.68D-07

 Cycle   2  Pass 1  IDiag  1:
 RMSU=  1.11D-08    CP:  1.00D+00
 E= -567.194650327331     Delta-E=        0.000000000019 Rises=F Damp=F
 DIIS: error= 1.40D-07 at cycle   2 NSaved=   2.
 NSaved= 2 IEnMin= 1 EnMin= -567.194650327350     IErMin= 1 ErrMin= 6.06D-08
 ErrMax= 1.40D-07  0.00D+00 EMaxC= 1.00D-01 BMatC= 5.02D-12 BMatP= 1.00D-12
 IDIUse=1 WtCom= 1.00D+00 WtEn= 0.00D+00
 Coeff-Com:  0.692D+00 0.308D+00
 Coeff:      0.692D+00 0.308D+00
 Gap=     0.180 Goal=   None    Shift=    0.000
 RMSDP=7.76D-09 MaxDP=1.84D-07 DE= 1.93D-11 OVMax= 6.89D-07

 Error on total polarization charges =  0.01724
 SCF Done:  E(RB3LYP) =  -567.194650327     A.U. after    2 cycles
            NFock=  2  Conv=0.78D-08     -V/T= 2.0038
 KE= 5.650384577187D+02 PE=-2.524491744694D+03 EE= 8.009985476158D+02
 Leave Link  502 at Thu Jan 11 12:35:43 2024, MaxMem= 14763950080 cpu:              44.8 elap:               4.5
 (Enter /software/commercial/gaussian/g16/AVX2/g16/l508.exe)
 QCSCF skips out because SCF is already converged.
 Leave Link  508 at Thu Jan 11 12:35:43 2024, MaxMem= 14763950080 cpu:               0.0 elap:               0.0
 (Enter /software/commercial/gaussian/g16/AVX2/g16/l801.exe)
 DoSCS=F DFT=T ScalE2(SS,OS)=  1.000000  1.000000
 Range of M.O.s used for correlation:     1   272
 NBasis=   272 NAE=    40 NBE=    40 NFC=     0 NFV=     0
 NROrb=    272 NOA=    40 NOB=    40 NVA=   232 NVB=   232

 **** Warning!!: The largest alpha MO coefficient is  0.72348688D+02

 Leave Link  801 at Thu Jan 11 12:35:43 2024, MaxMem= 14763950080 cpu:               0.1 elap:               0.1
 (Enter /software/commercial/gaussian/g16/AVX2/g16/l1002.exe)
 Minotr:  Closed shell wavefunction.
 NEqPCM:  Using equilibrium solvation (IEInf=0, Eps=  24.8520, EpsInf=   1.8526)
          Direct CPHF calculation.
          Differentiating once with respect to electric field.
                with respect to dipole field.
          Electric field/nuclear overlap derivatives assumed to be zero.
          Requested convergence is 1.0D-08 RMS, and 1.0D-07 maximum.
          Secondary convergence is 1.0D-12 RMS, and 1.0D-12 maximum.
          NewPWx=F KeepS1=T KeepF1=T KeepIn=T MapXYZ=F SortEE=F KeepMc=T.
         4937 words used for storage of precomputed grid.
 Two-electron integral symmetry not used.
          MDV=   14763950080 using IRadAn=       1.
          Solving linear equations simultaneously, MaxMat=     384.
          There are     3 degrees of freedom in the 1st order CPHF.  IDoFFX=0 NUNeed=     3.
      3 vectors produced by pass  0 Test12= 3.09D-13 3.33D-08 XBig12= 1.23D+02 6.96D+00.
 AX will form     3 AO Fock derivatives at one time.
 FoFJK:  IHMeth= 1 ICntrl=       0 DoSepK=F KAlg= 0 I1Cent=           0 FoldK=F
 IRaf= 920000000 NMat=       3 IRICut=       1 DoRegI=T DoRafI=F ISym2E= 0 IDoP0=0 IntGTp=1.
 FoFCou: FMM=F IPFlag=           0 FMFlag=      100000 FMFlg1=           0
         NFxFlg=           0 DoJE=F BraDBF=F KetDBF=F FulRan=T
         wScrn=  0.000000 ICntrl=         0 IOpCl=  0 I1Cent=           0 NGrid=           0
         NMat0=    3 NMatS0=      3 NMatT0=    0 NMatD0=    3 NMtDS0=    0 NMtDT0=    0
 Symmetry not used in FoFCou.
      3 vectors produced by pass  1 Test12= 3.09D-13 3.33D-08 XBig12= 5.96D+01 1.54D+00.
      3 vectors produced by pass  2 Test12= 3.09D-13 3.33D-08 XBig12= 1.19D+01 8.54D-01.
      3 vectors produced by pass  3 Test12= 3.09D-13 3.33D-08 XBig12= 2.78D+00 3.61D-01.
      3 vectors produced by pass  4 Test12= 3.09D-13 3.33D-08 XBig12= 6.52D-01 2.03D-01.
      3 vectors produced by pass  5 Test12= 3.09D-13 3.33D-08 XBig12= 2.39D-01 7.60D-02.
      3 vectors produced by pass  6 Test12= 3.09D-13 3.33D-08 XBig12= 2.49D-02 3.62D-02.
      3 vectors produced by pass  7 Test12= 3.09D-13 3.33D-08 XBig12= 1.59D-03 7.81D-03.
      3 vectors produced by pass  8 Test12= 3.09D-13 3.33D-08 XBig12= 5.07D-04 7.29D-03.
      3 vectors produced by pass  9 Test12= 3.09D-13 3.33D-08 XBig12= 8.40D-05 4.12D-03.
      3 vectors produced by pass 10 Test12= 3.09D-13 3.33D-08 XBig12= 3.95D-06 6.82D-04.
      3 vectors produced by pass 11 Test12= 3.09D-13 3.33D-08 XBig12= 1.42D-07 7.89D-05.
      3 vectors produced by pass 12 Test12= 3.09D-13 3.33D-08 XBig12= 4.06D-09 9.78D-06.
      3 vectors produced by pass 13 Test12= 3.09D-13 3.33D-08 XBig12= 1.37D-10 1.70D-06.
      3 vectors produced by pass 14 Test12= 3.09D-13 3.33D-08 XBig12= 3.87D-12 3.99D-07.
      1 vectors produced by pass 15 Test12= 3.09D-13 3.33D-08 XBig12= 8.37D-14 7.33D-08.
 InvSVY:  IOpt=1 It=  1 EMax= 2.78D-15
 Solved reduced A of dimension    46 with     3 vectors.
 End of Minotr F.D. properties file   721 does not exist.
 End of Minotr F.D. properties file   722 does not exist.
 End of Minotr F.D. properties file   788 does not exist.
 Leave Link 1002 at Thu Jan 11 12:36:26 2024, MaxMem= 14763950080 cpu:             490.9 elap:              42.6
 (Enter /software/commercial/gaussian/g16/AVX2/g16/l1101.exe)
 Using compressed storage, NAtomX=    16.
 Will process     17 centers per pass.
 R6Disp: Adding Grimme-D3(BJ) dispersion energy 1st derivatives to the gradient.
 Leave Link 1101 at Thu Jan 11 12:36:26 2024, MaxMem= 14763950080 cpu:               1.6 elap:               0.2
 (Enter /software/commercial/gaussian/g16/AVX2/g16/l1102.exe)
 Symmetrizing basis deriv contribution to polar:
 IMax=3 JMax=2 DiffMx= 0.00D+00
 Leave Link 1102 at Thu Jan 11 12:36:27 2024, MaxMem= 14763950080 cpu:               0.1 elap:               0.1
 (Enter /software/commercial/gaussian/g16/AVX2/g16/l1110.exe)
 Forming Gx(P) for the SCF density, NAtomX=    16.
 Integral derivatives from FoFJK, PRISM(SPDF).
 Do as many integral derivatives as possible in FoFJK.
 G2DrvN: MDV=   14763948296.
 G2DrvN: will do    17 centers at a time, making    1 passes.
 PxScal for G2LodP:  IOpCl= 0 ISclPx=1 IMOff=     1 NMtTot=     4 NTT=   37128 ScalPx= 5.41D+01
 Calling FoFCou, ICntrl=  3107 FMM=F I1Cent=   0 AccDes= 0.00D+00.
 FoFJK:  IHMeth= 1 ICntrl=    3107 DoSepK=F KAlg= 0 I1Cent=           0 FoldK=F
 IRaf=         0 NMat=       1 IRICut=       1 DoRegI=T DoRafI=F ISym2E= 0 IDoP0=0 IntGTp=1.
 FoFCou: FMM=F IPFlag=           0 FMFlag=      100000 FMFlg1=           0
         NFxFlg=           0 DoJE=F BraDBF=F KetDBF=F FulRan=T
         wScrn=  0.000000 ICntrl=      3107 IOpCl=  0 I1Cent=           0 NGrid=           0
         NMat0=    1 NMatS0=      1 NMatT0=    0 NMatD0=    4 NMtDS0=    3 NMtDT0=    0
 Symmetry not used in FoFCou.
 PxScal for G2LodP:  IOpCl= 0 ISclPx=0 IMOff=     1 NMtTot=     4 NTT=   37128 ScalPx= 1.00D+00
 NEqPCM:  Using equilibrium solvation (IEInf=0, Eps=  24.8520, EpsInf=   1.8526)
 G2PCM: DoFxE=T DoFxN=T DoGrad=T DoDP/DQ/DG/TGxP=TFFF NFrqRd=   0 IEInf=0 SqF1=F DoCFld=F IF1Alg=4.
 GePol: Maximum number of non-zero 1st derivatives   =     217
 End of G2Drv F.D. properties file   721 does not exist.
 End of G2Drv F.D. properties file   722 does not exist.
 End of G2Drv F.D. properties file   788 does not exist.
 Leave Link 1110 at Thu Jan 11 12:37:09 2024, MaxMem= 14763950080 cpu:             490.0 elap:              41.5
 (Enter /software/commercial/gaussian/g16/AVX2/g16/l1002.exe)
 Minotr:  Closed shell wavefunction.
          IDoAtm=1111111111111111
 NEqPCM:  Using equilibrium solvation (IEInf=0, Eps=  24.8520, EpsInf=   1.8526)
          Direct CPHF calculation.
          Differentiating once with respect to electric field.
                with respect to dipole field.
          Differentiating once with respect to nuclear coordinates.
          Requested convergence is 1.0D-08 RMS, and 1.0D-07 maximum.
          Secondary convergence is 1.0D-12 RMS, and 1.0D-12 maximum.
          NewPWx=T KeepS1=F KeepF1=F KeepIn=T MapXYZ=F SortEE=F KeepMc=T.
         4937 words used for storage of precomputed grid.
 Keep R1 ints in memory in canonical form, NReq=702599446.
 FoFCou: FMM=F IPFlag=           0 FMFlag=           0 FMFlg1=           0
         NFxFlg=           0 DoJE=F BraDBF=F KetDBF=F FulRan=T
         wScrn=  0.000000 ICntrl=       600 IOpCl=  0 I1Cent=           0 NGrid=           0
         NMat0=    1 NMatS0=  37128 NMatT0=    0 NMatD0=    1 NMtDS0=    0 NMtDT0=    0
 Symmetry not used in FoFCou.
 Two-electron integral symmetry not used.
          MDV=   14763950080 using IRadAn=       1.
          Solving linear equations simultaneously, MaxMat=       0.
          There are    51 degrees of freedom in the 1st order CPHF.  IDoFFX=5 NUNeed=    51.
 Will reuse    3 saved solutions.
     45 vectors produced by pass  0 Test12= 1.82D-14 1.96D-09 XBig12= 2.42D-01 2.56D-01.
 AX will form    45 AO Fock derivatives at one time.
     45 vectors produced by pass  1 Test12= 1.82D-14 1.96D-09 XBig12= 9.22D-02 7.27D-02.
     45 vectors produced by pass  2 Test12= 1.82D-14 1.96D-09 XBig12= 8.29D-04 5.84D-03.
     45 vectors produced by pass  3 Test12= 1.82D-14 1.96D-09 XBig12= 6.22D-06 2.65D-04.
     45 vectors produced by pass  4 Test12= 1.82D-14 1.96D-09 XBig12= 1.98D-08 1.87D-05.
     43 vectors produced by pass  5 Test12= 1.82D-14 1.96D-09 XBig12= 4.43D-11 8.10D-07.
     23 vectors produced by pass  6 Test12= 1.82D-14 1.96D-09 XBig12= 7.29D-14 2.56D-08.
 InvSVY:  IOpt=1 It=  1 EMax= 6.11D-16
 Solved reduced A of dimension   291 with    51 vectors.
 FullF1:  Do perturbations      1 to       3.
 Isotropic polarizability for W=    0.000000      134.11 Bohr**3.
 FullF1:  Do perturbations      1 to       6.
 End of Minotr F.D. properties file   721 does not exist.
 End of Minotr F.D. properties file   722 does not exist.
 End of Minotr F.D. properties file   788 does not exist.
 Leave Link 1002 at Thu Jan 11 12:37:53 2024, MaxMem= 14763950080 cpu:             501.5 elap:              44.0
 (Enter /software/commercial/gaussian/g16/AVX2/g16/l601.exe)
 Copying SCF densities to generalized density rwf, IOpCl= 0 IROHF=0.

 **********************************************************************

            Population analysis using the SCF Density.

 **********************************************************************

 Alpha  occ. eigenvalues --  -19.11475 -19.07948 -19.07860 -14.36605 -14.30910
 Alpha  occ. eigenvalues --  -10.29864 -10.26825 -10.22766 -10.20604 -10.19159
 Alpha  occ. eigenvalues --  -10.16719  -1.06403  -1.04632  -1.01013  -0.97079
 Alpha  occ. eigenvalues --   -0.87423  -0.77397  -0.73027  -0.63640  -0.60855
 Alpha  occ. eigenvalues --   -0.59712  -0.51107  -0.48022  -0.46401  -0.45739
 Alpha  occ. eigenvalues --   -0.45067  -0.44020  -0.43442  -0.42321  -0.41334
 Alpha  occ. eigenvalues --   -0.40188  -0.39269  -0.36250  -0.30147  -0.30067
 Alpha  occ. eigenvalues --   -0.27417  -0.27085  -0.26327  -0.24890  -0.23770
 Alpha virt. eigenvalues --   -0.05813   0.00969   0.02545   0.02977   0.03225
 Alpha virt. eigenvalues --    0.04147   0.04567   0.04881   0.05486   0.05540
 Alpha virt. eigenvalues --    0.06850   0.07578   0.07859   0.08396   0.08679
 Alpha virt. eigenvalues --    0.09858   0.10562   0.11420   0.11746   0.12589
 Alpha virt. eigenvalues --    0.13545   0.14596   0.14979   0.15983   0.16866
 Alpha virt. eigenvalues --    0.17266   0.17989   0.18739   0.19362   0.19849
 Alpha virt. eigenvalues --    0.20835   0.21049   0.21758   0.23098   0.23504
 Alpha virt. eigenvalues --    0.23853   0.24260   0.24715   0.25508   0.26281
 Alpha virt. eigenvalues --    0.26667   0.27104   0.27477   0.28309   0.29695
 Alpha virt. eigenvalues --    0.30264   0.31153   0.31634   0.31991   0.32477
 Alpha virt. eigenvalues --    0.32783   0.34131   0.34366   0.36118   0.36688
 Alpha virt. eigenvalues --    0.37407   0.40059   0.41141   0.41984   0.43589
 Alpha virt. eigenvalues --    0.44502   0.46150   0.46297   0.49112   0.51063
 Alpha virt. eigenvalues --    0.53834   0.56293   0.57723   0.58900   0.60691
 Alpha virt. eigenvalues --    0.61376   0.63934   0.65214   0.66239   0.66740
 Alpha virt. eigenvalues --    0.67637   0.67995   0.69286   0.70805   0.72395
 Alpha virt. eigenvalues --    0.73476   0.74634   0.77742   0.78916   0.79469
 Alpha virt. eigenvalues --    0.82381   0.83127   0.86237   0.88395   0.89625
 Alpha virt. eigenvalues --    0.90715   0.92286   0.92919   0.95560   0.98998
 Alpha virt. eigenvalues --    1.00127   1.02966   1.05991   1.07336   1.08185
 Alpha virt. eigenvalues --    1.08891   1.12500   1.14742   1.16951   1.18305
 Alpha virt. eigenvalues --    1.18474   1.19622   1.20535   1.22114   1.23562
 Alpha virt. eigenvalues --    1.25210   1.26639   1.29671   1.32574   1.38377
 Alpha virt. eigenvalues --    1.39778   1.41696   1.43896   1.44701   1.46856
 Alpha virt. eigenvalues --    1.52139   1.54752   1.55792   1.56397   1.58166
 Alpha virt. eigenvalues --    1.59200   1.61517   1.63628   1.66740   1.68447
 Alpha virt. eigenvalues --    1.69389   1.73092   1.74772   1.77077   1.79214
 Alpha virt. eigenvalues --    1.79354   1.81043   1.83470   1.85297   1.88747
 Alpha virt. eigenvalues --    1.91299   1.92605   1.98371   2.01405   2.01840
 Alpha virt. eigenvalues --    2.07038   2.09518   2.12318   2.15585   2.23857
 Alpha virt. eigenvalues --    2.24414   2.26111   2.35768   2.41357   2.41984
 Alpha virt. eigenvalues --    2.44210   2.46551   2.51078   2.52934   2.54261
 Alpha virt. eigenvalues --    2.56076   2.59672   2.63024   2.63904   2.65399
 Alpha virt. eigenvalues --    2.70870   2.71884   2.75117   2.77533   2.79635
 Alpha virt. eigenvalues --    2.80426   2.84098   2.86035   2.87199   2.88053
 Alpha virt. eigenvalues --    2.88730   2.90773   2.92607   2.95209   2.96195
 Alpha virt. eigenvalues --    2.97460   2.99560   3.06061   3.11419   3.19648
 Alpha virt. eigenvalues --    3.22860   3.27565   3.30335   3.34385   3.36518
 Alpha virt. eigenvalues --    3.39037   3.43899   3.45825   3.55439   3.59129
 Alpha virt. eigenvalues --    3.61577   3.66137   3.68598   3.75521   3.79473
 Alpha virt. eigenvalues --    3.87795   3.89064   3.94683   3.95081   4.05829
 Alpha virt. eigenvalues --    4.10327   4.12504   4.19332   4.53019   4.80293
 Alpha virt. eigenvalues --    4.82208   5.06072   5.08965   5.10601   5.13028
 Alpha virt. eigenvalues --    5.20179   5.24296   5.28326   5.66790   5.74638
 Alpha virt. eigenvalues --    5.89234  23.80390  23.84527  23.87678  23.89464
 Alpha virt. eigenvalues --   23.97970  24.12045  35.50619  35.70087  49.95913
 Alpha virt. eigenvalues --   49.99171  50.04490
          Condensed to atoms (all electrons):
               1          2          3          4          5          6
     1  C    9.115534   0.228502   0.381680  -0.539646   0.019398   0.035666
     2  N    0.228502   6.759900   0.229403   0.075875  -0.067547  -0.008363
     3  C    0.381680   0.229403   5.955077  -0.115850   0.459913  -0.221220
     4  C   -0.539646   0.075875  -0.115850   5.627058  -0.078782   0.393419
     5  H    0.019398  -0.067547   0.459913  -0.078782   0.511855   0.013552
     6  N    0.035666  -0.008363  -0.221220   0.393419   0.013552   7.189521
     7  H    0.022077   0.010377  -0.038745   0.432209  -0.000885  -0.059758
     8  C   -1.942652  -0.039185  -0.450500   0.245149   0.002804  -0.128289
     9  O   -0.325414   0.001776  -0.018088   0.023808   0.000063   0.014589
    10  C   -0.919730   0.024719  -0.085459   0.027562  -0.000565  -0.008774
    11  H   -0.015918  -0.010332  -0.006095  -0.000986   0.000022   0.001414
    12  H    0.021174  -0.005753   0.003454  -0.001564  -0.000004   0.000587
    13  H    0.055149   0.005276   0.002576   0.000029  -0.000002  -0.001318
    14  C   -0.136005   0.005799  -0.031810  -0.060913   0.000661   0.139714
    15  O    0.103752  -0.008110   0.029124  -0.048208   0.000068  -0.180581
    16  O    0.018961  -0.007839   0.022444  -0.010649   0.000008  -0.171477
               7          8          9         10         11         12
     1  C    0.022077  -1.942652  -0.325414  -0.919730  -0.015918   0.021174
     2  N    0.010377  -0.039185   0.001776   0.024719  -0.010332  -0.005753
     3  C   -0.038745  -0.450500  -0.018088  -0.085459  -0.006095   0.003454
     4  C    0.432209   0.245149   0.023808   0.027562  -0.000986  -0.001564
     5  H   -0.000885   0.002804   0.000063  -0.000565   0.000022  -0.000004
     6  N   -0.059758  -0.128289   0.014589  -0.008774   0.001414   0.000587
     7  H    0.483529  -0.004976   0.000199   0.000295   0.000002  -0.000001
     8  C   -0.004976   7.331597   0.668689   0.216833  -0.008050  -0.004142
     9  O    0.000199   0.668689   8.118078  -0.113341   0.007639   0.000671
    10  C    0.000295   0.216833  -0.113341   6.324798   0.400848   0.345377
    11  H    0.000002  -0.008050   0.007639   0.400848   0.501226  -0.021236
    12  H   -0.000001  -0.004142   0.000671   0.345377  -0.021236   0.498088
    13  H   -0.000001  -0.094231  -0.004191   0.411621  -0.024608  -0.019139
    14  C   -0.001832   0.003470   0.009542  -0.016802  -0.000274   0.001609
    15  O    0.000632  -0.064290  -0.001609  -0.003288  -0.000019   0.000039
    16  O    0.002163  -0.019900  -0.005762  -0.002561   0.000010  -0.000012
              13         14         15         16
     1  C    0.055149  -0.136005   0.103752   0.018961
     2  N    0.005276   0.005799  -0.008110  -0.007839
     3  C    0.002576  -0.031810   0.029124   0.022444
     4  C    0.000029  -0.060913  -0.048208  -0.010649
     5  H   -0.000002   0.000661   0.000068   0.000008
     6  N   -0.001318   0.139714  -0.180581  -0.171477
     7  H   -0.000001  -0.001832   0.000632   0.002163
     8  C   -0.094231   0.003470  -0.064290  -0.019900
     9  O   -0.004191   0.009542  -0.001609  -0.005762
    10  C    0.411621  -0.016802  -0.003288  -0.002561
    11  H   -0.024608  -0.000274  -0.000019   0.000010
    12  H   -0.019139   0.001609   0.000039  -0.000012
    13  H    0.505306  -0.000247   0.000029   0.000001
    14  C   -0.000247   4.933911   0.467501   0.455677
    15  O    0.000029   0.467501   8.327702  -0.151269
    16  O    0.000001   0.455677  -0.151269   8.343226
 Mulliken charges:
               1
     1  C   -0.122526
     2  N   -0.194497
     3  C   -0.115903
     4  C    0.031490
     5  H    0.139439
     6  N   -0.008682
     7  H    0.154716
     8  C    0.287675
     9  O   -0.376646
    10  C   -0.601533
    11  H    0.176356
    12  H    0.180854
    13  H    0.163749
    14  C    0.230001
    15  O   -0.471473
    16  O   -0.473019
 Sum of Mulliken charges =  -1.00000
 Mulliken charges with hydrogens summed into heavy atoms:
               1
     1  C   -0.122526
     2  N   -0.194497
     3  C    0.023536
     4  C    0.186206
     6  N   -0.008682
     8  C    0.287675
     9  O   -0.376646
    10  C   -0.080574
    14  C    0.230001
    15  O   -0.471473
    16  O   -0.473019
 APT charges:
               1
     1  C   -0.249876
     2  N   -0.339687
     3  C   -0.114723
     4  C   -0.074480
     5  H    0.066295
     6  N   -0.492088
     7  H    0.113156
     8  C    1.499862
     9  O   -1.081433
    10  C   -0.150494
    11  H    0.047325
    12  H    0.020931
    13  H    0.005806
    14  C    2.231496
    15  O   -1.224344
    16  O   -1.257746
 Sum of APT charges =  -1.00000
 APT charges with hydrogens summed into heavy atoms:
               1
     1  C   -0.249876
     2  N   -0.339687
     3  C   -0.048427
     4  C    0.038676
     6  N   -0.492088
     8  C    1.499862
     9  O   -1.081433
    10  C   -0.076433
    14  C    2.231496
    15  O   -1.224344
    16  O   -1.257746
 Electronic spatial extent (au):  <R**2>=           7844.4603
 Charge=             -1.0000 electrons
 Dipole moment (field-independent basis, Debye):
    X=              6.0744    Y=            -29.4852    Z=              5.9079  Tot=             30.6786
 Quadrupole moment (field-independent basis, Debye-Ang):
   XX=            -80.7848   YY=           -254.5046   ZZ=            -75.6160
   XY=             36.8011   XZ=             -5.8290   YZ=             42.2273
 Traceless Quadrupole moment (field-independent basis, Debye-Ang):
   XX=             56.1837   YY=           -117.5362   ZZ=             61.3525
   XY=             36.8011   XZ=             -5.8290   YZ=             42.2273
 Octapole moment (field-independent basis, Debye-Ang**2):
  XXX=            337.8875  YYY=          -2072.7806  ZZZ=            137.8876  XYY=            334.8260
  XXY=           -374.0911  XXZ=             57.8626  XZZ=            115.0046  YZZ=           -378.6811
  YYZ=            311.3539  XYZ=            -54.6065
 Hexadecapole moment (field-independent basis, Debye-Ang**3):
 XXXX=          -1232.9854 YYYY=         -16062.5303 ZZZZ=          -1215.7938 XXXY=           1435.0807
 XXXZ=           -280.3950 YYYX=           2756.9576 YYYZ=           2313.3649 ZZZX=           -260.1568
 ZZZY=            778.0855 XXYY=          -2114.8250 XXZZ=           -439.8181 YYZZ=          -2281.1164
 XXYZ=            348.6027 YYXZ=           -456.4813 ZZXY=            564.9809
 N-N= 5.912600890319D+02 E-N=-2.524491742226D+03  KE= 5.650384577187D+02
  Exact polarizability:      99.116      11.890     151.935      16.637       7.022     151.293
 Approx polarizability:     117.091      12.316     177.301      20.528      11.725     166.642
 No NMR shielding tensors so no spin-rotation constants.
 Leave Link  601 at Thu Jan 11 12:37:53 2024, MaxMem= 14763950080 cpu:               1.1 elap:               0.2
 (Enter /software/commercial/gaussian/g16/AVX2/g16/l701.exe)
 ... and contract with generalized density number  0.
 Compute integral second derivatives.
 R6Disp: Adding Grimme-D3(BJ) dispersion energy 2nd derivatives to the Hessian.
 D2PCM: PCM CHGder 2nd derivatives, FixD1E=F FixD2E=F DoIter=F DoCFld=F I1PDM=0
 GePol: Maximum number of non-zero 2nd derivatives   =     217
 Leave Link  701 at Thu Jan 11 12:37:58 2024, MaxMem= 14763950080 cpu:              43.9 elap:               4.1
 (Enter /software/commercial/gaussian/g16/AVX2/g16/l702.exe)
 L702 exits ... SP integral derivatives will be done elsewhere.
 Leave Link  702 at Thu Jan 11 12:37:58 2024, MaxMem= 14763950080 cpu:               0.1 elap:               0.1
 (Enter /software/commercial/gaussian/g16/AVX2/g16/l703.exe)
 Integral derivatives from FoFJK, PRISM(SPDF).
 Compute integral second derivatives, UseDBF=F ICtDFT=           0.
 Calling FoFJK, ICntrl=    100127 FMM=F ISym2X=0 I1Cent= 0 IOpClX= 0 NMat=1 NMatS=1 NMatT=0.
 FoFJK:  IHMeth= 1 ICntrl=  100127 DoSepK=F KAlg= 0 I1Cent=           0 FoldK=F
 IRaf=         0 NMat=       1 IRICut=       1 DoRegI=T DoRafI=F ISym2E= 0 IDoP0=0 IntGTp=1.
 FoFCou: FMM=F IPFlag=           0 FMFlag=      100000 FMFlg1=         800
         NFxFlg=           0 DoJE=F BraDBF=F KetDBF=F FulRan=T
         wScrn=  0.000000 ICntrl=    100127 IOpCl=  0 I1Cent=           0 NGrid=           0
         NMat0=    1 NMatS0=      1 NMatT0=    0 NMatD0=    1 NMtDS0=    0 NMtDT0=    0
 Symmetry not used in FoFCou.
 Leave Link  703 at Thu Jan 11 12:38:53 2024, MaxMem= 14763950080 cpu:             658.5 elap:              55.2
 (Enter /software/commercial/gaussian/g16/AVX2/g16/l716.exe)
 Dipole        = 2.38984017D+00-1.16003548D+01 2.32433933D+00
 Polarizability= 9.91160089D+01 1.18903748D+01 1.51935431D+02
                 1.66369649D+01 7.02230434D+00 1.51293358D+02
 HyperPolar    =-1.05009326D+02-1.36596171D+02 8.10650662D+01
                -1.22948886D+02-1.00023825D+01 1.63028080D+02
                 3.79861829D+02 2.24094080D+02 5.91398290D+02
                 8.02652505D+02
 Full mass-weighted force constant matrix:
 Low frequencies ---   -9.6228   -0.0004   -0.0002    0.0005    4.4443   18.5393
 Low frequencies ---   24.0537   64.3704   91.8748
 Diagonal vibrational polarizability:
       81.2494174      47.0409744      45.4992691
 Diagonal vibrational hyperpolarizability:
       -5.9500080    -104.4157845    -149.8281016
 Harmonic frequencies (cm**-1), IR intensities (KM/Mole), Raman scattering
 activities (A**4/AMU), depolarization ratios for plane and unpolarized
 incident light, reduced masses (AMU), force constants (mDyne/A),
 and normal coordinates:
                      1                      2                      3
                      A                      A                      A
 Frequencies --     21.0321                64.2016                91.8357
 Red. masses --      6.0150                 1.4507                 2.5861
 Frc consts  --      0.0016                 0.0035                 0.0129
 IR Inten    --      0.6946                 1.9485                 0.9093
 Raman Activ --      3.9320                 1.7939                 5.4979
 Depolar (P) --      0.7289                 0.5527                 0.6448
 Depolar (U) --      0.8432                 0.7119                 0.7841
  Atom  AN      X      Y      Z        X      Y      Z        X      Y      Z
     1   6    -0.01  -0.01  -0.00    -0.02  -0.01  -0.00     0.02   0.01   0.01
     2   7     0.02  -0.02  -0.00    -0.03  -0.01  -0.00    -0.03   0.02   0.01
     3   6     0.09  -0.04  -0.01    -0.01  -0.01  -0.01    -0.02   0.02   0.01
     4   6     0.12  -0.04  -0.02     0.01  -0.01  -0.01     0.02   0.02   0.01
     5   1     0.12  -0.05  -0.02    -0.01  -0.01  -0.01    -0.05   0.03   0.01
     6   7     0.05  -0.03  -0.01    -0.00  -0.01  -0.00     0.05   0.01   0.01
     7   1     0.16  -0.05  -0.02     0.03  -0.01  -0.01     0.01   0.02   0.01
     8   6    -0.02   0.01  -0.02    -0.03   0.01  -0.02     0.03  -0.02   0.03
     9   8     0.17   0.02  -0.10    -0.06   0.01  -0.04     0.19  -0.02   0.05
    10   6    -0.27   0.04   0.06     0.06   0.04  -0.02    -0.14  -0.07   0.05
    11   1    -0.51   0.24   0.11     0.46  -0.30  -0.23     0.15  -0.33  -0.27
    12   1    -0.38  -0.25   0.14     0.28   0.57   0.14     0.04   0.33   0.33
    13   1    -0.12   0.14  -0.01    -0.42  -0.07   0.03    -0.64  -0.19   0.10
    14   6    -0.02   0.01   0.02     0.02  -0.01   0.02    -0.02   0.01  -0.04
    15   8     0.05  -0.07  -0.26     0.04  -0.06  -0.03    -0.05   0.11  -0.02
    16   8    -0.15   0.12   0.33     0.01   0.05   0.09    -0.05  -0.09  -0.10
                      4                      5                      6
                      A                      A                      A
 Frequencies --    134.2618               154.5711               172.8014
 Red. masses --      6.6470                 8.4430                 6.0479
 Frc consts  --      0.0706                 0.1189                 0.1064
 IR Inten    --      9.3926                 1.7116                 2.7014
 Raman Activ --      4.5328                 3.8859                 4.8006
 Depolar (P) --      0.6601                 0.7499                 0.7191
 Depolar (U) --      0.7952                 0.8571                 0.8366
  Atom  AN      X      Y      Z        X      Y      Z        X      Y      Z
     1   6     0.07   0.02   0.01     0.09  -0.10  -0.06     0.34  -0.08  -0.03
     2   7     0.33  -0.04  -0.03     0.09  -0.10  -0.06     0.13  -0.03  -0.02
     3   6     0.17  -0.00  -0.01    -0.05  -0.06  -0.05    -0.22   0.07   0.02
     4   6    -0.23   0.09   0.05    -0.15  -0.03  -0.03    -0.19   0.08   0.04
     5   1     0.32  -0.04  -0.03    -0.08  -0.05  -0.06    -0.47   0.14   0.03
     6   7    -0.27   0.10   0.06    -0.04  -0.07  -0.03     0.19  -0.02   0.00
     7   1    -0.43   0.14   0.08    -0.28   0.01  -0.01    -0.41   0.15   0.07
     8   6     0.00  -0.01   0.04     0.09   0.02  -0.14     0.06  -0.05   0.01
     9   8     0.01  -0.01   0.06     0.19   0.02  -0.34    -0.24  -0.07  -0.02
    10   6    -0.14  -0.03   0.07    -0.08   0.22   0.01    -0.08   0.04   0.10
    11   1    -0.06  -0.11  -0.07    -0.09   0.23   0.05    -0.14   0.09   0.09
    12   1    -0.08   0.10   0.25    -0.06   0.23   0.24    -0.10  -0.02   0.26
    13   1    -0.37  -0.06   0.07    -0.22   0.36  -0.11    -0.16   0.12   0.03
    14   6    -0.04   0.00  -0.05    -0.04  -0.01   0.17     0.08   0.00  -0.02
    15   8     0.01  -0.24  -0.06    -0.10   0.04   0.42     0.08   0.11  -0.13
    16   8     0.09   0.13  -0.12     0.02   0.00   0.08    -0.02  -0.07   0.05
                      7                      8                      9
                      A                      A                      A
 Frequencies --    244.2052               334.9898               378.2774
 Red. masses --      4.4903                 9.5572                 4.5961
 Frc consts  --      0.1578                 0.6319                 0.3875
 IR Inten    --     29.5910                 9.5610                 1.1531
 Raman Activ --      2.7535                 9.3021                 1.3573
 Depolar (P) --      0.6616                 0.2463                 0.4569
 Depolar (U) --      0.7963                 0.3953                 0.6272
  Atom  AN      X      Y      Z        X      Y      Z        X      Y      Z
     1   6    -0.11  -0.11   0.11    -0.08  -0.12   0.03     0.04   0.02  -0.10
     2   7    -0.08  -0.11  -0.10    -0.04  -0.13   0.14    -0.03   0.04  -0.09
     3   6     0.03   0.06  -0.17    -0.03  -0.20   0.16    -0.05  -0.04  -0.07
     4   6     0.06   0.17   0.00    -0.03  -0.21   0.11     0.02  -0.11  -0.15
     5   1     0.09   0.09  -0.34    -0.00  -0.22   0.20    -0.09  -0.05   0.00
     6   7    -0.04   0.07   0.16    -0.07  -0.06  -0.01     0.03  -0.06  -0.18
     7   1     0.15   0.33   0.02    -0.04  -0.36   0.08     0.05  -0.17  -0.16
     8   6    -0.03  -0.09   0.08    -0.03  -0.17  -0.00     0.06  -0.02   0.05
     9   8     0.02  -0.09  -0.10    -0.01  -0.17  -0.13     0.03  -0.03   0.26
    10   6     0.09   0.15   0.20     0.03  -0.01   0.10     0.04   0.17   0.21
    11   1     0.11   0.16   0.45     0.07  -0.02   0.26     0.04   0.20   0.46
    12   1     0.10   0.16   0.20     0.05   0.03   0.14     0.06   0.20   0.40
    13   1     0.15   0.33   0.06     0.02   0.12  -0.01    -0.03   0.44  -0.01
    14   6    -0.00   0.01   0.03     0.06   0.32  -0.15    -0.05  -0.04  -0.08
    15   8     0.02   0.01  -0.10     0.02   0.28  -0.08    -0.06  -0.07   0.05
    16   8    -0.00  -0.09  -0.07     0.13   0.38  -0.13    -0.01   0.10  -0.01
                     10                     11                     12
                      A                      A                      A
 Frequencies --    478.4582               561.2281               585.9126
 Red. masses --      6.8998                 6.4347                 3.0824
 Frc consts  --      0.9306                 1.1942                 0.6234
 IR Inten    --     13.2455                17.4917                10.7573
 Raman Activ --      6.8498                 9.4824                 1.1029
 Depolar (P) --      0.4156                 0.2223                 0.6911
 Depolar (U) --      0.5871                 0.3638                 0.8174
  Atom  AN      X      Y      Z        X      Y      Z        X      Y      Z
     1   6    -0.18  -0.04  -0.02    -0.12   0.20  -0.11    -0.05  -0.01  -0.00
     2   7     0.08  -0.14  -0.07     0.01   0.28   0.05    -0.11  -0.01   0.00
     3   6     0.05  -0.13  -0.08     0.14   0.07   0.11     0.06  -0.05  -0.04
     4   6    -0.27  -0.05  -0.03    -0.13  -0.01  -0.04    -0.02  -0.03  -0.01
     5   1     0.21  -0.17  -0.11     0.36  -0.03   0.26     0.18  -0.08  -0.06
     6   7    -0.05  -0.08  -0.02    -0.08   0.11  -0.14    -0.13   0.01   0.03
     7   1    -0.46   0.00  -0.00    -0.18  -0.17  -0.06     0.02  -0.02  -0.02
     8   6    -0.19   0.09   0.00    -0.04  -0.19  -0.02     0.32   0.04  -0.06
     9   8     0.10   0.12   0.21    -0.01  -0.22  -0.13    -0.10   0.02   0.04
    10   6    -0.02   0.11  -0.08     0.03  -0.06   0.13     0.02   0.02  -0.01
    11   1     0.12   0.03   0.10     0.10  -0.07   0.43    -0.29   0.21  -0.39
    12   1     0.02   0.23  -0.35     0.08   0.05   0.23    -0.07  -0.28   0.55
    13   1     0.15   0.11  -0.08    -0.00   0.21  -0.08    -0.33   0.01  -0.04
    14   6     0.18   0.01   0.02     0.09  -0.09   0.00     0.04   0.01   0.03
    15   8     0.15   0.23  -0.06     0.08   0.08   0.02     0.04   0.06  -0.03
    16   8     0.04  -0.16   0.11    -0.02  -0.15   0.10     0.02  -0.05   0.03
                     13                     14                     15
                      A                      A                      A
 Frequencies --    635.6636               668.4289               731.9040
 Red. masses --      3.8179                 3.9825                 9.4937
 Frc consts  --      0.9089                 1.0484                 2.9964
 IR Inten    --     64.7257                 8.1409               311.5448
 Raman Activ --      7.4159                 1.9794                17.7728
 Depolar (P) --      0.4039                 0.2407                 0.1654
 Depolar (U) --      0.5754                 0.3881                 0.2839
  Atom  AN      X      Y      Z        X      Y      Z        X      Y      Z
     1   6    -0.01   0.02   0.05    -0.08   0.04  -0.00    -0.33   0.07   0.02
     2   7    -0.05   0.03  -0.05     0.23  -0.03  -0.06     0.16  -0.09  -0.02
     3   6     0.07  -0.05  -0.08    -0.25   0.03   0.02    -0.06   0.00   0.02
     4   6    -0.11  -0.04  -0.06     0.15  -0.08  -0.08    -0.00   0.05   0.05
     5   1     0.17  -0.09  -0.05    -0.49   0.07   0.10    -0.13   0.03  -0.02
     6   7     0.07  -0.06  -0.06    -0.21   0.03  -0.01     0.21  -0.02  -0.05
     7   1    -0.29   0.02  -0.04     0.60  -0.22  -0.14    -0.29   0.09   0.08
     8   6     0.01   0.13   0.19     0.00   0.04   0.05     0.08   0.01  -0.03
     9   8    -0.03   0.13  -0.14    -0.00   0.05  -0.05    -0.03   0.02  -0.02
    10   6     0.06  -0.14   0.23     0.02  -0.06   0.09     0.05  -0.04   0.06
    11   1     0.01  -0.15  -0.11    -0.01  -0.05  -0.01    -0.11   0.06  -0.10
    12   1     0.02  -0.23   0.03     0.01  -0.08   0.08     0.00  -0.19   0.35
    13   1     0.13  -0.51   0.53     0.02  -0.15   0.17    -0.13  -0.04   0.05
    14   6    -0.00  -0.08  -0.05     0.03  -0.03   0.03     0.14   0.38  -0.26
    15   8    -0.03   0.03   0.00     0.03   0.07  -0.02     0.18  -0.21   0.19
    16   8     0.03   0.05   0.01     0.03  -0.05   0.04    -0.32  -0.07  -0.04
                     16                     17                     18
                      A                      A                      A
 Frequencies --    745.1242               785.3710               803.7066
 Red. masses --      7.1788                 1.3793                 6.0970
 Frc consts  --      2.3483                 0.5013                 2.3204
 IR Inten    --    125.3929                82.1450                28.7631
 Raman Activ --     11.1113                12.6969                 5.7822
 Depolar (P) --      0.1220                 0.7426                 0.6746
 Depolar (U) --      0.2175                 0.8523                 0.8057
  Atom  AN      X      Y      Z        X      Y      Z        X      Y      Z
     1   6     0.41  -0.08  -0.08     0.00  -0.01   0.02    -0.00   0.03  -0.08
     2   7    -0.21   0.02  -0.00     0.02  -0.02   0.00     0.01   0.04  -0.02
     3   6     0.05  -0.08  -0.03    -0.06   0.03   0.01    -0.07  -0.03   0.01
     4   6     0.01  -0.04  -0.01    -0.11   0.05   0.03    -0.11  -0.06  -0.07
     5   1     0.13  -0.11  -0.02     0.58  -0.11  -0.12     0.54  -0.21   0.04
     6   7    -0.29   0.08   0.01     0.04  -0.01   0.00     0.11  -0.04  -0.04
     7   1     0.39  -0.18  -0.07     0.75  -0.16  -0.08     0.34  -0.26  -0.15
     8   6    -0.09   0.04   0.05     0.01  -0.00  -0.00    -0.00   0.02  -0.00
     9   8     0.03   0.06  -0.01    -0.00  -0.00   0.00    -0.00   0.02  -0.00
    10   6    -0.02  -0.02   0.06    -0.00   0.00  -0.01     0.01  -0.03   0.06
    11   1     0.15  -0.14   0.14    -0.01   0.01  -0.02     0.02  -0.04   0.07
    12   1     0.01   0.11  -0.32    -0.00  -0.00   0.01     0.02  -0.02   0.05
    13   1     0.21  -0.15   0.19    -0.02   0.01  -0.02     0.02  -0.04   0.07
    14   6     0.12   0.24  -0.11     0.02  -0.05  -0.08    -0.14   0.30   0.48
    15   8     0.16  -0.05   0.09    -0.02   0.01   0.02     0.06  -0.09  -0.11
    16   8    -0.17  -0.10   0.01    -0.01   0.02   0.02     0.02  -0.07  -0.13
                     19                     20                     21
                      A                      A                      A
 Frequencies --    873.7022               940.3844               962.2196
 Red. masses --      1.4205                 4.8435                 2.6933
 Frc consts  --      0.6389                 2.5236                 1.4692
 IR Inten    --      2.5975                72.0091                61.3938
 Raman Activ --      5.3469                52.4724                47.2745
 Depolar (P) --      0.6741                 0.2396                 0.3863
 Depolar (U) --      0.8053                 0.3866                 0.5573
  Atom  AN      X      Y      Z        X      Y      Z        X      Y      Z
     1   6     0.02  -0.00  -0.00     0.00  -0.11  -0.04    -0.02  -0.05   0.06
     2   7     0.01   0.00  -0.00    -0.02  -0.20   0.26     0.02  -0.02   0.11
     3   6    -0.14   0.03   0.02     0.07   0.23   0.08     0.03   0.14   0.01
     4   6     0.12  -0.03  -0.01     0.01   0.10  -0.18    -0.02  -0.01  -0.17
     5   1     0.77  -0.18  -0.11     0.07   0.33  -0.23     0.03   0.14   0.02
     6   7    -0.02   0.01   0.01    -0.04  -0.04  -0.11    -0.02  -0.04  -0.05
     7   1    -0.54   0.15   0.08    -0.12  -0.13  -0.20    -0.05  -0.19  -0.20
     8   6     0.00  -0.00   0.00    -0.04   0.05  -0.16     0.04  -0.04   0.15
     9   8    -0.00  -0.00  -0.00    -0.00   0.12   0.01     0.01  -0.11   0.00
    10   6    -0.00   0.00  -0.00     0.03  -0.16   0.07    -0.03   0.18  -0.04
    11   1     0.01  -0.01   0.00     0.05  -0.12   0.50    -0.04   0.10  -0.59
    12   1    -0.00   0.01  -0.03     0.10  -0.02   0.35    -0.12  -0.01  -0.44
    13   1     0.01  -0.00   0.00    -0.03   0.14  -0.15     0.08  -0.28   0.32
    14   6     0.01  -0.01  -0.01     0.00  -0.01   0.01     0.00   0.02   0.00
    15   8     0.00   0.01   0.00    -0.01   0.01  -0.01     0.03  -0.00   0.01
    16   8     0.00  -0.00   0.01     0.01  -0.01   0.01    -0.02   0.00  -0.01
                     22                     23                     24
                      A                      A                      A
 Frequencies --   1037.4649              1048.5871              1108.6222
 Red. masses --      1.8286                 2.0347                 1.8699
 Frc consts  --      1.1596                 1.3181                 1.3540
 IR Inten    --     20.3510                61.6804                54.2024
 Raman Activ --      4.9984                 8.4632                 6.3451
 Depolar (P) --      0.5145                 0.1483                 0.2899
 Depolar (U) --      0.6795                 0.2582                 0.4495
  Atom  AN      X      Y      Z        X      Y      Z        X      Y      Z
     1   6    -0.05   0.02   0.01     0.02   0.00   0.08    -0.02  -0.01  -0.12
     2   7     0.01   0.01   0.01     0.01   0.08  -0.00    -0.01  -0.05   0.04
     3   6     0.00  -0.01  -0.01     0.00   0.00   0.01    -0.01  -0.08   0.07
     4   6    -0.01   0.00  -0.02    -0.02   0.02  -0.16     0.02   0.09   0.01
     5   1    -0.00  -0.02   0.03     0.05  -0.17   0.54     0.00  -0.15   0.27
     6   7    -0.00  -0.03   0.02    -0.03  -0.17   0.08    -0.00   0.03  -0.05
     7   1     0.05   0.12  -0.01     0.17   0.66  -0.11     0.17   0.66   0.07
     8   6     0.20   0.01  -0.03    -0.03  -0.00   0.02    -0.02  -0.01  -0.12
     9   8    -0.04   0.01   0.00     0.00   0.00  -0.01     0.01  -0.02   0.03
    10   6    -0.16  -0.03   0.03     0.02  -0.04  -0.05     0.01   0.07   0.10
    11   1     0.30  -0.32   0.40    -0.05   0.04   0.09     0.04  -0.01  -0.24
    12   1    -0.01   0.38  -0.53     0.04  -0.01   0.17    -0.07  -0.12  -0.13
    13   1     0.36   0.04   0.02    -0.10   0.15  -0.20     0.07  -0.32   0.40
    14   6     0.00   0.01  -0.01     0.02   0.04  -0.03    -0.00  -0.00   0.00
    15   8    -0.00   0.00   0.00     0.00   0.00   0.00    -0.03  -0.00  -0.01
    16   8    -0.00   0.00  -0.00    -0.01   0.01  -0.00     0.03  -0.01   0.01
                     25                     26                     27
                      A                      A                      A
 Frequencies --   1181.1668              1188.5856              1258.5299
 Red. masses --      1.9992                 4.0758                 6.6002
 Frc consts  --      1.6434                 3.3925                 6.1593
 IR Inten    --     63.4190               292.2404               160.9069
 Raman Activ --     63.7521                71.1554               165.1574
 Depolar (P) --      0.5848                 0.0250                 0.6763
 Depolar (U) --      0.7380                 0.0487                 0.8069
  Atom  AN      X      Y      Z        X      Y      Z        X      Y      Z
     1   6    -0.01  -0.08   0.05    -0.00  -0.03   0.07    -0.03  -0.12  -0.04
     2   7    -0.04  -0.04  -0.19    -0.02  -0.13   0.07     0.06   0.12   0.17
     3   6     0.04   0.09   0.12    -0.04  -0.17   0.02    -0.05  -0.03  -0.23
     4   6     0.01   0.05  -0.01     0.00   0.07  -0.10    -0.05  -0.14  -0.15
     5   1     0.09  -0.11   0.78    -0.00  -0.36   0.54    -0.01  -0.23   0.36
     6   7     0.01   0.03   0.02     0.05   0.28  -0.15     0.09   0.16   0.28
     7   1    -0.14  -0.50  -0.06     0.03   0.22  -0.10    -0.10  -0.35  -0.18
     8   6     0.01  -0.01  -0.07     0.05   0.01   0.20    -0.05   0.03  -0.25
     9   8    -0.00   0.02   0.01    -0.01   0.02  -0.03     0.01  -0.01   0.04
    10   6    -0.00   0.01   0.02    -0.02  -0.05  -0.10     0.01   0.02   0.08
    11   1     0.03  -0.03   0.01    -0.07   0.04   0.12     0.12  -0.08   0.03
    12   1    -0.02  -0.02  -0.02     0.06   0.16   0.04    -0.05  -0.17   0.08
    13   1     0.04  -0.08   0.10    -0.05   0.28  -0.36     0.04  -0.24   0.28
    14   6     0.00  -0.00  -0.01    -0.03  -0.09   0.05    -0.03  -0.18   0.01
    15   8    -0.01  -0.00   0.00     0.06   0.01   0.01     0.15   0.03   0.04
    16   8     0.00  -0.00   0.00    -0.05   0.02  -0.03    -0.14   0.11  -0.08
                     28                     29                     30
                      A                      A                      A
 Frequencies --   1290.0638              1362.3157              1379.5918
 Red. masses --      6.8680                 5.8633                 1.4215
 Frc consts  --      6.7344                 6.4113                 1.5940
 IR Inten    --    367.1461                13.5764                26.3136
 Raman Activ --     32.2008                 8.7305                59.8207
 Depolar (P) --      0.3455                 0.7486                 0.2434
 Depolar (U) --      0.5135                 0.8562                 0.3915
  Atom  AN      X      Y      Z        X      Y      Z        X      Y      Z
     1   6    -0.00  -0.07   0.10     0.02   0.27  -0.26     0.02   0.07   0.02
     2   7    -0.01   0.03  -0.13    -0.07  -0.24  -0.10    -0.01  -0.04  -0.02
     3   6     0.04   0.06   0.15     0.05   0.08   0.21     0.00  -0.02   0.05
     4   6     0.02   0.01   0.15    -0.06  -0.16  -0.13    -0.01  -0.02  -0.05
     5   1     0.00   0.25  -0.38     0.02   0.22  -0.21    -0.01   0.04  -0.14
     6   7    -0.08  -0.16  -0.18     0.05   0.04   0.25     0.01   0.02   0.02
     7   1     0.14   0.52   0.23     0.05   0.26  -0.09     0.00   0.04  -0.05
     8   6     0.00  -0.01  -0.04     0.01   0.01   0.08     0.00  -0.01   0.02
     9   8    -0.00   0.01   0.01    -0.00  -0.02  -0.02    -0.00  -0.01  -0.00
    10   6    -0.00   0.01   0.01     0.02  -0.04   0.07    -0.04   0.08  -0.12
    11   1     0.02  -0.01   0.02    -0.25   0.13  -0.28     0.37  -0.18   0.41
    12   1    -0.02  -0.03  -0.01     0.09   0.21  -0.31    -0.13  -0.28   0.50
    13   1     0.01  -0.06   0.06    -0.09   0.27  -0.19     0.17  -0.38   0.27
    14   6    -0.09  -0.25   0.16    -0.01  -0.08  -0.00     0.00  -0.00  -0.00
    15   8     0.31   0.09   0.04     0.05   0.02   0.02    -0.00  -0.00   0.00
    16   8    -0.22   0.15  -0.16    -0.05   0.05  -0.03     0.00   0.00   0.00
                     31                     32                     33
                      A                      A                      A
 Frequencies --   1423.7911              1454.5952              1456.3195
 Red. masses --      3.7682                 1.0579                 1.1244
 Frc consts  --      4.5007                 1.3188                 1.4050
 IR Inten    --    411.6604                28.7716                13.3755
 Raman Activ --    534.6972                19.0782                42.0004
 Depolar (P) --      0.2650                 0.4117                 0.6059
 Depolar (U) --      0.4190                 0.5833                 0.7546
  Atom  AN      X      Y      Z        X      Y      Z        X      Y      Z
     1   6     0.07   0.17   0.30    -0.00  -0.00   0.00     0.00  -0.01   0.04
     2   7    -0.01  -0.01  -0.03    -0.00   0.00  -0.00     0.00   0.02  -0.01
     3   6    -0.03  -0.18   0.10     0.00   0.00   0.00    -0.00  -0.03   0.04
     4   6    -0.00   0.09  -0.16    -0.00  -0.01   0.00    -0.00   0.00  -0.03
     5   1    -0.07  -0.02  -0.52    -0.00   0.00  -0.00    -0.01   0.02  -0.14
     6   7     0.01   0.02  -0.01     0.00   0.00   0.00     0.01   0.02   0.00
     7   1    -0.10  -0.24  -0.23     0.00   0.01   0.00    -0.01   0.01  -0.04
     8   6    -0.02  -0.04  -0.19     0.02   0.02  -0.01    -0.02   0.01  -0.04
     9   8     0.00  -0.02   0.01    -0.00  -0.02   0.00     0.00  -0.02   0.01
    10   6     0.04   0.00   0.10     0.04  -0.01  -0.04    -0.03  -0.04  -0.01
    11   1     0.00  -0.01  -0.13    -0.35   0.37   0.49    -0.30   0.17  -0.22
    12   1    -0.07  -0.17  -0.44     0.12   0.28  -0.20     0.21   0.51   0.37
    13   1    -0.32   0.10  -0.02    -0.39  -0.40   0.24     0.57  -0.10   0.11
    14   6    -0.00   0.00  -0.00     0.00   0.00  -0.00     0.00   0.00  -0.00
    15   8    -0.01  -0.00  -0.00    -0.00  -0.00  -0.00    -0.01  -0.00  -0.00
    16   8     0.01  -0.01   0.00     0.00  -0.00   0.00     0.00  -0.00   0.00
                     34                     35                     36
                      A                      A                      A
 Frequencies --   1463.1384              1507.8196              1697.0131
 Red. masses --      3.5881                 5.0341                10.3422
 Frc consts  --      4.5257                 6.7433                17.5482
 IR Inten    --     44.7092                36.0784               593.6308
 Raman Activ --     37.2081                16.1762               393.4151
 Depolar (P) --      0.3134                 0.5436                 0.2681
 Depolar (U) --      0.4773                 0.7043                 0.4229
  Atom  AN      X      Y      Z        X      Y      Z        X      Y      Z
     1   6     0.05   0.26  -0.05    -0.07  -0.17  -0.24    -0.01  -0.06   0.01
     2   7    -0.02  -0.12   0.08     0.03   0.15  -0.01    -0.01  -0.01  -0.04
     3   6    -0.03  -0.04  -0.17    -0.02  -0.21   0.20     0.00  -0.02   0.06
     4   6     0.06   0.21   0.08     0.06   0.30  -0.11     0.01   0.03   0.00
     5   1     0.01  -0.26   0.49    -0.08  -0.03  -0.48    -0.01   0.01  -0.04
     6   7    -0.04  -0.17  -0.00    -0.00  -0.09   0.12    -0.00   0.01  -0.01
     7   1    -0.15  -0.58   0.01    -0.16  -0.54  -0.23     0.00   0.01  -0.00
     8   6    -0.01   0.01   0.01     0.03  -0.00   0.14    -0.03   0.73  -0.03
     9   8     0.00  -0.05  -0.01    -0.00   0.04  -0.01     0.02  -0.46   0.01
    10   6    -0.01   0.00  -0.01    -0.00   0.01  -0.03     0.00  -0.05   0.02
    11   1    -0.09   0.07  -0.04     0.05  -0.01   0.11     0.20  -0.18   0.11
    12   1     0.06   0.15   0.15    -0.03  -0.06  -0.01    -0.06  -0.20   0.05
    13   1     0.19  -0.10   0.09    -0.10   0.01  -0.05    -0.08   0.23  -0.18
    14   6    -0.02  -0.05   0.03     0.01  -0.04  -0.01    -0.05   0.03  -0.02
    15   8     0.05   0.02   0.00     0.02   0.01   0.01     0.01  -0.00   0.00
    16   8    -0.03   0.03  -0.03    -0.02   0.03  -0.02     0.02  -0.02   0.02
                     37                     38                     39
                      A                      A                      A
 Frequencies --   1753.4614              3038.5984              3106.1833
 Red. masses --     12.9164                 1.0405                 1.0923
 Frc consts  --     23.3983                 5.6601                 6.2091
 IR Inten    --   1198.9428                 2.6631                11.4230
 Raman Activ --     16.4022               375.0763               138.7155
 Depolar (P) --      0.7233                 0.0224                 0.5275
 Depolar (U) --      0.8395                 0.0439                 0.6907
  Atom  AN      X      Y      Z        X      Y      Z        X      Y      Z
     1   6     0.00   0.01   0.01     0.00   0.00   0.00     0.00  -0.00   0.00
     2   7     0.00  -0.00  -0.00     0.00  -0.00   0.00    -0.00  -0.00  -0.00
     3   6     0.00   0.00  -0.00    -0.00  -0.00  -0.00     0.00  -0.00   0.00
     4   6    -0.00  -0.00   0.01     0.00   0.00  -0.00     0.00   0.00  -0.00
     5   1     0.01  -0.01   0.01    -0.00  -0.00  -0.00     0.00   0.00   0.00
     6   7    -0.02  -0.00  -0.02    -0.00  -0.00  -0.00    -0.00   0.00  -0.00
     7   1    -0.00  -0.00   0.02     0.00  -0.00   0.00    -0.00   0.00   0.00
     8   6    -0.00   0.06  -0.00    -0.00  -0.00   0.00    -0.00   0.00  -0.00
     9   8    -0.00  -0.04   0.00    -0.00  -0.00  -0.00    -0.00  -0.00  -0.00
    10   6     0.00  -0.00   0.00    -0.04   0.03  -0.03    -0.08  -0.00   0.04
    11   1     0.01  -0.01   0.01    -0.27  -0.32   0.04     0.41   0.54  -0.07
    12   1    -0.00  -0.01   0.01     0.74  -0.29  -0.05     0.53  -0.22  -0.02
    13   1    -0.00   0.01  -0.01    -0.04   0.27   0.33     0.02  -0.28  -0.35
    14   6     0.80  -0.12   0.32     0.00  -0.00   0.00     0.00   0.00  -0.00
    15   8    -0.33  -0.07  -0.07     0.00   0.00  -0.00    -0.00  -0.00   0.00
    16   8    -0.25   0.15  -0.16    -0.00   0.00  -0.00     0.00  -0.00   0.00
                     40                     41                     42
                      A                      A                      A
 Frequencies --   3145.6086              3231.4361              3265.5059
 Red. masses --      1.1052                 1.0939                 1.1023
 Frc consts  --      6.4430                 6.7299                 6.9252
 IR Inten    --     17.8892                11.0430                 2.4901
 Raman Activ --    140.6928               221.3496               254.7648
 Depolar (P) --      0.7256                 0.4284                 0.1805
 Depolar (U) --      0.8410                 0.5998                 0.3059
  Atom  AN      X      Y      Z        X      Y      Z        X      Y      Z
     1   6     0.00  -0.00   0.00     0.00   0.00  -0.00     0.00   0.00   0.00
     2   7    -0.00   0.00  -0.00     0.00   0.00   0.00     0.00   0.00   0.00
     3   6    -0.00  -0.00  -0.00    -0.02  -0.08  -0.02    -0.01  -0.03  -0.00
     4   6    -0.00  -0.00  -0.00     0.00   0.00   0.02    -0.01   0.01  -0.09
     5   1     0.00   0.00   0.00     0.24   0.89   0.26     0.07   0.24   0.07
     6   7     0.00   0.00   0.00     0.00   0.00   0.00     0.00   0.00   0.00
     7   1    -0.00   0.00  -0.00    -0.03   0.03  -0.26     0.09  -0.13   0.95
     8   6     0.00  -0.00  -0.00     0.00   0.00   0.00    -0.00  -0.00  -0.00
     9   8    -0.00   0.00   0.00    -0.00  -0.00  -0.00     0.00  -0.00  -0.00
    10   6    -0.02  -0.08  -0.05     0.00   0.00   0.00     0.00  -0.00  -0.00
    11   1     0.38   0.47  -0.07    -0.00  -0.00   0.00    -0.00  -0.00   0.00
    12   1    -0.10   0.02  -0.00     0.00  -0.00  -0.00    -0.00   0.00   0.00
    13   1    -0.06   0.48   0.62     0.00  -0.00  -0.00    -0.00  -0.00  -0.00
    14   6    -0.00  -0.00   0.00     0.00   0.00   0.00    -0.00   0.00  -0.00
    15   8     0.00   0.00   0.00    -0.00   0.00  -0.00    -0.00  -0.00   0.00
    16   8    -0.00   0.00  -0.00    -0.00  -0.00  -0.00     0.00  -0.00   0.00

 -------------------
 - Thermochemistry -
 -------------------
 Temperature   298.150 Kelvin.  Pressure   1.00000 Atm.
 Thermochemistry will use frequencies scaled by 0.9670.
 Atom     1 has atomic number  6 and mass  12.00000
 Atom     2 has atomic number  7 and mass  14.00307
 Atom     3 has atomic number  6 and mass  12.00000
 Atom     4 has atomic number  6 and mass  12.00000
 Atom     5 has atomic number  1 and mass   1.00783
 Atom     6 has atomic number  7 and mass  14.00307
 Atom     7 has atomic number  1 and mass   1.00783
 Atom     8 has atomic number  6 and mass  12.00000
 Atom     9 has atomic number  8 and mass  15.99491
 Atom    10 has atomic number  6 and mass  12.00000
 Atom    11 has atomic number  1 and mass   1.00783
 Atom    12 has atomic number  1 and mass   1.00783
 Atom    13 has atomic number  1 and mass   1.00783
 Atom    14 has atomic number  6 and mass  12.00000
 Atom    15 has atomic number  8 and mass  15.99491
 Atom    16 has atomic number  8 and mass  15.99491
 Molecular mass:   153.03002 amu.
 Principal axes and moments of inertia in atomic units:
                           1         2         3
     Eigenvalues --  1164.357841584.710482472.46560
           X            0.00574   0.28132   0.95960
           Y           -0.45979   0.85290  -0.24729
           Z            0.88801   0.43979  -0.13424
 This molecule is an asymmetric top.
 Rotational symmetry number  1.
 Warning -- assumption of classical behavior for rotation
           may cause significant error
 Rotational temperatures (Kelvin)      0.07439     0.05466     0.03503
 Rotational constants (GHZ):           1.54999     1.13885     0.72994
 Zero-point vibrational energy     276279.8 (Joules/Mol)
                                   66.03246 (Kcal/Mol)
 Warning -- explicit consideration of  13 degrees of freedom as
           vibrations may cause significant error
 Vibrational temperatures:     29.26    89.32   127.77   186.80   215.05
          (Kelvin)            240.42   339.76   466.07   526.30   665.68
                              780.84   815.18   884.40   929.98  1018.30
                             1036.69  1092.68  1118.19  1215.58  1308.35
                             1338.73  1443.42  1458.90  1542.42  1643.35
                             1653.68  1750.99  1794.86  1895.39  1919.42
                             1980.92  2023.77  2026.17  2035.66  2097.83
                             2361.05  2439.59  4227.59  4321.62  4376.48
                             4495.89  4543.29
 
 Zero-point correction=                           0.105229 (Hartree/Particle)
 Thermal correction to Energy=                    0.115409
 Thermal correction to Enthalpy=                  0.116353
 Thermal correction to Gibbs Free Energy=         0.067621
 Sum of electronic and zero-point Energies=           -567.089421
 Sum of electronic and thermal Energies=              -567.079242
 Sum of electronic and thermal Enthalpies=            -567.078298
 Sum of electronic and thermal Free Energies=         -567.127029
 
                     E (Thermal)             CV                S
                      KCal/Mol        Cal/Mol-Kelvin    Cal/Mol-Kelvin
 Total                   72.420             35.371            102.564
 Electronic               0.000              0.000              0.000
 Translational            0.889              2.981             40.986
 Rotational               0.889              2.981             29.902
 Vibrational             70.643             29.409             31.676
 Vibration     1          0.593              1.986              6.601
 Vibration     2          0.597              1.972              4.390
 Vibration     3          0.602              1.957              3.686
 Vibration     4          0.612              1.923              2.949
 Vibration     5          0.618              1.903              2.679
 Vibration     6          0.624              1.883              2.468
 Vibration     7          0.655              1.785              1.832
 Vibration     8          0.708              1.628              1.290
 Vibration     9          0.739              1.543              1.097
 Vibration    10          0.820              1.333              0.758
 Vibration    11          0.898              1.156              0.559
 Vibration    12          0.922              1.104              0.511
 Vibration    13          0.974              1.001              0.425
                       Q            Log10(Q)             Ln(Q)
 Total Bot       0.787683D-31        -31.103649        -71.618798
 Total V=0       0.198831D+18         17.298483         39.831229
 Vib (Bot)       0.138453D-44        -44.858696       -103.290965
 Vib (Bot)    1  0.101849D+02          1.007958          2.320908
 Vib (Bot)    2  0.332542D+01          0.521846          1.201595
 Vib (Bot)    3  0.231571D+01          0.364685          0.839718
 Vib (Bot)    4  0.157030D+01          0.195983          0.451266
 Vib (Bot)    5  0.135679D+01          0.132512          0.305121
 Vib (Bot)    6  0.120716D+01          0.081764          0.188270
 Vib (Bot)    7  0.831783D+00         -0.079990         -0.184184
 Vib (Bot)    8  0.578937D+00         -0.237368         -0.546561
 Vib (Bot)    9  0.499132D+00         -0.301785         -0.694885
 Vib (Bot)   10  0.366810D+00         -0.435558         -1.002910
 Vib (Bot)   11  0.291186D+00         -0.535830         -1.233794
 Vib (Bot)   12  0.272558D+00         -0.564542         -1.299905
 Vib (Bot)   13  0.239243D+00         -0.621160         -1.430273
 Vib (V=0)       0.349490D+04          3.543435          8.159061
 Vib (V=0)    1  0.106972D+02          1.029270          2.369981
 Vib (V=0)    2  0.386279D+01          0.586902          1.351391
 Vib (V=0)    3  0.286908D+01          0.457742          1.053991
 Vib (V=0)    4  0.214798D+01          0.332030          0.764528
 Vib (V=0)    5  0.194599D+01          0.289140          0.665769
[...]
 567.0782976\GTot=-567.1270289\Dipole=-0.4682225,-3.3358776,1.2700486\D
 ipoleDeriv=-0.0000403,-0.233497,-0.3326012,-0.0809178,0.0097785,-0.913
 0346,-0.3390361,-0.9770312,-0.7593655,-0.3490078,0.0155588,0.1286599,0
 .0329017,-0.4917956,0.6879773,0.1216179,0.4406421,-0.1782563,-0.154265
 7,0.0478562,0.0533189,0.1222599,0.23119,0.2753118,-0.0920561,-0.389516
 1,-0.4210922,-0.1006153,0.0720785,-0.1760463,-0.0489138,0.0689773,-0.6
 544058,0.0384835,0.1182434,-0.1918016,0.1808112,-0.0585024,-0.0241181,
 -0.0722409,-0.0554859,-0.0774114,-0.0219439,-0.0360261,0.0735606,-0.25
 92896,-0.1833022,0.2456471,-0.2564341,-1.3899594,0.7709088,0.1520315,0
 .6934872,0.1729837,0.2020309,-0.0345426,-0.0200138,-0.0192033,0.126330
 7,0.0425178,-0.0240434,0.0048686,0.0111065,0.3504114,0.0503532,0.49600
 05,0.0731167,2.0728397,0.8450101,0.4271722,0.4026235,2.0763359,-0.4643
 165,0.042683,-0.1385803,-0.0734386,-1.8733564,-0.6745904,-0.0945359,-0
 .0693695,-0.906625,-0.00117,0.079354,-0.189705,0.0777415,-0.1203913,0.
 2872471,-0.1123601,0.245802,-0.3299219,0.042472,-0.1047557,0.023902,-0
 .0787844,0.0333012,0.0174487,-0.0275114,0.0174684,0.0662006,-0.0520384
 ,0.071209,0.0126005,0.0511493,0.0962728,-0.0125162,0.0329931,-0.000437
 4,0.0185579,0.1086475,0.019946,0.0267273,0.014406,0.0009358,-0.1150938
 ,-0.0110539,-0.074664,-0.0921663,2.9167379,0.2077322,0.4855138,0.21010
 67,2.6339364,-1.2449457,0.6240288,-1.0649937,1.1438145,-1.949118,-0.38
 61093,-0.1220512,-0.3435718,-1.0487328,0.2068534,-0.201313,0.1660004,-
 0.675182,-1.4712493,0.3939384,-0.469254,0.3918229,-1.2938411,0.5587228
 ,-0.4724733,0.5229026,-1.0081489\Polar=99.1160089,11.8903748,151.93543
 11,16.6369649,7.0223043,151.2933579\PolarDeriv=3.0917416,3.3530454,5.5
 360599,6.1794588,3.9756187,6.8036067,1.3927921,3.4745219,11.0010859,4.
 2945961,17.6366997,23.7570618,0.545083,5.8471507,19.8437573,5.560255,1
 6.3835183,31.7524141,-1.0548226,-3.9724336,-0.6625004,0.5568103,-2.915
 8141,-7.4723492,-2.5371175,-3.4511197,-13.6976991,-5.6514465,-12.36663
 16,-29.0382943,2.6995472,-1.4961186,5.11843,-5.9451756,-16.990143,-14.
 8234628,-5.4254957,-7.1209681,2.2162022,-1.956055,2.5996534,2.5710248,
 -5.5235535,0.311264,-9.5271821,-2.0536802,-7.9650348,-14.3539891,2.120
 1655,4.0068395,0.3434321,8.359401,20.147728,32.4640065,-2.792873,-0.56
 87745,0.4005968,-7.7428799,6.8736375,6.7848115,5.377132,2.3462878,4.20
 98391,8.4510186,18.8234397,24.1377197,-4.1130294,-0.3948126,-4.322069,
 0.8491349,0.2573089,-10.852119,-0.0614715,-0.2741127,-4.1713124,-0.116
 3282,-2.0834104,-1.5908048,-1.9258947,-4.0427223,-14.5356903,-1.253210
 1,-3.9214248,-2.5373845,-0.8257956,-1.3530882,-3.4718266,-1.128017,-3.
 4192774,-2.2873262,0.472658,0.4319111,-3.0534362,-2.2008165,-5.3751259
 ,-2.988097,1.216726,-0.5721835,4.6399568,-2.0803118,-9.4326507,-0.7857
 358,-0.8714047,-2.7128485,-6.4715457,-4.6030482,-13.3227747,-16.215808
 5,0.1837972,0.1650012,-0.5190751,0.9078847,-0.7246281,-2.1436075,-0.31
 78344,-0.2435744,0.2414856,-0.7686406,-2.1285311,0.8378641,-1.4583936,
 -0.2920862,-1.7460273,-2.3962796,-0.6069815,-16.3208008,1.1033732,-1.8
 066118,-2.1531129,0.9717345,-2.5445527,-7.1794757,-1.3469949,-5.391300
 9,-27.827267,-7.0766658,-25.3152267,-31.411201,1.211848,-2.942731,-7.5
 419073,-3.6246056,-10.6256787,-12.3580142,0.0226762,6.006527,-0.201837
 4,1.7639476,-0.0380602,1.4022946,2.9529543,4.6131425,35.6672666,6.6818
 149,25.5208042,33.5982998,-0.7663457,-0.3569852,-0.9796735,0.5438448,5
 .6008376,1.4258078,-5.9966353,5.5846343,1.8273622,-2.8128496,0.4112992
 ,1.8329197,5.0881363,0.7890495,2.5339068,-0.8041167,-7.428998,-8.38773
 14,0.6224353,-0.8323693,-3.0512458,0.8040618,-6.5624839,-3.6352737,-2.
 7093697,-3.0658544,-3.3450192,1.5052336,1.1705435,-2.757521,-3.0261051
 ,-2.4870435,-6.8296839,0.388508,3.0668414,-4.2763727,0.3782807,0.75908
 11,1.7883254,-1.3351429,-0.3930464,1.6535169,10.6425518,-3.6541086,2.7
 504778,3.3427842,-0.902711,4.736413,-3.2368865,2.4789191,-3.0111809,-0
 .8206136,1.9816552,-1.5033008,-0.2332607,0.5135193,0.5423318,1.905638,
 1.032864,2.7241854,0.2359109,0.2658907,-0.6059068,1.7281599,-0.6412353
 ,-1.0790226,0.5964292,-0.239839,3.8426096,0.2979594,3.6834053,6.916414
 ,1.0147683,0.1347655,2.6888714,0.0497269,4.4923883,10.7255503,-4.88241
 23,-3.9247138,3.4210797,2.2219258,-0.3103381,3.8567022,-3.7722501,3.87
 82163,4.0546687,-1.708473,3.7208625,4.7082995,1.0852718,-2.3516779,-3.
 7506093,0.8437986,-2.8810512,2.7314521,16.3589009,3.5369237,2.8176189,
 -0.447557,-1.7817219,1.148346,2.0432957,3.8832611,2.4852766,0.5551037,
 -1.3090738,-1.9136084,0.8623971,0.2501298,2.4570524,4.2309686,1.832351
 7,0.1091756,-9.1885297,5.0436444,-4.2571972,-3.901453,2.2868452,-3.925
 2409,3.019171,-5.3468789,6.7526078,1.5481574,-4.5661365,0.251959,-2.27
 15673,1.2212317,-1.4472959,-4.1145605,5.0544399,-7.0933034\HyperPolar=
 -105.0093261,-136.5961707,81.0650662,-122.9488863,-10.0023825,163.0280
 804,379.8618293,224.0940803,591.3982899,802.6525053\Quadrupole=41.7711
 882,-87.3852494,45.6140612,27.3606906,-4.3337114,31.3949671\PG=C01 [X(
 C6H5N2O3)]\NImag=0\\0.17659607,0.10813816,0.65717053,0.07948034,0.0687
 5500,0.67371438,-0.08811182,-0.05905039,0.00817213,0.13468838,-0.05098
 754,-0.31117177,0.03829609,0.09312054,0.50844065,-0.00050499,0.0029734
 6,-0.07732399,0.05203171,-0.01297877,0.49033719,0.00356580,-0.02526534
 ,-0.01699090,-0.07900517,-0.01712884,-0.03761159,0.17939691,-0.0186747
 9,-0.05393065,-0.02701000,-0.01452714,-0.11222454,-0.03479921,0.166555
 05,0.82620302,-0.02851802,-0.08789731,-0.05800006,-0.04110632,-0.03793
 014,-0.27325380,0.07259170,0.04567162,0.54877487,0.00874842,-0.0071381
 9,-0.03382738,0.01872995,0.00047036,0.00336257,-0.07139561,-0.02637844
 ,0.00540017,0.15518001,-0.01567219,-0.01077776,-0.06923062,0.00674529,
 0.02100290,0.06875942,-0.02898618,-0.26447853,0.09485537,0.09088077,0.
 55959567,-0.01653441,-0.00360168,-0.09373620,-0.01449153,-0.00195577,-
 0.07620395,0.01409816,0.12533848,-0.17671474,0.08173525,-0.08101298,0.
 86202498,0.00625308,-0.00077260,-0.00157035,-0.00696589,-0.00328080,-0
 .00083414,-0.04913372,-0.07532446,-0.02215586,-0.00024389,0.00039251,-
 0.00079630,0.04521325,-0.00131563,0.00112810,-0.00055685,0.00088626,-0
 .00024754,-0.00280635,-0.07539755,-0.31104640,-0.06797481,-0.00356279,
 -0.00916924,-0.01008344,0.08084209,0.32163542,-0.00218411,-0.00088179,
 -0.00636381,-0.00718421,-0.03025268,-0.00658556,-0.02173641,-0.0649387
 8,-0.07433451,0.00493608,0.01446658,0.01076183,0.02625670,0.07890489,0
 .07697619,-0.06945560,-0.00609962,-0.00988033,0.01549082,-0.01635925,-
 0.00419550,0.00793876,-0.02933977,0.00773723,-0.07672364,-0.04694913,-
 0.03852621,0.00449507,-0.00156445,0.00017105,0.19990740,-0.00743391,-0
 .11423915,0.04864418,-0.01956801,-0.08845875,0.01256247,-0.02152965,-0
 .09071683,0.03322240,-0.04420423,-0.21264944,-0.08455375,-0.00147865,-
 0.00299960,0.00504498,0.12426712,0.61323885,-0.00235174,0.06757325,-0.
 22480631,0.00607089,0.06401035,-0.04094956,-0.00989740,-0.03233166,0.0
 1971304,-0.03451469,-0.08039647,-0.19250442,-0.00068760,0.00266071,-0.
 00191646,0.07337205,-0.02938062,0.56555399,0.00377644,-0.00299683,-0.0
 0137235,0.00616634,-0.00135920,0.00067106,0.00086506,0.00194182,0.0027
 6944,-0.03229328,-0.00430583,-0.03001064,-0.00182660,0.00043733,0.0000
 6777,-0.00230936,0.00204736,-0.00687355,0.02635388,-0.00235930,-0.0059
 5005,-0.00128443,-0.00105637,-0.00267210,0.00574220,0.00424130,0.00944
 273,0.01737692,-0.00260259,-0.06345024,0.05068838,0.00029108,-0.000261
 94,-0.00073135,-0.00183356,0.00629580,-0.02875714,0.00292974,0.0546069
 7,-0.00084374,-0.00126750,-0.00017425,-0.00078322,0.00091971,-0.000759
 69,-0.00115204,-0.00438702,-0.00266117,-0.03236415,0.04115760,-0.34808
 983,0.00027787,0.00030580,-0.00025376,-0.00065402,0.00341192,-0.012084
 25,0.03533032,-0.04173419,0.36452222,-0.06801900,-0.00844509,-0.014859
 41,-0.01237879,-0.00816681,-0.00878900,0.00705621,-0.00451244,0.006310
 78,0.00483183,0.00543693,0.00155758,0.00164722,-0.00024831,-0.00037959
 ,-0.00509822,-0.00031166,-0.00766121,0.00177258,-0.00039853,-0.0003297
 9,0.23127667,-0.00902361,-0.09400299,-0.02356191,-0.00703266,-0.036674
 30,-0.03849406,-0.00136516,-0.01078347,0.02171962,0.00570345,0.0165413
 8,0.01094613,-0.00074415,0.00069184,-0.00047242,-0.00113521,0.00692522
 ,-0.00267368,0.00037282,0.00111774,0.00063027,-0.02490355,0.85861544,-
 0.02149267,-0.03576863,-0.19378863,-0.00076560,-0.02081226,-0.00519312
 ,0.00191860,-0.00099472,0.02420370,0.00696356,0.02535684,0.00330876,-0
 .00014571,0.00060702,0.00153237,-0.01224412,-0.02483079,-0.04511612,-0
 .00002976,-0.00081516,-0.00029010,0.05442106,-0.01802052,0.50914132,0.
 01720324,-0.00716341,-0.00514272,0.00607394,0.00055650,0.00115569,-0.0
 0221845,0.00101062,-0.00210573,-0.00069524,-0.00189840,-0.00028784,-0.
 00073224,0.00013976,0.00014166,-0.00009769,0.00024355,0.00163498,0.000
 08819,-0.00002060,0.00002010,-0.06942648,0.02555876,-0.00462828,0.0315
 8973,-0.00634957,-0.07087725,-0.04001827,0.00265792,0.01312739,0.00355
 702,-0.00195937,0.00334112,-0.01709689,-0.00515504,-0.01637042,-0.0041
 2112,-0.00005287,-0.00043190,-0.00091546,0.00485399,0.00663479,0.01438
 967,-0.00015306,0.00010567,-0.00011647,0.03224161,-0.63758797,0.031988
 03,-0.03237580,0.74899551,-0.00218340,-0.04095654,0.01009079,-0.000613
 98,-0.00072436,-0.00460352,-0.00086074,-0.00225363,-0.00307170,-0.0003
 4088,-0.00306328,0.00026058,-0.00028605,-0.00019627,-0.00064833,0.0019
 8661,0.00287746,0.00461799,-0.00005852,0.00013446,0.00000491,-0.006682
 54,0.01152807,-0.10090313,0.01128954,-0.01272870,0.09301685,0.01153697
 ,0.00096971,-0.00951397,0.00084051,0.00206634,0.00145782,-0.00066680,0
 .00031905,-0.00056189,-0.00055740,-0.00034348,-0.00026755,-0.00010918,
 0.00000419,0.00004231,0.00307896,-0.00137937,0.00047128,-0.00056861,0.
 00004232,0.00009762,-0.08775655,0.00439813,-0.01691542,0.02202102,0.00
 804564,-0.00294142,0.51273493,-0.00088356,0.01581020,-0.00891469,0.000
 67384,-0.00154552,-0.00094979,-0.00065926,-0.00007789,0.00187513,0.000
 45980,0.00223735,-0.00079357,0.00000453,-0.00002244,0.00002133,-0.0019
 2256,-0.00275436,-0.00568220,0.00022052,-0.00037306,-0.00031315,0.0024
 2096,-0.09400145,0.02531884,0.01455204,-0.04429258,0.04080398,0.017103
 72,0.55967830,-0.00860448,0.01099150,-0.02456530,-0.00114013,-0.000080
 28,-0.00279136,0.00055649,0.00080255,-0.00100780,0.00003218,-0.0001853
 8,-0.00168058,-0.00003364,-0.00011634,-0.00004389,-0.00151676,-0.00196
 823,-0.00093777,0.00005310,-0.00022336,-0.00020871,-0.01994721,0.03236
 022,-0.17448335,-0.00352744,0.01791749,0.00623708,-0.01546307,0.061937
 95,0.50945678,-0.00022736,-0.00085429,0.00070969,-0.00085693,-0.000488
 10,-0.00190009,0.00030025,0.00024838,-0.00002918,0.00008916,0.00003154
 ,-0.00017836,-0.00003209,-0.00001032,-0.00000433,-0.00004430,0.0002303
 8,-0.00010262,-0.00003017,0.00006135,-0.00000491,0.00499131,0.00761977
 ,-0.00036675,-0.00153226,0.00149673,-0.00177642,-0.14451474,-0.1327542
 2,0.01949483,0.15822919,0.00069434,-0.00042949,-0.00015863,-0.00072213
 ,-0.00016528,-0.00142431,0.00056381,0.00025769,-0.00011990,0.00002326,
 -0.00008755,-0.00032806,-0.00005785,-0.00000191,0.00000967,0.00014289,
 -0.00004521,0.00011944,-0.00014676,0.00007140,-0.00000705,-0.00927918,
 -0.01454573,-0.00001446,0.00173336,-0.00110298,0.00434853,-0.13439229,
 -0.20687409,0.02181681,0.14409739,0.22512364,-0.00190813,-0.00077257,-
 0.00102891,-0.00109642,0.00066694,-0.00019364,0.00021725,-0.00033188,-
 0.00104780,0.00001478,-0.00091477,0.00011767,-0.00000003,0.00002615,0.
 00002077,-0.00003188,0.00017962,0.00121245,-0.00001740,-0.00002306,0.0
 0005754,0.02240920,0.01905893,0.00405605,-0.00443230,0.00390800,-0.004
 37699,0.01832409,0.02089341,-0.05251458,-0.01800836,-0.02584048,0.0495
 8668,0.00076390,0.00084489,-0.00027185,0.00012749,-0.00015250,0.000231
 86,0.00019482,-0.00014815,-0.00010057,0.00002508,0.00008044,0.00010905
 ,-0.00001266,0.00000388,0.00000518,0.00006587,-0.00022027,-0.00033130,
 -0.00009088,-0.00000120,0.00000038,-0.00564650,0.00208125,0.00020643,-
 0.00009101,-0.00043775,-0.00071612,-0.26914003,0.09031369,0.01372209,-
 0.01862771,0.00751008,0.00099898,0.29266823,-0.00149327,-0.00049606,-0
 .00039481,0.00000122,0.00056953,0.00010095,0.00023631,-0.00001307,-0.0
 0010026,-0.00002525,-0.00019698,-0.00019498,0.00001171,-0.00000367,-0.
 00000568,-0.00017788,0.00013169,0.00043951,0.00002333,-0.00000513,0.00
 001239,0.01670782,-0.00909260,-0.00137291,-0.00227947,-0.00121893,0.00
 339935,0.09280029,-0.07419403,-0.00773087,-0.02384650,0.00987520,0.000
 71634,-0.09946123,0.08125358,0.00167397,-0.00085640,-0.00233734,0.0001
 2674,0.00091096,0.00048538,-0.00014245,0.00023852,-0.00079033,-0.00031
 052,-0.00054639,-0.00011453,-0.00000427,-0.00001606,-0.00000269,0.0009
 7119,-0.00014816,0.00034701,-0.00015505,0.00002501,0.00003048,-0.02824
 545,0.00910535,0.00497850,0.00273401,0.00181422,-0.00239196,0.01014322
 ,-0.00554331,-0.04571274,0.00379700,-0.00189553,-0.00050206,-0.0142589
 4,0.00456766,0.04622844,0.00113115,0.00139339,-0.00036665,-0.00020962,
 -0.00052466,-0.00066197,0.00018504,0.00004166,0.00026948,0.00003462,0.
 00041968,-0.00011015,-0.00000686,-0.00001082,-0.00000839,0.00013345,-0
 .00044063,-0.00080633,-0.00010551,0.00000630,-0.00004112,-0.00155477,-
 0.00467071,-0.00805610,-0.00044395,-0.00099606,0.00124943,-0.04722706,
 0.01099900,0.01665378,0.00224970,-0.01019463,-0.01653601,-0.00028457,0
 .01757931,0.02359596,0.04611769,0.00072877,-0.00247765,0.00203363,-0.0
 0031891,-0.00037068,-0.00106360,0.00005139,0.00032941,0.00021404,-0.00
 007172,0.00003684,0.00002950,0.00000324,-0.00001314,-0.00000581,0.0003
 7087,0.00049196,0.00051182,-0.00001408,0.00010269,0.00001972,-0.001376
 98,0.00945481,0.01639014,-0.00027881,0.00232042,-0.00091443,0.01059178
 ,-0.15307919,-0.13464327,0.00419933,-0.01202578,-0.01762923,-0.0004163
 1,-0.00662188,-0.00752155,-0.01351909,0.16175676,-0.00083453,0.0039647
 8,-0.00289221,0.00038269,0.00062797,0.00066898,-0.00005400,0.00010113,
 -0.00042074,-0.00008274,-0.00016808,-0.00066994,0.00000065,-0.00004227
 ,-0.00003974,-0.00060224,-0.00070726,-0.00067775,0.00005808,-0.0001326
 3,-0.00008986,0.00215974,-0.02031578,-0.02435986,0.00022152,-0.0006780
 6,0.00511074,0.01533244,-0.12895156,-0.21225799,-0.00164528,0.00349677
 ,0.00460491,0.00043646,0.00053606,-0.00022180,-0.01521962,0.14264339,0
 .23106565,-0.00440169,0.00194190,0.00793493,0.00678463,0.00849492,-0.0
 0412919,0.00265099,0.00150993,-0.00315193,-0.00724571,-0.00812672,-0.0
 0296147,0.00137571,0.00032090,-0.00053166,-0.05208669,0.00311910,-0.00
 658376,-0.00121003,0.00014221,-0.00020478,-0.00018357,0.00737058,0.002
 92138,-0.00430390,-0.00591954,0.00149252,0.00053010,-0.00059909,-0.000
 72566,-0.00002939,0.00000161,0.00007656,0.00008190,-0.00008490,0.00000
 617,-0.00002160,0.00004409,-0.00030083,0.89534331,0.00770398,-0.014967
 68,0.03070531,0.00190985,0.02967041,-0.00409744,-0.00008875,0.01013349
 ,-0.01173079,-0.01229660,-0.03547485,-0.01324146,0.00006659,0.00197568
 ,-0.00073830,0.00604087,-0.03163611,-0.02872083,0.00141286,0.00094875,
 0.00183967,0.00298148,0.01276243,0.01109224,-0.00119367,-0.01001423,-0
 .00319770,-0.00052387,-0.00122067,-0.00211500,-0.00008989,-0.00013842,
 0.00020700,0.00000439,-0.00001264,-0.00031856,-0.00018345,0.00016867,-
 0.00100083,-0.07125728,0.32926512,0.00664329,0.02161074,-0.00416880,-0
 .00273057,-0.00560447,-0.00427017,-0.00219271,-0.01010332,-0.00041225,
 0.00061815,-0.00730005,0.02202641,-0.00013904,-0.00133950,0.00142702,-
 0.01231959,-0.01714734,-0.08610823,-0.00033389,-0.00083364,-0.00121190
 ,-0.00059695,0.00053441,-0.00576926,-0.00006869,0.00030497,0.00396281,
 0.00058741,-0.00012495,0.00094049,-0.00000843,-0.00006587,0.00011704,0
 .00007252,-0.00012662,0.00026235,0.00005787,-0.00009592,0.00041863,0.2
 4849977,-0.06802399,0.35551778,-0.00173955,0.00465350,-0.00645654,-0.0
 0106539,-0.00901040,0.00025356,0.00015600,-0.00414595,0.00332746,0.001
 66768,0.00440751,0.00867806,0.00013234,-0.00073857,0.00050213,-0.03519
 942,-0.04753176,0.00202068,-0.00056214,0.00022569,-0.00009345,-0.00169
 538,-0.00450498,-0.00278299,0.00142763,0.00409694,0.00122309,0.0000904
 4,0.00015597,0.00058199,0.00003397,0.00003164,-0.00002444,-0.00000551,
 -0.00002341,0.00013877,0.00002818,-0.00001721,0.00025264,-0.50896898,-
 0.08814170,-0.08102861,0.64505645,-0.00345443,0.00575535,-0.00648432,-
 0.00000060,-0.00870976,-0.00075448,0.00082506,-0.00446813,0.00424306,-
 0.00004603,0.00703874,0.00744010,0.00039864,-0.00068183,0.00026319,-0.
 05264659,-0.03639048,0.00817254,-0.00050074,0.00008673,-0.00038206,-0.
 00150062,-0.00497783,-0.00399734,0.00166095,0.00401001,-0.00022315,0.0
 0001172,0.00034775,0.00054865,0.00004070,0.00005602,-0.00005514,0.0000
 0045,0.00003435,0.00005668,0.00004534,-0.00003048,0.00028127,-0.096991
 72,-0.10280287,-0.01629290,0.12460084,0.11263018,-0.00110741,-0.001822
 99,0.00000045,0.00054171,-0.00096748,0.00040107,0.00022740,0.00165327,
 0.00148856,0.00143435,0.00150906,-0.00271490,-0.00023482,0.00026045,-0
 .00017875,0.00937725,0.01039926,0.02021122,0.00004381,0.00004580,0.000
 16582,0.00047849,-0.00407329,0.00019557,0.00323297,0.00295765,-0.00588
 644,-0.00070589,0.00044784,-0.00002461,0.00002948,0.00004133,-0.000086
 35,-0.00009168,0.00013703,-0.00017798,0.00000434,0.00001240,-0.0000357
 9,-0.08171166,-0.01282623,-0.09796346,0.11980296,-0.00266260,0.0726800
 4,0.00237993,-0.00015580,0.00395536,-0.00030845,0.00274944,-0.00053780
 ,0.00010990,0.00142463,-0.00067675,-0.00015199,-0.00211274,-0.00201365
 ,-0.00005354,0.00021402,-0.00009420,0.00990460,0.01419062,-0.01375967,
 -0.00002592,0.00033217,0.00074494,0.00018344,0.00027527,0.00099636,0.0
 0113748,0.00000623,-0.00078112,-0.00029257,-0.00008537,-0.00013608,0.0
 0000136,-0.00000554,0.00001409,-0.00002841,0.00003192,-0.00007037,-0.0
 0002587,0.00002364,-0.00010499,-0.32831509,0.15365519,-0.15706055,-0.0
 9935633,0.02755702,-0.05132129,0.41484146,0.00038256,-0.00054366,-0.01
 081967,-0.00371873,-0.01057064,0.00367248,-0.00009282,-0.00196796,0.00
 367195,0.00394323,0.00620213,0.00544421,-0.00029902,-0.00055143,0.0002
 3164,0.02235228,-0.05382838,0.05006530,0.00009071,-0.00006596,-0.00008
 964,-0.00064564,-0.00444252,-0.00412633,-0.00024539,0.00336135,0.00116
 621,0.00028612,0.00036168,0.00068757,0.00001774,0.00003249,-0.00008926
 ,-0.00000164,-0.00000936,0.00012755,0.00005539,-0.00004276,0.00034509,
 0.16003403,-0.18865707,0.10460843,0.01594189,0.02810225,0.00488850,-0.
 19810070,0.22261983,-0.00072998,-0.00204332,0.00538019,0.00258611,0.00
 587419,0.00023575,0.00102863,0.00334465,-0.00246528,-0.00305674,-0.003
 28685,-0.00607113,0.00035262,0.00036688,-0.00035067,-0.01364475,0.0423
 9385,-0.00655482,-0.00014245,0.00052218,0.00104257,0.00015429,0.001728
 65,0.00248730,-0.00023747,-0.00116208,-0.00141969,-0.00008697,-0.00002
 527,-0.00040569,-0.00000628,0.00002174,-0.00002279,-0.00001249,0.00001
 684,-0.00008073,-0.00002451,0.00001916,-0.00020323,-0.16063040,0.10216
 691,-0.18476846,-0.04639532,0.00984651,0.01192555,0.22084572,-0.159784
 04,0.18127113\\0.00000130,0.00000055,-0.00000019,-0.00000100,-0.000000
 52,-0.00000162,-0.00000782,0.00000256,-0.00000004,-0.00001088,0.000003
 61,0.00000112,-0.00000493,0.00000119,-0.00000030,-0.00000573,0.0000009
 2,0.00000227,-0.00000675,0.00000236,0.00000160,0.00000790,-0.00000067,
 0.00000084,0.00001228,-0.00000501,0.00000184,0.00000262,0.00001840,-0.
 00002462,-0.00002014,-0.00003668,0.00000087,0.00004887,-0.00001790,-0.
 00000926,0.00000468,0.00002088,0.00002392,-0.00000886,-0.00000246,0.00
 000357,0.00000873,0.00000199,-0.00000297,-0.00002026,0.00001077,0.0000
 0297\\\@
 The archive entry for this job was punched.


 IF AT FIRST YOU DON'T SUCCEED, TRY LOOKING IN 
 THE WASTEBASKET FOR THE DIRECTIONS.
 Job cpu time:       0 days  0 hours 37 minutes 16.0 seconds.
 Elapsed time:       0 days  0 hours  3 minutes 13.8 seconds.
 File lengths (MBytes):  RWF=    199 Int=      0 D2E=      0 Chk=     22 Scr=      1
 Normal termination of Gaussian 16 at Thu Jan 11 12:38:55 2024.
