 Entering Gaussian System, Link 0=g16
 Input=PDA-CO2_binding_direct-site_index-5-freq.gjf
 Output=PDA-CO2_binding_direct-site_index-5-freq.log
 Initial command:
 /software/commercial/gaussian/g16/AVX/g16/l1.exe "/scratch1/svicchi/G09-659896.pbs02/Gau-195727.inp" -scrdir="/scratch1/svicchi/G09-659896.pbs02/"
 Entering Link 1 = /software/commercial/gaussian/g16/AVX/g16/l1.exe PID=    195728.
  
 Copyright (c) 1988-2019, Gaussian, Inc.  All Rights Reserved.
  
 This is part of the Gaussian(R) 16 program.  It is based on
 the Gaussian(R) 09 system (copyright 2009, Gaussian, Inc.),
 the Gaussian(R) 03 system (copyright 2003, Gaussian, Inc.),
 the Gaussian(R) 98 system (copyright 1998, Gaussian, Inc.),
 the Gaussian(R) 94 system (copyright 1995, Gaussian, Inc.),
 the Gaussian 92(TM) system (copyright 1992, Gaussian, Inc.),
 the Gaussian 90(TM) system (copyright 1990, Gaussian, Inc.),
 the Gaussian 88(TM) system (copyright 1988, Gaussian, Inc.),
 the Gaussian 86(TM) system (copyright 1986, Carnegie Mellon
 University), and the Gaussian 82(TM) system (copyright 1983,
 Carnegie Mellon University). Gaussian is a federally registered
 trademark of Gaussian, Inc.
  
 This software contains proprietary and confidential information,
 including trade secrets, belonging to Gaussian, Inc.
  
 This software is provided under written license and may be
 used, copied, transmitted, or stored only in accord with that
 written license.
  
 The following legend is applicable only to US Government
 contracts under FAR:
  
                    RESTRICTED RIGHTS LEGEND
  
 Use, reproduction and disclosure by the US Government is
 subject to restrictions as set forth in subparagraphs (a)
 and (c) of the Commercial Computer Software - Restricted
 Rights clause in FAR 52.227-19.
  
 Gaussian, Inc.
 340 Quinnipiac St., Bldg. 40, Wallingford CT 06492
  
  
 ---------------------------------------------------------------
 Warning -- This program may not be used in any manner that
 competes with the business of Gaussian, Inc. or will provide
 assistance to any competitor of Gaussian, Inc.  The licensee
 of this program is prohibited from giving any competitor of
 Gaussian, Inc. access to this program.  By using this program,
 the user acknowledges that Gaussian, Inc. is engaged in the
 business of creating and licensing software in the field of
 computational chemistry and represents and warrants to the
 licensee that it is not a competitor of Gaussian, Inc. and that
 it will not use this program in any manner prohibited above.
 ---------------------------------------------------------------
  

 Cite this work as:
 Gaussian 16, Revision C.01,
 M. J. Frisch, G. W. Trucks, H. B. Schlegel, G. E. Scuseria, 
 M. A. Robb, J. R. Cheeseman, G. Scalmani, V. Barone, 
 G. A. Petersson, H. Nakatsuji, X. Li, M. Caricato, A. V. Marenich, 
 J. Bloino, B. G. Janesko, R. Gomperts, B. Mennucci, H. P. Hratchian, 
 J. V. Ortiz, A. F. Izmaylov, J. L. Sonnenberg, D. Williams-Young, 
 F. Ding, F. Lipparini, F. Egidi, J. Goings, B. Peng, A. Petrone, 
 T. Henderson, D. Ranasinghe, V. G. Zakrzewski, J. Gao, N. Rega, 
 G. Zheng, W. Liang, M. Hada, M. Ehara, K. Toyota, R. Fukuda, 
 J. Hasegawa, M. Ishida, T. Nakajima, Y. Honda, O. Kitao, H. Nakai, 
 T. Vreven, K. Throssell, J. A. Montgomery, Jr., J. E. Peralta, 
 F. Ogliaro, M. J. Bearpark, J. J. Heyd, E. N. Brothers, K. N. Kudin, 
 V. N. Staroverov, T. A. Keith, R. Kobayashi, J. Normand, 
 K. Raghavachari, A. P. Rendell, J. C. Burant, S. S. Iyengar, 
 J. Tomasi, M. Cossi, J. M. Millam, M. Klene, C. Adamo, R. Cammi, 
 J. W. Ochterski, R. L. Martin, K. Morokuma, O. Farkas, 
 J. B. Foresman, and D. J. Fox, Gaussian, Inc., Wallingford CT, 2019.
 
 ******************************************
 Gaussian 16:  ES64L-G16RevC.01  3-Jul-2019
                 2-Jun-2023 
 ******************************************
 %NProcShared=2
 Will use up to    2 processors via shared memory.
 %mem=55gb
 %chk=/scratch1/svicchi/G09-659896.pbs02/02-freq/PDA-CO2_binding_direct-site_inde
 x-5-freq.chk
 ----------------------------------------------------------------------
 #p freq=raman scale=0.967 pop=(nbo,full,hirshfeld) guess=read geom=all
 check b3lyp/6-311+G(d,p) int=grid=ultrafine EmpiricalDispersion=GD3BJ 
 SCRF=(Solvent=ethanol) scf=(xqc,intrep,maxconventionalcycle=350) nosym
 m
 ----------------------------------------------------------------------
 1/10=4,29=7,30=1,38=1,114=967000/1,3;
 2/12=2,15=1,40=1/2;
 3/5=4,6=6,7=111,11=2,14=-4,25=1,30=1,70=2201,71=2,72=4,74=-5,75=-5,116=-2,124=41,140=1/1,2,3;
 4/5=1/1;
 5/5=2,8=3,13=1,17=20,38=6,53=4,85=350,98=1/2,8;
 8/6=4,10=90,11=11/1;
 10/13=10,15=4,31=1/2;
 11/6=3,8=1,9=11,15=111,16=1,31=1/1,2,10;
 10/6=1,31=1/2;
 6/7=3,28=1,40=1,79=1/1,7;
 7/8=1,10=1,25=1,30=1/1,2,3,16;
 1/10=4,30=1/3;
 99//99;
 Leave Link    1 at Fri Jun  2 21:43:20 2023, MaxMem=  7381975040 cpu:               3.5 elap:               3.5
 (Enter /software/commercial/gaussian/g16/AVX/g16/l101.exe)
 Structure from the checkpoint file:  "/scratch1/svicchi/G09-659896.pbs02/02-freq/PDA-CO2_binding_direct-site_index-5-freq.chk"
 ---------------------------------------
 PDA-CO2_binding_direct-site_index-5.gjf
 ---------------------------------------
 Charge =  0 Multiplicity = 1
 No Z-Matrix found in chk file; cartesian coordinates used.
  C                                                -3.354028301801      0.893004515822      0.442554384840
  C                                                -2.037012158947      1.662596097598      0.408402267491
  C                                                -0.840563601748      0.781917687654      0.043466205079
  H                                                -1.864470602780      2.122998040677      1.389627032896
  H                                                -2.121582681353      2.484651230571     -0.310956444512
  N                                                -4.475755547575      1.785147995311      0.776972105152
  H                                                -3.259673135577      0.049177721916      1.142123443880
  H                                                -3.552560524560      0.468028825038     -0.546162061682
  H                                                -5.345113677171      1.260606622277      0.807074792981
  C                                                 0.480081702914      1.553333796813      0.003640531929
  H                                                -1.019961170640      0.315935013892     -0.933246994847
  H                                                -0.758664818699     -0.039005339044      0.766448602880
  C                                                 1.672913769881      0.673562608419     -0.359678461346
  N                                                 2.920575948234      1.455724171036     -0.379676694546
  H                                                 1.470115867723      0.173136597431     -1.318823747764
  H                                                 1.784985466015     -0.115068727206      0.391310708672
  H                                                 0.666888702431      2.021096071470      0.976839270860
  H                                                 0.401476894949      2.369657121551     -0.725925871604
  H                                                 2.880861319414      2.146540254017     -1.124513444221
  H                                                 3.707941946563      0.851998611865     -0.596940984271
  H                                                -4.345646154373      2.173714142600      1.707314668401
  C                                                -4.714512068736      3.563586292492     -1.359340291058
  O                                                -4.519659841622      2.694625136911     -2.105849348617
  O                                                -4.916975332543      4.494911510890     -0.694680670592
 Recover connectivity data from disk.
 ITRead=  0  0  0  0  0  0  0  0  0  0  0  0  0  0  0  0  0  0  0  0
 ITRead=  0  0  0  0
 MicOpt= -1 -1 -1 -1 -1 -1 -1 -1 -1 -1 -1 -1 -1 -1 -1 -1 -1 -1 -1 -1
 MicOpt= -1 -1 -1 -1
 NAtoms=     24 NQM=       24 NQMF=       0 NMMI=      0 NMMIF=      0
                NMic=       0 NMicF=      0.
                    Isotopes and Nuclear Properties:
 (Nuclear quadrupole moments (NQMom) in fm**2, nuclear magnetic moments (NMagM)
  in nuclear magnetons)

  Atom         1           2           3           4           5           6           7           8           9          10
 IAtWgt=          12          12          12           1           1          14           1           1           1          12
 AtmWgt=  12.0000000  12.0000000  12.0000000   1.0078250   1.0078250  14.0030740   1.0078250   1.0078250   1.0078250  12.0000000
 NucSpn=           0           0           0           1           1           2           1           1           1           0
 AtZEff=   3.6000000   3.6000000   3.6000000   1.0000000   1.0000000   4.5500000   1.0000000   1.0000000   1.0000000   3.6000000
 NQMom=    0.0000000   0.0000000   0.0000000   0.0000000   0.0000000   2.0440000   0.0000000   0.0000000   0.0000000   0.0000000
 NMagM=    0.0000000   0.0000000   0.0000000   2.7928460   2.7928460   0.4037610   2.7928460   2.7928460   2.7928460   0.0000000
 AtZNuc=   6.0000000   6.0000000   6.0000000   1.0000000   1.0000000   7.0000000   1.0000000   1.0000000   1.0000000   6.0000000

  Atom        11          12          13          14          15          16          17          18          19          20
 IAtWgt=           1           1          12          14           1           1           1           1           1           1
 AtmWgt=   1.0078250   1.0078250  12.0000000  14.0030740   1.0078250   1.0078250   1.0078250   1.0078250   1.0078250   1.0078250
 NucSpn=           1           1           0           2           1           1           1           1           1           1
 AtZEff=   1.0000000   1.0000000   3.6000000   4.5500000   1.0000000   1.0000000   1.0000000   1.0000000   1.0000000   1.0000000
 NQMom=    0.0000000   0.0000000   0.0000000   2.0440000   0.0000000   0.0000000   0.0000000   0.0000000   0.0000000   0.0000000
 NMagM=    2.7928460   2.7928460   0.0000000   0.4037610   2.7928460   2.7928460   2.7928460   2.7928460   2.7928460   2.7928460
 AtZNuc=   1.0000000   1.0000000   6.0000000   7.0000000   1.0000000   1.0000000   1.0000000   1.0000000   1.0000000   1.0000000

  Atom        21          22          23          24
 IAtWgt=           1          12          16          16
 AtmWgt=   1.0078250  12.0000000  15.9949146  15.9949146
 NucSpn=           1           0           0           0
 AtZEff=   1.0000000   3.6000000   5.6000000   5.6000000
 NQMom=    0.0000000   0.0000000   0.0000000   0.0000000
 NMagM=    2.7928460   0.0000000   0.0000000   0.0000000
 AtZNuc=   1.0000000   6.0000000   8.0000000   8.0000000
 Leave Link  101 at Fri Jun  2 21:43:22 2023, MaxMem=  7381975040 cpu:               0.3 elap:               1.1
 (Enter /software/commercial/gaussian/g16/AVX/g16/l103.exe)

 GradGradGradGradGradGradGradGradGradGradGradGradGradGradGradGradGradGrad
 Berny optimization.
 Initialization pass.
 Trust Radius=3.00D-01 FncErr=1.00D-07 GrdErr=1.00D-07 EigMax=2.50D+02 EigMin=1.00D-04
 Number of steps in this run=      2 maximum allowed number of steps=      2.
 GradGradGradGradGradGradGradGradGradGradGradGradGradGradGradGradGradGrad

 Leave Link  103 at Fri Jun  2 21:43:24 2023, MaxMem=  7381975040 cpu:               0.1 elap:               1.1
 (Enter /software/commercial/gaussian/g16/AVX/g16/l202.exe)
                          Input orientation:                          
 ---------------------------------------------------------------------
 Center     Atomic      Atomic             Coordinates (Angstroms)
 Number     Number       Type             X           Y           Z
 ---------------------------------------------------------------------
      1          6           0       -3.354028    0.893005    0.442554
      2          6           0       -2.037012    1.662596    0.408402
      3          6           0       -0.840564    0.781918    0.043466
      4          1           0       -1.864471    2.122998    1.389627
      5          1           0       -2.121583    2.484651   -0.310956
      6          7           0       -4.475756    1.785148    0.776972
      7          1           0       -3.259673    0.049178    1.142123
      8          1           0       -3.552561    0.468029   -0.546162
      9          1           0       -5.345114    1.260607    0.807075
     10          6           0        0.480082    1.553334    0.003641
     11          1           0       -1.019961    0.315935   -0.933247
     12          1           0       -0.758665   -0.039005    0.766449
     13          6           0        1.672914    0.673563   -0.359678
     14          7           0        2.920576    1.455724   -0.379677
     15          1           0        1.470116    0.173137   -1.318824
     16          1           0        1.784985   -0.115069    0.391311
     17          1           0        0.666889    2.021096    0.976839
     18          1           0        0.401477    2.369657   -0.725926
     19          1           0        2.880861    2.146540   -1.124513
     20          1           0        3.707942    0.851999   -0.596941
     21          1           0       -4.345646    2.173714    1.707315
     22          6           0       -4.714512    3.563586   -1.359340
     23          8           0       -4.519660    2.694625   -2.105849
     24          8           0       -4.916975    4.494912   -0.694681
 ---------------------------------------------------------------------
                    Distance matrix (angstroms):
                    1          2          3          4          5
     1  C    0.000000
     2  C    1.525768   0.000000
     3  C    2.547374   1.529791   0.000000
     4  H    2.151421   1.097517   2.158479   0.000000
     5  H    2.149428   1.095629   2.160076   1.757522   0.000000
     6  N    1.471743   2.469480   3.841760   2.703386   2.686080
     7  H    1.100156   2.153222   2.756093   2.511688   3.055850
     8  H    1.094340   2.152921   2.793048   3.055462   2.483905
     9  H    2.057286   3.356199   4.593823   3.632900   3.624835
    10  C    3.915237   2.551770   1.529958   2.782517   2.781183
    11  H    2.770146   2.155902   1.096947   3.061767   2.510806
    12  H    2.776592   2.158198   1.096962   2.507073   3.063852
    13  C    5.095280   3.915570   2.547908   4.204048   4.204833
    14  N    6.353218   5.024096   3.844377   5.145130   5.146531
    15  H    5.185849   4.183509   2.750580   4.717747   4.388530
    16  H    5.237203   4.215217   2.796263   4.395919   4.744786
    17  H    4.210205   2.786166   2.163137   2.566819   3.106264
    18  H    4.201151   2.780803   2.157671   3.109811   2.559542
    19  H    6.549878   5.173926   4.132236   5.370254   5.079433
    20  H    7.138183   5.888317   4.593902   6.050923   6.060586
    21  H    2.055028   2.697815   4.122025   2.501945   3.019364
    22  C    3.497106   3.729301   4.971219   4.213651   2.997748
    23  O    3.331500   3.681044   4.670520   4.426640   3.002749
    24  O    4.087767   4.187241   5.563121   4.391822   3.464478
                    6          7          8          9         10
     6  N    0.000000
     7  H    2.150764   0.000000
     8  H    2.082733   1.763952   0.000000
     9  H    1.015792   2.434929   2.381738   0.000000
    10  C    5.021165   4.188603   4.212170   5.887622   0.000000
    11  H    4.126251   3.065066   2.566520   4.756897   2.158482
    12  H    4.140581   2.530603   3.128240   4.767196   2.156829
    13  C    6.350884   5.193812   5.232839   7.138532   1.526056
    14  N    7.493469   6.518414   6.550172   8.352729   2.472341
    15  H    6.507252   5.333154   5.090309   7.221453   2.152678
    16  H    6.554116   5.102869   5.450528   7.273490   2.153283
    17  H    5.151932   4.397007   4.747136   6.062288   1.095817
    18  H    5.136901   4.719984   4.391232   6.050073   1.097647
    19  H    7.606975   6.873335   6.673890   8.496033   2.718155
    20  H    8.350528   7.226100   7.270826   9.170389   3.357328
    21  H    1.016587   2.452026   2.935388   1.625771   5.155097
    22  C    2.789924   4.552466   3.404977   3.224086   5.734338
    23  O    3.023200   4.374390   2.885418   3.350061   5.545260
    24  O    3.115005   5.087735   4.254347   3.591560   6.186175
                   11         12         13         14         15
    11  H    0.000000
    12  H    1.755911   0.000000
    13  C    2.776410   2.772813   0.000000
    14  N    4.139250   4.133356   1.472697   0.000000
    15  H    2.523796   3.059547   1.100687   2.151944   0.000000
    16  H    3.131764   2.572289   1.094753   2.085996   1.762602
    17  H    3.066181   2.514057   2.148072   2.690518   3.054537
    18  H    2.506241   3.061824   2.151145   2.702040   2.513607
    19  H    4.313249   4.647418   2.052748   1.016654   2.433574
    20  H    4.770066   4.754292   2.056568   1.015694   2.447414
    21  H    4.635093   4.318309   6.538041   7.594013   6.854408
    22  C    4.937459   5.757289   7.081721   7.981065   7.053114
    23  O    4.391020   5.465155   6.744018   7.737678   6.546352
    24  O    5.719045   6.323199   7.625062   8.412080   7.737068
                   16         17         18         19         20
    16  H    0.000000
    17  H    2.481166   0.000000
    18  H    3.055516   1.758223   0.000000
    19  H    2.934884   3.055011   2.521111   0.000000
    20  H    2.368464   3.618229   3.640417   1.624264   0.000000
    21  H    6.674956   5.067780   5.337999   7.761598   8.480378
    22  C    7.670772   6.066011   5.291505   7.729997   8.880974
    23  O    7.340214   6.070988   5.121267   7.485394   8.565367
    24  O    8.206557   6.331925   5.727444   8.155113   9.363203
                   21         22         23         24
    21  H    0.000000
    22  C    3.387061   0.000000
    23  O    3.852512   1.162040   0.000000
    24  O    3.388799   1.161951   2.321699   0.000000
 Symmetry turned off by external request.
 Stoichiometry    C6H14N2O2
 Framework group  C1[X(C6H14N2O2)]
 Deg. of freedom    66
 Full point group                 C1      NOp   1
 Rotational constants (GHZ):           2.1538007           0.3864750           0.3554200
 Leave Link  202 at Fri Jun  2 21:43:26 2023, MaxMem=  7381975040 cpu:               0.0 elap:               0.6
 (Enter /software/commercial/gaussian/g16/AVX/g16/l301.exe)
 Standard basis: 6-311+G(d,p) (5D, 7F)
 Ernie: Thresh=  0.10000D-02 Tol=  0.10000D-05 Strict=F.
   304 basis functions,   472 primitive gaussians,   314 cartesian basis functions
    40 alpha electrons       40 beta electrons
       nuclear repulsion energy       511.1342891135 Hartrees.
 IExCor=  402 DFT=T Ex+Corr=B3LYP ExCW=0 ScaHFX=  0.200000
 ScaDFX=  0.800000  0.720000  1.000000  0.810000 ScalE2=  1.000000  1.000000
 IRadAn=      5 IRanWt=     -1 IRanGd=            0 ICorTp=0 IEmpDi=141
 NAtoms=   24 NActive=   24 NUniq=   24 SFac= 1.00D+00 NAtFMM=   60 NAOKFM=F Big=F
 Integral buffers will be    131072 words long.
 Raffenetti 2 integral format.
 Two-electron integral symmetry is turned off.
 R6Disp:  Grimme-D3(BJ) Dispersion energy=       -0.0320258496 Hartrees.
 Nuclear repulsion after empirical dispersion term =      511.1022632638 Hartrees.
 Force inversion solution in PCM.
 ------------------------------------------------------------------------------
 Polarizable Continuum Model (PCM)
 =================================
 Model                : PCM.
 Atomic radii         : UFF (Universal Force Field).
 Polarization charges : Total charges.
 Charge compensation  : None.
 Solution method      : Matrix inversion.
 Cavity type          : Scaled VdW (van der Waals Surface) (Alpha=1.100).
 Cavity algorithm     : GePol (No added spheres)
                        Default sphere list used, NSphG=   24.
                        Lebedev-Laikov grids with approx.  5.0 points / Ang**2.
                        Smoothing algorithm: York/Karplus (Gamma=1.0000).
                        Polarization charges: spherical gaussians, with
                                              point-specific exponents (IZeta= 3).
                        Self-potential: point-specific (ISelfS= 7).
                        Self-field    : sphere-specific E.n sum rule (ISelfD= 2).
 1st derivatives      : Analytical E(r).r(x)/FMM algorithm (CHGder, D1EAlg=3).
                        Cavity 1st derivative terms included.
 2nd derivatives      : Analytical E(r).r(xy)/FMM algorithm (CHGder, D2EAlg=3).
                        Cavity 2nd derivative terms included.
 Solvent              : Ethanol, Eps=  24.852000 Eps(inf)=   1.852593
 ------------------------------------------------------------------------------
 GePol: Number of generator spheres                  =      24
 GePol: Total number of spheres                      =      24
 GePol: Number of exposed spheres                    =      24 (100.00%)
 GePol: Number of points                             =    1910
 GePol: Average weight of points                     =       0.13
 GePol: Minimum weight of points                     =   0.10D-09
 GePol: Maximum weight of points                     =    0.20577
 GePol: Number of points with low weight             =     107
 GePol: Fraction of low-weight points (<1% of avg)   =       5.60%
 GePol: Cavity surface area                          =    254.853 Ang**2
 GePol: Cavity volume                                =    246.116 Ang**3
 Leave Link  301 at Fri Jun  2 21:43:28 2023, MaxMem=  7381975040 cpu:               0.2 elap:               1.3
 (Enter /software/commercial/gaussian/g16/AVX/g16/l302.exe)
 NPDir=0 NMtPBC=     1 NCelOv=     1 NCel=       1 NClECP=     1 NCelD=      1
         NCelK=      1 NCelE2=     1 NClLst=     1 CellRange=     0.0.
 One-electron integrals computed using PRISM.
 NBasis=   304 RedAO= T EigKep=  8.14D-06  NBF=   304
 NBsUse=   304 1.00D-06 EigRej= -1.00D+00 NBFU=   304
 Precomputing XC quadrature grid using
 IXCGrd= 4 IRadAn=           5 IRanWt=          -1 IRanGd=           0 AccXCQ= 0.00D+00.
 Generated NRdTot=       0 NPtTot=           0 NUsed=           0 NTot=          32
 NSgBfM=   314   314   314   314   314 MxSgAt=    24 MxSgA2=    24.
 Leave Link  302 at Fri Jun  2 21:43:30 2023, MaxMem=  7381975040 cpu:               1.4 elap:               1.9
 (Enter /software/commercial/gaussian/g16/AVX/g16/l303.exe)
 DipDrv:  MaxL=1.
 Leave Link  303 at Fri Jun  2 21:43:32 2023, MaxMem=  7381975040 cpu:               0.3 elap:               0.7
 (Enter /software/commercial/gaussian/g16/AVX/g16/l401.exe)
 Initial guess from the checkpoint file:  "/scratch1/svicchi/G09-659896.pbs02/02-freq/PDA-CO2_binding_direct-site_index-5-freq.chk"
 B after Tr=     0.000000    0.000000    0.000000
         Rot=    1.000000    0.000000    0.000000    0.000000 Ang=   0.00 deg.
 Guess basis will be translated and rotated to current coordinates.
 JPrj=2 DoOrth=T DoCkMO=T.
 Leave Link  401 at Fri Jun  2 21:43:34 2023, MaxMem=  7381975040 cpu:               0.9 elap:               1.6
 (Enter /software/commercial/gaussian/g16/AVX/g16/l502.exe)
 Keep R1 ints in memory in canonical form, NReq=1090277424.
 FoFCou: FMM=F IPFlag=           0 FMFlag=           0 FMFlg1=           0
         NFxFlg=           0 DoJE=F BraDBF=F KetDBF=F FulRan=T
         wScrn=  0.000000 ICntrl=       600 IOpCl=  0 I1Cent=           0 NGrid=           0
         NMat0=    1 NMatS0=  46360 NMatT0=    0 NMatD0=    1 NMtDS0=    0 NMtDT0=    0
 Symmetry not used in FoFCou.
 Two-electron integral symmetry not used.
 Closed shell SCF:
 Using DIIS extrapolation, IDIIS=  1040.
 NGot=  7381975040 LenX=  6307124952 LenY=  6307025915
 Requested convergence on RMS density matrix=1.00D-08 within 350 cycles.
 Requested convergence on MAX density matrix=1.00D-06.
 Requested convergence on             energy=1.00D-06.
 No special actions if energy rises.

 Cycle   1  Pass 1  IDiag  1:
 Inv3:  Mode=1 IEnd=    10944300.
 Iteration    1 A*A^-1 deviation from unit magnitude is 2.89D-15 for   1898.
 Iteration    1 A*A^-1 deviation from orthogonality  is 1.72D-15 for   1497    492.
 Iteration    1 A^-1*A deviation from unit magnitude is 2.89D-15 for   1884.
 Iteration    1 A^-1*A deviation from orthogonality  is 1.70D-15 for   1695   1032.
 E= -497.249538747649    
 DIIS: error= 1.77D-08 at cycle   1 NSaved=   1.
 NSaved= 1 IEnMin= 1 EnMin= -497.249538747649     IErMin= 1 ErrMin= 1.77D-08
 ErrMax= 1.77D-08  0.00D+00 EMaxC= 1.00D-01 BMatC= 7.68D-14 BMatP= 7.68D-14
 IDIUse=1 WtCom= 1.00D+00 WtEn= 0.00D+00
 Coeff-Com:  0.100D+01
 Coeff:      0.100D+01
 Gap=     0.243 Goal=   None    Shift=    0.000
 RMSDP=3.70D-09 MaxDP=2.93D-07              OVMax= 9.53D-08

 Error on total polarization charges =  0.01509
 SCF Done:  E(RB3LYP) =  -497.249538748     A.U. after    1 cycles
            NFock=  1  Conv=0.37D-08     -V/T= 2.0042
 KE= 4.951755821757D+02 PE=-2.183312317707D+03 EE= 6.797849335196D+02
 Leave Link  502 at Fri Jun  2 21:44:18 2023, MaxMem=  7381975040 cpu:              78.1 elap:              42.9
 (Enter /software/commercial/gaussian/g16/AVX/g16/l508.exe)
 QCSCF skips out because SCF is already converged.
 Leave Link  508 at Fri Jun  2 21:44:20 2023, MaxMem=  7381975040 cpu:               0.0 elap:               0.9
 (Enter /software/commercial/gaussian/g16/AVX/g16/l801.exe)
 DoSCS=F DFT=T ScalE2(SS,OS)=  1.000000  1.000000
 Range of M.O.s used for correlation:     1   304
 NBasis=   304 NAE=    40 NBE=    40 NFC=     0 NFV=     0
 NROrb=    304 NOA=    40 NOB=    40 NVA=   264 NVB=   264

 **** Warning!!: The largest alpha MO coefficient is  0.74359394D+02

 Leave Link  801 at Fri Jun  2 21:44:22 2023, MaxMem=  7381975040 cpu:               0.4 elap:               1.1
 (Enter /software/commercial/gaussian/g16/AVX/g16/l1002.exe)
 Minotr:  Closed shell wavefunction.
 NEqPCM:  Using equilibrium solvation (IEInf=0, Eps=  24.8520, EpsInf=   1.8526)
          Direct CPHF calculation.
          Differentiating once with respect to electric field.
                with respect to dipole field.
          Electric field/nuclear overlap derivatives assumed to be zero.
          Requested convergence is 1.0D-08 RMS, and 1.0D-07 maximum.
          Secondary convergence is 1.0D-12 RMS, and 1.0D-12 maximum.
          NewPWx=F KeepS1=T KeepF1=T KeepIn=T MapXYZ=F SortEE=F KeepMc=T.
         7433 words used for storage of precomputed grid.
 Keep R1 ints in memory in canonical form, NReq=1090287437.
 FoFCou: FMM=F IPFlag=           0 FMFlag=           0 FMFlg1=           0
         NFxFlg=           0 DoJE=F BraDBF=F KetDBF=F FulRan=T
         wScrn=  0.000000 ICntrl=       600 IOpCl=  0 I1Cent=           0 NGrid=           0
         NMat0=    1 NMatS0=  46360 NMatT0=    0 NMatD0=    1 NMtDS0=    0 NMtDT0=    0
 Symmetry not used in FoFCou.
 Two-electron integral symmetry not used.
          MDV=    7381975040 using IRadAn=       1.
          Solving linear equations simultaneously, MaxMat=       0.
          There are     3 degrees of freedom in the 1st order CPHF.  IDoFFX=0 NUNeed=     3.
      3 vectors produced by pass  0 Test12= 3.52D-13 3.33D-08 XBig12= 7.04D+01 2.56D+00.
 AX will form     3 AO Fock derivatives at one time.
      3 vectors produced by pass  1 Test12= 3.52D-13 3.33D-08 XBig12= 2.04D+01 1.37D+00.
      3 vectors produced by pass  2 Test12= 3.52D-13 3.33D-08 XBig12= 4.75D+00 2.73D-01.
      3 vectors produced by pass  3 Test12= 3.52D-13 3.33D-08 XBig12= 3.73D-01 1.62D-01.
      3 vectors produced by pass  4 Test12= 3.52D-13 3.33D-08 XBig12= 1.48D-01 8.08D-02.
      3 vectors produced by pass  5 Test12= 3.52D-13 3.33D-08 XBig12= 2.13D-02 2.82D-02.
      3 vectors produced by pass  6 Test12= 3.52D-13 3.33D-08 XBig12= 2.35D-03 1.19D-02.
      3 vectors produced by pass  7 Test12= 3.52D-13 3.33D-08 XBig12= 3.67D-04 5.23D-03.
      3 vectors produced by pass  8 Test12= 3.52D-13 3.33D-08 XBig12= 4.75D-05 1.49D-03.
      3 vectors produced by pass  9 Test12= 3.52D-13 3.33D-08 XBig12= 3.91D-06 3.82D-04.
      3 vectors produced by pass 10 Test12= 3.52D-13 3.33D-08 XBig12= 1.49D-07 9.13D-05.
      3 vectors produced by pass 11 Test12= 3.52D-13 3.33D-08 XBig12= 2.72D-09 8.22D-06.
      3 vectors produced by pass 12 Test12= 3.52D-13 3.33D-08 XBig12= 9.28D-11 1.85D-06.
      3 vectors produced by pass 13 Test12= 3.52D-13 3.33D-08 XBig12= 3.06D-12 2.29D-07.
      1 vectors produced by pass 14 Test12= 3.52D-13 3.33D-08 XBig12= 9.66D-14 4.44D-08.
 InvSVY:  IOpt=1 It=  1 EMax= 2.23D-15
 Solved reduced A of dimension    43 with     3 vectors.
 End of Minotr F.D. properties file   721 does not exist.
 End of Minotr F.D. properties file   722 does not exist.
 End of Minotr F.D. properties file   788 does not exist.
 Leave Link 1002 at Fri Jun  2 21:47:56 2023, MaxMem=  7381975040 cpu:             407.5 elap:             212.8
 (Enter /software/commercial/gaussian/g16/AVX/g16/l1101.exe)
 Using compressed storage, NAtomX=    24.
 Will process     25 centers per pass.
 R6Disp: Adding Grimme-D3(BJ) dispersion energy 1st derivatives to the gradient.
 Leave Link 1101 at Fri Jun  2 21:47:58 2023, MaxMem=  7381975040 cpu:               1.1 elap:               1.5
 (Enter /software/commercial/gaussian/g16/AVX/g16/l1102.exe)
 Symmetrizing basis deriv contribution to polar:
 IMax=3 JMax=2 DiffMx= 0.00D+00
 Leave Link 1102 at Fri Jun  2 21:48:00 2023, MaxMem=  7381975040 cpu:               0.3 elap:               0.8
 (Enter /software/commercial/gaussian/g16/AVX/g16/l1110.exe)
 Forming Gx(P) for the SCF density, NAtomX=    24.
 Integral derivatives from FoFJK, PRISM(SPDF).
 Do as many integral derivatives as possible in FoFJK.
 G2DrvN: MDV=    7381972432.
 G2DrvN: will do    25 centers at a time, making    1 passes.
 PxScal for G2LodP:  IOpCl= 0 ISclPx=1 IMOff=     1 NMtTot=     4 NTT=   46360 ScalPx= 1.34D+01
 Calling FoFCou, ICntrl=  3107 FMM=F I1Cent=   0 AccDes= 0.00D+00.
 FoFJK:  IHMeth= 1 ICntrl=    3107 DoSepK=F KAlg= 0 I1Cent=           0 FoldK=F
 IRaf=         0 NMat=       1 IRICut=       1 DoRegI=T DoRafI=F ISym2E= 0 IDoP0=0 IntGTp=1.
 FoFCou: FMM=F IPFlag=           0 FMFlag=      100000 FMFlg1=           0
         NFxFlg=           0 DoJE=F BraDBF=F KetDBF=F FulRan=T
         wScrn=  0.000000 ICntrl=      3107 IOpCl=  0 I1Cent=           0 NGrid=           0
         NMat0=    1 NMatS0=      1 NMatT0=    0 NMatD0=    4 NMtDS0=    3 NMtDT0=    0
 Symmetry not used in FoFCou.
 PxScal for G2LodP:  IOpCl= 0 ISclPx=0 IMOff=     1 NMtTot=     4 NTT=   46360 ScalPx= 1.00D+00
 NEqPCM:  Using equilibrium solvation (IEInf=0, Eps=  24.8520, EpsInf=   1.8526)
 G2PCM: DoFxE=T DoFxN=T DoGrad=T DoDP/DQ/DG/TGxP=TFFF NFrqRd=   0 IEInf=0 SqF1=F DoCFld=F IF1Alg=4.
 GePol: Maximum number of non-zero 1st derivatives   =     216
 End of G2Drv F.D. properties file   721 does not exist.
 End of G2Drv F.D. properties file   722 does not exist.
 End of G2Drv F.D. properties file   788 does not exist.
 Leave Link 1110 at Fri Jun  2 21:58:04 2023, MaxMem=  7381975040 cpu:            1193.9 elap:             602.5
 (Enter /software/commercial/gaussian/g16/AVX/g16/l1002.exe)
 Minotr:  Closed shell wavefunction.
          IDoAtm=111111111111111111111111
 NEqPCM:  Using equilibrium solvation (IEInf=0, Eps=  24.8520, EpsInf=   1.8526)
          Direct CPHF calculation.
          Differentiating once with respect to electric field.
                with respect to dipole field.
          Differentiating once with respect to nuclear coordinates.
          Requested convergence is 1.0D-08 RMS, and 1.0D-07 maximum.
          Secondary convergence is 1.0D-12 RMS, and 1.0D-12 maximum.
          NewPWx=T KeepS1=F KeepF1=F KeepIn=T MapXYZ=F SortEE=F KeepMc=T.
         7433 words used for storage of precomputed grid.
 Keep R1 ints in memory in canonical form, NReq=1090287989.
 FoFCou: FMM=F IPFlag=           0 FMFlag=           0 FMFlg1=           0
         NFxFlg=           0 DoJE=F BraDBF=F KetDBF=F FulRan=T
         wScrn=  0.000000 ICntrl=       600 IOpCl=  0 I1Cent=           0 NGrid=           0
         NMat0=    1 NMatS0=  46360 NMatT0=    0 NMatD0=    1 NMtDS0=    0 NMtDT0=    0
 Symmetry not used in FoFCou.
 Two-electron integral symmetry not used.
          MDV=    7381975040 using IRadAn=       1.
          Solving linear equations simultaneously, MaxMat=       0.
          There are    75 degrees of freedom in the 1st order CPHF.  IDoFFX=5 NUNeed=    75.
 Will reuse    3 saved solutions.
     69 vectors produced by pass  0 Test12= 1.41D-14 1.33D-09 XBig12= 2.38D-01 1.30D-01.
 AX will form    69 AO Fock derivatives at one time.
     69 vectors produced by pass  1 Test12= 1.41D-14 1.33D-09 XBig12= 5.82D-03 1.07D-02.
     69 vectors produced by pass  2 Test12= 1.41D-14 1.33D-09 XBig12= 9.47D-05 1.57D-03.
     69 vectors produced by pass  3 Test12= 1.41D-14 1.33D-09 XBig12= 4.49D-07 6.44D-05.
     69 vectors produced by pass  4 Test12= 1.41D-14 1.33D-09 XBig12= 9.64D-10 2.79D-06.
     53 vectors produced by pass  5 Test12= 1.41D-14 1.33D-09 XBig12= 9.64D-13 9.51D-08.
     11 vectors produced by pass  6 Test12= 1.41D-14 1.33D-09 XBig12= 7.99D-16 5.74D-09.
 InvSVY:  IOpt=1 It=  1 EMax= 3.89D-16
 Solved reduced A of dimension   409 with    75 vectors.
 FullF1:  Do perturbations      1 to       3.
 Isotropic polarizability for W=    0.000000      121.49 Bohr**3.
 FullF1:  Do perturbations      1 to       6.
 End of Minotr F.D. properties file   721 does not exist.
 End of Minotr F.D. properties file   722 does not exist.
 End of Minotr F.D. properties file   788 does not exist.
 Leave Link 1002 at Fri Jun  2 22:09:56 2023, MaxMem=  7381975040 cpu:            1396.8 elap:             711.3
 (Enter /software/commercial/gaussian/g16/AVX/g16/l601.exe)
 Copying SCF densities to generalized density rwf, IOpCl= 0 IROHF=0.

 **********************************************************************

            Population analysis using the SCF Density.

 **********************************************************************

 Alpha  occ. eigenvalues --  -19.19576 -19.19567 -14.29699 -14.29550 -10.35569
 Alpha  occ. eigenvalues --  -10.19003 -10.18980 -10.16418 -10.16311 -10.16220
 Alpha  occ. eigenvalues --   -1.15736  -1.11827  -0.88589  -0.88332  -0.79408
 Alpha  occ. eigenvalues --   -0.72869  -0.65074  -0.59320  -0.58261  -0.56148
 Alpha  occ. eigenvalues --   -0.52021  -0.51298  -0.51166  -0.49356  -0.49036
 Alpha  occ. eigenvalues --   -0.47632  -0.45241  -0.45050  -0.42147  -0.39282
 Alpha  occ. eigenvalues --   -0.39207  -0.36987  -0.36804  -0.36364  -0.34572
 Alpha  occ. eigenvalues --   -0.33490  -0.32863  -0.32616  -0.25207  -0.24938
 Alpha virt. eigenvalues --   -0.00602   0.00624   0.01500   0.02146   0.02606
 Alpha virt. eigenvalues --    0.03218   0.03460   0.03794   0.04565   0.05660
 Alpha virt. eigenvalues --    0.05784   0.06196   0.06935   0.07236   0.08321
 Alpha virt. eigenvalues --    0.08850   0.09647   0.10235   0.10891   0.11281
 Alpha virt. eigenvalues --    0.12624   0.14152   0.14278   0.14468   0.14957
 Alpha virt. eigenvalues --    0.15218   0.16319   0.16864   0.17215   0.17990
 Alpha virt. eigenvalues --    0.18544   0.18921   0.19245   0.19843   0.20199
 Alpha virt. eigenvalues --    0.20691   0.20928   0.21335   0.21722   0.22601
 Alpha virt. eigenvalues --    0.23330   0.23729   0.24118   0.24600   0.24780
 Alpha virt. eigenvalues --    0.25226   0.25933   0.26198   0.27724   0.27785
 Alpha virt. eigenvalues --    0.28723   0.28826   0.29775   0.29977   0.30494
 Alpha virt. eigenvalues --    0.31726   0.31939   0.32160   0.33244   0.33890
 Alpha virt. eigenvalues --    0.34572   0.35580   0.39822   0.42050   0.42853
 Alpha virt. eigenvalues --    0.43740   0.47887   0.49193   0.50189   0.51230
 Alpha virt. eigenvalues --    0.52077   0.56034   0.57527   0.57662   0.58503
 Alpha virt. eigenvalues --    0.59533   0.60934   0.62421   0.63458   0.64333
 Alpha virt. eigenvalues --    0.65390   0.66395   0.66659   0.67517   0.67887
 Alpha virt. eigenvalues --    0.68501   0.70259   0.70901   0.72066   0.72899
 Alpha virt. eigenvalues --    0.73663   0.74524   0.76224   0.76568   0.79446
 Alpha virt. eigenvalues --    0.80261   0.81371   0.83421   0.84945   0.86156
 Alpha virt. eigenvalues --    0.88028   0.89123   0.90617   0.93711   0.97099
 Alpha virt. eigenvalues --    0.98662   0.99435   1.01168   1.01475   1.02211
 Alpha virt. eigenvalues --    1.06902   1.07665   1.11441   1.11850   1.12881
 Alpha virt. eigenvalues --    1.16271   1.18013   1.19385   1.21239   1.22737
 Alpha virt. eigenvalues --    1.24896   1.26407   1.27679   1.28198   1.29616
 Alpha virt. eigenvalues --    1.30703   1.36988   1.39729   1.40390   1.42171
 Alpha virt. eigenvalues --    1.43436   1.45580   1.47300   1.50167   1.52730
 Alpha virt. eigenvalues --    1.53902   1.54932   1.57419   1.58271   1.61134
 Alpha virt. eigenvalues --    1.61331   1.62087   1.65042   1.66365   1.67173
 Alpha virt. eigenvalues --    1.67619   1.68455   1.69073   1.72121   1.72881
 Alpha virt. eigenvalues --    1.72904   1.74857   1.75780   1.76870   1.81015
 Alpha virt. eigenvalues --    1.81926   1.85005   1.86742   1.87051   1.89483
 Alpha virt. eigenvalues --    1.92165   1.93827   1.95103   1.98678   2.02518
 Alpha virt. eigenvalues --    2.08240   2.08661   2.11058   2.13082   2.18006
 Alpha virt. eigenvalues --    2.18301   2.19070   2.22335   2.27075   2.30941
 Alpha virt. eigenvalues --    2.31709   2.35031   2.38960   2.39576   2.46150
 Alpha virt. eigenvalues --    2.47382   2.47980   2.50997   2.51816   2.53225
 Alpha virt. eigenvalues --    2.54324   2.55898   2.56971   2.58469   2.59942
 Alpha virt. eigenvalues --    2.60783   2.61475   2.63045   2.65436   2.65909
 Alpha virt. eigenvalues --    2.67442   2.68322   2.70489   2.71108   2.72490
 Alpha virt. eigenvalues --    2.74351   2.74685   2.75234   2.76625   2.77912
 Alpha virt. eigenvalues --    2.78525   2.79767   2.83269   2.83869   2.85073
 Alpha virt. eigenvalues --    2.85649   2.86644   2.87840   2.90209   2.94465
 Alpha virt. eigenvalues --    2.97050   2.98497   3.00551   3.04988   3.10498
 Alpha virt. eigenvalues --    3.12240   3.14575   3.15390   3.16808   3.21378
 Alpha virt. eigenvalues --    3.28834   3.41784   3.54153   3.55675   3.67387
 Alpha virt. eigenvalues --    3.68731   3.77247   3.79413   3.81190   3.82397
 Alpha virt. eigenvalues --    3.84641   3.85680   3.87111   4.07002   4.09638
 Alpha virt. eigenvalues --    4.13726   4.18300   4.28142   4.37671   4.72168
 Alpha virt. eigenvalues --    4.72310   4.84044   4.84636   4.97400   5.01579
 Alpha virt. eigenvalues --    5.03780   5.07878   5.65480   5.70760  23.85245
 Alpha virt. eigenvalues --   23.85983  23.89085  23.91436  23.91941  24.39176
 Alpha virt. eigenvalues --   35.58840  35.59784  49.92895  50.06873
     Molecular Orbital Coefficients:
                           1         2         3         4         5
                           O         O         O         O         O
     Eigenvalues --   -19.19576 -19.19567 -14.29699 -14.29550 -10.35569
   1 1   C  1S          0.00000  -0.00000   0.00001  -0.00000   0.00000
   2        2S         -0.00002   0.00002  -0.00003   0.00000  -0.00000
   3        2PX         0.00002  -0.00002  -0.00023   0.00001  -0.00000
   4        2PY        -0.00001   0.00002   0.00023   0.00000   0.00000
   5        2PZ         0.00002  -0.00000   0.00008  -0.00000  -0.00000
   6        3S          0.00013  -0.00018   0.00003  -0.00003  -0.00003
   7        3PX        -0.00007   0.00007   0.00028  -0.00005   0.00001
   8        3PY         0.00009  -0.00011  -0.00058  -0.00002  -0.00000
   9        3PZ        -0.00009  -0.00001  -0.00021   0.00001  -0.00002
  10        4S          0.00019   0.00087   0.00587  -0.00001   0.00095
  11        4PX        -0.00036   0.00017  -0.00082   0.00063  -0.00007
  12        4PY        -0.00021   0.00029   0.00210  -0.00026   0.00013
  13        4PZ         0.00011  -0.00024  -0.00009  -0.00013  -0.00011
  14        5S         -0.00817   0.00571   0.00288  -0.00797   0.00631
  15        5PX        -0.00159   0.00064   0.00106  -0.00032  -0.00001
  16        5PY        -0.00095   0.00085  -0.00089  -0.00134   0.00148
  17        5PZ         0.00049  -0.00039   0.00025  -0.00026  -0.00047
  18        6D 0       -0.00002   0.00003   0.00027   0.00001   0.00000
  19        6D+1        0.00001  -0.00001   0.00018   0.00001  -0.00000
  20        6D-1       -0.00000   0.00002  -0.00013  -0.00001   0.00003
  21        6D+2        0.00005  -0.00002  -0.00012   0.00000   0.00002
  22        6D-2       -0.00002   0.00002   0.00038   0.00002   0.00001
  23 2   C  1S          0.00000  -0.00000   0.00000   0.00000   0.00000
  24        2S         -0.00001   0.00001  -0.00001  -0.00000  -0.00000
  25        2PX         0.00004  -0.00002  -0.00004   0.00000   0.00002
  26        2PY        -0.00001   0.00001  -0.00003  -0.00001  -0.00001
  27        2PZ         0.00002  -0.00000   0.00001  -0.00000   0.00001
  28        3S         -0.00002   0.00000   0.00023   0.00007  -0.00001
  29        3PX        -0.00016   0.00009   0.00026  -0.00001  -0.00010
  30        3PY         0.00005  -0.00005   0.00016   0.00002   0.00003
  31        3PZ        -0.00008   0.00002  -0.00005   0.00001  -0.00007
  32        4S          0.00074  -0.00061  -0.00356  -0.00054   0.00029
  33        4PX         0.00028  -0.00021   0.00056  -0.00024   0.00055
  34        4PY         0.00004   0.00041   0.00145   0.00009   0.00031
  35        4PZ         0.00024   0.00029   0.00087  -0.00008   0.00025
  36        5S          0.00614  -0.00144   0.00737  -0.00021  -0.00317
  37        5PX        -0.00365   0.00189   0.01366  -0.00817   0.00161
  38        5PY        -0.00080   0.00100  -0.00029  -0.00160   0.00099
  39        5PZ         0.00001  -0.00029  -0.00128   0.00053  -0.00041
  40        6D 0        0.00002   0.00001   0.00004   0.00001   0.00001
  41        6D+1        0.00004  -0.00001  -0.00000  -0.00000   0.00002
  42        6D-1       -0.00001   0.00002   0.00001  -0.00000  -0.00001
  43        6D+2       -0.00000  -0.00001  -0.00011  -0.00001  -0.00002
  44        6D-2       -0.00002  -0.00000  -0.00014   0.00001  -0.00004
  45 3   C  1S          0.00000  -0.00000  -0.00000  -0.00000  -0.00000
  46        2S          0.00000   0.00000   0.00001   0.00001   0.00000
  47        2PX        -0.00001   0.00000  -0.00002   0.00002  -0.00000
  48        2PY         0.00000  -0.00000   0.00002   0.00001  -0.00000
  49        2PZ        -0.00000   0.00000   0.00000  -0.00000  -0.00001
  50        3S         -0.00000  -0.00006  -0.00024  -0.00026  -0.00002
  51        3PX         0.00004  -0.00001   0.00010  -0.00012   0.00003
  52        3PY        -0.00001  -0.00000  -0.00011  -0.00010   0.00001
  53        3PZ        -0.00000   0.00000  -0.00004   0.00000   0.00002
  54        4S         -0.00020   0.00073   0.00241   0.00271   0.00000
  55        4PX        -0.00017  -0.00015  -0.00125   0.00148  -0.00010
  56        4PY         0.00002   0.00023   0.00056   0.00027  -0.00001
  57        4PZ        -0.00041  -0.00003  -0.00032   0.00007  -0.00049
  58        5S         -0.00445   0.00017  -0.00609  -0.00613   0.00154
  59        5PX        -0.00186   0.00086   0.00012  -0.00033  -0.00038
  60        5PY        -0.00096  -0.00003  -0.00016  -0.00038   0.00015
  61        5PZ         0.00004   0.00007  -0.00092   0.00027   0.00029
  62        6D 0        0.00000  -0.00000   0.00003   0.00002   0.00000
  63        6D+1        0.00000   0.00000   0.00002   0.00001   0.00001
  64        6D-1        0.00002  -0.00001   0.00001  -0.00002   0.00001
  65        6D+2        0.00001   0.00000   0.00001   0.00001   0.00001
  66        6D-2       -0.00000  -0.00000   0.00000   0.00000   0.00001
  67 4   H  1S          0.00002  -0.00000   0.00004   0.00000   0.00000
  68        2S         -0.00016  -0.00004  -0.00019   0.00004  -0.00009
  69        3S         -0.00027  -0.00015  -0.00164   0.00024  -0.00042
  70        4PX        -0.00002  -0.00000   0.00011   0.00000  -0.00005
  71        4PY         0.00001  -0.00000  -0.00001   0.00000   0.00000
  72        4PZ         0.00002   0.00001   0.00009  -0.00001   0.00001
  73 5   H  1S          0.00004  -0.00004   0.00003   0.00000   0.00002
  74        2S         -0.00011   0.00023   0.00004   0.00001   0.00001
  75        3S         -0.00037  -0.00050  -0.00118  -0.00004  -0.00118
  76        4PX         0.00003   0.00001   0.00011   0.00001   0.00005
  77        4PY         0.00004  -0.00002   0.00002   0.00001   0.00003
  78        4PZ        -0.00002  -0.00000  -0.00014   0.00000  -0.00002
  79 6   N  1S          0.00000  -0.00000   0.55738   0.00012   0.00000
  80        2S         -0.00001   0.00000   0.46573   0.00011  -0.00001
  81        2PX        -0.00000   0.00001   0.00012  -0.00000   0.00000
  82        2PY         0.00000  -0.00002  -0.00093  -0.00000   0.00001
  83        2PZ         0.00000   0.00001   0.00079  -0.00000  -0.00001
  84        3S          0.00011   0.00001   0.01582  -0.00004   0.00014
  85        3PX         0.00004  -0.00003  -0.00045  -0.00000  -0.00000
  86        3PY        -0.00000   0.00006  -0.00007   0.00001  -0.00001
  87        3PZ        -0.00001  -0.00005   0.00064   0.00001  -0.00001
  88        4S         -0.00025  -0.00034  -0.00997   0.00043  -0.00080
  89        4PX         0.00023   0.00002  -0.00237   0.00002   0.00013
  90        4PY         0.00050  -0.00049   0.00070  -0.00018  -0.00006
  91        4PZ         0.00061  -0.00037   0.00153  -0.00002   0.00011
  92        5S          0.00015  -0.00174   0.01064   0.00033  -0.00134
  93        5PX        -0.00072  -0.00059   0.00414  -0.00042  -0.00024
  94        5PY        -0.00048   0.00040   0.00113  -0.00042   0.00044
  95        5PZ        -0.00059   0.00028  -0.00023  -0.00003   0.00032
  96        6D 0        0.00005  -0.00005   0.00013  -0.00001  -0.00003
  97        6D+1        0.00002  -0.00002   0.00004  -0.00000  -0.00000
  98        6D-1        0.00004  -0.00005   0.00042   0.00000   0.00001
  99        6D+2       -0.00002   0.00002   0.00025   0.00000   0.00001
 100        6D-2       -0.00002  -0.00001   0.00051   0.00001  -0.00002
 101 7   H  1S          0.00002   0.00000  -0.00002   0.00002   0.00002
 102        2S         -0.00003  -0.00006  -0.00081  -0.00016  -0.00009
 103        3S         -0.00012   0.00032  -0.00045   0.00007   0.00002
 104        4PX         0.00002  -0.00001   0.00014  -0.00002   0.00001
 105        4PY         0.00002  -0.00001  -0.00034   0.00000  -0.00000
 106        4PZ        -0.00000   0.00001   0.00014   0.00003   0.00000
 107 8   H  1S          0.00002   0.00002   0.00003   0.00002   0.00002
 108        2S         -0.00006  -0.00021  -0.00144  -0.00013  -0.00013
 109        3S          0.00032  -0.00043   0.00027  -0.00002  -0.00070
 110        4PX         0.00003   0.00000  -0.00001  -0.00003   0.00002
 111        4PY         0.00001  -0.00008  -0.00021   0.00001  -0.00006
 112        4PZ         0.00000  -0.00004  -0.00028  -0.00002  -0.00002
 113 9   H  1S         -0.00004   0.00000   0.00000   0.00000  -0.00002
 114        2S          0.00053  -0.00003  -0.00183  -0.00011   0.00034
 115        3S         -0.00068   0.00026   0.00159  -0.00020  -0.00001
 116        4PX         0.00008  -0.00003  -0.00130  -0.00002   0.00003
 117        4PY         0.00001   0.00005  -0.00092  -0.00002   0.00004
 118        4PZ        -0.00008   0.00005  -0.00006  -0.00000   0.00001
 119 10  C  1S         -0.00000  -0.00000   0.00000   0.00000   0.00000
 120        2S          0.00000  -0.00000  -0.00000  -0.00000  -0.00000
 121        2PX         0.00000  -0.00000   0.00000   0.00005   0.00000
 122        2PY        -0.00000  -0.00000  -0.00001  -0.00003  -0.00000
 123        2PZ         0.00000   0.00000   0.00000  -0.00002   0.00000
 124        3S          0.00001   0.00002   0.00007   0.00022   0.00003
 125        3PX        -0.00003   0.00001  -0.00003  -0.00029  -0.00004
 126        3PY        -0.00000  -0.00001   0.00003   0.00015  -0.00000
 127        3PZ         0.00000  -0.00000   0.00000   0.00009   0.00001
 128        4S          0.00015  -0.00028  -0.00053  -0.00349  -0.00003
 129        4PX         0.00028   0.00010   0.00057   0.00026   0.00037
 130        4PY        -0.00025   0.00004  -0.00011   0.00169  -0.00023
 131        4PZ         0.00025   0.00005   0.00032  -0.00002   0.00020
 132        5S          0.00556  -0.00046  -0.00341   0.00591  -0.00077
 133        5PX        -0.00320   0.00120   0.00850  -0.01081   0.00016
 134        5PY        -0.00022  -0.00036  -0.00217   0.00127  -0.00012
 135        5PZ         0.00034  -0.00045  -0.00159   0.00195  -0.00026
 136        6D 0        0.00000  -0.00000   0.00001   0.00004   0.00000
 137        6D+1       -0.00001  -0.00001  -0.00001   0.00005  -0.00001
 138        6D-1        0.00001   0.00001   0.00001  -0.00002   0.00001
 139        6D+2        0.00001  -0.00000  -0.00002  -0.00007   0.00000
 140        6D-2        0.00000  -0.00000  -0.00001   0.00013  -0.00000
 141 11  H  1S          0.00002  -0.00001   0.00005   0.00003   0.00000
 142        2S         -0.00016  -0.00002  -0.00057  -0.00036  -0.00011
 143        3S         -0.00013  -0.00006  -0.00019   0.00011  -0.00053
 144        4PX         0.00000  -0.00001   0.00004  -0.00007  -0.00000
 145        4PY        -0.00002  -0.00000  -0.00004  -0.00001  -0.00002
 146        4PZ        -0.00001   0.00000  -0.00009  -0.00005  -0.00001
 147 12  H  1S         -0.00001  -0.00000   0.00002   0.00004  -0.00001
 148        2S          0.00012  -0.00001  -0.00024  -0.00049   0.00014
 149        3S          0.00010  -0.00000   0.00042  -0.00008  -0.00009
 150        4PX         0.00001   0.00000   0.00006  -0.00005   0.00001
 151        4PY         0.00002  -0.00001  -0.00001  -0.00005   0.00002
 152        4PZ        -0.00000   0.00000   0.00003   0.00006   0.00000
 153 13  C  1S          0.00000  -0.00000   0.00000   0.00001   0.00000
 154        2S         -0.00000   0.00000   0.00000  -0.00002  -0.00000
 155        2PX         0.00000   0.00000  -0.00001   0.00028  -0.00000
 156        2PY        -0.00000  -0.00000   0.00000   0.00021  -0.00000
 157        2PZ         0.00000   0.00000   0.00001   0.00001   0.00001
 158        3S          0.00002  -0.00001  -0.00001  -0.00001   0.00002
 159        3PX         0.00000  -0.00000   0.00006  -0.00045   0.00001
 160        3PY         0.00001   0.00000  -0.00002  -0.00059   0.00001
 161        3PZ        -0.00002  -0.00001  -0.00003  -0.00008  -0.00002
 162        4S         -0.00039   0.00008  -0.00023   0.00586  -0.00039
 163        4PX        -0.00002  -0.00003  -0.00065   0.00138   0.00000
 164        4PY        -0.00012  -0.00003  -0.00018   0.00168  -0.00011
 165        4PZ        -0.00016   0.00006  -0.00012   0.00051  -0.00006
 166        5S          0.00189  -0.00185  -0.00744   0.00535  -0.00009
 167        5PX         0.00004   0.00030  -0.00005  -0.00168   0.00005
 168        5PY         0.00027  -0.00023  -0.00143   0.00010  -0.00005
 169        5PZ         0.00016   0.00001  -0.00007   0.00006   0.00012
 170        6D 0        0.00000  -0.00000   0.00000   0.00033  -0.00000
 171        6D+1        0.00001   0.00000   0.00001   0.00004   0.00001
 172        6D-1        0.00000  -0.00000   0.00000   0.00002  -0.00000
 173        6D+2       -0.00000   0.00000   0.00000  -0.00020  -0.00000
 174        6D-2       -0.00000   0.00000  -0.00002  -0.00038  -0.00000
 175 14  N  1S         -0.00000   0.00000  -0.00012   0.55739  -0.00000
 176        2S          0.00000  -0.00000  -0.00010   0.46575   0.00000
 177        2PX        -0.00000   0.00000   0.00000  -0.00022  -0.00000
 178        2PY        -0.00000   0.00000  -0.00000  -0.00058   0.00000
 179        2PZ        -0.00000  -0.00000   0.00000  -0.00105  -0.00000
 180        3S         -0.00001   0.00000  -0.00005   0.01565  -0.00001
 181        3PX         0.00001  -0.00000   0.00000   0.00046   0.00000
 182        3PY         0.00000  -0.00000   0.00000   0.00004  -0.00000
 183        3PZ         0.00001   0.00001  -0.00001  -0.00075   0.00001
 184        4S          0.00009  -0.00001   0.00045  -0.00927   0.00007
 185        4PX        -0.00006   0.00002  -0.00003   0.00249  -0.00004
 186        4PY        -0.00009   0.00001  -0.00019   0.00093  -0.00005
 187        4PZ         0.00002  -0.00003   0.00002  -0.00082  -0.00001
 188        5S          0.00004   0.00024   0.00030   0.00646   0.00022
 189        5PX        -0.00015  -0.00003   0.00025  -0.00246  -0.00009
 190        5PY         0.00027  -0.00005  -0.00029   0.00050   0.00006
 191        5PZ         0.00004  -0.00004  -0.00032   0.00082   0.00001
 192        6D 0       -0.00001   0.00000  -0.00001  -0.00014  -0.00000
 193        6D+1       -0.00000   0.00000  -0.00001  -0.00021  -0.00000
 194        6D-1        0.00000  -0.00000   0.00000  -0.00045  -0.00000
 195        6D+2        0.00000  -0.00000   0.00000  -0.00006   0.00000
 196        6D-2        0.00000  -0.00000  -0.00000  -0.00051   0.00000
 197 15  H  1S          0.00000   0.00000   0.00002  -0.00002   0.00000
 198        2S         -0.00004  -0.00001  -0.00017  -0.00096  -0.00000
 199        3S          0.00001   0.00002   0.00011  -0.00036   0.00007
 200        4PX         0.00000  -0.00000   0.00002  -0.00020   0.00000
 201        4PY        -0.00000   0.00000   0.00001  -0.00025   0.00000
 202        4PZ        -0.00000  -0.00000  -0.00002  -0.00027   0.00000
 203 16  H  1S         -0.00000  -0.00000   0.00001  -0.00002  -0.00001
 204        2S          0.00006  -0.00002  -0.00006  -0.00107   0.00005
 205        3S          0.00001  -0.00011   0.00020  -0.00053  -0.00009
 206        4PX         0.00001   0.00000   0.00003  -0.00003   0.00001
 207        4PY         0.00001  -0.00000   0.00001  -0.00027   0.00001
 208        4PZ        -0.00000   0.00000   0.00001   0.00017  -0.00000
 209 17  H  1S         -0.00000  -0.00000   0.00001   0.00002  -0.00001
 210        2S         -0.00001   0.00003  -0.00006  -0.00001   0.00002
 211        3S         -0.00027  -0.00008   0.00005  -0.00122  -0.00022
 212        4PX        -0.00001   0.00000  -0.00002  -0.00010  -0.00001
 213        4PY         0.00002   0.00000   0.00002  -0.00002   0.00001
 214        4PZ        -0.00000   0.00000   0.00001   0.00013  -0.00000
 215 18  H  1S         -0.00002  -0.00001  -0.00000   0.00004  -0.00001
 216        2S          0.00018   0.00006   0.00012  -0.00019   0.00015
 217        3S         -0.00017  -0.00005   0.00043  -0.00129  -0.00001
 218        4PX        -0.00001  -0.00000  -0.00001  -0.00013  -0.00001
 219        4PY        -0.00002  -0.00001  -0.00001   0.00004  -0.00002
 220        4PZ         0.00002   0.00001   0.00001  -0.00009   0.00002
 221 19  H  1S         -0.00000  -0.00000  -0.00001   0.00000  -0.00000
 222        2S          0.00004   0.00000   0.00006  -0.00169   0.00002
 223        3S         -0.00005  -0.00011  -0.00026   0.00045  -0.00009
 224        4PX         0.00000  -0.00000  -0.00000  -0.00020   0.00000
 225        4PY        -0.00000   0.00000   0.00001   0.00109  -0.00000
 226        4PZ         0.00001  -0.00000   0.00001  -0.00118   0.00000
 227 20  H  1S          0.00000  -0.00000   0.00001  -0.00000   0.00000
 228        2S         -0.00003   0.00000  -0.00014  -0.00188  -0.00003
 229        3S          0.00015  -0.00007  -0.00003   0.00145   0.00002
 230        4PX         0.00001  -0.00000   0.00001   0.00117   0.00001
 231        4PY         0.00000  -0.00000  -0.00002  -0.00108   0.00000
 232        4PZ        -0.00000   0.00000  -0.00001  -0.00031  -0.00000
 233 21  H  1S          0.00005  -0.00005  -0.00001  -0.00000  -0.00003
 234        2S         -0.00056   0.00062  -0.00157  -0.00000   0.00031
 235        3S          0.00061   0.00022  -0.00113  -0.00010  -0.00033
 236        4PX         0.00001  -0.00002   0.00034   0.00000  -0.00002
 237        4PY        -0.00000   0.00001   0.00059   0.00002  -0.00002
 238        4PZ         0.00011  -0.00015   0.00143   0.00001  -0.00005
 239 22  C  1S         -0.00009  -0.00009   0.00000  -0.00000   0.56287
 240        2S          0.00038   0.00041  -0.00001   0.00000   0.46274
 241        2PX         0.00002  -0.00001   0.00001   0.00000   0.00002
 242        2PY        -0.00006   0.00005  -0.00001   0.00000  -0.00006
 243        2PZ        -0.00003   0.00004   0.00004  -0.00000   0.00009
 244        3S         -0.00013  -0.00016   0.00002  -0.00000   0.02091
 245        3PX         0.00006  -0.00009  -0.00001  -0.00001  -0.00009
 246        3PY        -0.00042   0.00037   0.00004   0.00000   0.00037
 247        3PZ        -0.00033   0.00033  -0.00019   0.00001  -0.00052
 248        4S         -0.00255  -0.00282   0.00195  -0.00000  -0.00413
 249        4PX         0.00243  -0.00218   0.00009   0.00002   0.00011
 250        4PY        -0.01069   0.01006  -0.00037  -0.00002   0.00005
 251        4PZ        -0.00820   0.00804   0.00019  -0.00004   0.00060
 252        5S         -0.00378  -0.00398   0.00197  -0.00009  -0.00591
 253        5PX        -0.00043  -0.00044   0.00016  -0.00002  -0.00056
 254        5PY         0.00049   0.00056  -0.00064   0.00004   0.00084
 255        5PZ        -0.00059  -0.00055   0.00033   0.00002  -0.00056
 256        6D 0       -0.00011  -0.00012  -0.00000  -0.00000   0.00041
 257        6D+1        0.00039   0.00042  -0.00004   0.00000  -0.00133
 258        6D-1       -0.00173  -0.00187   0.00015  -0.00000   0.00604
 259        6D+2        0.00104   0.00113  -0.00012   0.00000  -0.00367
 260        6D-2        0.00048   0.00052  -0.00005   0.00000  -0.00170
 261 23  O  1S          0.55105   0.01641  -0.00000   0.00000  -0.00012
 262        2S          0.46944   0.01395  -0.00001   0.00000   0.00013
 263        2PX        -0.00023   0.00001  -0.00001   0.00000  -0.00015
 264        2PY         0.00103  -0.00008   0.00002  -0.00000   0.00066
 265        2PZ         0.00083  -0.00009  -0.00000  -0.00000   0.00058
 266        3S          0.01468   0.00032   0.00011  -0.00000  -0.00148
 267        3PX        -0.00017  -0.00015   0.00005  -0.00001   0.00074
 268        3PY         0.00077   0.00074  -0.00011   0.00000  -0.00318
 269        3PZ         0.00080   0.00070   0.00001   0.00000  -0.00278
 270        4S         -0.01415   0.00715  -0.00082   0.00003  -0.00698
 271        4PX         0.00043  -0.00045  -0.00004   0.00002   0.00028
 272        4PY        -0.00209   0.00172  -0.00011  -0.00000  -0.00156
 273        4PZ        -0.00219   0.00156  -0.00055   0.00001  -0.00172
 274        5S         -0.00227   0.01016  -0.00099  -0.00018   0.00693
 275        5PX         0.00044  -0.00038   0.00017  -0.00007  -0.00024
 276        5PY        -0.00144   0.00214  -0.00009  -0.00002   0.00152
 277        5PZ        -0.00083   0.00228  -0.00012  -0.00010   0.00174
 278        6D 0        0.00006   0.00011  -0.00003  -0.00000  -0.00029
 279        6D+1       -0.00008  -0.00009   0.00001  -0.00000   0.00033
 280        6D-1        0.00035   0.00038  -0.00004   0.00000  -0.00147
 281        6D+2       -0.00018  -0.00018   0.00003  -0.00000   0.00076
 282        6D-2       -0.00009  -0.00009   0.00001   0.00000   0.00036
 283 24  O  1S         -0.01641   0.55105   0.00000  -0.00000  -0.00012
 284        2S         -0.01401   0.46944   0.00000  -0.00000   0.00013
 285        2PX        -0.00004   0.00022  -0.00001  -0.00000   0.00014
 286        2PY         0.00017  -0.00103   0.00000  -0.00000  -0.00071
 287        2PZ         0.00010  -0.00080  -0.00001   0.00000  -0.00050
 288        3S         -0.00054   0.01465   0.00001   0.00000  -0.00150
 289        3PX         0.00020   0.00023   0.00002   0.00001  -0.00070
 290        3PY        -0.00079  -0.00103   0.00000   0.00000   0.00343
 291        3PZ        -0.00049  -0.00061   0.00005  -0.00000   0.00243
 292        4S          0.00788  -0.01359  -0.00023   0.00000  -0.00705
 293        4PX         0.00035  -0.00058  -0.00013  -0.00002  -0.00057
 294        4PY        -0.00202   0.00249   0.00034  -0.00001   0.00214
 295        4PZ        -0.00139   0.00144   0.00009  -0.00000   0.00111
 296        5S          0.01000  -0.00212  -0.00144   0.00007   0.00544
 297        5PX         0.00072  -0.00009  -0.00004   0.00002   0.00052
 298        5PY        -0.00266   0.00106   0.00068  -0.00005  -0.00164
 299        5PZ        -0.00145   0.00115  -0.00023  -0.00003  -0.00067
 300        6D 0       -0.00005  -0.00002  -0.00000   0.00000   0.00009
 301        6D+1       -0.00006  -0.00007   0.00000  -0.00000   0.00029
 302        6D-1        0.00031   0.00035  -0.00002   0.00000  -0.00135
 303        6D+2       -0.00025  -0.00025   0.00004  -0.00000   0.00097
 304        6D-2       -0.00011  -0.00011   0.00002   0.00000   0.00044
                           6         7         8         9        10
                           O         O         O         O         O
     Eigenvalues --   -10.19003 -10.18980 -10.16418 -10.16311 -10.16220
   1 1   C  1S          0.56302   0.00089  -0.00021  -0.00238   0.00000
   2        2S          0.46327   0.00073  -0.00016  -0.00196   0.00002
   3        2PX        -0.00040   0.00001   0.00011   0.00041   0.00004
   4        2PY         0.00052   0.00001   0.00006   0.00030   0.00002
   5        2PZ         0.00019  -0.00000   0.00000   0.00000  -0.00000
   6        3S          0.01890   0.00002   0.00009  -0.00014  -0.00028
   7        3PX         0.00029  -0.00003  -0.00042  -0.00086  -0.00018
   8        3PY        -0.00201  -0.00004  -0.00025  -0.00086  -0.00010
   9        3PZ        -0.00067  -0.00000  -0.00002  -0.00009  -0.00000
  10        4S         -0.01531  -0.00009  -0.00155   0.00684   0.00221
  11        4PX        -0.00082   0.00006   0.00020   0.00233   0.00159
  12        4PY        -0.00180   0.00001  -0.00059   0.00181   0.00002
  13        4PZ         0.00002  -0.00013  -0.00023  -0.00041  -0.00020
  14        5S         -0.06607   0.01309  -0.00936  -0.00677   0.00950
  15        5PX        -0.00699   0.00037   0.00069  -0.00080   0.00298
  16        5PY        -0.00993   0.00291  -0.00329  -0.00059   0.00035
  17        5PZ        -0.00055   0.00031  -0.00049  -0.00036  -0.00040
  18        6D 0        0.00080   0.00001   0.00011   0.00043   0.00002
  19        6D+1        0.00042   0.00001   0.00001   0.00005   0.00001
  20        6D-1       -0.00018   0.00000   0.00004   0.00002  -0.00002
  21        6D+2       -0.00057  -0.00002  -0.00012  -0.00025   0.00002
  22        6D-2        0.00020  -0.00000  -0.00021  -0.00057  -0.00000
  23 2   C  1S          0.00236  -0.00003   0.05824   0.55992   0.00524
  24        2S          0.00194  -0.00000   0.04793   0.46073   0.00432
  25        2PX        -0.00040   0.00002   0.00036  -0.00003   0.00003
  26        2PY        -0.00032  -0.00002  -0.00037  -0.00019  -0.00003
  27        2PZ         0.00001  -0.00001  -0.00013  -0.00000  -0.00001
  28        3S          0.00014  -0.00024   0.00191   0.01931   0.00031
  29        3PX         0.00088  -0.00012  -0.00076   0.00010  -0.00021
  30        3PY         0.00095   0.00010   0.00120   0.00167   0.00017
  31        3PZ        -0.00002   0.00005   0.00034   0.00025   0.00006
  32        4S          0.00468   0.00209   0.00465  -0.01963  -0.00307
  33        4PX        -0.00134   0.00126   0.00244   0.00030  -0.00019
  34        4PY        -0.00110  -0.00034  -0.00185   0.00301   0.00114
  35        4PZ        -0.00009  -0.00017  -0.00073   0.00094   0.00026
  36        5S          0.06202   0.01625   0.00263  -0.00754  -0.02463
  37        5PX        -0.01655   0.01532  -0.00424  -0.00598  -0.00050
  38        5PY        -0.01201  -0.00059  -0.00114  -0.00189   0.00548
  39        5PZ         0.00072  -0.00238   0.00074   0.00053   0.00166
  40        6D 0        0.00043   0.00002   0.00042   0.00067   0.00004
  41        6D+1        0.00001   0.00000   0.00026   0.00024   0.00005
  42        6D-1       -0.00003  -0.00001  -0.00024  -0.00017  -0.00003
  43        6D+2       -0.00029   0.00001  -0.00017  -0.00055  -0.00006
  44        6D-2       -0.00069   0.00001   0.00058  -0.00004   0.00014
  45 3   C  1S         -0.00004  -0.00005   0.55909  -0.05788  -0.03184
  46        2S         -0.00002  -0.00003   0.46005  -0.04762  -0.02619
  47        2PX        -0.00006   0.00007   0.00000  -0.00036   0.00041
  48        2PY         0.00005   0.00005   0.00027   0.00031   0.00030
  49        2PZ         0.00002  -0.00000   0.00006   0.00012   0.00000
  50        3S          0.00007   0.00001   0.01914  -0.00208  -0.00121
  51        3PX         0.00032  -0.00038  -0.00012   0.00076  -0.00088
  52        3PY        -0.00026  -0.00022  -0.00190  -0.00078  -0.00081
  53        3PZ        -0.00010   0.00002  -0.00038  -0.00028  -0.00004
  54        4S         -0.00212  -0.00151  -0.01768   0.00848   0.00803
  55        4PX        -0.00069   0.00083  -0.00015  -0.00211   0.00252
  56        4PY        -0.00098  -0.00102  -0.00284   0.00239   0.00209
  57        4PZ        -0.00002  -0.00044  -0.00052   0.00075   0.00007
  58        5S         -0.03528  -0.03153   0.00131   0.01192   0.03378
  59        5PX         0.00105  -0.00015   0.00041  -0.00018   0.00134
  60        5PY        -0.00659  -0.00640   0.00391   0.00256   0.00638
  61        5PZ        -0.00202  -0.00132   0.00043   0.00069   0.00104
  62        6D 0        0.00006   0.00007   0.00078   0.00026   0.00037
  63        6D+1        0.00006  -0.00000   0.00033   0.00021   0.00001
  64        6D-1       -0.00004   0.00001  -0.00019  -0.00019   0.00000
  65        6D+2       -0.00004  -0.00008  -0.00059  -0.00004  -0.00021
  66        6D-2        0.00017  -0.00016   0.00005   0.00058  -0.00058
  67 4   H  1S         -0.00013   0.00001  -0.00008   0.00010   0.00002
  68        2S         -0.00041  -0.00027  -0.00105  -0.00243  -0.00005
  69        3S         -0.00127  -0.00055   0.00103   0.00405  -0.00004
  70        4PX        -0.00000  -0.00003   0.00012   0.00032  -0.00006
  71        4PY         0.00007   0.00001   0.00016   0.00068  -0.00001
  72        4PZ         0.00026   0.00006   0.00044   0.00187   0.00008
  73 5   H  1S         -0.00008   0.00001  -0.00006   0.00012   0.00003
  74        2S         -0.00083  -0.00020  -0.00118  -0.00257  -0.00010
  75        3S         -0.00031  -0.00059   0.00142   0.00470   0.00017
  76        4PX        -0.00007  -0.00004  -0.00001  -0.00017  -0.00007
  77        4PY         0.00021   0.00003   0.00034   0.00141   0.00003
  78        4PZ        -0.00023  -0.00004  -0.00037  -0.00149  -0.00006
  79 6   N  1S         -0.00003  -0.00000   0.00000   0.00000  -0.00000
  80        2S         -0.00006   0.00000   0.00001  -0.00000  -0.00000
  81        2PX         0.00018   0.00001   0.00003   0.00001  -0.00000
  82        2PY        -0.00015  -0.00000  -0.00001  -0.00004  -0.00001
  83        2PZ        -0.00006  -0.00000  -0.00001  -0.00001   0.00000
  84        3S          0.00049  -0.00001  -0.00010   0.00021   0.00004
  85        3PX        -0.00013  -0.00004  -0.00013  -0.00002   0.00001
  86        3PY         0.00014   0.00002   0.00005   0.00014   0.00002
  87        3PZ        -0.00000   0.00000   0.00005   0.00002  -0.00001
  88        4S         -0.00016   0.00001   0.00036  -0.00202  -0.00005
  89        4PX         0.00044   0.00023   0.00072  -0.00067  -0.00016
  90        4PY        -0.00019  -0.00007  -0.00013   0.00045  -0.00009
  91        4PZ        -0.00024   0.00005   0.00005   0.00035   0.00002
  92        5S          0.02067  -0.00097   0.00641   0.00386   0.00162
  93        5PX         0.00094   0.00087   0.00026   0.00019   0.00008
  94        5PY        -0.00347   0.00097  -0.00077  -0.00069  -0.00060
  95        5PZ         0.00053  -0.00005  -0.00001  -0.00013   0.00001
  96        6D 0        0.00012   0.00000   0.00002   0.00003   0.00000
  97        6D+1        0.00009   0.00000   0.00002   0.00006   0.00000
  98        6D-1       -0.00013   0.00001   0.00002  -0.00003  -0.00001
  99        6D+2       -0.00002   0.00001   0.00002  -0.00001  -0.00001
 100        6D-2        0.00031  -0.00001   0.00001   0.00008   0.00001
 101 7   H  1S          0.00009   0.00001  -0.00002  -0.00007   0.00003
 102        2S         -0.00278  -0.00004   0.00002  -0.00080  -0.00040
 103        3S          0.00372   0.00009  -0.00070   0.00047  -0.00012
 104        4PX         0.00020  -0.00001  -0.00006   0.00011  -0.00002
 105        4PY        -0.00150  -0.00001  -0.00002  -0.00018  -0.00003
 106        4PZ         0.00144   0.00001   0.00007   0.00018   0.00007
 107 8   H  1S          0.00010   0.00001   0.00001  -0.00005   0.00002
 108        2S         -0.00307  -0.00008  -0.00019  -0.00119  -0.00038
 109        3S          0.00510  -0.00017  -0.00023   0.00008  -0.00003
 110        4PX        -0.00039  -0.00001  -0.00009   0.00003  -0.00005
 111        4PY        -0.00069  -0.00001  -0.00001  -0.00013   0.00000
 112        4PZ        -0.00203  -0.00002  -0.00008  -0.00031  -0.00006
 113 9   H  1S         -0.00014   0.00000  -0.00003  -0.00006  -0.00000
 114        2S          0.00058   0.00000   0.00022   0.00052  -0.00001
 115        3S         -0.00448   0.00076  -0.00116  -0.00132  -0.00035
 116        4PX         0.00002   0.00000  -0.00002   0.00014   0.00003
 117        4PY        -0.00004   0.00002   0.00004  -0.00003  -0.00002
 118        4PZ         0.00001  -0.00001  -0.00000  -0.00001  -0.00001
 119 10  C  1S         -0.00003   0.00228   0.03110  -0.00849   0.56204
 120        2S         -0.00001   0.00189   0.02560  -0.00698   0.46249
 121        2PX        -0.00002   0.00037  -0.00041  -0.00001  -0.00003
 122        2PY        -0.00002  -0.00035  -0.00033  -0.00000  -0.00019
 123        2PZ         0.00000  -0.00013  -0.00001  -0.00000  -0.00007
 124        3S         -0.00024   0.00008   0.00094  -0.00015   0.01926
 125        3PX         0.00012  -0.00081   0.00091   0.00020   0.00016
 126        3PY         0.00010   0.00101   0.00104   0.00004   0.00170
 127        3PZ        -0.00000   0.00035   0.00008  -0.00000   0.00036
 128        4S          0.00208   0.00489   0.00559  -0.00287  -0.01880
 129        4PX        -0.00126   0.00175  -0.00243   0.00047   0.00056
 130        4PY        -0.00027  -0.00110  -0.00157   0.00112   0.00308
 131        4PZ         0.00011  -0.00042  -0.00004   0.00012   0.00053
 132        5S          0.01506   0.04589  -0.00402  -0.01012  -0.02253
 133        5PX        -0.01413   0.01352   0.00124  -0.00248   0.00503
 134        5PY         0.00115  -0.01068   0.00076   0.00376   0.00091
 135        5PZ         0.00231  -0.00450  -0.00000   0.00116  -0.00076
 136        6D 0        0.00001   0.00038   0.00046   0.00001   0.00070
 137        6D+1        0.00000   0.00027   0.00004  -0.00001   0.00030
 138        6D-1       -0.00000  -0.00022  -0.00002   0.00002  -0.00015
 139        6D+2        0.00001  -0.00012  -0.00028  -0.00006  -0.00054
 140        6D-2       -0.00001   0.00067  -0.00059  -0.00010   0.00005
 141 11  H  1S          0.00002   0.00002   0.00008  -0.00010  -0.00009
 142        2S         -0.00022  -0.00027  -0.00266  -0.00051  -0.00065
 143        3S          0.00019  -0.00019   0.00434   0.00008   0.00006
 144        4PX         0.00008  -0.00012  -0.00035  -0.00005   0.00000
 145        4PY         0.00001   0.00002  -0.00071  -0.00002  -0.00006
 146        4PZ        -0.00010  -0.00008  -0.00196  -0.00004  -0.00015
 147 12  H  1S          0.00003   0.00003   0.00008  -0.00010  -0.00010
 148        2S         -0.00027  -0.00027  -0.00272  -0.00049  -0.00062
 149        3S          0.00023   0.00003   0.00443   0.00010  -0.00007
 150        4PX         0.00011  -0.00009   0.00018  -0.00003   0.00005
 151        4PY        -0.00003  -0.00002  -0.00145  -0.00004  -0.00011
 152        4PZ         0.00006   0.00011   0.00154   0.00004   0.00011
 153 13  C  1S         -0.00089   0.56302  -0.00008   0.00006  -0.00231
 154        2S         -0.00073   0.46328  -0.00004   0.00006  -0.00189
 155        2PX        -0.00001   0.00049  -0.00007  -0.00001  -0.00036
 156        2PY         0.00001   0.00049   0.00006   0.00001   0.00034
 157        2PZ         0.00000   0.00002   0.00002   0.00000   0.00012
 158        3S         -0.00004   0.01875   0.00003  -0.00027  -0.00020
 159        3PX         0.00003  -0.00069   0.00032   0.00010   0.00072
 160        3PY        -0.00005  -0.00209  -0.00027  -0.00007  -0.00100
 161        3PZ        -0.00001  -0.00018  -0.00008  -0.00003  -0.00027
 162        4S         -0.00004  -0.01469  -0.00146   0.00211   0.00695
 163        4PX        -0.00003   0.00107  -0.00002  -0.00131  -0.00184
 164        4PY         0.00005  -0.00168  -0.00064   0.00011   0.00196
 165        4PZ         0.00003  -0.00063  -0.00004   0.00022   0.00076
 166        5S          0.01127  -0.05010   0.00106   0.00899  -0.00074
 167        5PX         0.00002   0.00520  -0.00202  -0.00223   0.00053
 168        5PY         0.00241  -0.00656  -0.00118   0.00096  -0.00002
 169        5PZ         0.00068  -0.00190   0.00013   0.00046   0.00009
 170        6D 0        0.00001   0.00079   0.00006   0.00001   0.00036
 171        6D+1        0.00001   0.00036   0.00008  -0.00000   0.00028
 172        6D-1       -0.00000  -0.00016  -0.00005  -0.00000  -0.00022
 173        6D+2       -0.00002  -0.00062  -0.00006   0.00002  -0.00012
 174        6D-2        0.00001  -0.00016   0.00020  -0.00002   0.00059
 175 14  N  1S          0.00000  -0.00003   0.00000  -0.00000   0.00000
 176        2S          0.00000  -0.00005   0.00001  -0.00000   0.00000
 177        2PX        -0.00001  -0.00020  -0.00003   0.00000  -0.00002
 178        2PY        -0.00000  -0.00014  -0.00001  -0.00000  -0.00004
 179        2PZ         0.00000  -0.00001   0.00001  -0.00000  -0.00001
 180        3S         -0.00002   0.00040  -0.00013   0.00004   0.00018
 181        3PX         0.00004   0.00016   0.00014  -0.00002   0.00006
 182        3PY         0.00001   0.00012   0.00005   0.00002   0.00014
 183        3PZ        -0.00001   0.00008  -0.00004   0.00001   0.00003
 184        4S         -0.00002   0.00030   0.00060  -0.00006  -0.00176
 185        4PX        -0.00022  -0.00040  -0.00072   0.00018   0.00071
 186        4PY         0.00000  -0.00021   0.00002  -0.00008   0.00044
 187        4PZ         0.00000   0.00016  -0.00005  -0.00003  -0.00009
 188        5S         -0.00063   0.01207   0.00272   0.00069   0.00073
 189        5PX        -0.00074  -0.00012   0.00012   0.00001  -0.00040
 190        5PY         0.00101  -0.00269  -0.00046  -0.00042   0.00016
 191        5PZ         0.00019  -0.00109  -0.00016  -0.00007  -0.00024
 192        6D 0       -0.00000   0.00018   0.00001   0.00001   0.00005
 193        6D+1        0.00000  -0.00003   0.00000   0.00000   0.00002
 194        6D-1       -0.00001   0.00004  -0.00003   0.00001   0.00001
 195        6D+2        0.00001  -0.00008   0.00000  -0.00001  -0.00003
 196        6D-2        0.00001  -0.00031  -0.00002  -0.00000  -0.00009
 197 15  H  1S          0.00001   0.00010  -0.00002   0.00003  -0.00006
 198        2S         -0.00005  -0.00287   0.00001  -0.00037  -0.00095
 199        3S          0.00009   0.00423  -0.00060  -0.00021   0.00081
 200        4PX         0.00001  -0.00040   0.00006   0.00002  -0.00014
 201        4PY        -0.00001  -0.00081  -0.00000  -0.00000  -0.00009
 202        4PZ        -0.00001  -0.00190  -0.00008  -0.00007  -0.00026
 203 16  H  1S          0.00001   0.00006  -0.00000   0.00003  -0.00007
 204        2S         -0.00006  -0.00288  -0.00007  -0.00035  -0.00104
 205        3S          0.00012   0.00430  -0.00058  -0.00020   0.00089
 206        4PX         0.00001   0.00024   0.00009   0.00004  -0.00005
 207        4PY        -0.00001  -0.00144  -0.00003  -0.00002  -0.00019
 208        4PZ         0.00000   0.00160   0.00006   0.00005   0.00025
 209 17  H  1S          0.00001  -0.00010  -0.00008   0.00002   0.00010
 210        2S         -0.00024  -0.00076  -0.00100   0.00007  -0.00261
 211        3S         -0.00030  -0.00045   0.00098  -0.00038   0.00453
 212        4PX         0.00004   0.00008   0.00003   0.00006   0.00034
 213        4PY         0.00001   0.00008   0.00014  -0.00003   0.00072
 214        4PZ         0.00004   0.00029   0.00038  -0.00000   0.00194
 215 18  H  1S          0.00001  -0.00011  -0.00007   0.00001   0.00011
 216        2S         -0.00023  -0.00064  -0.00104   0.00010  -0.00258
 217        3S         -0.00044  -0.00062   0.00093  -0.00051   0.00449
 218        4PX         0.00004   0.00001  -0.00007   0.00007  -0.00018
 219        4PY         0.00003   0.00018   0.00027  -0.00003   0.00140
 220        4PZ        -0.00005  -0.00024  -0.00029  -0.00003  -0.00151
 221 19  H  1S          0.00000  -0.00014   0.00001   0.00001   0.00001
 222        2S         -0.00004   0.00056  -0.00025   0.00002   0.00005
 223        3S         -0.00010  -0.00111  -0.00002  -0.00002  -0.00068
 224        4PX         0.00001  -0.00014   0.00002  -0.00001   0.00005
 225        4PY        -0.00000  -0.00015   0.00003   0.00001   0.00000
 226        4PZ        -0.00001   0.00006  -0.00004   0.00001  -0.00002
 227 20  H  1S          0.00001  -0.00014  -0.00003   0.00000  -0.00005
 228        2S         -0.00000   0.00049   0.00017  -0.00002   0.00042
 229        3S          0.00082  -0.00357  -0.00061  -0.00023  -0.00006
 230        4PX        -0.00000  -0.00001   0.00003  -0.00003  -0.00015
 231        4PY         0.00002  -0.00004   0.00003  -0.00002  -0.00002
 232        4PZ         0.00001  -0.00001   0.00002   0.00000   0.00002
 233 21  H  1S         -0.00015   0.00001   0.00000   0.00001  -0.00000
 234        2S          0.00062  -0.00011  -0.00022   0.00003   0.00007
 235        3S         -0.00279   0.00011  -0.00070  -0.00104  -0.00034
 236        4PX         0.00010  -0.00001  -0.00003  -0.00006   0.00001
 237        4PY        -0.00015   0.00000   0.00001  -0.00000   0.00002
 238        4PZ        -0.00010   0.00001   0.00005   0.00002  -0.00001
 239 22  C  1S          0.00000   0.00000   0.00000  -0.00000  -0.00000
 240        2S         -0.00000  -0.00000   0.00000  -0.00000  -0.00000
 241        2PX         0.00001   0.00000  -0.00000  -0.00003   0.00001
 242        2PY         0.00001  -0.00000   0.00000   0.00002  -0.00000
 243        2PZ         0.00001   0.00001  -0.00001  -0.00001  -0.00000
 244        3S          0.00003   0.00001  -0.00000   0.00002   0.00002
 245        3PX         0.00001  -0.00000   0.00001   0.00013  -0.00002
 246        3PY        -0.00017   0.00001  -0.00002  -0.00011   0.00001
 247        3PZ        -0.00011  -0.00002   0.00002   0.00002   0.00001
 248        4S          0.00035   0.00017   0.00063   0.00054  -0.00012
 249        4PX         0.00022   0.00003   0.00001  -0.00038  -0.00000
 250        4PY        -0.00086  -0.00008  -0.00013   0.00016   0.00021
 251        4PZ        -0.00112   0.00000  -0.00036  -0.00021   0.00015
 252        5S          0.00182  -0.00028   0.00114   0.00032   0.00029
 253        5PX         0.00018  -0.00012   0.00023   0.00003   0.00004
 254        5PY        -0.00069   0.00014  -0.00021   0.00029  -0.00007
 255        5PZ         0.00025   0.00007   0.00026   0.00023   0.00001
 256        6D 0       -0.00002   0.00000  -0.00001  -0.00002  -0.00000
 257        6D+1       -0.00001  -0.00001  -0.00001  -0.00004   0.00000
 258        6D-1        0.00003   0.00002   0.00001  -0.00001  -0.00000
 259        6D+2        0.00002  -0.00001   0.00001  -0.00000   0.00000
[...]
 ,-0.00001885,0.00000634,0.00000427,0.00000077,-0.00000085,-0.00000066,
 0.00000281,-0.00000173,-0.00439582,0.01903691,-0.01854384,-0.00005744,
 -0.00002461,0.00002501,-0.00029255,-0.00046029,0.00041549,-0.05106386,
 0.02455371,-0.02452593,-0.00132759,-0.02818505,0.02189888,0.00044343,0
 .00362619,-0.00292065,0.06233964,0.00001153,0.00000245,-0.00005411,0.0
 0000321,0.00024241,-0.00031609,-0.00106637,0.00033632,0.00010550,0.000
 00561,-0.00004062,-0.00001043,-0.00017904,0.00008877,0.00001330,0.0000
 2733,0.00000432,0.00000226,0.00002056,0.00000893,-0.00000281,0.0000004
 7,0.00000137,0.00000487,0.00000899,-0.00000563,-0.00000162,0.00411958,
 -0.01529544,0.01370089,0.00005713,0.00004124,-0.00005010,0.00042533,0.
 00063329,-0.00019438,0.01910233,-0.17188041,0.12005890,-0.00204827,-0.
 01654986,0.01276741,-0.00114022,0.01061529,-0.00897838,-0.01826568,0.1
 9291466,-0.00002854,0.00011004,-0.00001824,-0.00013854,-0.00033409,0.0
 0013732,-0.00029385,-0.00001286,0.00038198,-0.00000606,0.00000240,-0.0
 0000922,0.00008825,0.00001785,-0.00007861,-0.00005571,-0.00001833,0.00
 000050,0.00000446,-0.00000005,0.00000771,-0.00000171,-0.00000225,-0.00
 000427,-0.00001337,0.00000654,0.00000715,0.00110213,-0.00658733,0.0057
 7878,0.00006224,0.00003509,-0.00000119,-0.00032168,-0.00006285,0.00005
 867,-0.02111712,0.12460553,-0.17426250,0.00220468,0.00062028,0.0016123
 8,-0.00438526,0.01954064,-0.02098836,0.02100723,-0.13608661,0.18361964
 ,0.00006289,-0.00009480,0.00009778,0.00150767,-0.00047704,-0.00120828,
 -0.00717920,-0.01202475,-0.02612071,-0.00025356,0.00034171,0.00057191,
 -0.00006473,0.00006043,0.00002283,-0.00000923,0.00006787,0.00009373,0.
 00001882,-0.00000036,-0.00001423,0.00007467,0.00013097,0.00014835,0.00
 000547,-0.00001192,-0.00000319,-0.05309068,-0.01757232,-0.03880977,-0.
 00469136,-0.00304125,0.00039638,0.00121954,0.00053156,0.00051722,0.002
 09877,0.01175780,0.02466197,0.00189918,-0.00029080,-0.00016752,-0.0038
 7741,0.00293282,0.00153448,0.00107319,-0.00073454,-0.00052396,0.061840
 23,0.00012767,0.00002101,0.00021927,0.00096987,0.00030195,0.00005563,-
 0.00402915,-0.00802258,-0.01534260,-0.00020679,0.00042873,0.00031529,-
 0.00005088,0.00004185,0.00005677,-0.00005987,0.00002602,0.00004567,-0.
 00000752,-0.00003419,-0.00000429,0.00012886,0.00003770,0.00001961,-0.0
 0001198,-0.00000463,0.00000259,-0.01662743,-0.09004917,-0.08986533,-0.
 00287533,-0.00117125,-0.00017027,0.00072609,0.00031108,-0.00012229,-0.
 00250667,-0.01074956,-0.01963452,-0.00109487,0.00133526,0.00117341,0.0
 0324022,-0.00185660,-0.00134637,-0.00088349,0.00053725,0.00013964,0.01
 924061,0.09870461,0.00003503,0.00028349,0.00035368,0.00019815,0.000107
 07,0.00042897,0.00022575,0.00060579,0.00114694,-0.00042686,0.00025659,
 0.00020458,-0.00000134,-0.00003033,-0.00002143,-0.00016376,-0.00003368
 ,-0.00001995,-0.00000619,0.00000105,-0.00000750,0.00014431,0.00002584,
 -0.00007508,-0.00003650,0.00001591,0.00001664,-0.03787970,-0.09109704,
 -0.24916280,0.00054763,-0.00007166,0.00144015,-0.00039309,-0.00034650,
 0.00082501,-0.00146292,-0.00400341,-0.00809296,-0.00015012,0.00095842,
 0.00067678,0.00144940,-0.00132649,0.00105219,0.00028784,-0.00008119,0.
 00112100,0.04111868,0.10302055,0.26977978,0.00002515,-0.00020512,-0.00
 006393,0.00175705,-0.00093488,0.00055835,-0.00015263,-0.02214734,0.020
 63282,-0.00006620,0.00007080,0.00001196,-0.00027540,0.00048490,-0.0003
 2494,-0.00002439,0.00014006,-0.00006009,-0.00002154,0.00022247,-0.0001
 1746,0.00000864,-0.00001093,-0.00000852,0.00001805,-0.00001310,-0.0000
 0452,-0.04776955,0.01389190,-0.01303908,0.00124250,0.00074941,-0.00037
 418,-0.00488334,-0.00308259,0.00027663,-0.00473702,0.02072378,-0.01844
 535,0.00209282,0.00015344,-0.00057136,0.00098992,-0.00098212,0.0002064
 4,-0.00395094,0.00307177,0.00155219,-0.00082560,0.00396511,-0.00347401
 ,0.05690551,0.00002437,0.00025655,-0.00027423,0.00106978,0.00036154,-0
 .00036777,-0.00023596,-0.01399562,0.01200112,-0.00005188,0.00004338,-0
 .00000862,-0.00042180,0.00062637,-0.00003622,-0.00015731,0.00001841,-0
 .00002222,0.00016750,0.00008554,-0.00003645,-0.00001302,-0.00003734,-0
 .00000918,-0.00002131,-0.00000048,0.00001816,0.01385549,-0.17868626,0.
 11988852,0.00048826,0.00033312,-0.00030496,-0.00303701,-0.00119679,-0.
 00009589,0.00252169,-0.01690101,0.01437943,-0.00106197,0.00140038,-0.0
 0045323,-0.00058485,0.00056598,-0.00019826,0.00305053,-0.00160220,-0.0
 0126933,-0.00084117,0.01019699,-0.00838125,-0.01551841,0.19802242,0.00
 006687,-0.00032416,0.00014331,-0.00026456,0.00020676,0.00011708,-0.000
 02643,0.00040130,-0.00098891,-0.00000747,0.00002804,-0.00002020,0.0004
 0315,-0.00023102,0.00004489,0.00013767,0.00003255,-0.00000318,-0.00011
 220,-0.00004381,-0.00001358,0.00000010,-0.00000331,-0.00001241,0.00002
 882,-0.00001310,-0.00001508,-0.01251656,0.12102629,-0.16187718,0.00052
 728,-0.00010398,0.00088457,0.00034758,-0.00003544,0.00152198,0.0014338
 1,-0.00660627,0.00521880,-0.00083932,-0.00042536,0.00055863,-0.0006944
 5,0.00028064,0.00109823,0.00165089,-0.00104004,0.00113103,-0.00203729,
 0.02109689,-0.01985698,0.01263217,-0.13436502,0.17201908,0.00000243,-0
 .00003940,-0.00001348,0.00001369,0.00014726,-0.00006837,-0.00023880,0.
 00000206,-0.00037068,0.00000486,-0.00000706,-0.00000991,-0.00003670,0.
 00001507,0.00001010,0.00003649,0.00000746,0.00000215,0.00000351,0.0000
 0155,-0.00000255,0.00000002,-0.00000009,0.00000400,0.00000687,-0.00000
 420,-0.00000409,0.00175113,-0.00116621,0.00112751,0.00001554,0.0000017
 1,0.00002730,0.00014925,0.00026730,-0.00012358,0.00044743,-0.02557145,
 0.02630434,-0.06115514,0.02082598,-0.01144865,0.00101862,0.00035933,-0
 .00033945,-0.00525536,-0.00348237,0.00040948,-0.00007564,0.00006942,-0
 .00011259,-0.00071903,0.00090842,-0.00052195,0.06525484,0.00000800,-0.
 00000796,0.00000224,0.00000776,0.00004760,-0.00005852,0.00020137,0.000
 01183,-0.00017098,0.00000854,-0.00000286,-0.00000489,-0.00000781,-0.00
 000597,0.00001515,-0.00000125,-0.00000210,0.00000063,-0.00000366,-0.00
 000310,0.00000056,-0.00000159,-0.00000090,-0.00000148,0.00000060,-0.00
 000081,0.00000149,0.00031712,0.00149602,-0.00065738,-0.00004375,-0.000
 08077,-0.00004054,0.00012341,-0.00001325,-0.00001715,-0.00104232,-0.01
 622106,0.01623786,0.01581216,-0.19590309,0.17526026,0.00163995,0.00052
 983,-0.00017570,-0.00354964,-0.00062801,-0.00092200,0.00003882,-0.0000
 4590,-0.00009776,-0.00038129,0.00033150,0.00035318,-0.01391487,0.22759
 568,0.00000259,0.00000465,0.00000573,0.00003252,-0.00001019,-0.0000014
 9,0.00016855,-0.00017545,0.00023039,-0.00000026,0.00000021,-0.00000538
 ,0.00000637,0.00000210,0.00000449,-0.00000528,-0.00000377,-0.00000169,
 -0.00000033,-0.00000026,0.00000048,-0.00000207,-0.00000129,-0.00000161
 ,-0.00000166,0.00000090,0.00000086,0.00013336,0.00002617,-0.00001581,-
 0.00001714,-0.00003673,-0.00003620,-0.00016080,-0.00007239,-0.00000308
 ,-0.00414431,-0.00458656,-0.00267868,-0.01047262,0.22460897,-0.2400315
 9,0.00025551,-0.00061244,0.00177536,0.00101606,0.00013101,0.00152142,0
 .00007015,0.00002957,-0.00011428,0.00055697,-0.00018549,-0.00004055,0.
 01062670,-0.20899182,0.23617491,-0.00001274,0.00028030,0.00004801,-0.0
 0046039,-0.00066956,-0.00006480,-0.00062966,0.00188591,0.00064571,0.00
 002151,0.00000577,0.00003810,0.00000802,0.00002382,-0.00003231,-0.0001
 6246,-0.00005022,-0.00000945,-0.00000052,-0.00001140,0.00001312,-0.000
 00174,-0.00000205,-0.00001504,-0.00003641,0.00001832,0.00002512,-0.004
 17705,-0.00595027,-0.00039891,0.00001867,-0.00001546,-0.00011761,0.000
 00914,-0.00005745,0.00007942,-0.02432084,0.02103393,0.00819798,-0.2625
 0219,0.16369958,0.05959407,0.00132849,0.00074118,-0.00091123,0.0010787
 7,0.00006665,0.00045047,0.00029926,-0.00010194,0.00009196,0.00038040,-
 0.00015251,-0.00020525,-0.00121999,0.00078694,0.00193349,0.29036566,-0
 .00001573,0.00011045,0.00002267,-0.00028041,-0.00028589,0.00000508,-0.
 00086819,0.00083130,0.00026677,0.00001040,-0.00000398,0.00001334,0.000
 01016,-0.00000038,-0.00001667,-0.00007120,-0.00001950,-0.00000188,-0.0
 0000332,-0.00000701,0.00000749,-0.00000337,-0.00000105,-0.00000688,-0.
 00001945,0.00000640,0.00001045,-0.00212720,-0.00200312,-0.00018300,0.0
 0007183,0.00004185,-0.00002483,0.00008083,0.00002102,0.00002689,-0.022
 02915,0.01247755,0.00294828,0.18494365,-0.19235382,-0.02690345,-0.0001
 2025,0.00042629,0.00015150,0.00057451,0.00057700,0.00021824,-0.0000219
 1,-0.00001017,0.00021706,-0.00019350,0.00018781,-0.00024404,0.02157874
 ,-0.01709910,-0.01012914,-0.18152305,0.19710831,0.00000079,-0.00011346
 ,-0.00001433,0.00013678,0.00024870,0.00008162,0.00028431,-0.00061526,0
 .00052142,-0.00000087,-0.00001327,-0.00001938,0.00000018,-0.00000947,0
 .00000852,0.00007885,0.00001722,-0.00000337,0.00000325,0.00001078,-0.0
 0000765,-0.00000319,-0.00000246,0.00000356,0.00001910,-0.00000760,-0.0
 0001251,0.00169717,0.00130848,0.00006905,0.00012972,0.00010092,0.00001
 731,-0.00006039,0.00002612,-0.00005370,-0.00441686,-0.00397221,-0.0037
 1496,0.09713801,-0.05092463,-0.04444963,-0.00009273,0.00099334,0.00066
 463,0.00025619,0.00003024,-0.00001465,-0.00035864,0.00031466,0.0003086
 1,0.00005446,-0.00028440,0.00009769,-0.02549702,0.01926730,0.00321694,
 -0.06936388,0.03362254,0.04330191,0.00372172,0.01294883,0.02991769,0.0
 0191132,0.00054082,0.00160119,-0.00023708,0.00017093,-0.00029379,-0.00
 071263,-0.00045801,-0.00092852,-0.00010290,-0.00003612,-0.00008155,-0.
 06827587,-0.02275579,-0.04506318,0.00064981,-0.00023843,-0.00044827,-0
 .00416793,0.00362246,0.00180437,-0.00435586,-0.01262323,-0.03408375,-0
 .00000484,-0.00012610,-0.00010955,0.00008988,-0.00021845,-0.00021944,0
 .00002894,-0.00003643,0.00002776,0.00000989,0.00004504,0.00000542,0.00
 003650,-0.00001309,-0.00000383,0.00000374,-0.00000121,-0.00000329,0.00
 000064,-0.00000262,0.00000411,-0.00003634,-0.00001112,0.00000378,0.000
 00400,0.00000961,-0.00000559,-0.00000280,0.00000051,0.00000121,0.00000
 910,0.00000458,-0.00000316,0.07141953,-0.00037773,-0.01312594,-0.02357
 235,-0.00051353,0.00111640,0.00086534,-0.00021780,-0.00009741,0.000159
 41,0.00037432,0.00035845,-0.00005018,-0.00004850,-0.00004535,0.0001500
 9,-0.01689140,-0.07097773,-0.11254247,-0.00146683,0.00056468,-0.000142
 78,0.00343417,-0.00159125,0.00012979,-0.00326586,-0.00978131,-0.019700
 96,-0.00001375,0.00004748,0.00008154,-0.00009250,0.00000056,0.00003420
 ,0.00003140,-0.00009914,-0.00000024,-0.00001014,-0.00001421,-0.0000060
 8,-0.00000555,0.00000002,-0.00000092,0.00000230,-0.00000297,-0.0000012
 1,0.00000158,-0.00000188,0.00000065,0.00001073,0.00000323,-0.00001635,
 -0.00000879,-0.00000451,0.00000680,0.00000015,0.00000241,0.00000207,-0
 .00000167,-0.00000084,-0.00000079,0.01930156,0.09241851,-0.00357196,0.
 00161121,-0.00902499,-0.00010957,0.00047434,0.00045900,0.00008640,0.00
 003174,0.00031331,0.00070042,0.00026200,-0.00008567,0.00008454,-0.0000
 2612,-0.00011634,-0.04913331,-0.15970826,-0.35897780,-0.00030057,0.000
 15699,0.00170211,0.00218116,-0.00138723,0.00116817,0.00228088,0.005003
 15,-0.00076500,0.00002665,0.00002765,0.00003611,-0.00018750,0.00009516
 ,0.00004300,-0.00000643,0.00002088,-0.00001500,-0.00000364,-0.00001483
 ,-0.00000129,-0.00001008,0.00000636,-0.00000055,0.00000100,-0.00000095
 ,0.00000033,-0.00000126,0.00000193,-0.00000121,0.00000932,-0.00000599,
 -0.00000392,-0.00000310,-0.00000083,-0.00000294,0.00000111,-0.00000112
 ,-0.00000123,-0.00000292,-0.00000188,0.00000101,0.04784233,0.15409019,
 0.36584726,-0.00011285,0.00118831,-0.00120296,0.00017640,0.00103342,-0
 .00101470,-0.00014589,-0.00005364,0.00044424,0.00012478,-0.00021719,0.
 00036784,-0.00105256,-0.00034411,0.00000744,-0.00357592,0.00019341,0.0
 0120987,-0.00014031,-0.00009822,0.00033336,-0.00000984,0.00033513,0.00
 006018,0.00033165,-0.00083091,0.00093611,-0.00001351,-0.00016702,-0.00
 006488,0.00000692,0.00000164,-0.00005373,0.00017406,-0.00019219,-0.000
 00127,-0.00003089,0.00007770,0.00003524,0.00009086,-0.00001905,-0.0000
 0268,0.00000550,0.00000005,-0.00000614,0.00000932,-0.00001034,0.000007
 20,0.00000921,0.00001036,0.00002254,-0.00001587,-0.00000314,0.00000686
 ,-0.00001058,0.00000172,0.00000123,0.00001710,0.00000666,-0.00001538,-
 0.00005305,-0.00035809,0.00027202,0.19764866,0.00231976,-0.00212700,0.
 00112629,0.00014784,-0.00008814,0.00063555,-0.00006760,-0.00044620,-0.
 00039806,-0.00027151,0.00018171,-0.00060340,0.00106064,0.00078606,0.00
 026323,-0.00027563,-0.00342581,-0.00753101,-0.00098316,0.00067773,-0.0
 0077069,-0.00008538,-0.00132380,-0.00025938,-0.00046609,-0.00046483,0.
 00046812,-0.00005817,0.00042507,0.00009913,0.00003379,-0.00003558,0.00
 003132,-0.00015997,0.00017196,-0.00001959,0.00004430,-0.00016980,-0.00
 004076,-0.00018673,0.00001519,-0.00000778,-0.00000898,-0.00000941,-0.0
 0000645,-0.00000595,0.00000984,-0.00001212,-0.00003116,-0.00001907,-0.
 00006195,0.00001246,-0.00001461,0.00003906,0.00001362,0.00001462,0.000
 01393,-0.00003514,-0.00001556,0.00002976,-0.00040425,0.00358862,-0.002
 31055,-0.22670349,1.16647586,-0.00277431,0.00077634,0.00369658,0.00008
 507,-0.00078760,-0.00065703,0.00018968,0.00031042,0.00015674,-0.000179
 50,0.00010353,-0.00017771,0.00011338,0.00054729,0.00025142,0.00092437,
 -0.00643360,0.00109295,0.00184100,-0.00154543,-0.00050046,0.00044387,-
 0.00119739,-0.00064818,0.00063830,-0.00073293,0.00102179,0.00006638,-0
 .00021071,-0.00005453,0.00003092,-0.00008816,-0.00007663,-0.00001508,-
 0.00000480,-0.00001713,0.00001527,0.00010290,0.00005049,0.00004979,-0.
 00004408,-0.00003511,0.00000435,-0.00002325,-0.00002636,-0.00000289,0.
 00000016,-0.00000214,-0.00001747,0.00000952,-0.00001867,0.00002253,0.0
 0004523,-0.00000689,0.00000071,0.00001234,0.00001434,0.00001985,0.0000
 0666,0.00000050,0.00005721,-0.00063862,-0.00072681,-0.18082757,0.82524
 139,0.75923748,-0.00020623,-0.00017201,0.00060885,-0.00014856,-0.00076
 816,0.00033063,0.00012376,0.00000517,-0.00018756,-0.00008605,0.0001862
 5,-0.00024698,0.00015927,0.00065576,-0.00031918,0.00135164,0.00016672,
 -0.00019584,0.00015001,-0.00007608,-0.00022903,-0.00007235,-0.00036196
 ,-0.00019032,-0.00007121,0.00020949,-0.00032536,0.00002143,0.00006915,
 0.00003214,0.00001258,-0.00001987,0.00002753,-0.00008893,0.00009672,0.
 00000695,0.00002073,-0.00003558,-0.00001388,-0.00004468,0.00000589,-0.
 00000148,-0.00000255,-0.00000237,0.00000162,-0.00000461,0.00000565,-0.
 00000417,-0.00000574,-0.00000616,-0.00001369,0.00001571,0.00000490,-0.
 00000191,0.00000607,0.00000057,0.00000105,-0.00000774,-0.00000311,0.00
 000858,0.00011831,-0.00007177,-0.00006788,-0.09600437,0.10881859,0.091
 66486,0.06377945,-0.00036228,0.00033607,-0.00104347,-0.00012339,0.0001
 1378,-0.00000128,-0.00005890,0.00012495,0.00010345,0.00016454,-0.00004
 205,0.00023753,-0.00033063,-0.00039082,-0.00003275,0.00054192,0.001279
 36,0.00447550,-0.00006398,0.00013620,0.00047881,-0.00010828,0.00103154
 ,0.00049136,-0.00002939,0.00034732,-0.00049736,0.00000484,-0.00013177,
 -0.00003207,-0.00002623,0.00002613,-0.00000187,0.00006532,-0.00006616,
 0.00000713,-0.00002230,0.00005132,0.00001010,0.00006426,-0.00000027,0.
 00000830,0.00000305,0.00000568,0.00000552,0.00000268,-0.00000398,0.000
 00447,0.00001321,0.00000781,0.00002356,-0.00000638,-0.00000034,-0.0000
 1260,-0.00000534,-0.00000667,-0.00000648,0.00001053,0.00000473,-0.0000
 1152,0.00018069,-0.00103900,0.00097139,0.10835079,-0.55517333,-0.41112
 448,-0.12660459,0.60161255,0.00156469,-0.00050062,-0.00163415,0.000000
 87,0.00011160,0.00026835,-0.00006681,-0.00022114,-0.00008885,0.0000550
 9,0.00000052,0.00002387,-0.00026833,0.00001341,-0.00032361,-0.00052550
 ,0.00159872,-0.00749760,-0.00078087,0.00065117,0.00030459,-0.00017078,
 0.00031151,0.00017819,-0.00026466,0.00041841,-0.00061828,-0.00003837,0
 .00014079,0.00002973,-0.00000871,0.00004046,0.00004143,0.00000531,0.00
 001227,0.00000781,-0.00000659,-0.00006687,-0.00003230,-0.00003621,0.00
 002592,0.00002005,-0.00000310,0.00001309,0.00001476,0.00000117,0.00000
 026,0.00000084,0.00000750,-0.00000565,0.00000722,-0.00000840,-0.000026
 04,0.00000501,0.00000002,-0.00000617,-0.00000725,-0.00001303,-0.000004
 59,0.00000071,-0.00006295,0.00190054,-0.00057312,0.09309124,-0.4187876
 8,-0.40870050,-0.10532848,0.47128684,0.43680790,0.00016001,-0.00005849
 ,0.00009304,0.00000580,-0.00015997,0.00027912,0.00003663,-0.00003159,-
 0.00006636,-0.00000983,-0.00000241,-0.00003976,0.00004001,0.00009492,-
 0.00003943,0.00162814,0.00055359,-0.00061855,-0.00010497,0.00007217,-0
 .00009465,-0.00002018,-0.00007840,-0.00005177,-0.00025750,0.00045083,-
 0.00039282,0.00000179,0.00003948,0.00003105,0.00000059,-0.00000028,0.0
 0001073,-0.00001987,0.00003452,-0.00000489,0.00000933,-0.00002178,-0.0
 0001094,-0.00002513,0.00000636,-0.00000129,-0.00000117,-0.00000002,0.0
 0000157,-0.00000257,0.00000331,-0.00000248,0.00000061,-0.00000503,-0.0
 0000430,0.00000175,-0.00000021,-0.00000222,0.00000330,-0.00000130,-0.0
 0000129,-0.00000439,-0.00000153,0.00000474,-0.00005410,0.00018768,-0.0
 0008763,-0.09742880,0.11729222,0.08764929,0.03098407,0.01833987,0.0128
 5689,0.06505647,-0.00137732,-0.00052996,0.00116306,-0.00020077,-0.0001
 1090,-0.00032398,0.00006115,0.00029654,0.00010835,0.00008805,-0.000030
 10,0.00022690,-0.00020670,-0.00020487,-0.00014301,0.00079626,-0.003264
 45,0.00317797,0.00105763,-0.00062771,0.00022806,0.00012336,0.00049294,
 0.00016812,0.00042531,-0.00044765,0.00045542,0.00004189,-0.00021489,-0
 .00004836,-0.00001993,0.00001638,-0.00000942,0.00002656,-0.00005064,0.
 00001452,-0.00002228,0.00008658,0.00001723,0.00009463,-0.00000720,0.00
 000406,0.00000460,0.00000508,0.00000388,0.00000211,-0.00000509,0.00000
 645,0.00001550,0.00000964,0.00003223,-0.00000166,0.00000917,-0.0000233
 6,-0.00000707,-0.00000794,-0.00000756,0.00001777,0.00000771,-0.0000150
 0,0.00009983,-0.00131880,0.00070477,0.11779821,-0.60903352,-0.40432474
 ,0.01789680,-0.04822307,-0.05690675,-0.13671393,0.66315276,0.00087013,
 0.00018560,-0.00181492,-0.00006192,0.00021229,0.00010165,-0.00004325,-
 0.00006613,-0.00000312,0.00009189,-0.00005385,0.00011773,-0.00023234,-
 0.00017057,-0.00014150,-0.00117697,0.00608789,0.00009929,-0.00061815,0
 .00054711,0.00029875,-0.00006928,0.00054228,0.00030762,-0.00012108,0.0
 0042722,-0.00040010,-0.00001405,0.00002483,0.00001170,-0.00001480,0.00
 003503,0.00002555,0.00002727,-0.00001923,0.00000712,-0.00000979,-0.000
 01686,-0.00001347,0.00000269,0.00001291,0.00001164,-0.00000009,0.00000
 839,0.00000919,0.00000128,-0.00000101,0.00000198,0.00001076,-0.0000017
 9,0.00001201,-0.00000954,-0.00001307,-0.00000240,-0.00000111,-0.000005
 51,-0.00000608,-0.00000288,-0.00000060,-0.00000330,0.00004181,-0.00074
 769,0.00072557,0.08639393,-0.39713838,-0.35387413,0.01444355,-0.065340
 05,-0.01823480,-0.09950806,0.45549119,0.37276403\\0.00000038,-0.000001
 39,-0.00000058,0.00000029,-0.00000154,-0.00000008,0.00000089,0.0000002
 4,0.00000004,-0.00000010,0.00000075,0.00000146,-0.00000003,0.00000108,
 -0.00000150,-0.00000027,-0.00000167,-0.00000155,0.00000048,-0.00000134
 ,0.00000080,0.00000072,-0.00000142,-0.00000117,-0.00000049,-0.00000175
 ,-0.00000098,-0.00000154,-0.00000012,0.00000034,0.00000068,-0.00000064
 ,0.00000025,0.00000062,-0.00000005,0.00000112,0.00000168,0.00000134,-0
 .00000118,-0.00000081,0.00000134,-0.00000082,0.00000020,0.00000060,-0.
 00000136,0.00000089,-0.00000045,0.00000011,0.00000040,0.00000058,0.000
 00192,-0.00000053,0.00000148,-0.00000061,-0.00000026,0.00000057,0.0000
 0028,0.00000118,0.00000022,-0.00000168,-0.00000043,-0.00000024,-0.0000
 0046,-0.00000067,-0.00000397,0.00000419,0.00001778,-0.00007971,-0.0000
 6684,-0.00002108,0.00008609,0.00006832\\\@
 The archive entry for this job was punched.


 In the beginning the Universe was created.
 This has made a lot of people very angry
 and been widely regarded as a bad move.
                               -D.Adams
 Job cpu time:       0 days  1 hours 11 minutes 38.3 seconds.
 Elapsed time:       0 days  0 hours 36 minutes 46.2 seconds.
 File lengths (MBytes):  RWF=    293 Int=      0 D2E=      0 Chk=     28 Scr=      1
 Normal termination of Gaussian 16 at Fri Jun  2 22:20:25 2023.
