 Entering Gaussian System, Link 0=g16
 Input=123triz-CO2_binding-site_index-3-freq.gjf
 Output=123triz-CO2_binding-site_index-3-freq.log
 Initial command:
 /software/commercial/gaussian/g16/AVX/g16/l1.exe "/scratch1/svicchi/G09-659761.pbs02/Gau-1743414.inp" -scrdir="/scratch1/svicchi/G09-659761.pbs02/"
 Entering Link 1 = /software/commercial/gaussian/g16/AVX/g16/l1.exe PID=   1743415.
  
 Copyright (c) 1988-2019, Gaussian, Inc.  All Rights Reserved.
  
 This is part of the Gaussian(R) 16 program.  It is based on
 the Gaussian(R) 09 system (copyright 2009, Gaussian, Inc.),
 the Gaussian(R) 03 system (copyright 2003, Gaussian, Inc.),
 the Gaussian(R) 98 system (copyright 1998, Gaussian, Inc.),
 the Gaussian(R) 94 system (copyright 1995, Gaussian, Inc.),
 the Gaussian 92(TM) system (copyright 1992, Gaussian, Inc.),
 the Gaussian 90(TM) system (copyright 1990, Gaussian, Inc.),
 the Gaussian 88(TM) system (copyright 1988, Gaussian, Inc.),
 the Gaussian 86(TM) system (copyright 1986, Carnegie Mellon
 University), and the Gaussian 82(TM) system (copyright 1983,
 Carnegie Mellon University). Gaussian is a federally registered
 trademark of Gaussian, Inc.
  
 This software contains proprietary and confidential information,
 including trade secrets, belonging to Gaussian, Inc.
  
 This software is provided under written license and may be
 used, copied, transmitted, or stored only in accord with that
 written license.
  
 The following legend is applicable only to US Government
 contracts under FAR:
  
                    RESTRICTED RIGHTS LEGEND
  
 Use, reproduction and disclosure by the US Government is
 subject to restrictions as set forth in subparagraphs (a)
 and (c) of the Commercial Computer Software - Restricted
 Rights clause in FAR 52.227-19.
  
 Gaussian, Inc.
 340 Quinnipiac St., Bldg. 40, Wallingford CT 06492
  
  
 ---------------------------------------------------------------
 Warning -- This program may not be used in any manner that
 competes with the business of Gaussian, Inc. or will provide
 assistance to any competitor of Gaussian, Inc.  The licensee
 of this program is prohibited from giving any competitor of
 Gaussian, Inc. access to this program.  By using this program,
 the user acknowledges that Gaussian, Inc. is engaged in the
 business of creating and licensing software in the field of
 computational chemistry and represents and warrants to the
 licensee that it is not a competitor of Gaussian, Inc. and that
 it will not use this program in any manner prohibited above.
 ---------------------------------------------------------------
  

 Cite this work as:
 Gaussian 16, Revision C.01,
 M. J. Frisch, G. W. Trucks, H. B. Schlegel, G. E. Scuseria, 
 M. A. Robb, J. R. Cheeseman, G. Scalmani, V. Barone, 
 G. A. Petersson, H. Nakatsuji, X. Li, M. Caricato, A. V. Marenich, 
 J. Bloino, B. G. Janesko, R. Gomperts, B. Mennucci, H. P. Hratchian, 
 J. V. Ortiz, A. F. Izmaylov, J. L. Sonnenberg, D. Williams-Young, 
 F. Ding, F. Lipparini, F. Egidi, J. Goings, B. Peng, A. Petrone, 
 T. Henderson, D. Ranasinghe, V. G. Zakrzewski, J. Gao, N. Rega, 
 G. Zheng, W. Liang, M. Hada, M. Ehara, K. Toyota, R. Fukuda, 
 J. Hasegawa, M. Ishida, T. Nakajima, Y. Honda, O. Kitao, H. Nakai, 
 T. Vreven, K. Throssell, J. A. Montgomery, Jr., J. E. Peralta, 
 F. Ogliaro, M. J. Bearpark, J. J. Heyd, E. N. Brothers, K. N. Kudin, 
 V. N. Staroverov, T. A. Keith, R. Kobayashi, J. Normand, 
 K. Raghavachari, A. P. Rendell, J. C. Burant, S. S. Iyengar, 
 J. Tomasi, M. Cossi, J. M. Millam, M. Klene, C. Adamo, R. Cammi, 
 J. W. Ochterski, R. L. Martin, K. Morokuma, O. Farkas, 
 J. B. Foresman, and D. J. Fox, Gaussian, Inc., Wallingford CT, 2019.
 
 ******************************************
 Gaussian 16:  ES64L-G16RevC.01  3-Jul-2019
                 2-Jun-2023 
 ******************************************
 %NProcShared=2
 Will use up to    2 processors via shared memory.
 %mem=55gb
 %chk=/scratch1/svicchi/G09-659761.pbs02/02-freq/123triz-CO2_binding-site_index-3
 -freq.chk
 ----------------------------------------------------------------------
 #p freq=raman scale=0.967 pop=(nbo,full,hirshfeld) guess=read geom=all
 check b3lyp/6-311+G(d,p) int=grid=ultrafine EmpiricalDispersion=GD3BJ 
 SCRF=(Solvent=ethanol) scf=(xqc,intrep,maxconventionalcycle=350) nosym
 m
 ----------------------------------------------------------------------
 1/10=4,29=7,30=1,38=1,114=967000/1,3;
 2/12=2,15=1,40=1/2;
 3/5=4,6=6,7=111,11=2,14=-4,25=1,30=1,70=2201,71=2,72=4,74=-5,75=-5,116=-2,124=41,140=1/1,2,3;
 4/5=1/1;
 5/5=2,8=3,13=1,17=20,38=6,53=4,85=350,98=1/2,8;
 8/6=4,10=90,11=11/1;
 10/13=10,15=4,31=1/2;
 11/6=3,8=1,9=11,15=111,16=1,31=1/1,2,10;
 10/6=1,31=1/2;
 6/7=3,28=1,40=1,79=1/1,7;
 7/8=1,10=1,25=1,30=1/1,2,3,16;
 1/10=4,30=1/3;
 99//99;
 Leave Link    1 at Fri Jun  2 11:34:56 2023, MaxMem=  7381975040 cpu:               1.8 elap:               1.8
 (Enter /software/commercial/gaussian/g16/AVX/g16/l101.exe)
 Structure from the checkpoint file:  "/scratch1/svicchi/G09-659761.pbs02/02-freq/123triz-CO2_binding-site_index-3-freq.chk"
 ------------------------------------
 123triz-CO2_binding-site_index-3.gjf
 ------------------------------------
 Charge = -1 Multiplicity = 1
 No Z-Matrix found in chk file; cartesian coordinates used.
  C                                                -3.650892144294      0.601104435700      0.006189906011
  C                                                -3.698859264000     -0.801893030019     -0.006042159206
  N                                                -2.372328175718      0.977066424922      0.006290631224
  N                                                -1.688031471163     -0.168303078712     -0.004476046675
  N                                                -2.448966940751     -1.263891548528     -0.012328711290
  H                                                -4.450249560810      1.325063414128      0.015248145116
  H                                                -4.545445378056     -1.470074177077     -0.010446625080
  C                                                -0.151678526278     -0.221288418384      0.000430530521
  O                                                 0.371215078704      0.893639583642     -0.026714000416
  O                                                 0.293982382366     -1.369239605672      0.031848329794
 Recover connectivity data from disk.
 ITRead=  0  0  0  0  0  0  0  0  0  0
 MicOpt= -1 -1 -1 -1 -1 -1 -1 -1 -1 -1
 NAtoms=     10 NQM=       10 NQMF=       0 NMMI=      0 NMMIF=      0
                NMic=       0 NMicF=      0.
                    Isotopes and Nuclear Properties:
 (Nuclear quadrupole moments (NQMom) in fm**2, nuclear magnetic moments (NMagM)
  in nuclear magnetons)

  Atom         1           2           3           4           5           6           7           8           9          10
 IAtWgt=          12          12          14          14          14           1           1          12          16          16
 AtmWgt=  12.0000000  12.0000000  14.0030740  14.0030740  14.0030740   1.0078250   1.0078250  12.0000000  15.9949146  15.9949146
 NucSpn=           0           0           2           2           2           1           1           0           0           0
 AtZEff=   3.6000000   3.6000000   4.5500000   4.5500000   4.5500000   1.0000000   1.0000000   3.6000000   5.6000000   5.6000000
 NQMom=    0.0000000   0.0000000   2.0440000   2.0440000   2.0440000   0.0000000   0.0000000   0.0000000   0.0000000   0.0000000
 NMagM=    0.0000000   0.0000000   0.4037610   0.4037610   0.4037610   2.7928460   2.7928460   0.0000000   0.0000000   0.0000000
 AtZNuc=   6.0000000   6.0000000   7.0000000   7.0000000   7.0000000   1.0000000   1.0000000   6.0000000   8.0000000   8.0000000
 Leave Link  101 at Fri Jun  2 11:34:59 2023, MaxMem=  7381975040 cpu:               0.4 elap:               1.4
 (Enter /software/commercial/gaussian/g16/AVX/g16/l103.exe)

 GradGradGradGradGradGradGradGradGradGradGradGradGradGradGradGradGradGrad
 Berny optimization.
 Initialization pass.
 Trust Radius=3.00D-01 FncErr=1.00D-07 GrdErr=1.00D-07 EigMax=2.50D+02 EigMin=1.00D-04
 Number of steps in this run=      2 maximum allowed number of steps=      2.
 GradGradGradGradGradGradGradGradGradGradGradGradGradGradGradGradGradGrad

 Leave Link  103 at Fri Jun  2 11:35:02 2023, MaxMem=  7381975040 cpu:               0.1 elap:               1.1
 (Enter /software/commercial/gaussian/g16/AVX/g16/l202.exe)
                          Input orientation:                          
 ---------------------------------------------------------------------
 Center     Atomic      Atomic             Coordinates (Angstroms)
 Number     Number       Type             X           Y           Z
 ---------------------------------------------------------------------
      1          6           0       -3.650892    0.601104    0.006190
      2          6           0       -3.698859   -0.801893   -0.006042
      3          7           0       -2.372328    0.977066    0.006291
      4          7           0       -1.688031   -0.168303   -0.004476
      5          7           0       -2.448967   -1.263892   -0.012329
      6          1           0       -4.450250    1.325063    0.015248
      7          1           0       -4.545445   -1.470074   -0.010447
      8          6           0       -0.151679   -0.221288    0.000431
      9          8           0        0.371215    0.893640   -0.026714
     10          8           0        0.293982   -1.369240    0.031848
 ---------------------------------------------------------------------
                    Distance matrix (angstroms):
                    1          2          3          4          5
     1  C    0.000000
     2  C    1.403870   0.000000
     3  N    1.332694   2.219129   0.000000
     4  N    2.108299   2.108285   1.334260   0.000000
     5  N    2.218823   1.332559   2.242345   1.333941   0.000000
     6  H    1.078504   2.255878   2.106879   3.140124   3.272397
     7  H    2.256166   1.078514   3.272799   3.139977   2.106594
     8  C    3.594560   3.594389   2.523366   1.537274   2.522839
     9  O    4.032866   4.409168   2.745010   2.317048   3.550855
    10  O    4.409643   4.033126   3.551763   2.317746   2.745327
                    6          7          8          9         10
     6  H    0.000000
     7  H    2.796876   0.000000
     8  C    4.568275   4.567797   0.000000
     9  O    4.840910   5.455360   1.231754   0.000000
    10  O    5.455940   4.840663   1.231825   2.264954   0.000000
 Symmetry turned off by external request.
 Stoichiometry    C3H2N3O2(1-)
 Framework group  C1[X(C3H2N3O2)]
 Deg. of freedom    24
 Full point group                 C1      NOp   1
 Rotational constants (GHZ):           5.4933011           1.7809242           1.3451022
 Leave Link  202 at Fri Jun  2 11:35:04 2023, MaxMem=  7381975040 cpu:               0.0 elap:               0.8
 (Enter /software/commercial/gaussian/g16/AVX/g16/l301.exe)
 Standard basis: 6-311+G(d,p) (5D, 7F)
 Ernie: Thresh=  0.10000D-02 Tol=  0.10000D-05 Strict=F.
   188 basis functions,   304 primitive gaussians,   196 cartesian basis functions
    29 alpha electrons       29 beta electrons
       nuclear repulsion energy       347.0411423902 Hartrees.
 IExCor=  402 DFT=T Ex+Corr=B3LYP ExCW=0 ScaHFX=  0.200000
 ScaDFX=  0.800000  0.720000  1.000000  0.810000 ScalE2=  1.000000  1.000000
 IRadAn=      5 IRanWt=     -1 IRanGd=            0 ICorTp=0 IEmpDi=141
 NAtoms=   10 NActive=   10 NUniq=   10 SFac= 1.00D+00 NAtFMM=   60 NAOKFM=F Big=F
 Integral buffers will be    131072 words long.
 Raffenetti 2 integral format.
 Two-electron integral symmetry is turned off.
 R6Disp:  Grimme-D3(BJ) Dispersion energy=       -0.0154288224 Hartrees.
 Nuclear repulsion after empirical dispersion term =      347.0257135678 Hartrees.
 Force inversion solution in PCM.
 ------------------------------------------------------------------------------
 Polarizable Continuum Model (PCM)
 =================================
 Model                : PCM.
 Atomic radii         : UFF (Universal Force Field).
 Polarization charges : Total charges.
 Charge compensation  : None.
 Solution method      : Matrix inversion.
 Cavity type          : Scaled VdW (van der Waals Surface) (Alpha=1.100).
 Cavity algorithm     : GePol (No added spheres)
                        Default sphere list used, NSphG=   10.
                        Lebedev-Laikov grids with approx.  5.0 points / Ang**2.
                        Smoothing algorithm: York/Karplus (Gamma=1.0000).
                        Polarization charges: spherical gaussians, with
                                              point-specific exponents (IZeta= 3).
                        Self-potential: point-specific (ISelfS= 7).
                        Self-field    : sphere-specific E.n sum rule (ISelfD= 2).
 1st derivatives      : Analytical E(r).r(x)/FMM algorithm (CHGder, D1EAlg=3).
                        Cavity 1st derivative terms included.
 2nd derivatives      : Analytical E(r).r(xy)/FMM algorithm (CHGder, D2EAlg=3).
                        Cavity 2nd derivative terms included.
 Solvent              : Ethanol, Eps=  24.852000 Eps(inf)=   1.852593
 ------------------------------------------------------------------------------
 Spheres list:
 ISph  on   Nord     Re0    Alpha      Xe            Ye            Ze
    1   C      1    1.9255  1.100     -3.650892      0.601104      0.006190
    2   C      2    1.9255  1.100     -3.698859     -0.801893     -0.006042
    3   N      3    1.8300  1.100     -2.372328      0.977066      0.006291
    4   N      4    1.8300  1.100     -1.688031     -0.168303     -0.004476
    5   N      5    1.8300  1.100     -2.448967     -1.263892     -0.012329
    6   H      6    1.4430  1.100     -4.450250      1.325063      0.015248
    7   H      7    1.4430  1.100     -4.545445     -1.470074     -0.010447
    8   C      8    1.9255  1.100     -0.151679     -0.221288      0.000431
    9   O      9    1.7500  1.100      0.371215      0.893640     -0.026714
   10   O     10    1.7500  1.100      0.293982     -1.369240      0.031848
 ------------------------------------------------------------------------------
 GePol: Number of generator spheres                  =      10
 GePol: Total number of spheres                      =      10
 GePol: Number of exposed spheres                    =      10 (100.00%)
 GePol: Number of points                             =    1129
 GePol: Average weight of points                     =       0.13
 GePol: Minimum weight of points                     =   0.84D-09
 GePol: Maximum weight of points                     =    0.20577
 GePol: Number of points with low weight             =      36
 GePol: Fraction of low-weight points (<1% of avg)   =       3.19%
 GePol: Cavity surface area                          =    149.790 Ang**2
 GePol: Cavity volume                                =    140.214 Ang**3
 Leave Link  301 at Fri Jun  2 11:35:08 2023, MaxMem=  7381975040 cpu:               0.3 elap:               0.5
 (Enter /software/commercial/gaussian/g16/AVX/g16/l302.exe)
 NPDir=0 NMtPBC=     1 NCelOv=     1 NCel=       1 NClECP=     1 NCelD=      1
         NCelK=      1 NCelE2=     1 NClLst=     1 CellRange=     0.0.
 One-electron integrals computed using PRISM.
 NBasis=   188 RedAO= T EigKep=  1.98D-05  NBF=   188
 NBsUse=   188 1.00D-06 EigRej= -1.00D+00 NBFU=   188
 Precomputing XC quadrature grid using
 IXCGrd= 4 IRadAn=           5 IRanWt=          -1 IRanGd=           0 AccXCQ= 0.00D+00.
 Generated NRdTot=       0 NPtTot=           0 NUsed=           0 NTot=          32
 NSgBfM=   196   196   196   196   196 MxSgAt=    10 MxSgA2=    10.
 Leave Link  302 at Fri Jun  2 11:35:09 2023, MaxMem=  7381975040 cpu:               0.5 elap:               0.7
 (Enter /software/commercial/gaussian/g16/AVX/g16/l303.exe)
 DipDrv:  MaxL=1.
 Leave Link  303 at Fri Jun  2 11:35:12 2023, MaxMem=  7381975040 cpu:               0.1 elap:               0.8
 (Enter /software/commercial/gaussian/g16/AVX/g16/l401.exe)
 Initial guess from the checkpoint file:  "/scratch1/svicchi/G09-659761.pbs02/02-freq/123triz-CO2_binding-site_index-3-freq.chk"
 B after Tr=     0.000000    0.000000    0.000000
         Rot=    1.000000    0.000000    0.000000    0.000000 Ang=   0.00 deg.
 Guess basis will be translated and rotated to current coordinates.
 JPrj=2 DoOrth=T DoCkMO=T.
 Leave Link  401 at Fri Jun  2 11:35:14 2023, MaxMem=  7381975040 cpu:               0.4 elap:               1.1
 (Enter /software/commercial/gaussian/g16/AVX/g16/l502.exe)
 Keep R1 ints in memory in canonical form, NReq=161647647.
 FoFCou: FMM=F IPFlag=           0 FMFlag=           0 FMFlg1=           0
         NFxFlg=           0 DoJE=F BraDBF=F KetDBF=F FulRan=T
         wScrn=  0.000000 ICntrl=       600 IOpCl=  0 I1Cent=           0 NGrid=           0
         NMat0=    1 NMatS0=  17766 NMatT0=    0 NMatD0=    1 NMtDS0=    0 NMtDT0=    0
 Symmetry not used in FoFCou.
 Two-electron integral symmetry not used.
 Closed shell SCF:
 Using DIIS extrapolation, IDIIS=  1040.
 NGot=  7381975040 LenX=  7224071105 LenY=  7224032248
 Requested convergence on RMS density matrix=1.00D-08 within 350 cycles.
 Requested convergence on MAX density matrix=1.00D-06.
 Requested convergence on             energy=1.00D-06.
 No special actions if energy rises.

 Cycle   1  Pass 1  IDiag  1:
 Inv3:  Mode=1 IEnd=     3823923.
 Iteration    1 A*A^-1 deviation from unit magnitude is 6.88D-15 for   1127.
 Iteration    1 A*A^-1 deviation from orthogonality  is 2.00D-15 for   1129   1072.
 Iteration    1 A^-1*A deviation from unit magnitude is 6.88D-15 for   1127.
 Iteration    1 A^-1*A deviation from orthogonality  is 2.72D-15 for   1113    540.
 E= -430.506855209938    
 DIIS: error= 6.96D-08 at cycle   1 NSaved=   1.
 NSaved= 1 IEnMin= 1 EnMin= -430.506855209938     IErMin= 1 ErrMin= 6.96D-08
 ErrMax= 6.96D-08  0.00D+00 EMaxC= 1.00D-01 BMatC= 2.05D-13 BMatP= 2.05D-13
 IDIUse=1 WtCom= 1.00D+00 WtEn= 0.00D+00
 Coeff-Com:  0.100D+01
 Coeff:      0.100D+01
 Gap=     0.226 Goal=   None    Shift=    0.000
 RMSDP=7.03D-09 MaxDP=1.90D-07              OVMax= 4.51D-07

 Error on total polarization charges =  0.01640
 SCF Done:  E(RB3LYP) =  -430.506855210     A.U. after    1 cycles
            NFock=  1  Conv=0.70D-08     -V/T= 2.0036
 KE= 4.289568881039D+02 PE=-1.714411307592D+03 EE= 5.079218507101D+02
 Leave Link  502 at Fri Jun  2 11:35:26 2023, MaxMem=  7381975040 cpu:              18.2 elap:              10.8
 (Enter /software/commercial/gaussian/g16/AVX/g16/l508.exe)
 QCSCF skips out because SCF is already converged.
 Leave Link  508 at Fri Jun  2 11:35:29 2023, MaxMem=  7381975040 cpu:               0.1 elap:               0.6
 (Enter /software/commercial/gaussian/g16/AVX/g16/l801.exe)
 DoSCS=F DFT=T ScalE2(SS,OS)=  1.000000  1.000000
 Range of M.O.s used for correlation:     1   188
 NBasis=   188 NAE=    29 NBE=    29 NFC=     0 NFV=     0
 NROrb=    188 NOA=    29 NOB=    29 NVA=   159 NVB=   159

 **** Warning!!: The largest alpha MO coefficient is  0.74359221D+02

 Leave Link  801 at Fri Jun  2 11:35:33 2023, MaxMem=  7381975040 cpu:               0.1 elap:               1.0
 (Enter /software/commercial/gaussian/g16/AVX/g16/l1002.exe)
 Minotr:  Closed shell wavefunction.
 NEqPCM:  Using equilibrium solvation (IEInf=0, Eps=  24.8520, EpsInf=   1.8526)
          Direct CPHF calculation.
          Differentiating once with respect to electric field.
                with respect to dipole field.
          Electric field/nuclear overlap derivatives assumed to be zero.
          Requested convergence is 1.0D-08 RMS, and 1.0D-07 maximum.
          Secondary convergence is 1.0D-12 RMS, and 1.0D-12 maximum.
          NewPWx=F KeepS1=T KeepF1=T KeepIn=T MapXYZ=F SortEE=F KeepMc=T.
         3079 words used for storage of precomputed grid.
 Keep R1 ints in memory in canonical form, NReq=162179665.
 FoFCou: FMM=F IPFlag=           0 FMFlag=           0 FMFlg1=           0
         NFxFlg=           0 DoJE=F BraDBF=F KetDBF=F FulRan=T
         wScrn=  0.000000 ICntrl=       600 IOpCl=  0 I1Cent=           0 NGrid=           0
         NMat0=    1 NMatS0=  17766 NMatT0=    0 NMatD0=    1 NMtDS0=    0 NMtDT0=    0
 Symmetry not used in FoFCou.
 Two-electron integral symmetry not used.
          MDV=    7381975040 using IRadAn=       1.
          Solving linear equations simultaneously, MaxMat=       0.
          There are     3 degrees of freedom in the 1st order CPHF.  IDoFFX=0 NUNeed=     3.
      3 vectors produced by pass  0 Test12= 1.54D-13 3.33D-08 XBig12= 7.99D+01 6.28D+00.
 AX will form     3 AO Fock derivatives at one time.
      3 vectors produced by pass  1 Test12= 1.54D-13 3.33D-08 XBig12= 5.57D+01 2.26D+00.
      3 vectors produced by pass  2 Test12= 1.54D-13 3.33D-08 XBig12= 6.27D+00 1.09D+00.
      3 vectors produced by pass  3 Test12= 1.54D-13 3.33D-08 XBig12= 2.56D+00 5.37D-01.
      3 vectors produced by pass  4 Test12= 1.54D-13 3.33D-08 XBig12= 4.30D-01 1.89D-01.
      3 vectors produced by pass  5 Test12= 1.54D-13 3.33D-08 XBig12= 1.29D-01 9.59D-02.
      3 vectors produced by pass  6 Test12= 1.54D-13 3.33D-08 XBig12= 9.22D-03 3.42D-02.
      3 vectors produced by pass  7 Test12= 1.54D-13 3.33D-08 XBig12= 1.14D-03 6.45D-03.
      3 vectors produced by pass  8 Test12= 1.54D-13 3.33D-08 XBig12= 1.15D-04 2.50D-03.
      3 vectors produced by pass  9 Test12= 1.54D-13 3.33D-08 XBig12= 4.79D-06 5.36D-04.
      3 vectors produced by pass 10 Test12= 1.54D-13 3.33D-08 XBig12= 8.66D-08 5.48D-05.
      2 vectors produced by pass 11 Test12= 1.54D-13 3.33D-08 XBig12= 1.35D-09 5.82D-06.
      2 vectors produced by pass 12 Test12= 1.54D-13 3.33D-08 XBig12= 2.43D-11 9.33D-07.
      1 vectors produced by pass 13 Test12= 1.54D-13 3.33D-08 XBig12= 6.05D-13 1.68D-07.
      1 vectors produced by pass 14 Test12= 1.54D-13 3.33D-08 XBig12= 1.92D-14 3.77D-08.
 InvSVY:  IOpt=1 It=  1 EMax= 2.35D-15
 Solved reduced A of dimension    39 with     3 vectors.
 End of Minotr F.D. properties file   721 does not exist.
 End of Minotr F.D. properties file   722 does not exist.
 End of Minotr F.D. properties file   788 does not exist.
 Leave Link 1002 at Fri Jun  2 11:36:27 2023, MaxMem=  7381975040 cpu:              99.7 elap:              52.8
 (Enter /software/commercial/gaussian/g16/AVX/g16/l1101.exe)
 Using compressed storage, NAtomX=    10.
 Will process     11 centers per pass.
 R6Disp: Adding Grimme-D3(BJ) dispersion energy 1st derivatives to the gradient.
 Leave Link 1101 at Fri Jun  2 11:36:31 2023, MaxMem=  7381975040 cpu:               0.5 elap:               1.2
 (Enter /software/commercial/gaussian/g16/AVX/g16/l1102.exe)
 Symmetrizing basis deriv contribution to polar:
 IMax=3 JMax=2 DiffMx= 0.00D+00
 Leave Link 1102 at Fri Jun  2 11:36:34 2023, MaxMem=  7381975040 cpu:               0.1 elap:               1.5
 (Enter /software/commercial/gaussian/g16/AVX/g16/l1110.exe)
 Forming Gx(P) for the SCF density, NAtomX=    10.
 Integral derivatives from FoFJK, PRISM(SPDF).
 Do as many integral derivatives as possible in FoFJK.
 G2DrvN: MDV=    7381973894.
 G2DrvN: will do    11 centers at a time, making    1 passes.
 PxScal for G2LodP:  IOpCl= 0 ISclPx=1 IMOff=     1 NMtTot=     4 NTT=   17766 ScalPx= 9.35D+00
 Calling FoFCou, ICntrl=  3107 FMM=F I1Cent=   0 AccDes= 0.00D+00.
 FoFJK:  IHMeth= 1 ICntrl=    3107 DoSepK=F KAlg= 0 I1Cent=           0 FoldK=F
 IRaf=         0 NMat=       1 IRICut=       1 DoRegI=T DoRafI=F ISym2E= 0 IDoP0=0 IntGTp=1.
 FoFCou: FMM=F IPFlag=           0 FMFlag=      100000 FMFlg1=           0
         NFxFlg=           0 DoJE=F BraDBF=F KetDBF=F FulRan=T
         wScrn=  0.000000 ICntrl=      3107 IOpCl=  0 I1Cent=           0 NGrid=           0
         NMat0=    1 NMatS0=      1 NMatT0=    0 NMatD0=    4 NMtDS0=    3 NMtDT0=    0
 Symmetry not used in FoFCou.
 PxScal for G2LodP:  IOpCl= 0 ISclPx=0 IMOff=     1 NMtTot=     4 NTT=   17766 ScalPx= 1.00D+00
 NEqPCM:  Using equilibrium solvation (IEInf=0, Eps=  24.8520, EpsInf=   1.8526)
 G2PCM: DoFxE=T DoFxN=T DoGrad=T DoDP/DQ/DG/TGxP=TFFF NFrqRd=   0 IEInf=0 SqF1=F DoCFld=F IF1Alg=4.
 GePol: Maximum number of non-zero 1st derivatives   =     213
 End of G2Drv F.D. properties file   721 does not exist.
 End of G2Drv F.D. properties file   722 does not exist.
 End of G2Drv F.D. properties file   788 does not exist.
 Leave Link 1110 at Fri Jun  2 11:38:50 2023, MaxMem=  7381975040 cpu:             259.3 elap:             134.9
 (Enter /software/commercial/gaussian/g16/AVX/g16/l1002.exe)
 Minotr:  Closed shell wavefunction.
          IDoAtm=1111111111
 NEqPCM:  Using equilibrium solvation (IEInf=0, Eps=  24.8520, EpsInf=   1.8526)
          Direct CPHF calculation.
          Differentiating once with respect to electric field.
                with respect to dipole field.
          Differentiating once with respect to nuclear coordinates.
          Requested convergence is 1.0D-08 RMS, and 1.0D-07 maximum.
          Secondary convergence is 1.0D-12 RMS, and 1.0D-12 maximum.
          NewPWx=T KeepS1=F KeepF1=F KeepIn=T MapXYZ=F SortEE=F KeepMc=T.
         3079 words used for storage of precomputed grid.
 Keep R1 ints in memory in canonical form, NReq=162179895.
 FoFCou: FMM=F IPFlag=           0 FMFlag=           0 FMFlg1=           0
         NFxFlg=           0 DoJE=F BraDBF=F KetDBF=F FulRan=T
         wScrn=  0.000000 ICntrl=       600 IOpCl=  0 I1Cent=           0 NGrid=           0
         NMat0=    1 NMatS0=  17766 NMatT0=    0 NMatD0=    1 NMtDS0=    0 NMtDT0=    0
 Symmetry not used in FoFCou.
 Two-electron integral symmetry not used.
          MDV=    7381975040 using IRadAn=       1.
          Solving linear equations simultaneously, MaxMat=       0.
          There are    33 degrees of freedom in the 1st order CPHF.  IDoFFX=5 NUNeed=    33.
 Will reuse    3 saved solutions.
     27 vectors produced by pass  0 Test12= 1.40D-14 3.03D-09 XBig12= 2.58D-01 1.31D-01.
 AX will form    27 AO Fock derivatives at one time.
     27 vectors produced by pass  1 Test12= 1.40D-14 3.03D-09 XBig12= 5.45D-02 1.23D-01.
     27 vectors produced by pass  2 Test12= 1.40D-14 3.03D-09 XBig12= 6.22D-04 4.34D-03.
     27 vectors produced by pass  3 Test12= 1.40D-14 3.03D-09 XBig12= 6.74D-06 7.56D-04.
     27 vectors produced by pass  4 Test12= 1.40D-14 3.03D-09 XBig12= 3.69D-08 3.45D-05.
     27 vectors produced by pass  5 Test12= 1.40D-14 3.03D-09 XBig12= 1.12D-10 1.59D-06.
     18 vectors produced by pass  6 Test12= 1.40D-14 3.03D-09 XBig12= 1.97D-13 9.37D-08.
      2 vectors produced by pass  7 Test12= 1.40D-14 3.03D-09 XBig12= 3.25D-16 4.01D-09.
 InvSVY:  IOpt=1 It=  1 EMax= 2.44D-15
 Solved reduced A of dimension   182 with    27 vectors.
 FullF1:  Do perturbations      1 to       3.
 Isotropic polarizability for W=    0.000000       85.44 Bohr**3.
 FullF1:  Do perturbations      1 to       6.
 End of Minotr F.D. properties file   721 does not exist.
 End of Minotr F.D. properties file   722 does not exist.
 End of Minotr F.D. properties file   788 does not exist.
 Leave Link 1002 at Fri Jun  2 11:41:11 2023, MaxMem=  7381975040 cpu:             268.2 elap:             139.2
 (Enter /software/commercial/gaussian/g16/AVX/g16/l601.exe)
 Copying SCF densities to generalized density rwf, IOpCl= 0 IROHF=0.

 **********************************************************************

            Population analysis using the SCF Density.

 **********************************************************************

 Alpha  occ. eigenvalues --  -19.07647 -19.07644 -14.40741 -14.34460 -14.34453
 Alpha  occ. eigenvalues --  -10.29632 -10.19845 -10.19794  -1.10467  -1.04495
 Alpha  occ. eigenvalues --   -0.97050  -0.88563  -0.81438  -0.63479  -0.62378
 Alpha  occ. eigenvalues --   -0.54682  -0.48381  -0.47963  -0.45069  -0.44666
 Alpha  occ. eigenvalues --   -0.41929  -0.40505  -0.32799  -0.29971  -0.29452
 Alpha  occ. eigenvalues --   -0.28167  -0.26974  -0.26803  -0.25106
 Alpha virt. eigenvalues --   -0.02535   0.01353   0.03342   0.03695   0.03912
 Alpha virt. eigenvalues --    0.05070   0.05762   0.06343   0.08166   0.08484
 Alpha virt. eigenvalues --    0.08592   0.10447   0.10551   0.10782   0.14820
 Alpha virt. eigenvalues --    0.15226   0.17980   0.18209   0.19032   0.19257
 Alpha virt. eigenvalues --    0.19835   0.19986   0.20636   0.22849   0.22942
 Alpha virt. eigenvalues --    0.22990   0.24541   0.25255   0.25818   0.26822
 Alpha virt. eigenvalues --    0.27947   0.28298   0.28753   0.29947   0.31541
 Alpha virt. eigenvalues --    0.32048   0.33053   0.35598   0.37629   0.37918
 Alpha virt. eigenvalues --    0.41455   0.46615   0.46907   0.46935   0.51464
 Alpha virt. eigenvalues --    0.54174   0.58425   0.60051   0.60884   0.63091
 Alpha virt. eigenvalues --    0.67658   0.73654   0.74733   0.75737   0.76959
 Alpha virt. eigenvalues --    0.79488   0.82198   0.84662   0.86350   0.86846
 Alpha virt. eigenvalues --    0.86962   0.87419   0.89538   0.89883   0.94313
 Alpha virt. eigenvalues --    1.02954   1.05273   1.06230   1.08147   1.13104
 Alpha virt. eigenvalues --    1.15241   1.16169   1.19077   1.19424   1.20548
 Alpha virt. eigenvalues --    1.22459   1.24381   1.24807   1.28121   1.32643
 Alpha virt. eigenvalues --    1.39775   1.41247   1.42349   1.51103   1.55498
 Alpha virt. eigenvalues --    1.58485   1.69000   1.70861   1.72575   1.73640
 Alpha virt. eigenvalues --    1.75082   1.78556   1.81129   1.90882   1.93363
 Alpha virt. eigenvalues --    1.96707   2.01555   2.05638   2.09353   2.21406
 Alpha virt. eigenvalues --    2.23664   2.24146   2.30480   2.34963   2.44571
 Alpha virt. eigenvalues --    2.52545   2.56083   2.65060   2.65462   2.67456
 Alpha virt. eigenvalues --    2.71194   2.72064   2.74819   2.77715   2.77927
 Alpha virt. eigenvalues --    2.82127   2.85033   2.92223   2.93640   2.94141
 Alpha virt. eigenvalues --    2.96917   3.07390   3.09199   3.24634   3.27292
 Alpha virt. eigenvalues --    3.29699   3.31172   3.38846   3.45538   3.46688
 Alpha virt. eigenvalues --    3.61747   3.62502   3.67294   3.72129   3.83830
 Alpha virt. eigenvalues --    3.90624   3.98392   4.03429   4.07319   4.12866
 Alpha virt. eigenvalues --    4.21983   4.58025   4.66540   4.96298   5.03924
 Alpha virt. eigenvalues --    5.05930   5.13871   5.17926   5.61248   5.69403
 Alpha virt. eigenvalues --    5.88810  23.85561  23.87806  24.09164  35.40086
 Alpha virt. eigenvalues --   35.49472  35.63187  49.94821  50.06768
     Molecular Orbital Coefficients:
                           1         2         3         4         5
                           O         O         O         O         O
     Eigenvalues --   -19.07647 -19.07644 -14.40741 -14.34460 -14.34453
   1 1   C  1S         -0.00000  -0.00000  -0.00001   0.00000  -0.00001
   2        2S          0.00001   0.00000   0.00003   0.00006   0.00006
   3        2PX        -0.00003   0.00002   0.00001   0.00045   0.00008
   4        2PY         0.00001   0.00002   0.00005   0.00026  -0.00006
   5        2PZ         0.00000  -0.00000   0.00000   0.00000  -0.00000
   6        3S         -0.00014   0.00004  -0.00026   0.00028   0.00001
   7        3PX         0.00016  -0.00013  -0.00033  -0.00126  -0.00047
   8        3PY        -0.00005  -0.00004  -0.00008  -0.00117   0.00085
   9        3PZ        -0.00000   0.00000   0.00000  -0.00001   0.00001
  10        4S          0.00337  -0.00060   0.00109   0.00905  -0.00258
  11        4PX         0.00087  -0.00034  -0.00024   0.00605  -0.00219
  12        4PY        -0.00098   0.00066   0.00078  -0.00321   0.00258
  13        4PZ        -0.00002   0.00000   0.00000  -0.00004   0.00003
  14        5S          0.01173  -0.00291  -0.00073  -0.02195   0.00991
  15        5PX        -0.00032   0.00017  -0.00045  -0.00148  -0.00041
  16        5PY        -0.00375   0.00087  -0.00052   0.00506  -0.00234
  17        5PZ        -0.00004  -0.00001  -0.00001   0.00005  -0.00001
  18        6D 0       -0.00004  -0.00001  -0.00012   0.00015   0.00005
  19        6D+1        0.00000  -0.00000  -0.00000  -0.00000  -0.00000
  20        6D-1       -0.00000   0.00000   0.00000   0.00001  -0.00000
  21        6D+2        0.00001  -0.00003  -0.00005  -0.00129   0.00016
  22        6D-2        0.00000  -0.00006  -0.00030  -0.00062  -0.00045
  23 2   C  1S          0.00000  -0.00000  -0.00001  -0.00001  -0.00000
  24        2S         -0.00001   0.00000   0.00003   0.00002   0.00008
  25        2PX         0.00004  -0.00000   0.00001  -0.00014   0.00042
  26        2PY        -0.00000  -0.00002  -0.00006   0.00019  -0.00023
  27        2PZ         0.00000   0.00000  -0.00000   0.00000  -0.00000
  28        3S          0.00014  -0.00003  -0.00026  -0.00013   0.00024
  29        3PX        -0.00020  -0.00003  -0.00032   0.00013  -0.00128
  30        3PY        -0.00001   0.00006   0.00011  -0.00133   0.00068
  31        3PZ        -0.00000  -0.00000  -0.00000  -0.00001   0.00001
  32        4S         -0.00324   0.00114   0.00109  -0.00675   0.00656
  33        4PX        -0.00100   0.00012  -0.00029  -0.00517   0.00424
  34        4PY        -0.00111  -0.00011  -0.00076  -0.00350   0.00121
  35        4PZ         0.00000   0.00000   0.00000  -0.00002  -0.00000
  36        5S         -0.01163   0.00329  -0.00068   0.01954  -0.01409
  37        5PX         0.00011   0.00006  -0.00041   0.00069  -0.00170
  38        5PY        -0.00370   0.00110   0.00057   0.00451  -0.00311
  39        5PZ        -0.00001   0.00003   0.00002   0.00004  -0.00003
  40        6D 0        0.00004  -0.00003  -0.00012  -0.00003   0.00015
  41        6D+1        0.00000  -0.00000   0.00000  -0.00000   0.00001
  42        6D-1        0.00000   0.00000   0.00000  -0.00001   0.00000
  43        6D+2       -0.00002  -0.00001  -0.00000   0.00079  -0.00092
  44        6D-2        0.00003   0.00005   0.00031  -0.00003   0.00089
  45 3   N  1S          0.00000  -0.00000   0.00112   0.53851   0.14376
  46        2S          0.00000   0.00002   0.00097   0.45005   0.12023
  47        2PX         0.00002   0.00006   0.00021  -0.00028  -0.00007
  48        2PY        -0.00001   0.00000  -0.00028  -0.00166  -0.00049
  49        2PZ         0.00000  -0.00000  -0.00000  -0.00001  -0.00000
  50        3S          0.00009  -0.00017   0.00011   0.01548   0.00345
  51        3PX        -0.00012  -0.00020  -0.00052  -0.00096  -0.00023
  52        3PY         0.00005  -0.00000   0.00052  -0.00041   0.00020
  53        3PZ        -0.00000   0.00001   0.00001  -0.00000   0.00000
  54        4S         -0.00303   0.00164   0.00184  -0.01813  -0.00115
  55        4PX        -0.00012   0.00047   0.00084   0.00097   0.00040
  56        4PY         0.00126  -0.00083  -0.00137   0.00398  -0.00009
  57        4PZ         0.00003  -0.00002  -0.00001   0.00004  -0.00000
  58        5S         -0.04126   0.00280  -0.02368   0.01827   0.00135
  59        5PX        -0.00715   0.00172  -0.00106   0.00220   0.00071
  60        5PY         0.00878  -0.00019   0.00702  -0.00464  -0.00016
  61        5PZ         0.00014   0.00002   0.00008  -0.00004  -0.00001
  62        6D 0        0.00002  -0.00001   0.00028  -0.00026  -0.00010
  63        6D+1        0.00000   0.00000   0.00000  -0.00000  -0.00000
  64        6D-1       -0.00000   0.00000  -0.00001   0.00000   0.00000
  65        6D+2       -0.00003  -0.00001   0.00033   0.00032   0.00016
  66        6D-2        0.00003   0.00002   0.00047   0.00007   0.00004
  67 4   N  1S         -0.00000  -0.00000   0.55737  -0.00081  -0.00140
  68        2S          0.00001   0.00002   0.46582  -0.00066  -0.00113
  69        2PX         0.00004   0.00016  -0.00048  -0.00012  -0.00024
  70        2PY         0.00002  -0.00001   0.00002   0.00038  -0.00021
  71        2PZ        -0.00000   0.00000   0.00000   0.00000  -0.00000
  72        3S          0.00001   0.00003   0.01558  -0.00002  -0.00004
  73        3PX        -0.00017  -0.00061  -0.00028   0.00028   0.00055
  74        3PY        -0.00020   0.00008   0.00001  -0.00079   0.00043
  75        3PZ         0.00000  -0.00000   0.00000  -0.00000   0.00000
  76        4S         -0.00042  -0.00161  -0.01555   0.00182   0.00315
  77        4PX         0.00039   0.00083   0.00021  -0.00154  -0.00302
  78        4PY         0.00444  -0.00119  -0.00000   0.00459  -0.00252
  79        4PZ        -0.00002   0.00001  -0.00001   0.00003  -0.00001
  80        5S          0.00292   0.01137   0.04662  -0.00659  -0.01138
  81        5PX        -0.00063  -0.00684  -0.01684   0.00015   0.00059
  82        5PY         0.03099  -0.00796   0.00054  -0.00451   0.00259
  83        5PZ         0.00015  -0.00004   0.00002  -0.00004   0.00002
  84        6D 0        0.00002   0.00006  -0.00027   0.00013   0.00023
  85        6D+1       -0.00001   0.00000  -0.00000   0.00000  -0.00000
  86        6D-1        0.00000  -0.00000   0.00001  -0.00000  -0.00001
  87        6D+2       -0.00005  -0.00022  -0.00014   0.00019   0.00026
  88        6D-2        0.00005   0.00000   0.00001   0.00045  -0.00029
  89 5   N  1S         -0.00000  -0.00000   0.00112  -0.14376   0.53851
  90        2S          0.00001   0.00002   0.00098  -0.12007   0.45010
  91        2PX         0.00001   0.00006   0.00023   0.00005  -0.00017
  92        2PY        -0.00001  -0.00000   0.00026  -0.00041   0.00169
  93        2PZ         0.00000   0.00000   0.00000  -0.00000   0.00001
  94        3S         -0.00016  -0.00010   0.00011  -0.00472   0.01514
  95        3PX         0.00001  -0.00024  -0.00056   0.00025  -0.00093
  96        3PY         0.00004  -0.00001  -0.00049  -0.00040   0.00032
  97        3PZ        -0.00000  -0.00000  -0.00000  -0.00000   0.00001
  98        4S          0.00345  -0.00006   0.00184   0.00805  -0.01628
  99        4PX         0.00043   0.00036   0.00094   0.00001   0.00081
 100        4PY         0.00148   0.00008   0.00131   0.00207  -0.00346
 101        4PZ         0.00003   0.00000   0.00001   0.00002  -0.00003
 102        5S          0.03736  -0.01801  -0.02379  -0.00792   0.01652
 103        5PX         0.00758  -0.00231  -0.00155  -0.00063   0.00254
 104        5PY         0.00725  -0.00404  -0.00695  -0.00213   0.00393
 105        5PZ         0.00005  -0.00006  -0.00007  -0.00002   0.00004
 106        6D 0       -0.00003  -0.00000   0.00029   0.00005  -0.00028
 107        6D+1       -0.00000  -0.00000  -0.00000   0.00000  -0.00000
 108        6D-1        0.00000  -0.00000  -0.00000   0.00000   0.00000
 109        6D+2        0.00002  -0.00003   0.00026  -0.00002   0.00034
 110        6D-2        0.00001  -0.00003  -0.00051   0.00000  -0.00013
 111 6   H  1S         -0.00001   0.00001  -0.00003  -0.00022  -0.00002
 112        2S          0.00010  -0.00025  -0.00060   0.00048  -0.00141
 113        3S         -0.00030   0.00015   0.00025   0.00252  -0.00086
 114        4PX        -0.00001  -0.00003  -0.00014  -0.00036  -0.00031
 115        4PY         0.00000   0.00002   0.00012  -0.00010   0.00027
 116        4PZ         0.00000   0.00000   0.00000  -0.00000   0.00000
 117 7   H  1S          0.00001   0.00000  -0.00003   0.00009  -0.00020
 118        2S         -0.00021  -0.00017  -0.00060  -0.00146  -0.00029
 119        3S          0.00034  -0.00002   0.00025  -0.00200   0.00176
 120        4PX        -0.00000  -0.00004  -0.00014  -0.00011  -0.00047
 121        4PY        -0.00001  -0.00001  -0.00011  -0.00028  -0.00002
 122        4PZ        -0.00000  -0.00000  -0.00000  -0.00000   0.00000
 123 8   C  1S         -0.00001  -0.00004   0.00001  -0.00000  -0.00000
 124        2S          0.00004   0.00016  -0.00004   0.00001   0.00001
 125        2PX         0.00004   0.00021  -0.00026  -0.00003  -0.00005
 126        2PY        -0.00043   0.00011   0.00001   0.00006  -0.00003
 127        2PZ         0.00000  -0.00000  -0.00000   0.00000  -0.00000
 128        3S          0.00009   0.00033   0.00008  -0.00008  -0.00014
 129        3PX        -0.00009  -0.00044   0.00035   0.00008   0.00016
 130        3PY         0.00084  -0.00021  -0.00001  -0.00022   0.00012
 131        3PZ         0.00000  -0.00000   0.00000  -0.00000   0.00000
 132        4S          0.00065   0.00243   0.00214   0.00073   0.00126
 133        4PX        -0.00007   0.00144  -0.00317  -0.00076  -0.00116
 134        4PY        -0.01250   0.00324   0.00011  -0.00187   0.00113
 135        4PZ         0.00019  -0.00005  -0.00002   0.00001  -0.00002
 136        5S         -0.00044  -0.00165  -0.00088  -0.00006  -0.00010
 137        5PX        -0.00011  -0.00043   0.00069  -0.00012  -0.00020
 138        5PY        -0.00002   0.00002  -0.00002  -0.00011   0.00008
 139        5PZ        -0.00006   0.00001  -0.00000   0.00000  -0.00000
 140        6D 0        0.00009   0.00034  -0.00014  -0.00005  -0.00009
 141        6D+1       -0.00001   0.00001  -0.00000   0.00001  -0.00000
 142        6D-1        0.00001   0.00004  -0.00002  -0.00000  -0.00000
 143        6D+2        0.00030   0.00093  -0.00045  -0.00007  -0.00015
 144        6D-2        0.00075  -0.00027   0.00003   0.00019  -0.00010
 145 9   O  1S         -0.27737   0.47645   0.00000   0.00000   0.00000
 146        2S         -0.23627   0.40596   0.00002   0.00001   0.00002
 147        2PX         0.00025  -0.00040  -0.00002  -0.00000  -0.00003
 148        2PY         0.00047  -0.00090  -0.00006  -0.00001  -0.00001
 149        2PZ        -0.00001   0.00002   0.00000   0.00000   0.00000
 150        3S         -0.00748   0.01181  -0.00010  -0.00011  -0.00010
 151        3PX         0.00016  -0.00027   0.00012   0.00002   0.00014
 152        3PY         0.00046  -0.00042   0.00028   0.00007   0.00007
 153        3PZ        -0.00002   0.00001  -0.00001  -0.00001  -0.00000
 154        4S          0.00933  -0.00900  -0.00051   0.00074  -0.00029
 155        4PX        -0.00170   0.00055   0.00043  -0.00003  -0.00006
 156        4PY        -0.00149   0.00147  -0.00030  -0.00024  -0.00001
 157        4PZ         0.00005  -0.00004   0.00001   0.00001   0.00000
 158        5S         -0.00124   0.00473   0.00335   0.00094  -0.00034
 159        5PX         0.00080  -0.00097  -0.00074   0.00015   0.00035
 160        5PY        -0.00031  -0.00031  -0.00054  -0.00037  -0.00014
 161        5PZ         0.00002  -0.00000   0.00002   0.00001  -0.00001
 162        6D 0        0.00008  -0.00011   0.00001   0.00002  -0.00001
 163        6D+1       -0.00000  -0.00000   0.00000   0.00000   0.00000
 164        6D-1        0.00001  -0.00001  -0.00000   0.00000   0.00000
 165        6D+2        0.00024  -0.00004   0.00000   0.00000  -0.00000
 166        6D-2        0.00003   0.00020  -0.00011   0.00001  -0.00003
 167 10  O  1S          0.47645   0.27737   0.00000   0.00000   0.00000
 168        2S          0.40590   0.23637   0.00002   0.00001   0.00002
 169        2PX        -0.00036  -0.00019  -0.00002  -0.00003  -0.00002
 170        2PY         0.00088   0.00056   0.00006   0.00001   0.00002
 171        2PZ        -0.00002  -0.00002  -0.00000  -0.00000  -0.00000
 172        3S          0.01234   0.00658  -0.00010  -0.00003  -0.00015
 173        3PX        -0.00023  -0.00015   0.00010   0.00011   0.00008
 174        3PY         0.00063   0.00015  -0.00029  -0.00003  -0.00010
 175        3PZ        -0.00002  -0.00000   0.00001   0.00000   0.00001
 176        4S         -0.01256  -0.00323  -0.00051  -0.00062   0.00050
 177        4PX         0.00161  -0.00040   0.00045  -0.00005  -0.00004
 178        4PY        -0.00214  -0.00052   0.00027  -0.00011   0.00021
 179        4PZ         0.00009   0.00000  -0.00000   0.00001  -0.00001
 180        5S          0.00338   0.00349   0.00333  -0.00078   0.00064
 181        5PX        -0.00117  -0.00041  -0.00070   0.00023   0.00033
 182        5PY        -0.00004   0.00045   0.00059  -0.00008   0.00037
 183        5PZ        -0.00000  -0.00001  -0.00003   0.00002   0.00000
 184        6D 0       -0.00013  -0.00006   0.00001  -0.00002   0.00002
 185        6D+1        0.00000   0.00001  -0.00000  -0.00000  -0.00000
 186        6D-1       -0.00001  -0.00000   0.00000   0.00000   0.00000
 187        6D+2       -0.00023   0.00006   0.00002   0.00000   0.00000
 188        6D-2       -0.00004  -0.00020   0.00011   0.00003   0.00001
                           6         7         8         9        10
                           O         O         O         O         O
     Eigenvalues --   -10.29632 -10.19845 -10.19794  -1.10467  -1.04495
   1 1   C  1S         -0.00000   0.41415  -0.38119  -0.02626   0.01498
   2        2S          0.00000   0.34090  -0.31355  -0.03999   0.02286
   3        2PX        -0.00000   0.00010  -0.00021   0.02847  -0.01505
   4        2PY         0.00000  -0.00034  -0.00071  -0.00819   0.00464
   5        2PZ        -0.00000  -0.00000  -0.00001  -0.00013   0.00008
   6        3S         -0.00008   0.01471  -0.01347   0.09926  -0.05720
   7        3PX        -0.00001   0.00045   0.00022   0.03978  -0.02032
   8        3PY         0.00003   0.00165   0.00244  -0.01169   0.00683
   9        3PZ         0.00000   0.00001   0.00002  -0.00020   0.00010
  10        4S          0.00148  -0.00756   0.01270   0.03449  -0.02522
  11        4PX         0.00028  -0.00229   0.00367   0.00644  -0.00336
  12        4PY         0.00038   0.00157  -0.00562  -0.00525   0.00011
  13        4PZ        -0.00001   0.00001  -0.00006  -0.00000   0.00003
  14        5S          0.00169  -0.00738   0.03782   0.02639  -0.01431
  15        5PX         0.00065  -0.00161   0.00073   0.01093  -0.00563
  16        5PY        -0.00072   0.00066  -0.00982   0.00050   0.00171
  17        5PZ        -0.00002  -0.00001  -0.00010   0.00021   0.00007
  18        6D 0       -0.00002  -0.00085   0.00183  -0.00829   0.00447
  19        6D+1       -0.00000  -0.00001   0.00001  -0.00007   0.00004
  20        6D-1        0.00000   0.00001  -0.00004   0.00007  -0.00005
  21        6D+2        0.00000   0.00094   0.00148   0.00629  -0.00265
  22        6D-2       -0.00002  -0.00058   0.00086  -0.00239   0.00148
  23 2   C  1S         -0.00000   0.38111   0.41422  -0.02626   0.01499
  24        2S          0.00000   0.31372   0.34073  -0.04001   0.02287
  25        2PX        -0.00000   0.00011   0.00018   0.02898  -0.01534
  26        2PY        -0.00000   0.00039  -0.00069   0.00623  -0.00360
  27        2PZ         0.00000   0.00000  -0.00001  -0.00000  -0.00000
  28        3S         -0.00008   0.01354   0.01464   0.09930  -0.05723
  29        3PX        -0.00001   0.00034  -0.00002   0.04051  -0.02075
  30        3PY        -0.00003  -0.00187   0.00230   0.00894  -0.00542
  31        3PZ        -0.00000  -0.00002   0.00002   0.00001   0.00000
  32        4S          0.00148  -0.00647  -0.01328   0.03444  -0.02519
  33        4PX         0.00025  -0.00204  -0.00423   0.00678  -0.00335
  34        4PY        -0.00041  -0.00097  -0.00546   0.00482   0.00016
  35        4PZ         0.00000   0.00001  -0.00003  -0.00004  -0.00001
  36        5S          0.00173  -0.00414  -0.03830   0.02572  -0.01437
  37        5PX         0.00070  -0.00153  -0.00153   0.01086  -0.00573
  38        5PY         0.00069   0.00028  -0.00976  -0.00143  -0.00133
  39        5PZ         0.00002   0.00003  -0.00007  -0.00028  -0.00005
  40        6D 0       -0.00002  -0.00070  -0.00190  -0.00828   0.00448
  41        6D+1        0.00000   0.00000   0.00001  -0.00003   0.00001
  42        6D-1       -0.00000   0.00000   0.00004   0.00006  -0.00004
  43        6D+2        0.00000   0.00112  -0.00126   0.00656  -0.00283
  44        6D-2        0.00002   0.00036   0.00109   0.00151  -0.00111
  45 3   N  1S          0.00000  -0.00005   0.00005  -0.05174   0.02269
  46        2S          0.00001  -0.00001   0.00004  -0.08091   0.03550
  47        2PX         0.00003  -0.00038   0.00024   0.00058   0.00618
  48        2PY         0.00000  -0.00016   0.00019  -0.04805   0.02023
  49        2PZ         0.00000  -0.00000   0.00000  -0.00038   0.00016
  50        3S         -0.00004   0.00052  -0.00045   0.22079  -0.09717
  51        3PX        -0.00014   0.00116  -0.00036   0.00292   0.00981
  52        3PY        -0.00000   0.00057  -0.00053  -0.07547   0.03147
  53        3PZ        -0.00000   0.00000  -0.00000  -0.00062   0.00023
  54        4S         -0.00031  -0.00446  -0.00083   0.10929  -0.05589
  55        4PX         0.00048   0.00118  -0.00075  -0.00526   0.00186
  56        4PY         0.00003   0.00114   0.00134  -0.01361   0.01000
  57        4PZ         0.00000   0.00001   0.00001  -0.00006   0.00008
  58        5S         -0.01163   0.01066  -0.05715   0.10240   0.03168
  59        5PX        -0.00133  -0.00126  -0.00734   0.01569  -0.00314
  60        5PY         0.00333  -0.00273   0.01374  -0.03256  -0.00711
  61        5PZ         0.00005   0.00002   0.00016  -0.00065  -0.00014
  62        6D 0       -0.00002   0.00060  -0.00042  -0.00973   0.00385
  63        6D+1       -0.00000   0.00000   0.00000  -0.00005  -0.00000
  64        6D-1        0.00000  -0.00000   0.00000   0.00019  -0.00008
  65        6D+2       -0.00001  -0.00061   0.00017  -0.00611   0.00270
  66        6D-2       -0.00002  -0.00049   0.00034  -0.00408  -0.00030
  67 4   N  1S         -0.00002   0.00000   0.00000  -0.07856   0.01720
  68        2S         -0.00007   0.00002   0.00000  -0.12345   0.02697
  69        2PX         0.00008   0.00002   0.00000  -0.03739   0.03690
  70        2PY        -0.00000  -0.00000   0.00003   0.00124  -0.00124
  71        2PZ         0.00000  -0.00000   0.00000   0.00016   0.00000
  72        3S          0.00039  -0.00029  -0.00001   0.34280  -0.07575
  73        3PX         0.00023   0.00011  -0.00000  -0.05780   0.06250
  74        3PY        -0.00001   0.00000  -0.00014   0.00192  -0.00211
  75        3PZ        -0.00000   0.00000  -0.00001   0.00027   0.00001
  76        4S          0.00020   0.00193   0.00008   0.22039  -0.03963
  77        4PX         0.00003  -0.00517  -0.00017  -0.02968   0.02003
  78        4PY         0.00000   0.00012   0.00137   0.00098  -0.00070
  79        4PZ         0.00000   0.00000   0.00003   0.00010   0.00001
  80        5S          0.02366  -0.01371  -0.00067  -0.28282  -0.02248
  81        5PX        -0.00146  -0.01128   0.00082   0.10961  -0.00469
  82        5PY         0.00001  -0.00118   0.03635  -0.00323   0.00017
  83        5PZ         0.00002  -0.00003   0.00021  -0.00013   0.00000
  84        6D 0        0.00010  -0.00010  -0.00000  -0.01429   0.00299
  85        6D+1       -0.00000  -0.00000   0.00000  -0.00002   0.00005
  86        6D-1        0.00000   0.00000   0.00000   0.00020  -0.00007
  87        6D+2       -0.00011   0.00023   0.00001   0.00179   0.00296
  88        6D-2        0.00001  -0.00002   0.00008  -0.00011  -0.00021
  89 5   N  1S          0.00000  -0.00005  -0.00005  -0.05179   0.02271
  90        2S          0.00001  -0.00000  -0.00005  -0.08099   0.03554
  91        2PX         0.00003  -0.00035  -0.00026   0.00387   0.00478
  92        2PY        -0.00001   0.00016   0.00022   0.04793  -0.02063
  93        2PZ        -0.00000   0.00000   0.00000   0.00040  -0.00017
  94        3S         -0.00004   0.00048   0.00049   0.22098  -0.09727
  95        3PX        -0.00014   0.00109   0.00041   0.00809   0.00764
  96        3PY         0.00001  -0.00060  -0.00061   0.07514  -0.03210
  97        3PZ         0.00000  -0.00001  -0.00001   0.00064  -0.00023
  98        4S         -0.00031  -0.00452   0.00046   0.10933  -0.05597
  99        4PX         0.00047   0.00103   0.00093  -0.00435   0.00116
 100        4PY        -0.00006  -0.00133   0.00118   0.01393  -0.01013
 101        4PZ        -0.00000  -0.00001   0.00001   0.00009  -0.00010
 102        5S         -0.01174   0.00573   0.05796   0.10382   0.03173
 103        5PX        -0.00157  -0.00178   0.00815   0.01809  -0.00267
 104        5PY        -0.00325   0.00167   0.01342   0.03171   0.00732
 105        5PZ        -0.00005  -0.00001   0.00010   0.00054   0.00015
 106        6D 0       -0.00002   0.00057   0.00047  -0.00974   0.00386
 107        6D+1        0.00000   0.00001   0.00000   0.00002   0.00002
 108        6D-1        0.00000  -0.00000  -0.00001   0.00018  -0.00007
 109        6D+2       -0.00001  -0.00052  -0.00016  -0.00549   0.00271
 110        6D-2        0.00003   0.00053   0.00041   0.00488  -0.00007
 111 6   H  1S          0.00002   0.00009  -0.00018   0.00404  -0.00291
 112        2S         -0.00025  -0.00370   0.00357   0.00409  -0.00130
 113        3S         -0.00024   0.00137  -0.00096  -0.00080   0.00007
 114        4PX        -0.00007  -0.00143   0.00136   0.00068  -0.00016
 115        4PY         0.00001   0.00138  -0.00085   0.00059  -0.00027
 116        4PZ         0.00000   0.00002  -0.00001   0.00000  -0.00000
 117 7   H  1S          0.00002   0.00007   0.00018   0.00404  -0.00291
 118        2S         -0.00025  -0.00340  -0.00386   0.00410  -0.00130
 119        3S         -0.00024   0.00129   0.00106  -0.00078   0.00007
 120        4PX        -0.00007  -0.00139  -0.00153   0.00064  -0.00014
 121        4PY        -0.00000  -0.00121  -0.00086  -0.00063   0.00028
 122        4PZ        -0.00000  -0.00001  -0.00001  -0.00000   0.00000
 123 8   C  1S          0.56308   0.00000   0.00000  -0.03337  -0.07391
 124        2S          0.46333   0.00001   0.00000  -0.05102  -0.11268
 125        2PX        -0.00080   0.00001   0.00000  -0.00274   0.04326
 126        2PY         0.00003  -0.00000   0.00003   0.00012  -0.00141
 127        2PZ        -0.00000  -0.00000  -0.00000   0.00002   0.00019
 128        3S          0.01804  -0.00030  -0.00001   0.13587   0.30445
 129        3PX         0.00209  -0.00014  -0.00001  -0.01260   0.05450
 130        3PY        -0.00007   0.00001  -0.00015   0.00046  -0.00178
 131        3PZ         0.00001   0.00000   0.00002  -0.00001   0.00024
 132        4S         -0.01143   0.00485   0.00021   0.04861   0.07326
 133        4PX         0.00130  -0.00339  -0.00017  -0.00001  -0.00373
 134        4PY        -0.00005   0.00016  -0.00081   0.00005   0.00015
 135        4PZ         0.00000  -0.00003  -0.00007   0.00004  -0.00001
 136        5S         -0.00649   0.00785   0.00032   0.01050   0.02375
 137        5PX         0.00184  -0.00235  -0.00016  -0.00696   0.00318
 138        5PY        -0.00006   0.00016  -0.00189   0.00022  -0.00011
 139        5PZ         0.00000  -0.00001  -0.00002   0.00005   0.00001
 140        6D 0       -0.00161  -0.00016  -0.00001  -0.00962  -0.01889
 141        6D+1       -0.00000   0.00000   0.00000   0.00003  -0.00002
 142        6D-1       -0.00013  -0.00001   0.00000  -0.00045  -0.00147
 143        6D+2       -0.00213   0.00001   0.00000  -0.00110  -0.02504
 144        6D-2        0.00015  -0.00000   0.00001   0.00007   0.00172
 145 9   O  1S         -0.00007  -0.00000   0.00000  -0.02186  -0.06724
 146        2S         -0.00003  -0.00000   0.00001  -0.03484  -0.10728
 147        2PX        -0.00026  -0.00000   0.00000  -0.00911  -0.01905
 148        2PY        -0.00046  -0.00002   0.00000  -0.01541  -0.04695
 149        2PZ         0.00001   0.00000   0.00000   0.00038   0.00115
 150        3S          0.00026   0.00004  -0.00007   0.09927   0.30700
 151        3PX         0.00086   0.00002  -0.00001  -0.01330  -0.02630
 152        3PY         0.00150   0.00008  -0.00001  -0.02369  -0.06834
 153        3PZ        -0.00004  -0.00000  -0.00000   0.00058   0.00168
 154        4S         -0.00375  -0.00061   0.00062   0.06516   0.20475
 155        4PX         0.00074   0.00027  -0.00003  -0.00501  -0.00689
 156        4PY         0.00147  -0.00010  -0.00014  -0.00558  -0.02404
 157        4PZ        -0.00004   0.00000   0.00002   0.00015   0.00058
 158        5S          0.00523   0.00395  -0.00372  -0.03265  -0.01490
 159        5PX        -0.00172  -0.00149   0.00148   0.01042   0.00001
 160        5PY        -0.00160  -0.00084   0.00086   0.00436   0.00229
 161        5PZ         0.00005   0.00003  -0.00001  -0.00022  -0.00002
 162        6D 0        0.00056  -0.00001  -0.00000  -0.00177  -0.00441
 163        6D+1        0.00002   0.00000  -0.00000  -0.00007  -0.00015
 164        6D-1        0.00003  -0.00000  -0.00000  -0.00012  -0.00037
 165        6D+2        0.00045  -0.00000  -0.00000  -0.00204  -0.00750
 166        6D-2       -0.00078  -0.00003   0.00001   0.00280   0.00579
 167 10  O  1S         -0.00007  -0.00000  -0.00000  -0.02184  -0.06718
 168        2S         -0.00003  -0.00000  -0.00001  -0.03481  -0.10719
 169        2PX        -0.00023  -0.00000  -0.00000  -0.00803  -0.01578
 170        2PY         0.00048   0.00002   0.00000   0.01598   0.04809
 171        2PZ        -0.00001   0.00000   0.00000  -0.00045  -0.00131
 172        3S          0.00026   0.00003   0.00007   0.09917   0.30673
 173        3PX         0.00075   0.00001   0.00001  -0.01164  -0.02154
 174        3PY        -0.00155  -0.00008  -0.00002   0.02451   0.06991
 175        3PZ         0.00004  -0.00000  -0.00000  -0.00068  -0.00190
 176        4S         -0.00375  -0.00055  -0.00067   0.06510   0.20457
 177        4PX         0.00064   0.00027   0.00005  -0.00462  -0.00521
 178        4PY        -0.00152   0.00009  -0.00013   0.00591   0.02444
 179        4PZ         0.00004   0.00001   0.00002  -0.00020  -0.00064
 180        5S          0.00521   0.00361   0.00400  -0.03240  -0.01485
 181        5PX        -0.00160  -0.00130  -0.00152   0.01002  -0.00017
 182        5PY         0.00171   0.00085   0.00103  -0.00500  -0.00227
 183        5PZ        -0.00006  -0.00003  -0.00005   0.00031   0.00001
 184        6D 0        0.00056  -0.00001   0.00000  -0.00176  -0.00440
 185        6D+1       -0.00002  -0.00000   0.00000   0.00007   0.00012
 186        6D-1        0.00004  -0.00000   0.00000  -0.00015  -0.00043
 187        6D+2        0.00055   0.00000   0.00001  -0.00240  -0.00822
 188        6D-2        0.00071   0.00003   0.00001  -0.00249  -0.00471
                          11        12        13        14        15
                           O         O         O         O         O
     Eigenvalues --    -0.97050  -0.88563  -0.81438  -0.63479  -0.62378
   1 1   C  1S          0.00240  -0.03417   0.06488  -0.04769  -0.05243
   2        2S          0.00366  -0.05245   0.10011  -0.07453  -0.08178
   3        2PX        -0.00333   0.04485  -0.02309  -0.07025   0.00951
   4        2PY        -0.00156   0.02484   0.02098  -0.03679   0.05850
   5        2PZ        -0.00000   0.00011   0.00024  -0.00010   0.00048
   6        3S         -0.00877   0.13677  -0.26370   0.20177   0.22258
   7        3PX        -0.00591   0.06410  -0.03105  -0.09643   0.01403
   8        3PY        -0.00230   0.03681   0.03081  -0.05406   0.07984
   9        3PZ         0.00001   0.00017   0.00036  -0.00017   0.00065
  10        4S         -0.02007   0.04242  -0.14138   0.13528   0.18295
  11        4PX        -0.00473  -0.00447  -0.01143  -0.03234   0.01711
  12        4PY         0.00593   0.00661   0.00897  -0.02039   0.02299
  13        4PZ         0.00009   0.00005   0.00008  -0.00007   0.00018
  14        5S         -0.08865   0.17900  -0.02672  -0.01244   0.11379
  15        5PX         0.00074   0.01297  -0.00747  -0.00841   0.00348
  16        5PY         0.02645  -0.03967  -0.00033   0.00950  -0.02363
  17        5PZ         0.00027  -0.00035  -0.00006   0.00012  -0.00029
  18        6D 0        0.00068  -0.00656   0.01086  -0.00223  -0.00564
  19        6D+1        0.00000  -0.00002   0.00005   0.00004  -0.00001
  20        6D-1        0.00001  -0.00006  -0.00019   0.00016   0.00006
  21        6D+2       -0.00164   0.01653   0.00307  -0.01417   0.00317
  22        6D-2       -0.00050   0.00586   0.00012   0.00111   0.00334
  23 2   C  1S         -0.00240   0.03412   0.06492  -0.04758   0.05249
  24        2S         -0.00366   0.05238   0.10017  -0.07436   0.08187
  25        2PX         0.00322  -0.04302  -0.02453  -0.06757  -0.00543
  26        2PY        -0.00178   0.02784  -0.01932   0.04160   0.05900
  27        2PZ        -0.00002   0.00032  -0.00012   0.00053   0.00052
  28        3S          0.00878  -0.13658  -0.26385   0.20132  -0.22282
  29        3PX         0.00574  -0.06140  -0.03314  -0.09251  -0.00846
  30        3PY        -0.00269   0.04109  -0.02858   0.06065   0.08059
  31        3PZ        -0.00001   0.00048  -0.00018   0.00078   0.00069
  32        4S          0.02008  -0.04231  -0.14143   0.13494  -0.18310
  33        4PX         0.00511   0.00492  -0.01202  -0.03090  -0.01545
  34        4PY         0.00558   0.00628  -0.00816   0.02259   0.02410
  35        4PZ        -0.00002   0.00002  -0.00000   0.00029   0.00030
  36        5S          0.08864  -0.17895  -0.02667  -0.01257  -0.11377
  37        5PX         0.00106  -0.01564  -0.00744  -0.00904  -0.00507
  38        5PY         0.02644  -0.03870   0.00087  -0.00893  -0.02333
  39        5PZ         0.00014  -0.00035   0.00010  -0.00008  -0.00007
  40        6D 0       -0.00068   0.00655   0.01087  -0.00222   0.00564
  41        6D+1       -0.00001   0.00012   0.00003   0.00005   0.00005
  42        6D-1       -0.00001   0.00002  -0.00019   0.00016  -0.00007
  43        6D+2        0.00155  -0.01558   0.00301  -0.01421  -0.00266
  44        6D-2       -0.00072   0.00805  -0.00053   0.00084   0.00374
  45 3   N  1S          0.00828  -0.07815   0.01434   0.02984   0.00995
  46        2S          0.01303  -0.12312   0.02253   0.04752   0.01593
  47        2PX        -0.00197  -0.01788   0.07292   0.00848  -0.11153
  48        2PY         0.00464  -0.03792  -0.01300   0.02087   0.04513
  49        2PZ         0.00007  -0.00024  -0.00023   0.00028   0.00056
  50        3S         -0.03680   0.34587  -0.06152  -0.13861  -0.05030
  51        3PX        -0.00321  -0.02394   0.10932   0.01151  -0.16521
  52        3PY         0.00742  -0.06110  -0.01926   0.03242   0.06858
  53        3PZ         0.00014  -0.00041  -0.00036   0.00044   0.00085
  54        4S         -0.00460   0.24309  -0.05483  -0.11030  -0.02086
  55        4PX         0.00127  -0.01676   0.03442   0.00259  -0.06095
  56        4PY        -0.00620  -0.02399   0.00030   0.01283   0.02180
  57        4PZ        -0.00016  -0.00009  -0.00004   0.00019   0.00014
  58        5S          0.20651  -0.07460   0.08459   0.02844  -0.31865
  59        5PX         0.03461   0.00066  -0.01067  -0.00179  -0.03260
  60        5PY        -0.04474   0.02251  -0.02142  -0.00956   0.06374
  61        5PZ        -0.00066   0.00009  -0.00004  -0.00010   0.00093
  62        6D 0        0.00102  -0.00753   0.00099   0.00177   0.00114
  63        6D+1        0.00002  -0.00004  -0.00010  -0.00001   0.00008
  64        6D-1       -0.00002   0.00008   0.00008  -0.00011  -0.00013
  65        6D+2       -0.00019   0.00303  -0.00851   0.00651   0.01168
  66        6D-2        0.00086  -0.00210  -0.01617  -0.00123   0.01502
  67 4   N  1S          0.00001   0.00000  -0.07072  -0.02503   0.00004
  68        2S          0.00001   0.00001  -0.11223  -0.03997   0.00006
  69        2PX        -0.00066   0.00339   0.03321   0.12372  -0.00511
  70        2PY        -0.01883   0.09923  -0.00115  -0.00435  -0.14422
  71        2PZ         0.00013   0.00089   0.00008   0.00021  -0.00135
  72        3S         -0.00002  -0.00002   0.32576   0.11567  -0.00017
  73        3PX        -0.00095   0.00516   0.05126   0.18661  -0.00757
  74        3PY        -0.02723   0.15128  -0.00178  -0.00657  -0.21366
  75        3PZ         0.00021   0.00137   0.00013   0.00033  -0.00207
  76        4S         -0.00003   0.00001   0.27239   0.12830  -0.00020
  77        4PX        -0.00124   0.00170   0.02621   0.12799  -0.00525
  78        4PY        -0.03529   0.05032  -0.00091  -0.00450  -0.14818
  79        4PZ         0.00022   0.00042   0.00012   0.00024  -0.00112
  80        5S          0.00041  -0.00008  -0.14681  -0.04344  -0.00041
  81        5PX        -0.00548  -0.00005  -0.00468   0.00184   0.00811
  82        5PY        -0.15286  -0.00141   0.00006   0.00015   0.22827
  83        5PZ        -0.00081   0.00020  -0.00015  -0.00005   0.00108
  84        6D 0        0.00000  -0.00000  -0.00364   0.00163  -0.00000
  85        6D+1        0.00011  -0.00016   0.00006   0.00007   0.00006
  86        6D-1       -0.00003   0.00007   0.00013  -0.00005  -0.00005
  87        6D+2       -0.00006  -0.00155  -0.00604   0.00670   0.00076
  88        6D-2       -0.00087  -0.02256   0.00041  -0.00046   0.01123
  89 5   N  1S         -0.00828   0.07811   0.01437   0.02982  -0.00999
  90        2S         -0.01303   0.12304   0.02259   0.04750  -0.01598
  91        2PX         0.00228   0.01521   0.07373   0.00724   0.11437
  92        2PY         0.00449  -0.03903   0.00800  -0.02136   0.03749
  93        2PZ         0.00008  -0.00034  -0.00005  -0.00007   0.00006
  94        3S          0.03680  -0.34567  -0.06168  -0.13853   0.05047
  95        3PX         0.00371   0.01965   0.11051   0.00957   0.16953
  96        3PY         0.00719  -0.06254   0.01175  -0.03306   0.05726
  97        3PZ         0.00014  -0.00052  -0.00008  -0.00010   0.00010
  98        4S          0.00458  -0.24293  -0.05499  -0.11022   0.02092
  99        4PX        -0.00168   0.01508   0.03435   0.00182   0.06228
 100        4PY        -0.00611  -0.02506  -0.00266  -0.01295   0.01763
 101        4PZ        -0.00009  -0.00019  -0.00010  -0.00006  -0.00005
 102        5S         -0.20708   0.07459   0.08439   0.02899   0.31925
 103        5PX        -0.03761   0.00093  -0.00924  -0.00106   0.03690
 104        5PY        -0.04239   0.02250   0.02205   0.00975   0.06149
 105        5PZ        -0.00035   0.00018   0.00013   0.00013   0.00049
 106        6D 0       -0.00102   0.00752   0.00099   0.00177  -0.00114
 107        6D+1        0.00002   0.00003   0.00016   0.00001   0.00013
 108        6D-1        0.00001  -0.00007   0.00001  -0.00005   0.00005
 109        6D+2        0.00031  -0.00330  -0.00623   0.00661  -0.00954
 110        6D-2        0.00083  -0.00168   0.01719   0.00036   0.01647
 111 6   H  1S         -0.00076   0.01493  -0.03169   0.05995   0.06747
 112        2S         -0.00167   0.01508  -0.03392   0.07707   0.08480
 113        3S          0.00135  -0.00782  -0.00177   0.00462   0.01108
 114        4PX        -0.00034   0.00435  -0.00367   0.00588   0.00915
 115        4PY        -0.00004  -0.00007   0.00414  -0.01043  -0.00658
 116        4PZ        -0.00000  -0.00001   0.00005  -0.00011  -0.00009
 117 7   H  1S          0.00076  -0.01492  -0.03171   0.05980  -0.06756
 118        2S          0.00166  -0.01507  -0.03393   0.07687  -0.08491
 119        3S         -0.00135   0.00783  -0.00178   0.00459  -0.01110
 120        4PX         0.00033  -0.00434  -0.00394   0.00655  -0.00958
 121        4PY        -0.00007   0.00022  -0.00389   0.00999  -0.00596
 122        4PZ         0.00000   0.00001  -0.00003   0.00008  -0.00004
 123 8   C  1S         -0.00003   0.00000  -0.00909  -0.03370   0.00004
 124        2S         -0.00005   0.00001  -0.01455  -0.05346   0.00006
 125        2PX        -0.00477  -0.00048  -0.05906  -0.09138  -0.00002
 126        2PY        -0.14049  -0.01443   0.00200   0.00312  -0.00410
 127        2PZ         0.00362   0.00060  -0.00020  -0.00033  -0.00074
 128        3S          0.00013  -0.00002   0.03993   0.15646  -0.00018
 129        3PX        -0.00600  -0.00057  -0.08941  -0.13674  -0.00006
 130        3PY        -0.17660  -0.01726   0.00304   0.00467  -0.00705
 131        3PZ         0.00444   0.00078  -0.00031  -0.00050  -0.00100
 132        4S          0.00006   0.00001   0.02778   0.08771  -0.00010
 133        4PX         0.00094  -0.00048  -0.00655  -0.02225   0.00128
 134        4PY         0.02833  -0.01389   0.00022   0.00077   0.03584
 135        4PZ        -0.00014   0.00049  -0.00003  -0.00004  -0.00171
 136        5S          0.00006  -0.00000   0.04594   0.02849  -0.00009
 137        5PX        -0.00028  -0.00004  -0.01848  -0.01540  -0.00049
 138        5PY        -0.00807  -0.00120   0.00064   0.00051  -0.01521
 139        5PZ         0.00049   0.00014  -0.00007  -0.00002  -0.00042
 140        6D 0       -0.00000   0.00000  -0.00258  -0.00531   0.00001
 141        6D+1        0.00056   0.00008   0.00008   0.00007  -0.00010
 142        6D-1       -0.00012  -0.00003   0.00033   0.00009   0.00004
 143        6D+2       -0.00152  -0.00056   0.01630   0.01274   0.00075
 144        6D-2       -0.02205  -0.00814  -0.00113  -0.00088   0.01115
 145 9   O  1S          0.08078   0.01085   0.01707   0.02081  -0.00729
 146        2S          0.12925   0.01741   0.02741   0.03364  -0.01177
 147        2PX         0.02658   0.00102  -0.00796  -0.02908   0.00834
 148        2PY         0.04294   0.00553   0.00861  -0.00307  -0.00025
 149        2PZ        -0.00103  -0.00008  -0.00023  -0.00001  -0.00031
 150        3S         -0.37004  -0.05075  -0.07980  -0.09974   0.03563
 151        3PX         0.04032   0.00188  -0.01234  -0.04208   0.01186
 152        3PY         0.06337   0.00775   0.01190  -0.00356  -0.00011
 153        3PZ        -0.00150  -0.00010  -0.00032  -0.00004  -0.00047
 154        4S         -0.28603  -0.03433  -0.06439  -0.09800   0.02194
 155        4PX         0.02046  -0.00079  -0.00783  -0.02656   0.01023
 156        4PY         0.02456   0.00136   0.00628  -0.00047   0.00327
 157        4PZ        -0.00066   0.00002  -0.00019  -0.00008  -0.00039
 158        5S          0.01892   0.01762  -0.00263  -0.02259  -0.05476
 159        5PX        -0.00781  -0.00564  -0.00133   0.00409   0.02004
 160        5PY         0.00011  -0.00454   0.00069   0.00289   0.01547
 161        5PZ        -0.00009   0.00007   0.00002  -0.00007  -0.00028
 162        6D 0        0.00541   0.00036   0.00028  -0.00061   0.00047
 163        6D+1        0.00026   0.00002  -0.00002  -0.00008   0.00004
 164        6D-1        0.00033   0.00001   0.00009   0.00007   0.00007
 165        6D+2        0.00451   0.00057   0.00301   0.00353  -0.00042
 166        6D-2       -0.01032  -0.00117   0.00122   0.00391  -0.00024
 167 10  O  1S         -0.08085  -0.01086   0.01705   0.02080   0.00723
 168        2S         -0.12936  -0.01742   0.02737   0.03362   0.01168
 169        2PX        -0.02360  -0.00065  -0.00852  -0.02879  -0.00824
 170        2PY         0.04469   0.00559  -0.00804   0.00504   0.00031
 171        2PZ        -0.00126  -0.00009   0.00018  -0.00020  -0.00036
 172        3S          0.37035   0.05078  -0.07968  -0.09969  -0.03537
 173        3PX        -0.03591  -0.00135  -0.01312  -0.04173  -0.01170
 174        3PY         0.06603   0.00786  -0.01102   0.00640   0.00070
 175        3PZ        -0.00184  -0.00013   0.00024  -0.00026  -0.00055
 176        4S          0.28622   0.03434  -0.06428  -0.09794  -0.02167
 177        4PX        -0.01872   0.00088  -0.00824  -0.02646  -0.00991
 178        4PY         0.02593   0.00130  -0.00573   0.00227   0.00396
 179        4PZ        -0.00085   0.00002   0.00014  -0.00013  -0.00045
 180        5S         -0.01882  -0.01761  -0.00268  -0.02249   0.05465
 181        5PX         0.00776   0.00532  -0.00135   0.00386  -0.01889
 182        5PY        -0.00041  -0.00491  -0.00061  -0.00314   0.01678
 183        5PZ         0.00004   0.00010  -0.00002   0.00007  -0.00052
 184        6D 0       -0.00541  -0.00036   0.00028  -0.00061  -0.00047
 185        6D+1        0.00027   0.00002   0.00005   0.00012   0.00005
 186        6D-1       -0.00044  -0.00003   0.00009   0.00004  -0.00007
 187        6D+2       -0.00588  -0.00072   0.00282   0.00297   0.00037
 188        6D-2       -0.00962  -0.00108  -0.00162  -0.00435  -0.00028
                          16        17        18        19        20
                           O         O         O         O         O
     Eigenvalues --    -0.54682  -0.48381  -0.47963  -0.45069  -0.44666
   1 1   C  1S          0.01027  -0.00055  -0.00016   0.02200   0.00529
   2        2S          0.01641  -0.00106  -0.00024   0.03509   0.00849
   3        2PX         0.04722   0.08323  -0.00266   0.11890  -0.06988
   4        2PY         0.11659  -0.07652   0.00161  -0.03813   0.06524
   5        2PZ         0.00098   0.00080   0.06142  -0.00019   0.00106
   6        3S         -0.04243   0.00809   0.00049  -0.09189  -0.02913
   7        3PX         0.06694   0.11668  -0.00368   0.16172  -0.09815
   8        3PY         0.16302  -0.10536   0.00213  -0.05131   0.08987
   9        3PZ         0.00141   0.00139   0.09532  -0.00016   0.00154
  10        4S         -0.04781  -0.01173   0.00096  -0.13922  -0.01408
  11        4PX         0.01281   0.06930  -0.00201   0.07890  -0.06288
  12        4PY         0.07038  -0.05827   0.00126  -0.02297   0.04967
  13        4PZ         0.00051   0.00087   0.05734   0.00007   0.00073
  14        5S         -0.00965   0.01228  -0.00378  -0.00182  -0.00210
  15        5PX        -0.00495   0.01094  -0.00084   0.00080  -0.00553
  16        5PY         0.00192  -0.00592   0.00087  -0.00991   0.00521
  17        5PZ        -0.00038   0.00015   0.00230  -0.00006  -0.00017
  18        6D 0        0.00273  -0.00268  -0.00009   0.00080   0.00125
  19        6D+1        0.00012   0.00039   0.01530   0.00035   0.00006
  20        6D-1       -0.00017  -0.00010  -0.00553  -0.00019  -0.00006
  21        6D+2        0.01017  -0.00126  -0.00004   0.00727   0.00427
  22        6D-2        0.01283  -0.00449  -0.00019   0.02641  -0.00039
  23 2   C  1S          0.01029  -0.00053   0.00023  -0.02200   0.00540
  24        2S          0.01644  -0.00102   0.00037  -0.03508   0.00867
  25        2PX         0.03913   0.08832  -0.00136  -0.12164  -0.07347
  26        2PY        -0.11952   0.07068  -0.00195  -0.03019  -0.06018
  27        2PZ        -0.00103   0.00212   0.06140   0.00046  -0.00023
  28        3S         -0.04251   0.00798  -0.00118   0.09184  -0.02960
  29        3PX         0.05563   0.12367  -0.00190  -0.16542  -0.10309
  30        3PY        -0.16717   0.09716  -0.00279  -0.04052  -0.08277
  31        3PZ        -0.00146   0.00321   0.09529   0.00074  -0.00030
  32        4S         -0.04782  -0.01189  -0.00031   0.13927  -0.01464
  33        4PX         0.00797   0.07313  -0.00104  -0.08063  -0.06557
  34        4PY        -0.07104   0.05338  -0.00122  -0.01771  -0.04514
  35        4PZ        -0.00042   0.00188   0.05733   0.00049   0.00007
  36        5S         -0.00878   0.01208   0.00310   0.00184  -0.00122
  37        5PX        -0.00505   0.01134   0.00034  -0.00149  -0.00580
  38        5PY        -0.00132   0.00509   0.00081  -0.00986  -0.00454
  39        5PZ         0.00043  -0.00009   0.00233  -0.00002   0.00023
  40        6D 0        0.00273  -0.00267   0.00008  -0.00080   0.00126
  41        6D+1       -0.00010   0.00046   0.01565   0.00038   0.00003
  42        6D-1       -0.00008   0.00016   0.00447   0.00002  -0.00002
  43        6D+2        0.00833  -0.00062   0.00014  -0.00361   0.00429
  44        6D-2       -0.01408   0.00460  -0.00037   0.02716  -0.00035
  45 3   N  1S         -0.03878   0.01044  -0.00006  -0.01756  -0.00484
  46        2S         -0.06200   0.01670  -0.00009  -0.02815  -0.00779
  47        2PX        -0.05613  -0.05370   0.00198  -0.08695   0.04605
  48        2PY         0.08117  -0.02413  -0.00030   0.01369  -0.01031
  49        2PZ         0.00101   0.00293   0.10498   0.00108   0.00035
  50        3S          0.17849  -0.04914   0.00024   0.08018   0.02557
  51        3PX        -0.07976  -0.07994   0.00293  -0.12722   0.06883
  52        3PY         0.11814  -0.03342  -0.00051   0.01648  -0.01719
  53        3PZ         0.00149   0.00451   0.16106   0.00163   0.00052
  54        4S          0.21294  -0.07735   0.00129   0.13565   0.02554
  55        4PX        -0.04469  -0.04256   0.00186  -0.06267   0.02801
  56        4PY         0.05116  -0.01790  -0.00065  -0.01087  -0.00311
  57        4PZ         0.00071   0.00305   0.10652   0.00079   0.00061
  58        5S         -0.13600   0.07356   0.00944  -0.01406  -0.06757
  59        5PX        -0.01491   0.01814   0.00102  -0.01722  -0.01448
  60        5PY         0.04049  -0.02498  -0.00137   0.00949   0.01692
  61        5PZ         0.00093  -0.00036   0.00202   0.00007   0.00060
  62        6D 0        0.00379  -0.00233  -0.00024   0.00034   0.00065
  63        6D+1       -0.00003   0.00011  -0.00110   0.00011  -0.00008
  64        6D-1       -0.00027  -0.00060  -0.02090  -0.00021   0.00001
  65        6D+2        0.02056   0.00004  -0.00021   0.00227  -0.00757
  66        6D-2       -0.00077   0.01440  -0.00046   0.01596  -0.01168
  67 4   N  1S          0.02096   0.01334  -0.00028  -0.00001  -0.00648
  68        2S          0.03347   0.02147  -0.00044  -0.00002  -0.01054
  69        2PX         0.10439   0.02632  -0.00076  -0.00322  -0.08720
  70        2PY        -0.00366  -0.00092  -0.00111  -0.08632   0.00324
  71        2PZ         0.00028   0.00488   0.16701   0.00046   0.00050
  72        3S         -0.10158  -0.06826   0.00136   0.00008   0.03660
  73        3PX         0.15597   0.04229  -0.00128  -0.00477  -0.13183
  74        3PY        -0.00547  -0.00147  -0.00163  -0.12812   0.00491
  75        3PZ         0.00042   0.00750   0.25615   0.00070   0.00076
  76        4S         -0.11712  -0.06068   0.00185   0.00013   0.04384
  77        4PX         0.15109  -0.01817   0.00083  -0.00503  -0.08144
  78        4PY        -0.00530   0.00057  -0.00221  -0.13902   0.00316
  79        4PZ         0.00034   0.00605   0.21041   0.00047   0.00073
  80        5S          0.26665  -0.21342   0.00626   0.00045   0.19653
  81        5PX        -0.13875   0.06792   0.00071   0.00092  -0.04550
  82        5PY         0.00419  -0.00215  -0.00831   0.02879   0.00083
  83        5PZ         0.00007  -0.00025  -0.00483   0.00055   0.00005
  84        6D 0        0.00261  -0.00210   0.00016  -0.00000   0.00031
  85        6D+1        0.00005  -0.00036  -0.01220  -0.00017  -0.00003
  86        6D-1       -0.00002  -0.00006   0.00041  -0.00002   0.00019
  87        6D+2       -0.00013   0.01755  -0.00046  -0.00018  -0.01130
  88        6D-2        0.00001  -0.00120   0.00030  -0.00224   0.00079
  89 5   N  1S         -0.03879   0.01042  -0.00040   0.01756  -0.00493
  90        2S         -0.06201   0.01667  -0.00064   0.02814  -0.00794
  91        2PX        -0.06144  -0.05197   0.00120   0.08796   0.04612
  92        2PY        -0.07716   0.02768  -0.00132   0.00781   0.00710
  93        2PZ        -0.00039   0.00322   0.10504   0.00078   0.00006
  94        3S          0.17850  -0.04906   0.00195  -0.08014   0.02601
  95        3PX        -0.08747  -0.07753   0.00182   0.12847   0.06907
  96        3PY        -0.11243   0.03871  -0.00193   0.00788   0.01240
  97        3PZ        -0.00055   0.00492   0.16115   0.00117   0.00012
  98        4S          0.21292  -0.07727   0.00208  -0.13569   0.02615
  99        4PX        -0.04805  -0.04125   0.00068   0.06193   0.02776
 100        4PY        -0.04800   0.02071  -0.00140  -0.01510   0.00121
 101        4PZ        -0.00024   0.00312   0.10656   0.00065  -0.00010
 102        5S         -0.13756   0.07407  -0.01124   0.01376  -0.06942
 103        5PX        -0.01795   0.01995  -0.00289   0.01776  -0.01595
 104        5PY        -0.03970   0.02379  -0.00220   0.00822  -0.01630
 105        5PZ        -0.00079   0.00040   0.00199  -0.00004  -0.00051
 106        6D 0        0.00379  -0.00232   0.00036  -0.00034   0.00066
 107        6D+1       -0.00003  -0.00011   0.00034   0.00012   0.00008
 108        6D-1       -0.00018   0.00067   0.02094   0.00014   0.00006
 109        6D+2        0.02048  -0.00191   0.00015  -0.00012  -0.00591
 110        6D-2       -0.00202  -0.01429   0.00031   0.01618   0.01250
[...]
 ITU=  0
     Eigenvalues ---    0.00043   0.00796   0.02146   0.04601   0.04672
     Eigenvalues ---    0.07128   0.07193   0.10744   0.18880   0.22616
     Eigenvalues ---    0.24079   0.25112   0.28358   0.29907   0.31875
     Eigenvalues ---    0.53818   0.78944   0.80454   0.83254   0.88802
     Eigenvalues ---    0.95759   1.17784   1.24523   1.54974
 Angle between quadratic step and forces=  89.48 degrees.
 Linear search not attempted -- first point.
 B after Tr=     0.000001   -0.000003    0.000037
         Rot=    1.000000   -0.000039    0.000002    0.000001 Ang=  -0.00 deg.
 Variable       Old X    -DE/DX   Delta X   Delta X   Delta X     New X
                                 (Linear)    (Quad)   (Total)
    X1       -6.89919   0.00002   0.00000  -0.00002  -0.00002  -6.89920
    Y1        1.13592   0.00004   0.00000   0.00000   0.00001   1.13593
    Z1        0.01170  -0.00005   0.00000  -0.00035  -0.00025   0.01144
    X2       -6.98983  -0.00001   0.00000   0.00000  -0.00000  -6.98983
    Y2       -1.51536   0.00004   0.00000  -0.00001  -0.00000  -1.51536
    Z2       -0.01142  -0.00005   0.00000   0.00035   0.00024  -0.01118
    X3       -4.48305   0.00002   0.00000  -0.00002  -0.00002  -4.48307
    Y3        1.84639   0.00001   0.00000   0.00002   0.00002   1.84641
    Z3        0.01189  -0.00002   0.00000  -0.00055  -0.00039   0.01149
    X4       -3.18992   0.00000   0.00000  -0.00000  -0.00000  -3.18992
    Y4       -0.31805  -0.00000   0.00000   0.00002   0.00002  -0.31803
    Z4       -0.00846   0.00000   0.00000  -0.00004  -0.00005  -0.00850
    X5       -4.62788  -0.00002   0.00000   0.00001   0.00001  -4.62787
    Y5       -2.38841   0.00001   0.00000   0.00001   0.00001  -2.38840
    Z5       -0.02330  -0.00002   0.00000   0.00053   0.00035  -0.02294
    X6       -8.40975   0.00001   0.00000  -0.00002  -0.00002  -8.40977
    Y6        2.50401   0.00002   0.00000   0.00001   0.00001   2.50402
    Z6        0.02881  -0.00003   0.00000  -0.00070  -0.00050   0.02831
    X7       -8.58965  -0.00001   0.00000   0.00002   0.00002  -8.58963
    Y7       -2.77804   0.00002   0.00000  -0.00004  -0.00003  -2.77807
    Z7       -0.01974  -0.00003   0.00000   0.00078   0.00056  -0.01918
    X8       -0.28663   0.00001   0.00000   0.00003   0.00003  -0.28660
    Y8       -0.41817  -0.00004   0.00000  -0.00000  -0.00001  -0.41818
    Z8        0.00081   0.00005   0.00000   0.00001   0.00001   0.00083
    X9        0.70149   0.00002   0.00000   0.00003   0.00003   0.70152
    Y9        1.68873  -0.00006   0.00000   0.00001   0.00001   1.68874
    Z9       -0.05048   0.00007   0.00000   0.00102   0.00120  -0.04929
   X10        0.55555  -0.00004   0.00000  -0.00002  -0.00002   0.55553
   Y10       -2.58749  -0.00004   0.00000  -0.00003  -0.00003  -2.58752
   Z10        0.06018   0.00006   0.00000  -0.00100  -0.00116   0.05902
         Item               Value     Threshold  Converged?
 Maximum Force            0.000069     0.000450     YES
 RMS     Force            0.000033     0.000300     YES
 Maximum Displacement     0.001196     0.001800     YES
 RMS     Displacement     0.000354     0.001200     YES
 Predicted change in Energy=-6.865564D-09
 Optimization completed.
    -- Stationary point found.
 GradGradGradGradGradGradGradGradGradGradGradGradGradGradGradGradGradGrad

 Leave Link  103 at Fri Jun  2 11:44:06 2023, MaxMem=  7381975040 cpu:               2.8 elap:               3.4
 (Enter /software/commercial/gaussian/g16/AVX/g16/l9999.exe)

 ----------------------------------------------------------------------

 Electric dipole moment (input orientation):
 (Debye = 10**-18 statcoulomb cm , SI units = C m)
                  (au)            (Debye)         (10**-30 SI)
   Tot        0.783768D+00      0.199214D+01      0.664506D+01
   x         -0.643248D+00     -0.163497D+01     -0.545368D+01
   y          0.447798D+00      0.113819D+01      0.379659D+01
   z         -0.100763D-02     -0.256115D-02     -0.854307D-02

 Dipole polarizability, Alpha (input orientation).
 (esu units = cm**3 , SI units = C**2 m**2 J**-1)
 Alpha(0;0):
               (au)            (10**-24 esu)      (10**-40 SI)
   iso        0.854388D+02      0.126607D+02      0.140870D+02
   aniso      0.532134D+02      0.788542D+01      0.877371D+01
   xx         0.108295D+03      0.160477D+02      0.178554D+02
   yx        -0.367241D+00     -0.544195D-01     -0.605498D-01
   yy         0.975028D+02      0.144484D+02      0.160760D+02
   zx        -0.274895D-01     -0.407352D-02     -0.453241D-02
   zy        -0.271242D+00     -0.401939D-01     -0.447217D-01
   zz         0.505187D+02      0.748609D+01      0.832940D+01

 First dipole hyperpolarizability, Beta (input orientation).
 ||, _|_  parallel and perpendicular components, (z) with respect to z axis,
 vector components x,y,z.  Values do not include the 1/n! factor of 1/2.
 (esu units = statvolt**-1 cm**4 , SI units = C**3 m**3 J**-2)
 Beta(0;0,0):
               (au)            (10**-30 esu)      (10**-50 SI)
   || (z)    -0.363155D+00     -0.313738D-02     -0.116441D-02
   _|_(z)    -0.121052D+00     -0.104579D-02     -0.388136D-03
   x          0.366319D+02      0.316471D+00      0.117455D+00
   y         -0.280887D+00     -0.242664D-02     -0.900624D-03
   z         -0.181578D+01     -0.156869D-01     -0.582204D-02
   ||         0.733559D+01      0.633738D-01      0.235205D-01
   xxx        0.258027D+03      0.222915D+01      0.827326D+00
   xxy       -0.193817D+02     -0.167443D+00     -0.621449D-01
   yxy       -0.152160D+03     -0.131454D+01     -0.487879D+00
   yyy        0.160853D+02      0.138964D+00      0.515752D-01
   xxz       -0.271095D+00     -0.234205D-02     -0.869228D-03
   yxz        0.193015D+01      0.166750D-01      0.618877D-02
   yyz       -0.474881D+00     -0.410260D-02     -0.152264D-02
   zxz       -0.936564D+02     -0.809118D+00     -0.300296D+00
   zyz        0.320283D+01      0.276699D-01      0.102694D-01
   zzz        0.140717D+00      0.121568D-02      0.451189D-03

 ----------------------------------------------------------------------

 Dipole orientation:
     6         -1.70319893         -2.48126898          6.31123174
     6         -2.99648192         -4.29533211          4.87087222
     7         -0.58286624         -0.86872921          4.73419564
     7         -1.19478954         -1.70695680          2.43630319
     7         -2.64717057         -3.76727949          2.43359338
     1         -1.53860772         -2.27934754          8.33259175
     1         -4.11699493         -5.89167866          5.46245286
     6         -0.28898579         -0.41653513         -0.00367925
     8          0.97982655          1.49497316          0.38918037
     8         -0.98458990         -1.51532059         -1.93435607

 Electric dipole moment (dipole orientation):
 (Debye = 10**-18 statcoulomb cm , SI units = C m)
                  (au)            (Debye)         (10**-30 SI)
   Tot        0.783768D+00      0.199214D+01      0.664506D+01
   x          0.000000D+00      0.000000D+00      0.000000D+00
   y          0.000000D+00      0.000000D+00      0.000000D+00
   z          0.783768D+00      0.199214D+01      0.664506D+01

 Dipole polarizability, Alpha (dipole orientation).
 (esu units = cm**3 , SI units = C**2 m**2 J**-1)
 Alpha(0;0):
               (au)            (10**-24 esu)      (10**-40 SI)
   iso        0.854388D+02      0.126607D+02      0.140870D+02
   aniso      0.532134D+02      0.788542D+01      0.877371D+01
   xx         0.666636D+02      0.987853D+01      0.109913D+02
   yx         0.234368D+02      0.347297D+01      0.386420D+01
   yy         0.845361D+02      0.125270D+02      0.139381D+02
   zx        -0.286935D+01     -0.425193D+00     -0.473091D+00
   zy        -0.401283D+01     -0.594641D+00     -0.661627D+00
   zz         0.105117D+03      0.155767D+02      0.173314D+02

 First dipole hyperpolarizability, Beta (dipole orientation).
 ||, _|_  parallel and perpendicular components, (z) with respect to z axis,
 vector components x,y,z.  Values do not include the 1/n! factor of 1/2.
 (esu units = statvolt**-1 cm**4 , SI units = C**3 m**3 J**-2)
 Beta(0;0,0):
               (au)            (10**-30 esu)      (10**-50 SI)
   || (z)    -0.604448D+01     -0.522196D-01     -0.193808D-01
   _|_(z)    -0.201483D+01     -0.174065D-01     -0.646026D-02
   x          0.103039D+02      0.890177D-01      0.330381D-01
   y          0.180474D+02      0.155915D+00      0.578664D-01
   z         -0.302224D+02     -0.261098D+00     -0.969039D-01
   ||         0.733559D+01      0.633738D-01      0.235205D-01
   xxx       -0.824580D+02     -0.712373D+00     -0.264390D+00
   xxy       -0.362169D+02     -0.312885D+00     -0.116124D+00
   yxy       -0.218428D+02     -0.188705D+00     -0.700359D-01
   yyy       -0.116729D+03     -0.100844D+01     -0.374274D+00
   xxz        0.365662D+02      0.315903D+00      0.117244D+00
   yxz       -0.600544D+02     -0.518823D+00     -0.192556D+00
   yyz       -0.692646D+01     -0.598392D-01     -0.222087D-01
   zxz        0.107735D+03      0.930750D+00      0.345439D+00
   zyz        0.158961D+03      0.137330D+01      0.509687D+00
   zzz       -0.397139D+02     -0.343097D+00     -0.127337D+00

 ----------------------------------------------------------------------
 Unable to Open any file for archive entry.
 1\1\GINC-NODE1728\Freq\RB3LYP\6-311+G(d,p)\C3H2N3O2(1-)\SVICCHI\02-Jun
 -2023\0\\#p freq=raman scale=0.967 pop=(nbo,full,hirshfeld) guess=read
  geom=allcheck b3lyp/6-311+G(d,p) int=grid=ultrafine EmpiricalDispersi
 on=GD3BJ SCRF=(Solvent=ethanol) scf=(xqc,intrep,maxconventionalcycle=3
 50) nosymm\\123triz-CO2_binding-site_index-3.gjf\\-1,1\C,-3.6508921443
 ,0.6011044357,0.006189906\C,-3.698859264,-0.80189303,-0.0060421592\N,-
 2.3723281757,0.9770664249,0.0062906312\N,-1.6880314712,-0.1683030787,-
 0.0044760467\N,-2.4489669408,-1.2638915485,-0.0123287113\H,-4.45024956
 08,1.3250634141,0.0152481451\H,-4.5454453781,-1.4700741771,-0.01044662
 51\C,-0.1516785263,-0.2212884184,0.0004305305\O,0.3712150787,0.8936395
 836,-0.0267140004\O,0.2939823824,-1.3692396057,0.0318483298\\Version=E
 S64L-G16RevC.01\HF=-430.5068552\RMSD=7.032e-09\RMSF=3.271e-05\ZeroPoin
 t=0.0583522\Thermal=0.0645667\ETot=-430.4422885\HTot=-430.4413444\GTot
 =-430.480117\Dipole=-3.7678597,0.127268,-0.0018117\DipoleDeriv=-0.2400
 062,0.0139672,-0.0011011,-0.3473406,0.283388,0.0041987,-0.0024936,0.00
 25909,-0.104773,-0.2146471,0.0208705,0.0003064,0.3820299,0.2589449,0.0
 025575,0.0028087,0.0027228,-0.1052419,0.1619305,-0.0646721,-0.0041577,
 -0.4449241,-0.6023932,-0.0024983,-0.0028041,-0.0006631,-0.2309721,-1.7
 56846,0.0672827,0.0007498,0.0675886,0.1942581,0.0117023,-0.0013114,0.0
 064813,0.0223708,0.1942169,0.0067707,0.0008102,0.3868304,-0.6253315,-0
 .0069804,0.0014934,-0.0103783,-0.2292247,0.0230781,0.0618802,0.0007384
 ,0.0987882,0.043894,-0.0016422,0.00134,-0.0016701,0.1931105,0.0121047,
 -0.0597269,-0.0001634,-0.0970873,0.0538916,-0.0012542,0.0000773,-0.001
 3298,0.1930613,3.5709561,-0.0200013,0.0030593,-0.0198163,2.9993813,-0.
 0732041,0.0072654,-0.0701526,0.3984222,-1.4125935,-0.5351015,0.0124635
 ,-0.591655,-1.7611942,0.0308823,0.0106356,0.0291919,-0.5681903,-1.3381
 935,0.5087306,-0.0127054,0.5655861,-1.8448391,0.0362384,-0.0170113,0.0
 43207,-0.5685629\Polar=108.2950025,-0.3672407,97.5027586,-0.0274895,-0
 .2712417,50.5186604\PolarDeriv=3.5778893,-0.4535734,-8.9023996,-0.0420
 768,-0.028438,-3.4898049,11.9147121,0.7329853,-5.6565168,0.0783419,-0.
 1355224,3.7897381,0.0392026,0.070467,-0.1452913,-6.2521294,4.2493288,0
 .1066819,2.6829368,-0.303432,-8.5336965,-0.0183976,-0.0501287,-3.79324
 7,-11.9685344,1.9447411,6.0899779,0.0897906,0.1158605,-3.5512254,-0.05
 20166,0.0361976,0.1909867,-6.542236,-3.8291506,-0.0426794,-7.6849223,1
 .758557,10.2070218,0.0224607,0.0971253,3.8580958,12.3142704,0.8547227,
 10.8276306,-0.0085079,0.0229027,1.4915772,0.1694598,-0.0533171,0.04024
 62,1.9571668,3.6422308,0.1898462,20.4796135,-0.6376043,1.824558,-0.034
 5932,-0.0569707,-0.5008115,-0.6925589,0.0948918,-0.0912074,-0.0745226,
 0.021076,-0.0086739,-0.3163718,0.1318074,-0.0492493,3.562584,-0.156617
 4,-0.1349366,-8.6724448,-0.4295643,9.5634105,0.0140654,0.0816279,3.758
 9004,-11.6234464,0.9383436,-11.4636076,0.0178758,-0.1092794,-1.7257138
 ,-0.0325489,-0.0024113,-0.2139286,1.6886887,-3.7292482,-0.172338,-9.76
 7082,5.1794776,-3.9628783,0.0605265,-0.0372878,-0.7500474,5.5696203,-4
 .9940889,5.8910993,-0.0619969,0.0592735,0.5403066,0.1191369,-0.0770557
 ,0.0691483,0.4588576,0.204736,0.0114729,-10.7904218,-5.041523,-3.61886
 05,-0.0236919,-0.0154568,-0.7802868,-5.5134482,-4.6278654,-4.9874059,-
 0.038526,-0.03279,-0.4845263,-0.0535326,-0.0378137,-0.0348057,0.474600
 5,-0.2183322,-0.006101,-10.2367419,-0.0047992,-2.3186214,0.0217427,0.2
 249332,1.2012957,-0.1733159,-7.9058982,0.6248078,0.0908184,-0.0336668,
 -0.0205862,0.0880635,0.2142665,-0.0226342,-1.8796156,0.0756507,-0.0169
 16,10.9574478,5.2703703,2.9344596,-0.1591322,-0.1039669,0.341568,11.50
 42336,6.3277939,12.5652575,-0.0293051,-0.1515182,2.598462,-0.2842708,-
 0.0950135,-0.0844357,3.4155052,4.4589026,-0.3513035,9.4537255,-5.33790
 87,2.8070065,0.1590964,-0.1114373,0.1543378,-11.3315326,6.6343742,-13.
 8000354,-0.0639682,0.2436641,-2.6293586,0.322878,-0.1871273,0.2499637,
 3.1165783,-4.6975005,0.4162736\HyperPolar=258.0265619,-19.3817413,-152
 .1595697,16.0852853,-0.2710947,1.9301537,-0.4748809,-93.6563613,3.2028
 271,0.1407167\Quadrupole=6.6729409,-8.5885038,1.9155629,-0.2345848,-0.
 0295388,0.1554275\PG=C01 [X(C3H2N3O2)]\NImag=0\\0.77143510,-0.16001924
 ,0.69623793,-0.00310647,0.00545832,0.13305403,-0.11207930,-0.02646173,
 -0.00015635,0.79311938,0.01412079,-0.29258285,-0.00202135,0.15336162,0
 .67516034,0.00021393,-0.00198764,-0.06852738,0.00017216,0.00454018,0.1
 3295581,-0.33271614,-0.08162547,0.00002797,-0.00934486,-0.10496503,-0.
 00085075,0.55219302,-0.07027496,-0.13506820,-0.00049582,-0.01867387,-0
 .03382093,-0.00038336,0.05884679,0.48960262,0.00013591,-0.00036220,-0.
 07086667,-0.00008003,-0.00035260,0.02056946,-0.00063303,0.00354312,0.1
 0567527,-0.13394629,0.00951410,0.00027612,-0.13848530,-0.00133110,0.00
 039325,-0.12856469,0.01683692,0.00038746,0.68999922,0.06519273,-0.0186
 5726,-0.00027823,-0.05698813,-0.01410243,-0.00007585,0.08897875,-0.217
 91041,-0.00158208,-0.00315368,0.58462276,0.00091883,-0.00024128,0.0128
 5449,-0.00017269,-0.00041749,0.01287273,0.00081449,-0.00101215,-0.0751
 4061,-0.00014551,0.00141678,0.12295946,-0.00104937,0.10277957,0.000990
 83,-0.32183257,0.09436098,0.00124588,-0.03693791,-0.02274084,-0.000190
 10,-0.13644966,-0.09488753,-0.00126913,0.54518052,0.01644827,-0.042136
 95,-0.00050812,0.08308372,-0.14643714,-0.00080226,0.01734765,-0.114502
 24,-0.00129156,-0.02286150,-0.21085168,-0.00085713,-0.06405815,0.49531
 379,0.00010064,-0.00088597,0.02057417,0.00095214,-0.00077016,-0.070725
 24,0.00050376,-0.00133329,0.02795877,-0.00043900,-0.00061291,-0.074851
 45,-0.00122869,0.00264824,0.10267334,-0.21213660,0.14468229,0.00187020
 ,0.00832190,-0.00440961,-0.00006899,-0.01810419,0.02105871,0.00021996,
 -0.00652582,-0.00141922,0.00003728,0.00059275,-0.00319666,0.00000015,0
 .22753046,0.15219499,-0.19932604,-0.00199159,0.01954581,-0.00281181,-0
 .00007074,-0.00965027,0.01235105,0.00021725,-0.00518000,-0.00051648,-0
 .00007105,0.00178645,-0.00553667,-0.00012742,-0.15850379,0.19501616,0.
 00196372,-0.00200076,-0.02956716,0.00014835,0.00001433,-0.00119798,-0.
 00006616,0.00010974,-0.00757463,-0.00005886,-0.00002477,0.00852651,0.0
 0002612,-0.00009021,0.00649772,-0.00205689,0.00202641,0.02370072,0.007
 24134,0.00372499,0.00001494,-0.23218821,-0.14241567,-0.00087991,0.0006
 5726,0.00277251,0.00003204,-0.00605314,0.00179444,0.00000366,-0.018764
 42,-0.01895058,-0.00015104,-0.00039444,-0.00048894,-0.00000689,0.24889
 379,-0.02022351,-0.00171760,0.00002837,-0.14994322,-0.17943571,-0.0010
 8104,-0.00220506,-0.00562114,-0.00010108,0.00555153,-0.00098275,-0.000
 07721,0.01176398,0.01296300,0.00017266,0.00050710,-0.00012748,0.000010
 58,0.15481542,0.17385241,-0.00017118,0.00002739,-0.00120805,-0.0009510
 8,-0.00110776,-0.02962830,-0.00003679,-0.00008765,0.00650246,0.0001273
 5,-0.00006091,0.00853108,0.00011330,0.00015888,-0.00757359,0.00000158,
 0.00001293,-0.00133212,0.00097260,0.00106168,0.02376951,0.02495582,0.0
 1092438,0.00002313,0.02381820,-0.01315220,-0.00021388,-0.02229653,0.02
 510617,0.00028927,-0.03279267,-0.00166967,0.00023971,-0.02528591,-0.02
 311919,-0.00000976,0.00246022,0.00022997,-0.00000487,0.00237050,-0.000
 34064,-0.00004018,0.32810748,0.00331729,-0.00822022,-0.00014609,-0.005
 53908,-0.00707967,-0.00010130,0.02118332,0.00244780,0.00002934,-0.0016
 1250,-0.08084917,-0.00007891,-0.01916912,0.00507385,0.00054138,0.00099
 008,0.00056429,-0.00001668,-0.00111491,0.00065949,0.00001146,0.0240994
 2,1.03384618,0.00001522,-0.00012160,0.00432081,0.00009425,-0.00000590,
 0.00433407,0.00058176,0.00019925,-0.01231677,-0.00018731,-0.00068827,-
 0.04614847,-0.00032825,0.00028922,-0.01237453,0.00003028,-0.00000029,0
 .00193804,0.00001417,-0.00000728,0.00193519,-0.00011779,-0.01971198,0.
 22319123,-0.00409866,-0.00464358,-0.00005040,-0.00793636,-0.00041853,-
 0.00005647,0.00136811,-0.00507708,0.00020653,-0.05665226,-0.04994283,0
 .00081261,-0.00591093,0.00879906,0.00019866,-0.00046872,0.00018662,-0.
 00000095,-0.00130999,0.00023233,-0.00002073,-0.16080097,-0.16928286,0.
 00406167,0.20519116,-0.00531093,-0.00069259,-0.00000266,-0.00382852,0.
 00254423,-0.00000292,0.00858606,-0.00430567,-0.00034379,-0.03627920,-0
 .01744818,0.00044166,-0.00265923,0.00672187,-0.00004817,-0.00042036,0.
 00002824,-0.00000677,-0.00059681,0.00039735,-0.00000433,-0.16808115,-0
 .46287586,0.00932117,0.21958270,0.59511550,0.00003299,0.00000296,-0.00
 001816,0.00001942,0.00005472,-0.00062845,0.00002926,-0.00034677,0.0011
 3225,0.00065708,0.00076258,0.01524880,0.00022155,-0.00018448,0.0040780
 2,0.00000438,-0.00000364,-0.00020226,0.00001723,-0.00000030,-0.0007918
 3,0.00392218,0.00927426,-0.08254766,-0.00519371,-0.01346609,0.03306561
 ,-0.00760589,0.00112469,0.00011003,-0.00339288,0.00484875,0.00004478,-
 0.00625408,-0.00785435,-0.00036801,-0.05052939,0.05209514,-0.00123925,
 0.00045748,0.00650737,0.00007314,-0.00127556,-0.00012085,0.00005644,-0
 .00045269,-0.00015792,0.00000514,-0.14053614,0.14712836,-0.00416398,0.
 03061861,-0.01099256,0.00028963,0.17897053,0.00455457,0.00216377,-0.00
 004283,0.00544340,-0.00143402,-0.00003507,0.00350325,0.00682712,0.0002
 4361,0.03851543,-0.02330440,0.00089677,-0.00717612,-0.00060785,0.00041
 563,0.00071146,0.00035875,-0.00002186,0.00045956,0.00001245,-0.0000116
 9,0.14600290,-0.48356668,0.01072568,0.00056417,-0.11948489,0.00390675,
 -0.19257863,0.61903575,-0.00010358,0.00011078,-0.00061609,-0.00002616,
 0.00006602,-0.00002472,-0.00037051,-0.00019305,0.00406048,-0.00101058,
 0.00114366,0.01514747,0.00041849,0.00063743,0.00374278,-0.00003794,0.0
 0000812,-0.00078882,-0.00001678,-0.00000637,-0.00020436,-0.00408781,0.
 01019851,-0.08233190,0.00004279,0.00411189,0.03066368,0.00519208,-0.01
 607700,0.03035148\\-0.00001531,-0.00003726,0.00004666,0.00001328,-0.00
 003708,0.00004862,-0.00002394,-0.00001248,0.00001541,-0.00000039,0.000
 00435,-0.00000249,0.00002388,-0.00001160,0.00001700,-0.00001161,-0.000
 02296,0.00002709,0.00001057,-0.00002159,0.00002752,-0.00001007,0.00003
 865,-0.00004664,-0.00002187,0.00006170,-0.00006896,0.00003547,0.000038
 27,-0.00006422\\\@
 The archive entry for this job was punched.


 WE STILL HAVE JUDGEMENT HERE,
 THAT WE TEACH BUT BLOODY INSTRUCTIONS,
 WHICH, BEING TAUGHT,
 RETURN TO PLAGUE THE INVENTOR.
           MACBETH ACT I, SCENE VII
 Job cpu time:       0 days  0 hours 15 minutes 53.9 seconds.
 Elapsed time:       0 days  0 hours  8 minutes 34.0 seconds.
 File lengths (MBytes):  RWF=    103 Int=      0 D2E=      0 Chk=     13 Scr=      1
 Normal termination of Gaussian 16 at Fri Jun  2 11:44:11 2023.
