 Entering Gaussian System, Link 0=g16
 Input=3ethylthiazolium-isolated-freq.gjf
 Output=3ethylthiazolium-isolated-freq.log
 Initial command:
 /software/commercial/gaussian/g16/AVX/g16/l1.exe "/scratch1/svicchi/G09-659731.pbs02/Gau-204491.inp" -scrdir="/scratch1/svicchi/G09-659731.pbs02/"
 Entering Link 1 = /software/commercial/gaussian/g16/AVX/g16/l1.exe PID=    204495.
  
 Copyright (c) 1988-2019, Gaussian, Inc.  All Rights Reserved.
  
 This is part of the Gaussian(R) 16 program.  It is based on
 the Gaussian(R) 09 system (copyright 2009, Gaussian, Inc.),
 the Gaussian(R) 03 system (copyright 2003, Gaussian, Inc.),
 the Gaussian(R) 98 system (copyright 1998, Gaussian, Inc.),
 the Gaussian(R) 94 system (copyright 1995, Gaussian, Inc.),
 the Gaussian 92(TM) system (copyright 1992, Gaussian, Inc.),
 the Gaussian 90(TM) system (copyright 1990, Gaussian, Inc.),
 the Gaussian 88(TM) system (copyright 1988, Gaussian, Inc.),
 the Gaussian 86(TM) system (copyright 1986, Carnegie Mellon
 University), and the Gaussian 82(TM) system (copyright 1983,
 Carnegie Mellon University). Gaussian is a federally registered
 trademark of Gaussian, Inc.
  
 This software contains proprietary and confidential information,
 including trade secrets, belonging to Gaussian, Inc.
  
 This software is provided under written license and may be
 used, copied, transmitted, or stored only in accord with that
 written license.
  
 The following legend is applicable only to US Government
 contracts under FAR:
  
                    RESTRICTED RIGHTS LEGEND
  
 Use, reproduction and disclosure by the US Government is
 subject to restrictions as set forth in subparagraphs (a)
 and (c) of the Commercial Computer Software - Restricted
 Rights clause in FAR 52.227-19.
  
 Gaussian, Inc.
 340 Quinnipiac St., Bldg. 40, Wallingford CT 06492
  
  
 ---------------------------------------------------------------
 Warning -- This program may not be used in any manner that
 competes with the business of Gaussian, Inc. or will provide
 assistance to any competitor of Gaussian, Inc.  The licensee
 of this program is prohibited from giving any competitor of
 Gaussian, Inc. access to this program.  By using this program,
 the user acknowledges that Gaussian, Inc. is engaged in the
 business of creating and licensing software in the field of
 computational chemistry and represents and warrants to the
 licensee that it is not a competitor of Gaussian, Inc. and that
 it will not use this program in any manner prohibited above.
 ---------------------------------------------------------------
  

 Cite this work as:
 Gaussian 16, Revision C.01,
 M. J. Frisch, G. W. Trucks, H. B. Schlegel, G. E. Scuseria, 
 M. A. Robb, J. R. Cheeseman, G. Scalmani, V. Barone, 
 G. A. Petersson, H. Nakatsuji, X. Li, M. Caricato, A. V. Marenich, 
 J. Bloino, B. G. Janesko, R. Gomperts, B. Mennucci, H. P. Hratchian, 
 J. V. Ortiz, A. F. Izmaylov, J. L. Sonnenberg, D. Williams-Young, 
 F. Ding, F. Lipparini, F. Egidi, J. Goings, B. Peng, A. Petrone, 
 T. Henderson, D. Ranasinghe, V. G. Zakrzewski, J. Gao, N. Rega, 
 G. Zheng, W. Liang, M. Hada, M. Ehara, K. Toyota, R. Fukuda, 
 J. Hasegawa, M. Ishida, T. Nakajima, Y. Honda, O. Kitao, H. Nakai, 
 T. Vreven, K. Throssell, J. A. Montgomery, Jr., J. E. Peralta, 
 F. Ogliaro, M. J. Bearpark, J. J. Heyd, E. N. Brothers, K. N. Kudin, 
 V. N. Staroverov, T. A. Keith, R. Kobayashi, J. Normand, 
 K. Raghavachari, A. P. Rendell, J. C. Burant, S. S. Iyengar, 
 J. Tomasi, M. Cossi, J. M. Millam, M. Klene, C. Adamo, R. Cammi, 
 J. W. Ochterski, R. L. Martin, K. Morokuma, O. Farkas, 
 J. B. Foresman, and D. J. Fox, Gaussian, Inc., Wallingford CT, 2019.
 
 ******************************************
 Gaussian 16:  ES64L-G16RevC.01  3-Jul-2019
                 2-Jun-2023 
 ******************************************
 %NProcShared=2
 Will use up to    2 processors via shared memory.
 %mem=55gb
 %chk=/scratch1/svicchi/G09-659731.pbs02/02-freq/3ethylthiazolium-isolated-freq.c
 hk
 ----------------------------------------------------------------------
 #p freq=raman scale=0.967 pop=(nbo,full,hirshfeld) guess=read geom=all
 check b3lyp/6-311+G(d,p) int=grid=ultrafine EmpiricalDispersion=GD3BJ 
 SCRF=(Solvent=ethanol) scf=(xqc,intrep,maxconventionalcycle=350) nosym
 m
 ----------------------------------------------------------------------
 1/10=4,29=7,30=1,38=1,114=967000/1,3;
 2/12=2,15=1,40=1/2;
 3/5=4,6=6,7=111,11=2,14=-4,25=1,30=1,70=2201,71=2,72=4,74=-5,75=-5,116=-2,124=41,140=1/1,2,3;
 4/5=1/1;
 5/5=2,8=3,13=1,17=20,38=6,53=4,85=350,98=1/2,8;
 8/6=4,10=90,11=11/1;
 10/13=10,15=4,31=1/2;
 11/6=3,8=1,9=11,15=111,16=1,31=1/1,2,10;
 10/6=1,31=1/2;
 6/7=3,28=1,40=1,79=1/1,7;
 7/8=1,10=1,25=1,30=1/1,2,3,16;
 1/10=4,30=1/3;
 99//99;
 Leave Link    1 at Fri Jun  2 11:00:45 2023, MaxMem=  7381975040 cpu:               1.4 elap:               1.4
 (Enter /software/commercial/gaussian/g16/AVX/g16/l101.exe)
 Structure from the checkpoint file:  "/scratch1/svicchi/G09-659731.pbs02/02-freq/3ethylthiazolium-isolated-freq.chk"
 -----------------------------
 3ethylthiazolium-isolated.gjf
 -----------------------------
 Charge =  1 Multiplicity = 1
 No Z-Matrix found in chk file; cartesian coordinates used.
  N                                                -0.057411471583      0.132917207452     -0.030218022173
  C                                                 1.044056660177     -0.600098979804     -0.044034859001
  C                                                -0.440453186533      0.586921610299     -1.281443707122
  C                                                 0.403894463977      0.182643797174     -2.257595131367
  S                                                 1.687845961968     -0.776805509047     -1.601633769434
  C                                                -0.852937863084      0.398038123718      1.196836502071
  C                                                -2.059678482268     -0.526711068689      1.283008082537
  H                                                -2.614380445338     -0.295534338625      2.193937693741
  H                                                -2.728514997957     -0.388910005640      0.431695549198
  H                                                -1.747908096545     -1.571714176099      1.322857194499
  H                                                -1.145079764365      1.446566508639      1.155923322055
  H                                                -0.179911011194      0.265535150954      2.041480934910
  H                                                -1.323582469979      1.196924330708     -1.379944913261
  H                                                 0.352934151862      0.395098061646     -3.312505768588
  H                                                 1.477055550863     -1.035400712687      0.842728891934
 Recover connectivity data from disk.
 ITRead=  0  0  0  0  0  0  0  0  0  0  0  0  0  0  0
 MicOpt= -1 -1 -1 -1 -1 -1 -1 -1 -1 -1 -1 -1 -1 -1 -1
 NAtoms=     15 NQM=       15 NQMF=       0 NMMI=      0 NMMIF=      0
                NMic=       0 NMicF=      0.
                    Isotopes and Nuclear Properties:
 (Nuclear quadrupole moments (NQMom) in fm**2, nuclear magnetic moments (NMagM)
  in nuclear magnetons)

  Atom         1           2           3           4           5           6           7           8           9          10
 IAtWgt=          14          12          12          12          32          12          12           1           1           1
 AtmWgt=  14.0030740  12.0000000  12.0000000  12.0000000  31.9720718  12.0000000  12.0000000   1.0078250   1.0078250   1.0078250
 NucSpn=           2           0           0           0           0           0           0           1           1           1
 AtZEff=   4.5500000   3.6000000   3.6000000   3.6000000  13.6000000   3.6000000   3.6000000   1.0000000   1.0000000   1.0000000
 NQMom=    2.0440000   0.0000000   0.0000000   0.0000000   0.0000000   0.0000000   0.0000000   0.0000000   0.0000000   0.0000000
 NMagM=    0.4037610   0.0000000   0.0000000   0.0000000   0.0000000   0.0000000   0.0000000   2.7928460   2.7928460   2.7928460
 AtZNuc=   7.0000000   6.0000000   6.0000000   6.0000000  16.0000000   6.0000000   6.0000000   1.0000000   1.0000000   1.0000000

  Atom        11          12          13          14          15
 IAtWgt=           1           1           1           1           1
 AtmWgt=   1.0078250   1.0078250   1.0078250   1.0078250   1.0078250
 NucSpn=           1           1           1           1           1
 AtZEff=   1.0000000   1.0000000   1.0000000   1.0000000   1.0000000
 NQMom=    0.0000000   0.0000000   0.0000000   0.0000000   0.0000000
 NMagM=    2.7928460   2.7928460   2.7928460   2.7928460   2.7928460
 AtZNuc=   1.0000000   1.0000000   1.0000000   1.0000000   1.0000000
 Leave Link  101 at Fri Jun  2 11:00:48 2023, MaxMem=  7381975040 cpu:               0.4 elap:               0.9
 (Enter /software/commercial/gaussian/g16/AVX/g16/l103.exe)

 GradGradGradGradGradGradGradGradGradGradGradGradGradGradGradGradGradGrad
 Berny optimization.
 Initialization pass.
 Trust Radius=3.00D-01 FncErr=1.00D-07 GrdErr=1.00D-07 EigMax=2.50D+02 EigMin=1.00D-04
 Number of steps in this run=      2 maximum allowed number of steps=      2.
 GradGradGradGradGradGradGradGradGradGradGradGradGradGradGradGradGradGrad

 Leave Link  103 at Fri Jun  2 11:00:50 2023, MaxMem=  7381975040 cpu:               0.1 elap:               0.8
 (Enter /software/commercial/gaussian/g16/AVX/g16/l202.exe)
                          Input orientation:                          
 ---------------------------------------------------------------------
 Center     Atomic      Atomic             Coordinates (Angstroms)
 Number     Number       Type             X           Y           Z
 ---------------------------------------------------------------------
      1          7           0       -0.057411    0.132917   -0.030218
      2          6           0        1.044057   -0.600099   -0.044035
      3          6           0       -0.440453    0.586922   -1.281444
      4          6           0        0.403894    0.182644   -2.257595
      5         16           0        1.687846   -0.776806   -1.601634
      6          6           0       -0.852938    0.398038    1.196837
      7          6           0       -2.059678   -0.526711    1.283008
      8          1           0       -2.614380   -0.295534    2.193938
      9          1           0       -2.728515   -0.388910    0.431696
     10          1           0       -1.747908   -1.571714    1.322857
     11          1           0       -1.145080    1.446567    1.155923
     12          1           0       -0.179911    0.265535    2.041481
     13          1           0       -1.323582    1.196924   -1.379945
     14          1           0        0.352934    0.395098   -3.312506
     15          1           0        1.477056   -1.035401    0.842729
 ---------------------------------------------------------------------
                    Distance matrix (angstroms):
                    1          2          3          4          5
     1  N    0.000000
     2  C    1.323154   0.000000
     3  C    1.385066   2.268032   0.000000
     4  C    2.275189   2.433586   1.352492   0.000000
     5  S    2.518505   1.694640   2.547927   1.731866   0.000000
     6  C    1.486208   2.476818   2.519463   3.682271   3.958191
     7  C    2.483696   3.376329   3.230864   4.371298   4.735783
     8  H    3.415923   4.299470   4.193205   5.399517   5.757355
     9  H    2.760518   3.808309   3.020318   4.167847   4.877411
    10  H    2.755787   3.256915   3.626504   4.530747   4.581368
    11  H    2.077409   3.228166   2.678852   3.955873   4.535744
    12  H    2.079550   2.568423   3.348582   4.339327   4.224604
    13  H    2.134728   3.258783   1.077833   2.187055   3.607417
    14  H    3.318213   3.485824   2.188943   1.077298   2.466258
    15  H    2.116977   1.078576   3.289510   3.499617   2.467025
                    6          7          8          9         10
     6  C    0.000000
     7  C    1.522764   0.000000
     8  H    2.139611   1.091297   0.000000
     9  H    2.173135   1.091359   1.768401   0.000000
    10  H    2.167205   1.091247   1.771494   1.776171   0.000000
    11  H    1.089235   2.178639   2.504243   2.529970   3.082416
    12  H    1.088093   2.176341   2.502935   3.084654   2.520024
    13  H    2.738527   3.256390   4.082429   2.787606   3.892371
    14  H    4.667794   5.271544   6.293079   4.912132   5.456050
    15  H    2.758443   3.600153   4.371844   4.274777   3.304322
                   11         12         13         14         15
    11  H    0.000000
    12  H    1.763689   0.000000
    13  H    2.554371   3.725805   0.000000
    14  H    4.828715   5.381996   2.681124   0.000000
    15  H    3.624065   2.423836   4.215107   4.536072   0.000000
 Symmetry turned off by external request.
 Stoichiometry    C5H8NS(1+)
 Framework group  C1[X(C5H8NS)]
 Deg. of freedom    39
 Full point group                 C1      NOp   1
 Rotational constants (GHZ):           5.5684599           1.4640147           1.2751101
 Leave Link  202 at Fri Jun  2 11:00:51 2023, MaxMem=  7381975040 cpu:               0.1 elap:               0.7
 (Enter /software/commercial/gaussian/g16/AVX/g16/l301.exe)
 Standard basis: 6-311+G(d,p) (5D, 7F)
 Ernie: Thresh=  0.10000D-02 Tol=  0.10000D-05 Strict=F.
   210 basis functions,   330 primitive gaussians,   217 cartesian basis functions
    30 alpha electrons       30 beta electrons
       nuclear repulsion energy       362.9733404976 Hartrees.
 IExCor=  402 DFT=T Ex+Corr=B3LYP ExCW=0 ScaHFX=  0.200000
 ScaDFX=  0.800000  0.720000  1.000000  0.810000 ScalE2=  1.000000  1.000000
 IRadAn=      5 IRanWt=     -1 IRanGd=            0 ICorTp=0 IEmpDi=141
 NAtoms=   15 NActive=   15 NUniq=   15 SFac= 1.00D+00 NAtFMM=   60 NAOKFM=F Big=F
 Integral buffers will be    131072 words long.
 Raffenetti 2 integral format.
 Two-electron integral symmetry is turned off.
 R6Disp:  Grimme-D3(BJ) Dispersion energy=       -0.0253880277 Hartrees.
 Nuclear repulsion after empirical dispersion term =      362.9479524699 Hartrees.
 Force inversion solution in PCM.
 ------------------------------------------------------------------------------
 Polarizable Continuum Model (PCM)
 =================================
 Model                : PCM.
 Atomic radii         : UFF (Universal Force Field).
 Polarization charges : Total charges.
 Charge compensation  : None.
 Solution method      : Matrix inversion.
 Cavity type          : Scaled VdW (van der Waals Surface) (Alpha=1.100).
 Cavity algorithm     : GePol (No added spheres)
                        Default sphere list used, NSphG=   15.
                        Lebedev-Laikov grids with approx.  5.0 points / Ang**2.
                        Smoothing algorithm: York/Karplus (Gamma=1.0000).
                        Polarization charges: spherical gaussians, with
                                              point-specific exponents (IZeta= 3).
                        Self-potential: point-specific (ISelfS= 7).
                        Self-field    : sphere-specific E.n sum rule (ISelfD= 2).
 1st derivatives      : Analytical E(r).r(x)/FMM algorithm (CHGder, D1EAlg=3).
                        Cavity 1st derivative terms included.
 2nd derivatives      : Analytical E(r).r(xy)/FMM algorithm (CHGder, D2EAlg=3).
                        Cavity 2nd derivative terms included.
 Solvent              : Ethanol, Eps=  24.852000 Eps(inf)=   1.852593
 ------------------------------------------------------------------------------
 Spheres list:
 ISph  on   Nord     Re0    Alpha      Xe            Ye            Ze
    1   N      1    1.8300  1.100     -0.057411      0.132917     -0.030218
    2   C      2    1.9255  1.100      1.044057     -0.600099     -0.044035
    3   C      3    1.9255  1.100     -0.440453      0.586922     -1.281444
    4   C      4    1.9255  1.100      0.403894      0.182644     -2.257595
    5   S      5    2.0175  1.100      1.687846     -0.776806     -1.601634
    6   C      6    1.9255  1.100     -0.852938      0.398038      1.196837
    7   C      7    1.9255  1.100     -2.059678     -0.526711      1.283008
    8   H      8    1.4430  1.100     -2.614380     -0.295534      2.193938
    9   H      9    1.4430  1.100     -2.728515     -0.388910      0.431696
   10   H     10    1.4430  1.100     -1.747908     -1.571714      1.322857
   11   H     11    1.4430  1.100     -1.145080      1.446567      1.155923
   12   H     12    1.4430  1.100     -0.179911      0.265535      2.041481
   13   H     13    1.4430  1.100     -1.323582      1.196924     -1.379945
   14   H     14    1.4430  1.100      0.352934      0.395098     -3.312506
   15   H     15    1.4430  1.100      1.477056     -1.035401      0.842729
 ------------------------------------------------------------------------------
 GePol: Number of generator spheres                  =      15
 GePol: Total number of spheres                      =      15
 GePol: Number of exposed spheres                    =      15 (100.00%)
 GePol: Number of points                             =    1315
 GePol: Average weight of points                     =       0.13
 GePol: Minimum weight of points                     =   0.20D-08
 GePol: Maximum weight of points                     =    0.20577
 GePol: Number of points with low weight             =      79
 GePol: Fraction of low-weight points (<1% of avg)   =       6.01%
 GePol: Cavity surface area                          =    175.836 Ang**2
 GePol: Cavity volume                                =    169.940 Ang**3
 Leave Link  301 at Fri Jun  2 11:00:55 2023, MaxMem=  7381975040 cpu:               2.2 elap:               2.6
 (Enter /software/commercial/gaussian/g16/AVX/g16/l302.exe)
 NPDir=0 NMtPBC=     1 NCelOv=     1 NCel=       1 NClECP=     1 NCelD=      1
         NCelK=      1 NCelE2=     1 NClLst=     1 CellRange=     0.0.
 One-electron integrals computed using PRISM.
 NBasis=   210 RedAO= T EigKep=  2.51D-05  NBF=   210
 NBsUse=   210 1.00D-06 EigRej= -1.00D+00 NBFU=   210
 Precomputing XC quadrature grid using
 IXCGrd= 4 IRadAn=           5 IRanWt=          -1 IRanGd=           0 AccXCQ= 0.00D+00.
 Generated NRdTot=       0 NPtTot=           0 NUsed=           0 NTot=          32
 NSgBfM=   217   217   217   217   217 MxSgAt=    15 MxSgA2=    15.
 Leave Link  302 at Fri Jun  2 11:00:57 2023, MaxMem=  7381975040 cpu:               1.3 elap:               1.4
 (Enter /software/commercial/gaussian/g16/AVX/g16/l303.exe)
 DipDrv:  MaxL=1.
 Leave Link  303 at Fri Jun  2 11:00:59 2023, MaxMem=  7381975040 cpu:               0.2 elap:               0.8
 (Enter /software/commercial/gaussian/g16/AVX/g16/l401.exe)
 Initial guess from the checkpoint file:  "/scratch1/svicchi/G09-659731.pbs02/02-freq/3ethylthiazolium-isolated-freq.chk"
 B after Tr=     0.000000    0.000000    0.000000
         Rot=    1.000000    0.000000    0.000000    0.000000 Ang=   0.00 deg.
 Guess basis will be translated and rotated to current coordinates.
 JPrj=2 DoOrth=T DoCkMO=T.
 Leave Link  401 at Fri Jun  2 11:01:01 2023, MaxMem=  7381975040 cpu:               0.6 elap:               1.0
 (Enter /software/commercial/gaussian/g16/AVX/g16/l502.exe)
 Keep R1 ints in memory in canonical form, NReq=250614196.
 FoFCou: FMM=F IPFlag=           0 FMFlag=           0 FMFlg1=           0
         NFxFlg=           0 DoJE=F BraDBF=F KetDBF=F FulRan=T
         wScrn=  0.000000 ICntrl=       600 IOpCl=  0 I1Cent=           0 NGrid=           0
         NMat0=    1 NMatS0=  22155 NMatT0=    0 NMatD0=    1 NMtDS0=    0 NMtDT0=    0
 Symmetry not used in FoFCou.
 Two-electron integral symmetry not used.
 Closed shell SCF:
 Using DIIS extrapolation, IDIIS=  1040.
 NGot=  7381975040 LenX=  7136444409 LenY=  7136396879
 Requested convergence on RMS density matrix=1.00D-08 within 350 cycles.
 Requested convergence on MAX density matrix=1.00D-06.
 Requested convergence on             energy=1.00D-06.
 No special actions if energy rises.

 Cycle   1  Pass 1  IDiag  1:
 Inv3:  Mode=1 IEnd=     5187675.
 Iteration    1 A*A^-1 deviation from unit magnitude is 4.88D-15 for   1293.
 Iteration    1 A*A^-1 deviation from orthogonality  is 2.15D-15 for   1291   1026.
 Iteration    1 A^-1*A deviation from unit magnitude is 4.66D-15 for   1293.
 Iteration    1 A^-1*A deviation from orthogonality  is 8.90D-15 for    940    915.
 E= -648.236193638644    
 DIIS: error= 3.19D-08 at cycle   1 NSaved=   1.
 NSaved= 1 IEnMin= 1 EnMin= -648.236193638644     IErMin= 1 ErrMin= 3.19D-08
 ErrMax= 3.19D-08  0.00D+00 EMaxC= 1.00D-01 BMatC= 1.40D-13 BMatP= 1.40D-13
 IDIUse=1 WtCom= 1.00D+00 WtEn= 0.00D+00
 Coeff-Com:  0.100D+01
 Coeff:      0.100D+01
 Gap=     0.219 Goal=   None    Shift=    0.000
 RMSDP=4.25D-09 MaxDP=1.67D-07              OVMax= 4.91D-07

 Error on total polarization charges =  0.01064
 SCF Done:  E(RB3LYP) =  -648.236193639     A.U. after    1 cycles
            NFock=  1  Conv=0.42D-08     -V/T= 2.0027
 KE= 6.464868965218D+02 PE=-2.240296149957D+03 EE= 5.826251073263D+02
 Leave Link  502 at Fri Jun  2 11:01:25 2023, MaxMem=  7381975040 cpu:              35.3 elap:              22.7
 (Enter /software/commercial/gaussian/g16/AVX/g16/l508.exe)
 QCSCF skips out because SCF is already converged.
 Leave Link  508 at Fri Jun  2 11:01:28 2023, MaxMem=  7381975040 cpu:               0.0 elap:               0.8
 (Enter /software/commercial/gaussian/g16/AVX/g16/l801.exe)
 DoSCS=F DFT=T ScalE2(SS,OS)=  1.000000  1.000000
 Range of M.O.s used for correlation:     1   210
 NBasis=   210 NAE=    30 NBE=    30 NFC=     0 NFV=     0
 NROrb=    210 NOA=    30 NOB=    30 NVA=   180 NVB=   180

 **** Warning!!: The largest alpha MO coefficient is  0.48309895D+02

 Leave Link  801 at Fri Jun  2 11:01:30 2023, MaxMem=  7381975040 cpu:               0.1 elap:               1.0
 (Enter /software/commercial/gaussian/g16/AVX/g16/l1002.exe)
 Minotr:  Closed shell wavefunction.
 NEqPCM:  Using equilibrium solvation (IEInf=0, Eps=  24.8520, EpsInf=   1.8526)
          Direct CPHF calculation.
          Differentiating once with respect to electric field.
                with respect to dipole field.
          Electric field/nuclear overlap derivatives assumed to be zero.
          Requested convergence is 1.0D-08 RMS, and 1.0D-07 maximum.
          Secondary convergence is 1.0D-12 RMS, and 1.0D-12 maximum.
          NewPWx=F KeepS1=T KeepF1=T KeepIn=T MapXYZ=F SortEE=F KeepMc=T.
         4611 words used for storage of precomputed grid.
 Keep R1 ints in memory in canonical form, NReq=250839210.
 FoFCou: FMM=F IPFlag=           0 FMFlag=           0 FMFlg1=           0
         NFxFlg=           0 DoJE=F BraDBF=F KetDBF=F FulRan=T
         wScrn=  0.000000 ICntrl=       600 IOpCl=  0 I1Cent=           0 NGrid=           0
         NMat0=    1 NMatS0=  22155 NMatT0=    0 NMatD0=    1 NMtDS0=    0 NMtDT0=    0
 Symmetry not used in FoFCou.
 Two-electron integral symmetry not used.
          MDV=    7381975040 using IRadAn=       1.
          Solving linear equations simultaneously, MaxMat=       0.
          There are     3 degrees of freedom in the 1st order CPHF.  IDoFFX=0 NUNeed=     3.
      3 vectors produced by pass  0 Test12= 1.80D-13 3.33D-08 XBig12= 8.54D+01 5.61D+00.
 AX will form     3 AO Fock derivatives at one time.
      3 vectors produced by pass  1 Test12= 1.80D-13 3.33D-08 XBig12= 3.31D+01 1.64D+00.
      3 vectors produced by pass  2 Test12= 1.80D-13 3.33D-08 XBig12= 4.80D+00 5.54D-01.
      3 vectors produced by pass  3 Test12= 1.80D-13 3.33D-08 XBig12= 1.25D+00 2.75D-01.
      3 vectors produced by pass  4 Test12= 1.80D-13 3.33D-08 XBig12= 1.56D-01 5.98D-02.
      3 vectors produced by pass  5 Test12= 1.80D-13 3.33D-08 XBig12= 1.66D-02 2.72D-02.
      3 vectors produced by pass  6 Test12= 1.80D-13 3.33D-08 XBig12= 1.32D-03 6.44D-03.
      3 vectors produced by pass  7 Test12= 1.80D-13 3.33D-08 XBig12= 5.83D-05 2.13D-03.
      3 vectors produced by pass  8 Test12= 1.80D-13 3.33D-08 XBig12= 1.93D-06 2.02D-04.
      3 vectors produced by pass  9 Test12= 1.80D-13 3.33D-08 XBig12= 5.15D-08 4.43D-05.
      3 vectors produced by pass 10 Test12= 1.80D-13 3.33D-08 XBig12= 1.79D-09 5.29D-06.
      3 vectors produced by pass 11 Test12= 1.80D-13 3.33D-08 XBig12= 3.90D-11 7.88D-07.
      3 vectors produced by pass 12 Test12= 1.80D-13 3.33D-08 XBig12= 1.08D-12 1.32D-07.
 InvSVY:  IOpt=1 It=  1 EMax= 3.55D-15
 Solved reduced A of dimension    39 with     3 vectors.
 End of Minotr F.D. properties file   721 does not exist.
 End of Minotr F.D. properties file   722 does not exist.
 End of Minotr F.D. properties file   788 does not exist.
 Leave Link 1002 at Fri Jun  2 11:03:13 2023, MaxMem=  7381975040 cpu:             177.1 elap:             101.8
 (Enter /software/commercial/gaussian/g16/AVX/g16/l1101.exe)
 Using compressed storage, NAtomX=    15.
 Will process     16 centers per pass.
 R6Disp: Adding Grimme-D3(BJ) dispersion energy 1st derivatives to the gradient.
 Leave Link 1101 at Fri Jun  2 11:03:17 2023, MaxMem=  7381975040 cpu:               0.9 elap:               1.7
 (Enter /software/commercial/gaussian/g16/AVX/g16/l1102.exe)
 Symmetrizing basis deriv contribution to polar:
 IMax=3 JMax=2 DiffMx= 0.00D+00
 Leave Link 1102 at Fri Jun  2 11:03:19 2023, MaxMem=  7381975040 cpu:               0.3 elap:               0.9
 (Enter /software/commercial/gaussian/g16/AVX/g16/l1110.exe)
 Forming Gx(P) for the SCF density, NAtomX=    15.
 Integral derivatives from FoFJK, PRISM(SPDF).
 Do as many integral derivatives as possible in FoFJK.
 G2DrvN: MDV=    7381973359.
 G2DrvN: will do    16 centers at a time, making    1 passes.
 PxScal for G2LodP:  IOpCl= 0 ISclPx=1 IMOff=     1 NMtTot=     4 NTT=   22155 ScalPx= 7.00D+00
 Calling FoFCou, ICntrl=  3107 FMM=F I1Cent=   0 AccDes= 0.00D+00.
 FoFJK:  IHMeth= 1 ICntrl=    3107 DoSepK=F KAlg= 0 I1Cent=           0 FoldK=F
 IRaf=         0 NMat=       1 IRICut=       1 DoRegI=T DoRafI=F ISym2E= 0 IDoP0=0 IntGTp=1.
 FoFCou: FMM=F IPFlag=           0 FMFlag=      100000 FMFlg1=           0
         NFxFlg=           0 DoJE=F BraDBF=F KetDBF=F FulRan=T
         wScrn=  0.000000 ICntrl=      3107 IOpCl=  0 I1Cent=           0 NGrid=           0
         NMat0=    1 NMatS0=      1 NMatT0=    0 NMatD0=    4 NMtDS0=    3 NMtDT0=    0
 Symmetry not used in FoFCou.
 PxScal for G2LodP:  IOpCl= 0 ISclPx=0 IMOff=     1 NMtTot=     4 NTT=   22155 ScalPx= 1.00D+00
 NEqPCM:  Using equilibrium solvation (IEInf=0, Eps=  24.8520, EpsInf=   1.8526)
 G2PCM: DoFxE=T DoFxN=T DoGrad=T DoDP/DQ/DG/TGxP=TFFF NFrqRd=   0 IEInf=0 SqF1=F DoCFld=F IF1Alg=4.
 GePol: Maximum number of non-zero 1st derivatives   =     277
 End of G2Drv F.D. properties file   721 does not exist.
 End of G2Drv F.D. properties file   722 does not exist.
 End of G2Drv F.D. properties file   788 does not exist.
 Leave Link 1110 at Fri Jun  2 11:07:18 2023, MaxMem=  7381975040 cpu:             466.5 elap:             238.2
 (Enter /software/commercial/gaussian/g16/AVX/g16/l1002.exe)
 Minotr:  Closed shell wavefunction.
          IDoAtm=111111111111111
 NEqPCM:  Using equilibrium solvation (IEInf=0, Eps=  24.8520, EpsInf=   1.8526)
          Direct CPHF calculation.
          Differentiating once with respect to electric field.
                with respect to dipole field.
          Differentiating once with respect to nuclear coordinates.
          Requested convergence is 1.0D-08 RMS, and 1.0D-07 maximum.
          Secondary convergence is 1.0D-12 RMS, and 1.0D-12 maximum.
          NewPWx=T KeepS1=F KeepF1=F KeepIn=T MapXYZ=F SortEE=F KeepMc=T.
         4611 words used for storage of precomputed grid.
 Keep R1 ints in memory in canonical form, NReq=250839555.
 FoFCou: FMM=F IPFlag=           0 FMFlag=           0 FMFlg1=           0
         NFxFlg=           0 DoJE=F BraDBF=F KetDBF=F FulRan=T
         wScrn=  0.000000 ICntrl=       600 IOpCl=  0 I1Cent=           0 NGrid=           0
         NMat0=    1 NMatS0=  22155 NMatT0=    0 NMatD0=    1 NMtDS0=    0 NMtDT0=    0
 Symmetry not used in FoFCou.
 Two-electron integral symmetry not used.
          MDV=    7381975040 using IRadAn=       1.
          Solving linear equations simultaneously, MaxMat=       0.
          There are    48 degrees of freedom in the 1st order CPHF.  IDoFFX=5 NUNeed=    48.
 Will reuse    3 saved solutions.
     42 vectors produced by pass  0 Test12= 1.12D-14 2.08D-09 XBig12= 1.26D-01 1.18D-01.
 AX will form    42 AO Fock derivatives at one time.
     42 vectors produced by pass  1 Test12= 1.12D-14 2.08D-09 XBig12= 1.55D-02 4.25D-02.
     42 vectors produced by pass  2 Test12= 1.12D-14 2.08D-09 XBig12= 1.89D-04 1.88D-03.
     42 vectors produced by pass  3 Test12= 1.12D-14 2.08D-09 XBig12= 6.19D-07 1.03D-04.
     42 vectors produced by pass  4 Test12= 1.12D-14 2.08D-09 XBig12= 9.53D-10 3.65D-06.
     29 vectors produced by pass  5 Test12= 1.12D-14 2.08D-09 XBig12= 1.20D-12 1.47D-07.
      7 vectors produced by pass  6 Test12= 1.12D-14 2.08D-09 XBig12= 1.66D-15 6.55D-09.
 InvSVY:  IOpt=1 It=  1 EMax= 2.22D-15
 Solved reduced A of dimension   246 with    42 vectors.
 FullF1:  Do perturbations      1 to       3.
 Isotropic polarizability for W=    0.000000       95.62 Bohr**3.
 FullF1:  Do perturbations      1 to       6.
 End of Minotr F.D. properties file   721 does not exist.
 End of Minotr F.D. properties file   722 does not exist.
 End of Minotr F.D. properties file   788 does not exist.
 Leave Link 1002 at Fri Jun  2 11:11:30 2023, MaxMem=  7381975040 cpu:             459.0 elap:             250.9
 (Enter /software/commercial/gaussian/g16/AVX/g16/l601.exe)
 Copying SCF densities to generalized density rwf, IOpCl= 0 IROHF=0.

 **********************************************************************

            Population analysis using the SCF Density.

 **********************************************************************

 Alpha  occ. eigenvalues --  -88.94912 -14.45400 -10.30662 -10.26783 -10.25703
 Alpha  occ. eigenvalues --  -10.25241 -10.18822  -8.03467  -5.99734  -5.99329
 Alpha  occ. eigenvalues --   -5.99130  -1.07445  -0.89742  -0.82235  -0.79815
 Alpha  occ. eigenvalues --   -0.68935  -0.67374  -0.63077  -0.57830  -0.51663
 Alpha  occ. eigenvalues --   -0.51039  -0.49101  -0.47849  -0.46366  -0.42614
 Alpha  occ. eigenvalues --   -0.41799  -0.40410  -0.38717  -0.34412  -0.31455
 Alpha virt. eigenvalues --   -0.09530  -0.03706  -0.02802  -0.00519   0.01335
 Alpha virt. eigenvalues --    0.01860   0.02163   0.02886   0.03294   0.04843
 Alpha virt. eigenvalues --    0.04932   0.06185   0.06924   0.07171   0.07528
 Alpha virt. eigenvalues --    0.08023   0.08516   0.09848   0.10892   0.11212
 Alpha virt. eigenvalues --    0.11923   0.12538   0.13763   0.14074   0.15179
 Alpha virt. eigenvalues --    0.15443   0.16175   0.16976   0.17292   0.18615
 Alpha virt. eigenvalues --    0.19386   0.20088   0.20373   0.20962   0.21520
 Alpha virt. eigenvalues --    0.22316   0.22807   0.23649   0.24856   0.25992
 Alpha virt. eigenvalues --    0.27373   0.28534   0.28982   0.30854   0.33348
 Alpha virt. eigenvalues --    0.34756   0.35835   0.39209   0.39351   0.42017
 Alpha virt. eigenvalues --    0.43465   0.45334   0.46314   0.51158   0.51732
 Alpha virt. eigenvalues --    0.54327   0.54840   0.56405   0.57136   0.59421
 Alpha virt. eigenvalues --    0.59769   0.61765   0.63192   0.64402   0.65586
 Alpha virt. eigenvalues --    0.66054   0.67469   0.68919   0.69734   0.70722
 Alpha virt. eigenvalues --    0.71778   0.72027   0.73413   0.78153   0.78729
 Alpha virt. eigenvalues --    0.80078   0.83329   0.88421   0.89206   0.90950
 Alpha virt. eigenvalues --    0.93559   0.95347   0.95992   0.98719   1.02164
 Alpha virt. eigenvalues --    1.04699   1.09291   1.14277   1.18442   1.22207
 Alpha virt. eigenvalues --    1.22831   1.30649   1.33782   1.38597   1.43342
 Alpha virt. eigenvalues --    1.44018   1.47365   1.50656   1.51433   1.53378
 Alpha virt. eigenvalues --    1.54596   1.54810   1.58064   1.59355   1.62066
 Alpha virt. eigenvalues --    1.62268   1.62945   1.65908   1.68951   1.70872
 Alpha virt. eigenvalues --    1.73011   1.74045   1.75771   1.78251   1.80166
 Alpha virt. eigenvalues --    1.83675   1.86800   1.91085   1.91226   1.97880
 Alpha virt. eigenvalues --    1.99765   2.03161   2.06879   2.07781   2.09902
 Alpha virt. eigenvalues --    2.15086   2.17484   2.23317   2.25645   2.32057
 Alpha virt. eigenvalues --    2.35602   2.39251   2.41996   2.44775   2.46496
 Alpha virt. eigenvalues --    2.48091   2.52061   2.54356   2.57549   2.60212
 Alpha virt. eigenvalues --    2.61759   2.62055   2.66003   2.66449   2.71651
 Alpha virt. eigenvalues --    2.73519   2.75026   2.77578   2.79851   2.81246
 Alpha virt. eigenvalues --    2.83598   2.88935   2.94956   3.08317   3.14643
 Alpha virt. eigenvalues --    3.23240   3.30844   3.45490   3.52496   3.59690
 Alpha virt. eigenvalues --    3.75421   3.77024   3.79597   3.81364   3.85479
 Alpha virt. eigenvalues --    4.03253   4.20126   4.84724   4.90015   7.90799
 Alpha virt. eigenvalues --   17.21446  17.35789  17.41822  23.64195  23.77099
 Alpha virt. eigenvalues --   23.82635  23.94513  24.12286  35.46493 189.05876
     Molecular Orbital Coefficients:
                           1         2         3         4         5
                           O         O         O         O         O
     Eigenvalues --   -88.94912 -14.45400 -10.30662 -10.26783 -10.25703
   1 1   N  1S         -0.00000   0.55737  -0.00008  -0.00005   0.00000
   2        2S          0.00001   0.46570  -0.00000  -0.00007   0.00004
   3        2PX         0.00001   0.00004   0.00047  -0.00006  -0.00005
   4        2PY        -0.00001  -0.00004  -0.00031   0.00009   0.00005
   5        2PZ        -0.00001  -0.00005  -0.00003  -0.00034  -0.00010
   6        3S         -0.00003   0.01623   0.00055   0.00075  -0.00003
   7        3PX        -0.00005   0.00063  -0.00148  -0.00005   0.00020
   8        3PY         0.00003  -0.00041   0.00098  -0.00005  -0.00023
   9        3PZ         0.00004  -0.00053   0.00012   0.00058   0.00067
  10        4S         -0.00003  -0.01509  -0.00397  -0.00136  -0.00231
  11        4PX         0.00023   0.00010  -0.00142   0.00148   0.00097
  12        4PY        -0.00010   0.00008   0.00109  -0.00091  -0.00037
  13        4PZ        -0.00032   0.00049  -0.00026  -0.00004  -0.00155
  14        5S          0.00039   0.00800   0.02092   0.01587   0.00036
  15        5PX         0.00093   0.00045   0.00963   0.00001   0.00121
  16        5PY        -0.00036  -0.00020  -0.00666   0.00120   0.00075
  17        5PZ        -0.00124  -0.00053  -0.00212  -0.00981  -0.00830
  18        6D 0        0.00001   0.00002   0.00059  -0.00058  -0.00020
  19        6D+1        0.00000   0.00007   0.00014  -0.00016  -0.00021
  20        6D-1       -0.00000  -0.00017  -0.00005   0.00031   0.00019
  21        6D+2       -0.00000   0.00021  -0.00049  -0.00004   0.00006
  22        6D-2        0.00001  -0.00054   0.00114   0.00020  -0.00004
  23 2   C  1S          0.00000  -0.00001   0.56292   0.00004   0.00003
  24        2S         -0.00000   0.00013   0.46332   0.00004   0.00003
  25        2PX         0.00002  -0.00042  -0.00016   0.00003  -0.00001
  26        2PY        -0.00001   0.00030   0.00022  -0.00003  -0.00001
  27        2PZ        -0.00006  -0.00007  -0.00069   0.00006   0.00005
  28        3S          0.00008   0.00009   0.01913  -0.00013  -0.00012
  29        3PX        -0.00004   0.00148  -0.00101  -0.00001   0.00017
  30        3PY         0.00000  -0.00109   0.00030   0.00003  -0.00009
  31        3PZ         0.00017   0.00058   0.00221  -0.00016  -0.00011
  32        4S         -0.00030   0.00225  -0.01277  -0.00173  -0.00093
  33        4PX         0.00016  -0.00201   0.00160   0.00033  -0.00081
  34        4PY        -0.00015   0.00133  -0.00134  -0.00007   0.00028
  35        4PZ         0.00016  -0.00046   0.00213  -0.00063   0.00122
  36        5S         -0.00089  -0.00775  -0.02644  -0.00924   0.00187
  37        5PX         0.00027   0.00173   0.00557  -0.00153  -0.00039
  38        5PY        -0.00016  -0.00128  -0.00382   0.00036   0.00020
  39        5PZ        -0.00015   0.00103   0.00179   0.00401  -0.00009
  40        6D 0       -0.00009   0.00093   0.00027   0.00013   0.00017
  41        6D+1        0.00008   0.00012   0.00101   0.00020   0.00009
  42        6D-1       -0.00003  -0.00019  -0.00102  -0.00019  -0.00011
  43        6D+2       -0.00000  -0.00036   0.00045  -0.00000  -0.00001
  44        6D-2       -0.00002   0.00082  -0.00159  -0.00009  -0.00003
  45 3   C  1S         -0.00000   0.00001  -0.00005   0.56257  -0.01929
  46        2S          0.00001   0.00002  -0.00003   0.46290  -0.01555
  47        2PX        -0.00000   0.00012  -0.00009   0.00017   0.00057
  48        2PY        -0.00000  -0.00015   0.00004  -0.00027  -0.00027
  49        2PZ        -0.00000   0.00043   0.00005   0.00086  -0.00074
  50        3S         -0.00003   0.00030  -0.00014   0.01993  -0.00140
  51        3PX        -0.00005  -0.00026   0.00034   0.00039  -0.00318
  52        3PY         0.00003   0.00039  -0.00016   0.00008   0.00156
  53        3PZ         0.00002  -0.00129  -0.00025  -0.00188   0.00363
  54        4S         -0.00019   0.00499   0.00033  -0.01365   0.00022
  55        4PX        -0.00013   0.00257   0.00177  -0.00382   0.00187
  56        4PY         0.00006  -0.00214  -0.00122   0.00248  -0.00108
  57        4PZ         0.00004   0.00196  -0.00014   0.00033  -0.00149
  58        5S         -0.00257  -0.00093  -0.00819  -0.00240  -0.01453
  59        5PX        -0.00046   0.00069  -0.00206   0.00199  -0.00114
  60        5PY         0.00029   0.00056   0.00081   0.00074   0.00143
  61        5PZ         0.00013  -0.00207   0.00678  -0.00937  -0.00341
  62        6D 0       -0.00001  -0.00053  -0.00014   0.00002  -0.00046
  63        6D+1        0.00003  -0.00073   0.00005  -0.00097   0.00218
  64        6D-1       -0.00002   0.00059  -0.00003   0.00029  -0.00116
  65        6D+2        0.00000   0.00021   0.00009   0.00093  -0.00067
  66        6D-2       -0.00002  -0.00020  -0.00022  -0.00193   0.00074
  67 4   C  1S          0.00000  -0.00001  -0.00003   0.01911   0.56258
  68        2S         -0.00001   0.00005  -0.00002   0.01604   0.46294
  69        2PX         0.00004  -0.00006  -0.00001  -0.00044   0.00079
  70        2PY        -0.00003   0.00003   0.00001   0.00019  -0.00055
  71        2PZ         0.00002   0.00005  -0.00005   0.00061   0.00015
  72        3S          0.00008  -0.00021  -0.00006   0.00000   0.01968
  73        3PX        -0.00012   0.00053   0.00009   0.00217  -0.00287
  74        3PY         0.00009  -0.00020  -0.00006  -0.00093   0.00182
  75        3PZ        -0.00003  -0.00083  -0.00003  -0.00321   0.00070
  76        4S          0.00014  -0.00208  -0.00221   0.00151  -0.01203
  77        4PX         0.00009  -0.00013   0.00006  -0.00091   0.00065
  78        4PY        -0.00004   0.00052   0.00018   0.00036   0.00032
  79        4PZ        -0.00008  -0.00278  -0.00116   0.00158  -0.00456
  80        5S          0.00138  -0.00505   0.00357  -0.00982   0.01179
  81        5PX        -0.00026  -0.00038  -0.00534   0.00397   0.00098
  82        5PY         0.00011  -0.00009   0.00319  -0.00279  -0.00140
  83        5PZ         0.00030  -0.00011   0.00075  -0.00088   0.00394
  84        6D 0        0.00004   0.00015   0.00015  -0.00032   0.00228
  85        6D+1       -0.00007   0.00038   0.00015   0.00173  -0.00167
  86        6D-1        0.00005  -0.00029  -0.00014  -0.00093   0.00032
  87        6D+2       -0.00001  -0.00008  -0.00002  -0.00056   0.00047
  88        6D-2        0.00006   0.00002  -0.00003   0.00066  -0.00060
  89 5   S  1S          0.41089  -0.00000  -0.00000  -0.00000  -0.00000
  90        2S          0.65437   0.00001  -0.00001   0.00000  -0.00001
  91        3S          0.01536  -0.00006   0.00002  -0.00002   0.00005
  92        4S         -0.00458   0.00014  -0.00007   0.00005  -0.00016
  93        5S          0.00184  -0.00017   0.00051   0.00001   0.00057
  94        6S         -0.00141   0.00042   0.00118  -0.00114   0.00176
  95        7S          0.00035   0.00606   0.01525   0.00487  -0.00780
  96        7PX        -0.00032  -0.00171  -0.00346  -0.00038   0.00254
  97        7PY         0.00021   0.00127   0.00246  -0.00013  -0.00156
  98        7PZ         0.00007  -0.00012  -0.00096   0.00297  -0.00036
  99        8PX        -0.00009   0.00001  -0.00000   0.00000  -0.00001
 100        8PY         0.00005  -0.00000  -0.00000  -0.00000   0.00001
 101        8PZ         0.00004  -0.00000   0.00001   0.00000  -0.00001
 102        9PX         0.00003  -0.00003   0.00001  -0.00002   0.00007
 103        9PY        -0.00002   0.00002   0.00001   0.00001  -0.00006
 104        9PZ        -0.00002   0.00002  -0.00009  -0.00000   0.00007
 105       10PX         0.00000   0.00008  -0.00010   0.00002  -0.00031
 106       10PY        -0.00000  -0.00006  -0.00001  -0.00001   0.00025
 107       10PZ        -0.00001  -0.00002   0.00046  -0.00002  -0.00028
 108       11PX        -0.00014  -0.00000  -0.00027   0.00017  -0.00034
 109       11PY         0.00007   0.00010   0.00020  -0.00013   0.00019
 110       11PZ         0.00012  -0.00039  -0.00010   0.00003   0.00028
 111       12PX         0.00043   0.00005  -0.00053   0.00051  -0.00087
 112       12PY        -0.00025  -0.00024   0.00015  -0.00031   0.00048
 113       12PZ        -0.00027   0.00077   0.00095  -0.00020   0.00043
 114       13D 0        0.00002  -0.00009  -0.00013   0.00005  -0.00005
 115       13D+1       -0.00002   0.00014   0.00006  -0.00013   0.00006
 116       13D-1        0.00000  -0.00007   0.00000   0.00008  -0.00002
 117       13D+2        0.00002  -0.00003  -0.00003   0.00000  -0.00001
 118       13D-2       -0.00003   0.00000   0.00004   0.00004   0.00001
 119 6   C  1S         -0.00000   0.00001  -0.00004  -0.00010  -0.00026
 120        2S          0.00000  -0.00003  -0.00001  -0.00008  -0.00019
 121        2PX        -0.00000   0.00014  -0.00005   0.00001  -0.00000
 122        2PY        -0.00000  -0.00008   0.00001  -0.00003  -0.00001
 123        2PZ         0.00000  -0.00024  -0.00005   0.00003  -0.00000
 124        3S         -0.00005   0.00009  -0.00033  -0.00019  -0.00050
 125        3PX         0.00001  -0.00006   0.00019  -0.00000   0.00007
 126        3PY         0.00001   0.00028   0.00005   0.00014   0.00008
 127        3PZ        -0.00001   0.00042   0.00024  -0.00010   0.00004
 128        4S          0.00069   0.00376   0.00184   0.00209   0.00497
 129        4PX         0.00017   0.00080  -0.00049  -0.00001   0.00068
 130        4PY        -0.00004  -0.00015  -0.00083  -0.00061  -0.00024
 131        4PZ        -0.00023  -0.00127  -0.00045  -0.00052  -0.00177
 132        5S          0.00173  -0.00954  -0.01494  -0.00276   0.00632
 133        5PX         0.00025   0.00187   0.00411   0.00184   0.00158
 134        5PY        -0.00023   0.00220   0.00280   0.00247   0.00003
 135        5PZ        -0.00038   0.00065   0.00107  -0.00205  -0.00261
 136        6D 0        0.00000  -0.00025  -0.00014   0.00010   0.00004
 137        6D+1       -0.00000   0.00037   0.00006   0.00002  -0.00000
 138        6D-1        0.00000  -0.00011   0.00002  -0.00006  -0.00002
 139        6D+2        0.00000  -0.00014   0.00006  -0.00003  -0.00003
 140        6D-2       -0.00000   0.00008  -0.00010   0.00002  -0.00002
 141 7   C  1S         -0.00000  -0.00000  -0.00000   0.00000  -0.00001
 142        2S          0.00000   0.00002   0.00000  -0.00000   0.00000
 143        2PX         0.00000   0.00006   0.00001   0.00002   0.00003
 144        2PY         0.00000   0.00005   0.00002  -0.00000   0.00002
 145        2PZ        -0.00000  -0.00000  -0.00001   0.00002  -0.00001
 146        3S         -0.00001  -0.00012   0.00010   0.00012   0.00001
 147        3PX        -0.00002  -0.00038  -0.00001  -0.00007  -0.00013
 148        3PY        -0.00001  -0.00027  -0.00008   0.00002  -0.00006
 149        3PZ         0.00001   0.00004   0.00007  -0.00008   0.00007
 150        4S         -0.00002   0.00013  -0.00126  -0.00095  -0.00102
 151        4PX         0.00006   0.00011  -0.00066  -0.00042   0.00018
 152        4PY         0.00003  -0.00024   0.00019  -0.00010  -0.00011
 153        4PZ        -0.00003  -0.00027   0.00041   0.00056   0.00017
 154        5S         -0.00037   0.01061   0.01560   0.00941   0.00161
 155        5PX        -0.00007   0.00243   0.00364   0.00203   0.00038
 156        5PY        -0.00003   0.00129   0.00185   0.00122   0.00042
 157        5PZ         0.00003  -0.00100  -0.00075  -0.00052  -0.00003
 158        6D 0        0.00000   0.00010   0.00002   0.00002   0.00000
 159        6D+1       -0.00000  -0.00001  -0.00002   0.00001  -0.00002
 160        6D-1        0.00000   0.00006   0.00003   0.00002   0.00004
 161        6D+2        0.00000  -0.00004  -0.00000  -0.00000   0.00000
 162        6D-2        0.00000  -0.00012   0.00001   0.00001   0.00001
 163 8   H  1S         -0.00000  -0.00005  -0.00001  -0.00001  -0.00003
 164        2S          0.00001   0.00003   0.00000   0.00005   0.00017
 165        3S          0.00007   0.00005  -0.00037  -0.00057   0.00018
 166        4PX         0.00000  -0.00001   0.00002   0.00001   0.00001
 167        4PY         0.00000   0.00004  -0.00001   0.00001   0.00003
 168        4PZ        -0.00000   0.00004   0.00002  -0.00001  -0.00002
 169 9   H  1S         -0.00000   0.00005  -0.00005   0.00001  -0.00003
 170        2S          0.00001  -0.00032   0.00043   0.00012   0.00030
 171        3S          0.00011  -0.00057   0.00006  -0.00042   0.00020
 172        4PX         0.00000  -0.00017   0.00010  -0.00007   0.00001
 173        4PY        -0.00000   0.00002  -0.00000  -0.00005  -0.00002
 174        4PZ        -0.00000  -0.00003  -0.00000   0.00003   0.00004
 175 10  H  1S         -0.00000   0.00005  -0.00004  -0.00003  -0.00002
 176        2S          0.00002  -0.00038   0.00046   0.00034   0.00017
 177        3S          0.00005  -0.00052  -0.00067  -0.00033   0.00037
 178        4PX        -0.00000  -0.00002  -0.00007   0.00001   0.00002
 179        4PY         0.00000  -0.00014  -0.00000   0.00003   0.00003
 180        4PZ        -0.00000   0.00007   0.00000  -0.00001  -0.00003
 181 11  H  1S          0.00001  -0.00000   0.00006  -0.00000   0.00004
 182        2S         -0.00008  -0.00104  -0.00042  -0.00020  -0.00069
 183        3S          0.00023   0.00030   0.00256  -0.00009   0.00049
 184        4PX        -0.00001  -0.00010  -0.00001   0.00000  -0.00003
 185        4PY         0.00001   0.00026   0.00007   0.00005   0.00010
 186        4PZ        -0.00000  -0.00001  -0.00002   0.00012   0.00003
 187 12  H  1S          0.00000   0.00002  -0.00004   0.00005   0.00004
 188        2S         -0.00006  -0.00103  -0.00040  -0.00039  -0.00051
 189        3S          0.00014   0.00032   0.00041   0.00189   0.00162
 190        4PX         0.00000   0.00013  -0.00001   0.00005   0.00005
 191        4PY        -0.00000  -0.00005   0.00008   0.00002  -0.00003
 192        4PZ         0.00001   0.00025   0.00010   0.00001   0.00008
 193 13  H  1S         -0.00001  -0.00016  -0.00010   0.00014  -0.00019
 194        2S         -0.00006  -0.00018   0.00052  -0.00473  -0.00028
 195        3S          0.00009   0.00148   0.00259   0.00162   0.00107
 196        4PX        -0.00002  -0.00022   0.00003  -0.00203  -0.00037
 197        4PY         0.00001   0.00020  -0.00004   0.00144   0.00022
 198        4PZ         0.00000  -0.00031   0.00008  -0.00041   0.00023
 199 14  H  1S         -0.00001   0.00002  -0.00003  -0.00016   0.00010
 200        2S         -0.00009  -0.00123  -0.00023  -0.00105  -0.00485
 201        3S         -0.00003  -0.00029   0.00041   0.00129   0.00199
 202        4PX        -0.00002   0.00002   0.00004   0.00014  -0.00032
 203        4PY         0.00002   0.00004  -0.00002   0.00002   0.00064
 204        4PZ        -0.00003  -0.00031  -0.00005  -0.00069  -0.00253
 205 15  H  1S         -0.00000  -0.00017   0.00001  -0.00008  -0.00003
 206        2S         -0.00014  -0.00089  -0.00477   0.00014  -0.00024
 207        3S         -0.00002   0.00118   0.00207   0.00163   0.00103
 208        4PX         0.00000   0.00045   0.00104  -0.00004   0.00006
 209        4PY        -0.00001  -0.00035  -0.00108   0.00001  -0.00004
 210        4PZ         0.00005   0.00031   0.00229   0.00005   0.00000
                           6         7         8         9        10
                           O         O         O         O         O
     Eigenvalues --   -10.25241 -10.18822  -8.03467  -5.99734  -5.99329
   1 1   N  1S         -0.00002   0.00000   0.00000   0.00000  -0.00000
   2        2S         -0.00007   0.00002   0.00004   0.00001  -0.00003
   3        2PX        -0.00009  -0.00004   0.00005   0.00005  -0.00003
   4        2PY         0.00005   0.00000  -0.00003  -0.00004   0.00001
   5        2PZ         0.00017   0.00005  -0.00004   0.00003   0.00001
   6        3S          0.00037  -0.00011  -0.00027  -0.00002   0.00019
   7        3PX        -0.00004   0.00023  -0.00048  -0.00029   0.00018
   8        3PY        -0.00004  -0.00001   0.00026   0.00022  -0.00009
   9        3PZ        -0.00003  -0.00025   0.00042  -0.00019  -0.00011
  10        4S          0.00143   0.00042  -0.00007  -0.00051  -0.00021
  11        4PX        -0.00017  -0.00082   0.00334   0.00043   0.00048
  12        4PY        -0.00011   0.00021  -0.00146  -0.00047  -0.00044
  13        4PZ        -0.00039   0.00064  -0.00466   0.00146   0.00022
  14        5S          0.00952   0.00472   0.00735   0.00439   0.00097
  15        5PX        -0.00526  -0.00516   0.01585  -0.00105   0.00030
  16        5PY         0.00187   0.00169  -0.00609   0.00015   0.00012
  17        5PZ         0.00619   0.00425  -0.02150   0.00217  -0.00244
  18        6D 0       -0.00017  -0.00002   0.00012   0.00010  -0.00006
  19        6D+1        0.00024   0.00004  -0.00002   0.00002  -0.00001
  20        6D-1       -0.00015  -0.00001  -0.00001  -0.00002   0.00001
  21        6D+2       -0.00003   0.00000  -0.00002  -0.00004   0.00002
  22        6D-2        0.00004   0.00003   0.00004   0.00008  -0.00004
  23 2   C  1S          0.00004  -0.00000  -0.00006  -0.00009   0.00007
  24        2S          0.00006   0.00000   0.00001  -0.00015   0.00010
  25        2PX        -0.00004   0.00001   0.00019   0.00015  -0.00010
  26        2PY         0.00001   0.00000  -0.00004  -0.00005   0.00003
  27        2PZ        -0.00001   0.00000  -0.00059  -0.00031   0.00021
  28        3S         -0.00026   0.00005   0.00093   0.00075  -0.00016
  29        3PX         0.00031  -0.00011  -0.00048  -0.00004   0.00012
  30        3PY        -0.00015   0.00001   0.00002  -0.00001  -0.00009
  31        3PZ         0.00005   0.00000   0.00213   0.00023   0.00014
  32        4S          0.00094   0.00061  -0.00511  -0.00005  -0.00317
  33        4PX        -0.00051   0.00047   0.00248   0.00143   0.00014
  34        4PY         0.00003   0.00039  -0.00236  -0.00068  -0.00068
  35        4PZ         0.00129  -0.00128   0.00297  -0.00170   0.00364
  36        5S          0.00844   0.00379  -0.01320  -0.00719   0.00520
  37        5PX         0.00009   0.00091   0.00488  -0.00291  -0.00139
  38        5PY         0.00030   0.00024  -0.00290   0.00101   0.00058
  39        5PZ        -0.00103  -0.00155  -0.00347   0.00554   0.00091
  40        6D 0        0.00013   0.00002  -0.00120  -0.00032   0.00001
  41        6D+1        0.00001   0.00000   0.00095   0.00024  -0.00005
  42        6D-1       -0.00010   0.00003  -0.00029  -0.00011   0.00005
  43        6D+2        0.00001  -0.00007  -0.00010   0.00006  -0.00005
  44        6D-2       -0.00006   0.00001  -0.00007  -0.00023   0.00014
  45 3   C  1S          0.00010  -0.00000  -0.00001   0.00000   0.00000
  46        2S          0.00009  -0.00001   0.00002  -0.00002  -0.00001
  47        2PX         0.00000  -0.00001  -0.00005  -0.00003  -0.00001
  48        2PY        -0.00002  -0.00001   0.00002   0.00001  -0.00000
  49        2PZ         0.00005  -0.00001   0.00001   0.00002   0.00006
  50        3S         -0.00008   0.00017  -0.00020   0.00015   0.00005
  51        3PX        -0.00006  -0.00001  -0.00026   0.00026   0.00043
  52        3PY         0.00014   0.00001   0.00021  -0.00014  -0.00021
  53        3PZ        -0.00037   0.00011   0.00005  -0.00018  -0.00038
  54        4S         -0.00247  -0.00081  -0.00338   0.00033   0.00244
  55        4PX        -0.00234   0.00055  -0.00211   0.00028   0.00328
  56        4PY         0.00122   0.00016   0.00099  -0.00044  -0.00233
  57        4PZ         0.00175  -0.00146   0.00082   0.00150   0.00076
  58        5S         -0.00580  -0.00091  -0.04826   0.00373  -0.00174
  59        5PX        -0.00124   0.00073  -0.00879   0.00017  -0.00027
  60        5PY         0.00191   0.00019   0.00559   0.00071   0.00022
  61        5PZ        -0.00099  -0.00426   0.00187  -0.00404   0.00027
  62        6D 0       -0.00007  -0.00005  -0.00019   0.00002   0.00014
  63        6D+1       -0.00006   0.00004   0.00026  -0.00016  -0.00022
  64        6D-1        0.00003   0.00005  -0.00017   0.00010   0.00013
  65        6D+2        0.00009   0.00001   0.00004   0.00003  -0.00001
  66        6D-2       -0.00013   0.00000  -0.00023  -0.00002   0.00014
  67 4   C  1S          0.00026   0.00000  -0.00005   0.00006   0.00007
  68        2S          0.00025   0.00001  -0.00001   0.00013   0.00012
  69        2PX         0.00001   0.00001   0.00047  -0.00020  -0.00020
  70        2PY        -0.00000   0.00001  -0.00035   0.00015   0.00015
  71        2PZ         0.00002   0.00001   0.00019  -0.00008  -0.00007
  72        3S         -0.00031  -0.00011   0.00097  -0.00073  -0.00021
  73        3PX        -0.00001  -0.00004  -0.00160   0.00012   0.00009
  74        3PY         0.00001  -0.00001   0.00115  -0.00009  -0.00002
  75        3PZ        -0.00015  -0.00004  -0.00045   0.00005  -0.00033
  76        4S          0.00381  -0.00028   0.00206   0.00023  -0.00491
  77        4PX        -0.00106   0.00037   0.00115  -0.00118  -0.00146
  78        4PY         0.00038  -0.00033  -0.00051   0.00069   0.00164
  79        4PZ         0.00224   0.00073  -0.00134   0.00061  -0.00396
  80        5S          0.00910  -0.00198   0.02822   0.00243   0.00669
  81        5PX         0.00058   0.00128  -0.00413   0.00463   0.00147
  82        5PY        -0.00129  -0.00091   0.00156  -0.00347  -0.00104
  83        5PZ         0.00283   0.00098   0.00602   0.00176  -0.00018
  84        6D 0        0.00001  -0.00000   0.00047  -0.00021  -0.00014
  85        6D+1        0.00001  -0.00002  -0.00088   0.00033   0.00019
  86        6D-1       -0.00000   0.00001   0.00059  -0.00016  -0.00007
  87        6D+2        0.00001   0.00002  -0.00022  -0.00003  -0.00007
  88        6D-2       -0.00001  -0.00001   0.00088  -0.00007   0.00010
  89 5   S  1S         -0.00000  -0.00000  -0.11962   0.00010  -0.00098
  90        2S          0.00000   0.00000  -0.32016   0.00027  -0.00265
  91        3S         -0.00004  -0.00002   0.51751  -0.00044   0.00439
  92        4S          0.00009   0.00004   0.59239  -0.00058   0.00524
  93        5S         -0.00029  -0.00010   0.05597   0.00010  -0.00142
  94        6S          0.00119  -0.00069  -0.02718  -0.00057   0.00704
  95        7S         -0.00641  -0.00280   0.00312   0.00261  -0.00784
  96        7PX         0.00101  -0.00006  -0.00499  -0.00006   0.00074
  97        7PY        -0.00049  -0.00014   0.00333  -0.00011  -0.00049
  98        7PZ        -0.00104  -0.00060   0.00100   0.00115   0.00071
  99        8PX         0.00000   0.00000  -0.00216   0.06986   0.30620
 100        8PY        -0.00000   0.00000   0.00126  -0.10266  -0.18980
 101        8PZ        -0.00000   0.00000   0.00109   0.35682  -0.11455
 102        9PX        -0.00001  -0.00000  -0.00473   0.13079   0.57278
 103        9PY         0.00000  -0.00001   0.00277  -0.19218  -0.35506
 104        9PZ         0.00001  -0.00001   0.00239   0.66792  -0.21427
 105       10PX         0.00003  -0.00001  -0.00009   0.01113   0.04886
 106       10PY        -0.00001   0.00003   0.00005  -0.01639  -0.03026
 107       10PZ        -0.00006   0.00005  -0.00007   0.05707  -0.01833
 108       11PX        -0.00004   0.00016  -0.00262  -0.00155  -0.00832
 109       11PY        -0.00002  -0.00015   0.00145   0.00237   0.00510
 110       11PZ         0.00025  -0.00025   0.00211  -0.00846   0.00321
 111       12PX        -0.00046  -0.00017   0.00757   0.00106   0.00265
 112       12PY         0.00027   0.00011  -0.00436  -0.00149  -0.00167
 113       12PZ         0.00058   0.00025  -0.00463   0.00494  -0.00067
 114       13D 0        0.00004  -0.00002   0.00056   0.00051   0.00023
 115       13D+1       -0.00001  -0.00000  -0.00029  -0.00056   0.00029
 116       13D-1        0.00000  -0.00001  -0.00007   0.00027  -0.00020
 117       13D+2       -0.00001  -0.00000   0.00030  -0.00002  -0.00018
 118       13D-2        0.00001   0.00001  -0.00064   0.00026   0.00032
 119 6   C  1S          0.56302  -0.00104  -0.00000   0.00000  -0.00000
 120        2S          0.46324  -0.00089   0.00003   0.00001  -0.00001
 121        2PX         0.00044  -0.00038  -0.00001   0.00002  -0.00002
 122        2PY        -0.00036  -0.00030  -0.00001  -0.00002   0.00001
 123        2PZ        -0.00095  -0.00000   0.00001  -0.00000   0.00002
 124        3S          0.01937   0.00040  -0.00077  -0.00004   0.00009
 125        3PX         0.00030   0.00075   0.00017  -0.00011   0.00009
 126        3PY         0.00145   0.00075   0.00013   0.00010  -0.00004
 127        3PZ         0.00163   0.00021  -0.00011   0.00004  -0.00011
 128        4S         -0.01578   0.00074   0.01017  -0.00079  -0.00004
 129        4PX         0.00063  -0.00205   0.00251  -0.00026  -0.00062
 130        4PY         0.00120  -0.00101  -0.00053  -0.00045   0.00063
 131        4PZ         0.00221   0.00111  -0.00350   0.00042  -0.00029
 132        5S         -0.02614   0.02069   0.03176  -0.00967  -0.00424
 133        5PX         0.00068  -0.00398   0.00449  -0.00055  -0.00037
 134        5PY         0.00288  -0.00321  -0.00418   0.00230   0.00082
 135        5PZ         0.00330  -0.00111  -0.00690   0.00067   0.00062
 136        6D 0       -0.00032   0.00027   0.00006   0.00003   0.00001
 137        6D+1        0.00106   0.00022  -0.00009   0.00005  -0.00002
 138        6D-1       -0.00028   0.00000   0.00003  -0.00002  -0.00000
 139        6D+2       -0.00042  -0.00021   0.00000   0.00000  -0.00004
 140        6D-2       -0.00035  -0.00062  -0.00006   0.00003   0.00001
 141 7   C  1S          0.00102   0.56295  -0.00000  -0.00000  -0.00000
 142        2S          0.00081   0.46316   0.00002  -0.00000   0.00000
 143        2PX         0.00038   0.00032   0.00006   0.00001  -0.00001
 144        2PY         0.00032   0.00026   0.00002  -0.00000   0.00000
 145        2PZ         0.00003  -0.00002  -0.00002   0.00000   0.00000
 146        3S          0.00026   0.01961  -0.00016   0.00008  -0.00005
 147        3PX        -0.00102  -0.00133  -0.00031  -0.00002   0.00002
 148        3PY        -0.00079  -0.00098  -0.00010   0.00003   0.00000
 149        3PZ        -0.00011   0.00011   0.00012  -0.00002   0.00001
 150        4S          0.00491  -0.01207  -0.00007  -0.00063   0.00037
 151        4PX         0.00113  -0.00210   0.00105  -0.00028   0.00037
 152        4PY         0.00118  -0.00103   0.00050  -0.00001  -0.00022
 153        4PZ        -0.00005   0.00085  -0.00038   0.00003   0.00042
 154        5S          0.01379  -0.02052  -0.00725   0.00491   0.00130
 155        5PX         0.00280  -0.00331  -0.00140   0.00128   0.00027
 156        5PY         0.00176  -0.00252  -0.00054   0.00033   0.00014
 157        5PZ        -0.00082   0.00055   0.00066  -0.00023  -0.00003
 158        6D 0        0.00052   0.00042   0.00002   0.00002  -0.00002
 159        6D+1       -0.00006   0.00008  -0.00000   0.00000  -0.00003
 160        6D-1        0.00001   0.00009   0.00004  -0.00001   0.00002
 161        6D+2       -0.00014  -0.00018   0.00001  -0.00001   0.00002
 162        6D-2       -0.00078  -0.00068   0.00003   0.00000   0.00000
 163 8   H  1S         -0.00003   0.00022  -0.00004  -0.00000   0.00001
 164        2S         -0.00109  -0.00340   0.00019   0.00002  -0.00012
 165        3S         -0.00042   0.00349   0.00120   0.00002  -0.00003
 166        4PX        -0.00016  -0.00098   0.00004   0.00002  -0.00005
 167        4PY         0.00011   0.00055   0.00003  -0.00001   0.00002
 168        4PZ         0.00035   0.00182  -0.00001   0.00001  -0.00000
 169 9   H  1S         -0.00005   0.00019  -0.00001   0.00000  -0.00002
 170        2S         -0.00097  -0.00306   0.00012  -0.00000   0.00022
 171        3S         -0.00034   0.00365   0.00191   0.00016   0.00031
 172        4PX        -0.00018  -0.00115   0.00004   0.00001   0.00001
 173        4PY         0.00009   0.00033  -0.00002  -0.00000   0.00001
 174        4PZ        -0.00028  -0.00169  -0.00002  -0.00001   0.00003
 175 10  H  1S         -0.00008   0.00017  -0.00004  -0.00001  -0.00000
 176        2S         -0.00073  -0.00288   0.00033   0.00016  -0.00006
 177        3S         -0.00032   0.00340   0.00088  -0.00025  -0.00008
 178        4PX         0.00016   0.00072  -0.00003  -0.00002   0.00002
 179        4PY        -0.00025  -0.00192   0.00003   0.00002  -0.00000
 180        4PZ         0.00002   0.00004  -0.00002  -0.00000  -0.00003
 181 11  H  1S          0.00003  -0.00010   0.00007  -0.00001   0.00001
 182        2S         -0.00268  -0.00039  -0.00104   0.00014  -0.00023
 183        3S          0.00361  -0.00254   0.00384   0.00025   0.00027
 184        4PX        -0.00068  -0.00008  -0.00007   0.00000   0.00003
 185        4PY         0.00205   0.00029   0.00011  -0.00000   0.00002
 186        4PZ        -0.00026   0.00002  -0.00005  -0.00000   0.00001
 187 12  H  1S          0.00007  -0.00010   0.00004   0.00002  -0.00001
 188        2S         -0.00315  -0.00051  -0.00078  -0.00020   0.00032
 189        3S          0.00330  -0.00165   0.00222   0.00018   0.00077
 190        4PX         0.00142   0.00020   0.00004   0.00002  -0.00004
 191        4PY        -0.00044  -0.00003  -0.00007   0.00002  -0.00001
 192        4PZ         0.00168   0.00020   0.00010  -0.00000  -0.00001
 193 13  H  1S          0.00007  -0.00001  -0.00004  -0.00002  -0.00007
 194        2S         -0.00103   0.00022  -0.00074   0.00028   0.00138
 195        3S         -0.00051  -0.00114   0.00145   0.00015   0.00111
 196        4PX        -0.00011   0.00000  -0.00013   0.00008   0.00022
 197        4PY         0.00009   0.00002   0.00008  -0.00004  -0.00015
 198        4PZ        -0.00020  -0.00003   0.00005  -0.00009  -0.00002
 199 14  H  1S         -0.00002  -0.00003  -0.00006   0.00002   0.00006
 200        2S          0.00010   0.00027  -0.00107   0.00055  -0.00041
 201        3S          0.00055   0.00028  -0.00070   0.00059  -0.00200
 202        4PX         0.00006  -0.00000  -0.00013   0.00025   0.00017
 203        4PY        -0.00003  -0.00001   0.00014  -0.00020  -0.00011
 204        4PZ        -0.00004   0.00002  -0.00027   0.00020  -0.00000
 205 15  H  1S          0.00003  -0.00005  -0.00000  -0.00005   0.00007
 206        2S         -0.00083   0.00049  -0.00183  -0.00027  -0.00046
 207        3S         -0.00052  -0.00027  -0.00058  -0.00047  -0.00149
 208        4PX         0.00018  -0.00003   0.00003  -0.00015   0.00012
 209        4PY        -0.00014   0.00000  -0.00008   0.00003  -0.00006
 210        4PZ         0.00007  -0.00003   0.00046   0.00040  -0.00010
                          11        12        13        14        15
                           O         O         O         O         O
     Eigenvalues --    -5.99130  -1.07445  -0.89742  -0.82235  -0.79815
   1 1   N  1S          0.00000  -0.09700   0.04233   0.00032   0.02403
   2        2S          0.00000  -0.15250   0.06708   0.00052   0.03820
   3        2PX         0.00000   0.02011   0.02772  -0.06431  -0.05440
   4        2PY         0.00001  -0.01165  -0.00906   0.05316   0.01993
   5        2PZ         0.00000  -0.02019  -0.04135  -0.06270   0.05206
   6        3S         -0.00002   0.42081  -0.19186  -0.00198  -0.11167
   7        3PX        -0.00000   0.02750   0.04294  -0.09597  -0.07963
   8        3PY        -0.00003  -0.01610  -0.01453   0.07936   0.02873
   9        3PZ        -0.00002  -0.02804  -0.06256  -0.09377   0.07717
  10        4S          0.00008   0.27735  -0.14177   0.00744  -0.07715
  11        4PX        -0.00004   0.00529   0.02926  -0.04591  -0.04696
  12        4PY         0.00005  -0.00436  -0.00973   0.04022   0.01592
  13        4PZ         0.00011  -0.00911  -0.04324  -0.05833   0.04992
  14        5S          0.00045  -0.18548  -0.01348   0.02042   0.00816
  15        5PX        -0.00156  -0.03667  -0.05889   0.01974   0.00186
  16        5PY        -0.00070   0.01982   0.02161  -0.01672  -0.00110
  17        5PZ         0.00066   0.04334   0.08123   0.01803   0.02036
  18        6D 0        0.00001   0.00422  -0.00124   0.01180   0.00353
  19        6D+1       -0.00000  -0.00229   0.00027   0.00336  -0.00616
  20        6D-1        0.00001  -0.00185   0.00106  -0.00422   0.00226
  21        6D+2       -0.00001   0.00461  -0.00084  -0.00303   0.00018
  22        6D-2       -0.00001  -0.01023   0.00113   0.00606   0.00415
  23 2   C  1S          0.00000  -0.05187  -0.02257   0.06779   0.01885
  24        2S          0.00000  -0.07964  -0.03528   0.10565   0.02925
  25        2PX        -0.00000  -0.04311   0.02882   0.00731   0.03953
  26        2PY        -0.00000   0.03039  -0.01157  -0.00467  -0.02608
  27        2PZ         0.00000  -0.01116  -0.04480  -0.00056  -0.01155
  28        3S          0.00000   0.20479   0.09159  -0.28908  -0.08138
  29        3PX         0.00008  -0.05909   0.04719   0.00477   0.05550
  30        3PY         0.00015   0.04296  -0.01911  -0.00534  -0.03655
  31        3PZ         0.00003  -0.02408  -0.07300   0.01417  -0.01856
  32        4S         -0.00001   0.10088   0.07100  -0.16373  -0.03203
  33        4PX         0.00013  -0.00994   0.00718  -0.00074   0.01135
  34        4PY         0.00008   0.00794  -0.00251  -0.00077  -0.00604
  35        4PZ        -0.00012  -0.00515  -0.01363   0.01031  -0.00933
  36        5S          0.00125   0.14064   0.02820  -0.00980  -0.06187
  37        5PX        -0.00008  -0.02624  -0.02585   0.01262  -0.01099
  38        5PY         0.00025   0.01938   0.01436  -0.00548  -0.00173
  39        5PZ        -0.00025  -0.01818   0.03062  -0.01570   0.02947
  40        6D 0       -0.00004  -0.00164   0.01694  -0.00582   0.00859
  41        6D+1       -0.00009   0.00108  -0.00273   0.01056  -0.00773
  42        6D-1       -0.00013  -0.00314  -0.00249  -0.00404   0.00423
  43        6D+2        0.00004   0.00641  -0.00127  -0.00433  -0.00188
  44        6D-2        0.00005  -0.01619   0.00303   0.00643   0.00886
  45 3   C  1S         -0.00000  -0.04307  -0.01547  -0.08028   0.00837
  46        2S         -0.00000  -0.06597  -0.02392  -0.12448   0.01302
  47        2PX         0.00000   0.02187   0.02530   0.01903  -0.00651
  48        2PY         0.00000  -0.01971  -0.01061  -0.01180   0.00692
  49        2PZ        -0.00000   0.03170  -0.03627  -0.00451  -0.02575
  50        3S          0.00002   0.16645   0.06114   0.33366  -0.03571
  51        3PX        -0.00002   0.03210   0.03485   0.02658  -0.00769
  52        3PY        -0.00003  -0.02972  -0.01381  -0.01702   0.00943
  53        3PZ         0.00002   0.05036  -0.05566  -0.00289  -0.04081
  54        4S         -0.00000   0.06779   0.03218   0.15174  -0.00660
  55        4PX         0.00030   0.00705   0.01144   0.00232   0.00495
  56        4PY        -0.00004  -0.00441  -0.00582  -0.00101  -0.00242
  57        4PZ        -0.00025   0.00283  -0.00824  -0.00754  -0.00854
  58        5S          0.00059   0.14497   0.22088  -0.06868   0.08956
  59        5PX         0.00028   0.02232   0.03869  -0.02877   0.01292
  60        5PY         0.00036  -0.02114  -0.02275   0.01494  -0.01406
  61        5PZ         0.00011   0.00572  -0.00092   0.03364   0.01506
  62        6D 0        0.00000   0.00978  -0.00680   0.00936  -0.00159
  63        6D+1        0.00000   0.00702  -0.00753  -0.00623  -0.01028
  64        6D-1        0.00001  -0.00876   0.00578   0.00014   0.00703
  65        6D+2       -0.00001   0.00169   0.00420   0.00366   0.00077
  66        6D-2        0.00001  -0.00767  -0.00666  -0.00680   0.00214
  67 4   C  1S          0.00000  -0.02113  -0.05506  -0.05039  -0.02716
  68        2S          0.00000  -0.03246  -0.08533  -0.07815  -0.04230
  69        2PX        -0.00001  -0.00226   0.01298  -0.03765   0.01712
  70        2PY        -0.00002  -0.00179  -0.01271   0.02074  -0.01103
  71        2PZ        -0.00000   0.02051   0.02609   0.02738  -0.00375
  72        3S         -0.00001   0.08132   0.22090   0.20665   0.11170
  73        3PX         0.00013  -0.00129   0.03332  -0.04948   0.03408
  74        3PY         0.00019  -0.00413  -0.02838   0.02664  -0.02260
  75        3PZ         0.00002   0.03087   0.03981   0.03958  -0.00300
  76        4S         -0.00020   0.03916   0.12689   0.12510   0.06923
  77        4PX        -0.00004  -0.00068   0.00263  -0.00959   0.00938
  78        4PY        -0.00018  -0.00203  -0.00438   0.00297  -0.00599
  79        4PZ        -0.00008   0.01475   0.01602   0.02326  -0.00322
  80        5S         -0.00011  -0.06775  -0.16964   0.07727  -0.07026
  81        5PX         0.00006   0.01521   0.01162  -0.01177  -0.00337
  82        5PY        -0.00007  -0.00360  -0.00146   0.00519   0.00678
  83        5PZ        -0.00006  -0.02301  -0.04301   0.01203  -0.02090
  84        6D 0        0.00002   0.00530   0.00079   0.00668  -0.00375
  85        6D+1        0.00006  -0.00147   0.00608  -0.00941   0.00544
  86        6D-1        0.00005  -0.00115  -0.00632   0.00374  -0.00385
  87        6D+2        0.00016   0.00154   0.00385   0.00269   0.00191
  88        6D-2        0.00006  -0.00342  -0.01216  -0.00301  -0.00673
  89 5   S  1S         -0.00001   0.00657   0.02221  -0.00980   0.01259
  90        2S         -0.00003   0.01865   0.06325  -0.02794   0.03591
  91        3S          0.00004  -0.03956  -0.13575   0.06032  -0.07759
  92        4S          0.00006  -0.06766  -0.23083   0.10212  -0.13159
  93        5S         -0.00004   0.11872   0.42199  -0.19008   0.24482
  94        6S          0.00008   0.05694   0.23028  -0.10928   0.14512
  95        7S         -0.00060  -0.07427   0.04988   0.00238   0.07065
  96        7PX        -0.00133   0.01708  -0.00347  -0.01061  -0.00617
  97        7PY        -0.00221  -0.01143   0.00011   0.00880   0.00459
  98        7PZ        -0.00038  -0.00213   0.00911  -0.00996   0.00676
  99        8PX         0.21045   0.00795   0.01679   0.00067   0.00534
 100        8PY         0.31046  -0.00432  -0.01016  -0.00325  -0.00414
 101        8PZ         0.04812  -0.00599  -0.00634   0.01728   0.00436
 102        9PX         0.39373   0.01547   0.03280   0.00118   0.01055
 103        9PY         0.58085  -0.00840  -0.01986  -0.00624  -0.00815
 104        9PZ         0.09004  -0.01170  -0.01233   0.03369   0.00841
 105       10PX         0.03291  -0.01978  -0.04544  -0.00074  -0.01576
 106       10PY         0.04853   0.01072   0.02753   0.00822   0.01202
 107       10PZ         0.00752   0.01525   0.01696  -0.04771  -0.01127
 108       11PX        -0.00437  -0.02898  -0.06172  -0.00451  -0.01833
 109       11PY        -0.00640   0.01574   0.03764   0.01320   0.01486
 110       11PZ        -0.00100   0.02120   0.02146  -0.06298  -0.02007
 111       12PX         0.00260   0.00065  -0.00833   0.00935  -0.00603
 112       12PY         0.00392   0.00075   0.00445  -0.00757   0.00208
 113       12PZ         0.00059  -0.00572   0.00794   0.00682   0.00980
 114       13D 0        0.00004   0.00335   0.00576  -0.02133  -0.00033
 115       13D+1        0.00006  -0.00777  -0.00155   0.01453   0.00905
 116       13D-1        0.00019   0.00261  -0.00376  -0.00470  -0.00726
 117       13D+2       -0.00044   0.00471   0.00737   0.00079   0.00138
 118       13D-2       -0.00021  -0.00847  -0.01799  -0.00699  -0.00694
 119 6   C  1S          0.00000  -0.02463   0.04417   0.00510  -0.07349
 120        2S         -0.00000  -0.03781   0.06813   0.00791  -0.11409
 121        2PX         0.00000   0.01366  -0.01169  -0.00922  -0.02159
 122        2PY         0.00000  -0.00492   0.00659   0.00738  -0.01171
 123        2PZ         0.00000  -0.02074   0.02172  -0.00603   0.00392
 124        3S         -0.00000   0.09649  -0.17746  -0.02148   0.30595
 125        3PX        -0.00003   0.02218  -0.01695  -0.01402  -0.03503
 126        3PY        -0.00001  -0.01071   0.01324   0.01244  -0.02361
 127        3PZ         0.00001  -0.03668   0.03658  -0.00911   0.00019
 128        4S         -0.00008   0.02731  -0.08492  -0.00203   0.16657
 129        4PX        -0.00016   0.00121  -0.00246  -0.00568  -0.01988
 130        4PY         0.00015   0.00003   0.00603   0.00486  -0.00769
 131        4PZ         0.00004  -0.00210   0.00799  -0.00648   0.00460
 132        5S         -0.00191   0.04829  -0.15998  -0.02091  -0.09887
 133        5PX         0.00084  -0.02200  -0.02889   0.00448   0.00557
 134        5PY         0.00041  -0.01434   0.01715  -0.00084   0.02141
 135        5PZ         0.00003   0.00406   0.03814   0.00800   0.01270
 136        6D 0       -0.00002   0.00617  -0.00510   0.00332  -0.00274
 137        6D+1        0.00001  -0.00957   0.00819   0.00129   0.00022
 138        6D-1        0.00000   0.00330  -0.00273  -0.00208  -0.00035
 139        6D+2       -0.00001   0.00311  -0.00287  -0.00283   0.00075
 140        6D-2        0.00000  -0.00221   0.00088   0.00223   0.00617
 141 7   C  1S         -0.00000  -0.00523   0.01802   0.00168  -0.06689
 142        2S         -0.00000  -0.00803   0.02773   0.00259  -0.10331
 143        2PX        -0.00001   0.00440  -0.01079  -0.00188   0.02047
 144        2PY         0.00000   0.00212  -0.00673   0.00056   0.01668
 145        2PZ         0.00001  -0.00201   0.00294  -0.00149  -0.00087
 146        3S          0.00007   0.02036  -0.07178  -0.00660   0.26941
 147        3PX         0.00005   0.00948  -0.01948  -0.00359   0.03728
 148        3PY         0.00000   0.00540  -0.01281   0.00038   0.02994
 149        3PZ        -0.00005  -0.00308   0.00423  -0.00166  -0.00176
 150        4S         -0.00027   0.00719  -0.03153  -0.00745   0.14275
 151        4PX        -0.00027   0.00130  -0.00500   0.00005   0.00434
 152        4PY        -0.00007  -0.00029  -0.00527  -0.00157   0.00369
 153        4PZ         0.00050  -0.00151   0.00157  -0.00016   0.00074
 154        5S          0.00104  -0.08127   0.02233   0.00768   0.07070
 155        5PX        -0.00012  -0.01859   0.00672   0.00326   0.01132
 156        5PY         0.00041  -0.00981   0.00126  -0.00018   0.00594
 157        5PZ         0.00037   0.00565  -0.00526  -0.00110  -0.00158
 158        6D 0        0.00001  -0.00141   0.00243   0.00044  -0.00400
 159        6D+1       -0.00002  -0.00056   0.00082  -0.00018  -0.00055
 160        6D-1        0.00001  -0.00068   0.00081  -0.00016  -0.00022
 161        6D+2        0.00000   0.00101  -0.00154  -0.00065   0.00165
 162        6D-2       -0.00001   0.00215  -0.00416  -0.00023   0.00707
 163 8   H  1S          0.00001   0.00146  -0.00846  -0.00120   0.04361
 164        2S         -0.00009   0.00265  -0.01104  -0.00126   0.05134
 165        3S         -0.00035   0.00046   0.00159   0.00236  -0.00936
 166        4PX        -0.00000   0.00057  -0.00177  -0.00029   0.00592
 167        4PY         0.00001  -0.00010   0.00030   0.00011  -0.00116
 168        4PZ         0.00001  -0.00080   0.00217   0.00020  -0.00805
 169 9   H  1S         -0.00001   0.00258  -0.00982   0.00055   0.04252
 170        2S          0.00011   0.00313  -0.01288   0.00163   0.05062
 171        3S          0.00011   0.00048  -0.00376   0.00374  -0.00859
 172        4PX         0.00002   0.00103  -0.00256   0.00029   0.00683
 173        4PY        -0.00001  -0.00003   0.00013   0.00023  -0.00023
 174        4PZ         0.00001   0.00047  -0.00177  -0.00021   0.00725
 175 10  H  1S         -0.00000   0.00259  -0.00975  -0.00201   0.04222
 176        2S          0.00004   0.00297  -0.01394  -0.00254   0.04956
 177        3S         -0.00008   0.00240  -0.00171  -0.00211  -0.00889
 178        4PX        -0.00001   0.00018   0.00022  -0.00021  -0.00165
 179        4PY         0.00000   0.00111  -0.00308  -0.00045   0.00971
 180        4PZ        -0.00001  -0.00041   0.00047  -0.00002  -0.00030
 181 11  H  1S          0.00001   0.01017  -0.02437   0.00225   0.05061
 182        2S         -0.00013   0.01449  -0.02995  -0.00264   0.05821
 183        3S         -0.00011  -0.01076  -0.00740   0.00522  -0.00754
 184        4PX        -0.00000   0.00151  -0.00213  -0.00079   0.00207
 185        4PY         0.00002  -0.00381   0.00639   0.00091  -0.01091
 186        4PZ         0.00001  -0.00034   0.00032  -0.00018   0.00080
 187 12  H  1S         -0.00000   0.01047  -0.02427  -0.01022   0.04881
 188        2S          0.00003   0.01546  -0.02996  -0.00976   0.05822
 189        3S         -0.00013  -0.00824  -0.00232  -0.00504  -0.00535
 190        4PX         0.00000  -0.00192   0.00354   0.00063  -0.00754
 191        4PY        -0.00001   0.00035  -0.00072   0.00024   0.00090
 192        4PZ        -0.00001  -0.00364   0.00568   0.00093  -0.00831
 193 13  H  1S         -0.00001   0.01178   0.00007   0.04937   0.00028
 194        2S          0.00012   0.01417   0.00105   0.05712   0.00311
 195        3S         -0.00012  -0.00744  -0.00620  -0.00314   0.00427
 196        4PX         0.00001   0.00220  -0.00043   0.00853   0.00046
 197        4PY        -0.00000  -0.00178   0.00071  -0.00577  -0.00032
 198        4PZ         0.00000   0.00195  -0.00235   0.00029  -0.00119
 199 14  H  1S         -0.00000   0.00383   0.02433   0.02736   0.02096
 200        2S          0.00000   0.00735   0.02874   0.03459   0.02430
 201        3S         -0.00001  -0.00096  -0.00516   0.00230  -0.00292
 202        4PX        -0.00002  -0.00004   0.00146  -0.00135   0.00122
 203        4PY        -0.00002  -0.00012  -0.00193  -0.00015  -0.00164
 204        4PZ        -0.00001   0.00094   0.00579   0.00620   0.00482
 205 15  H  1S         -0.00001   0.01435   0.00615  -0.04911  -0.00591
 206        2S          0.00008   0.01549   0.00515  -0.06062  -0.00418
 207        3S         -0.00010  -0.00504  -0.00939  -0.00018   0.00017
 208        4PX        -0.00003  -0.00242   0.00190   0.00455   0.00133
 209        4PY        -0.00003   0.00193  -0.00094  -0.00476  -0.00091
 210        4PZ        -0.00002  -0.00198  -0.00194   0.01027  -0.00076
                          16        17        18        19        20
                           O         O         O         O         O
     Eigenvalues --    -0.68935  -0.67374  -0.63077  -0.57830  -0.51663
   1 1   N  1S          0.01452   0.00694   0.03070   0.02029  -0.00496
   2        2S          0.02331   0.01114   0.04929   0.03253  -0.00797
   3        2PX         0.07300   0.07255  -0.03020   0.07474   0.06807
   4        2PY        -0.05621  -0.05831   0.02864   0.00411   0.12537
   5        2PZ        -0.06297   0.09855   0.01384  -0.06254  -0.04241
[...]
   y          0.185095D+03      0.159908D+01      0.593482D+00
   z          0.532197D+03      0.459777D+01      0.170642D+01
   ||         0.177086D+03      0.152989D+01      0.567803D+00
   xxx        0.772838D+02      0.667672D+00      0.247800D+00
   xxy        0.124875D+02      0.107883D+00      0.400396D-01
   yxy        0.257850D+02      0.222763D+00      0.826761D-01
   yyy        0.172953D+02      0.149418D+00      0.554549D-01
   xxz        0.373913D+02      0.323031D+00      0.119890D+00
   yxz       -0.456413D+02     -0.394305D+00     -0.146343D+00
   yyz        0.841633D+01      0.727105D-01      0.269858D-01
   zxz        0.124599D+03      0.107644D+01      0.399510D+00
   zyz        0.319156D+02      0.275726D+00      0.102333D+00
   zzz        0.131591D+03      0.113685D+01      0.421929D+00

 ----------------------------------------------------------------------
 Unable to Open any file for archive entry.
 1\1\GINC-NODE1697\Freq\RB3LYP\6-311+G(d,p)\C5H8N1S1(1+)\SVICCHI\02-Jun
 -2023\0\\#p freq=raman scale=0.967 pop=(nbo,full,hirshfeld) guess=read
  geom=allcheck b3lyp/6-311+G(d,p) int=grid=ultrafine EmpiricalDispersi
 on=GD3BJ SCRF=(Solvent=ethanol) scf=(xqc,intrep,maxconventionalcycle=3
 50) nosymm\\3ethylthiazolium-isolated.gjf\\1,1\N,-0.0574114716,0.13291
 72075,-0.0302180222\C,1.0440566602,-0.6000989798,-0.044034859\C,-0.440
 4531865,0.5869216103,-1.2814437071\C,0.403894464,0.1826437972,-2.25759
 51314\S,1.687845962,-0.776805509,-1.6016337694\C,-0.8529378631,0.39803
 81237,1.1968365021\C,-2.0596784823,-0.5267110687,1.2830080825\H,-2.614
 3804453,-0.2955343386,2.1939376937\H,-2.728514998,-0.3889100056,0.4316
 955492\H,-1.7479080965,-1.5717141761,1.3228571945\H,-1.1450797644,1.44
 65665086,1.1559233221\H,-0.1799110112,0.265535151,2.0414809349\H,-1.32
 358247,1.1969243307,-1.3799449133\H,0.3529341519,0.3950980616,-3.31250
 57686\H,1.4770555509,-1.0354007127,0.8427288919\\Version=ES64L-G16RevC
 .01\HF=-648.2361936\RMSD=4.250e-09\RMSF=1.032e-05\ZeroPoint=0.1204367\
 Thermal=0.1275172\ETot=-648.1086764\HTot=-648.1077322\GTot=-648.147730
 2\Dipole=0.0157184,0.2671964,0.2388392\DipoleDeriv=-0.5332304,0.100366
 6,0.4715705,0.1985637,-0.2006335,-0.2806664,0.2994567,-0.115921,-0.363
 4782,0.3634688,-0.1388318,-0.5511363,-0.2070188,0.0168071,0.3174234,-0
 .4057296,0.2105714,0.3053733,-0.0584068,0.0025397,0.1061047,0.0485814,
 -0.0169225,-0.0890602,-0.0804725,0.0238845,0.03327,0.0359226,-0.171401
 7,-0.1145342,-0.2101561,-0.0984184,0.0550522,0.1898913,-0.135066,-0.09
 29599,0.2180878,0.0268224,0.2146165,0.0547717,0.3181783,-0.0980001,0.1
 537961,-0.0129676,0.0245897,0.4537642,0.0333291,-0.2646657,-0.0313335,
 0.2902579,0.0978005,-0.3973286,0.0800031,0.6847724,0.0266066,-0.033818
 7,0.0460413,0.0053361,0.0349191,-0.0667363,0.1067154,-0.0571062,-0.050
 9372,0.0052763,0.0036891,0.1175913,-0.0234069,0.0887004,-0.0282178,0.1
 048006,-0.0459239,-0.0493858,0.0170443,-0.0239372,-0.0790708,0.0020325
 ,0.0604504,0.0587722,-0.1288111,0.0308353,-0.0481382,0.0175094,0.08062
 1,-0.0024695,0.0113059,-0.1102398,0.0156831,-0.0061693,-0.0023512,0.11
 05434,0.0472257,0.0085431,0.0668081,0.0147648,-0.0631989,-0.0024256,0.
 0627366,0.0666707,0.0196554,-0.0658644,0.000112,-0.0721921,0.0347508,0
 .0949274,0.0334394,0.0108956,-0.0124816,-0.0103725,0.1361552,0.0538505
 ,0.0034782,0.0419428,0.192952,0.0026806,0.0625667,-0.0341911,0.1399116
 ,0.1451581,0.0562485,-0.0286996,0.0522368,0.1838191,0.0323243,0.007973
 6,0.0057849,0.1618715,0.1912827,0.0018674,0.0865575,0.0076289,0.208401
 5,-0.0480692,0.0196786,-0.0017413,0.1352845\Polar=101.4907271,-17.4811
 412,77.2403371,-13.8786879,-1.1856853,108.1437545\PolarDeriv=-4.637414
 5,1.231998,-1.357861,0.6784508,2.4987131,-9.6232445,0.5612661,-1.74337
 64,3.5527994,1.2395831,-1.3433129,8.2352465,7.2908669,-1.8761195,-0.10
 38396,-10.1967842,6.1767205,2.0379853,3.6637588,-0.5878448,-0.9055614,
 3.2731662,-0.2295683,5.2803791,0.7018975,1.5484038,-4.3463871,1.528567
 6,4.4962373,-3.5848248,4.7735991,-0.7262586,2.6020106,-0.8913664,0.359
 9906,6.8756468,-5.8770862,-1.2003667,-0.4594679,-0.683023,1.3552498,-4
 .0311971,-2.406381,-1.5088351,5.6080127,-0.2896076,1.0023853,1.5905841
 ,-1.3316386,-0.139537,4.1030785,7.6985748,-5.6216321,7.6791929,-1.8308
 286,1.8700346,1.7188266,1.35311,-5.4287836,3.1615158,2.0938291,-0.0364
 925,0.7737711,-4.7856064,-2.7280882,-3.8101394,-3.4408482,0.5061877,-3
 .9874088,-1.6863182,0.5102277,-5.9449128,19.7120953,-4.9377426,4.22687
 97,-6.6843174,1.668899,4.9076904,-4.6486444,6.9424469,-8.6636418,2.319
 4036,-4.7985566,-2.7326449,-4.7762807,1.3375678,-3.0841759,6.073643,-2
 .5030443,-12.2109123,4.2643168,0.5046305,3.3530599,-5.9422574,0.331293
 ,-3.43553,2.6785254,3.6210335,-8.7779709,-0.0272326,-2.0161404,0.60246
 18,-2.5197625,0.0538466,0.5595495,-3.7734708,-0.2729107,-3.0949458,-1.
 7821835,-2.0664948,-3.8718478,3.0114346,0.8335211,5.5950572,-5.8666171
 ,-2.791546,7.6586513,2.8349534,-0.2584546,-4.2330994,-1.4180846,1.1940
 131,-0.969031,9.0164532,-2.0430459,-3.2277085,-5.1209107,0.830537,-0.2
 635169,3.9846747,-0.4578184,-4.3720011,2.4494332,-0.968136,0.4013536,-
 1.455213,1.9439729,2.0521465,4.9545495,-0.3479738,1.6345652,-6.2089634
 ,1.0236956,9.949517,-6.460573,0.4453312,-0.4757679,-2.8914587,-0.07111
 63,-2.8052324,1.0455923,-0.7622784,-0.1359063,-0.0478507,-1.261892,1.1
 016123,-4.2247915,-0.3897206,-1.2153314,-3.7357339,0.5299472,-5.201914
 1,1.8991179,-1.4207465,2.3907906,-0.4706609,-0.1143166,0.1814721,-1.28
 96496,0.2125127,-10.824257,-0.0256364,1.3100589,-1.3488056,-0.1118413,
 -0.0230777,0.4262115,-0.4810372,-1.6362901,0.7182083,-2.9140611,2.1924
 585,-2.374574,1.6967569,-0.6321666,-0.4840406,2.4865033,-2.7455114,11.
 656064,-1.5387277,2.3891667,2.7565243,-0.6154157,-0.2563306,-0.1577358
 ,0.7663087,1.978472,0.0224223,4.1125689,0.0272453,0.6269226,2.6394051,
 0.4906456,4.5124749,-1.4961314,0.541576,0.682936,0.6166278,1.4708631,-
 1.2262473,2.0576551,0.5100977,1.0263397,2.9658179,0.5299313,8.7474356,
 -7.7326523,4.7255177,-4.1641453,-0.5977191,0.5092835,-1.6938087,5.3537
 988,-3.4083477,3.280028,0.6046234,-0.7266611,1.1422319,-0.9659056,0.78
 41357,-1.0143603,-1.7154465,1.0860063,-0.431949,0.2181736,-0.1399057,-
 0.1080679,-1.3140355,0.7796307,-0.3138611,0.070036,-0.0996273,0.792159
 1,0.7845079,-1.1520633,2.6983132,-1.585696,0.4207059,-1.8658004,-0.740
 0294,2.8079411,-13.9403362,2.4856785,-1.4746517,1.6643307,1.9464737,-1
 .5334659,3.1203258,-1.7334581,1.1981779,-1.657612,-1.7583924,1.6724849
 ,-3.2433595,1.913594,-1.0475366,2.0459282,2.9083522,-2.9260091,8.02227
 06\HyperPolar=144.2068854,2.7779471,21.0284743,-20.2350319,-85.9650055
 ,-17.9338166,-9.7094638,107.7533997,-59.4985589,14.0361263\Quadrupole=
 -0.2192858,-4.9217642,5.14105,-3.9433137,-2.5680947,-1.0986911\PG=C01 
 [X(C5H8N1S1)]\NImag=0\\0.58467904,-0.26055954,0.34088414,-0.06818277,-
 0.03948671,0.63913473,-0.29636565,0.15053061,0.02073071,0.50797104,0.1
 5670061,-0.16385847,-0.00251903,-0.28021224,0.31190609,-0.00801115,0.0
 1757329,-0.12365372,0.07313140,-0.13932193,0.64579095,-0.12143068,0.04
 471648,-0.04249435,-0.03042457,0.03035465,-0.02291181,0.65684345,0.040
 57987,-0.09836586,0.05510275,0.03736105,-0.01773645,0.01895446,-0.3404
 8328,0.35455171,-0.01285275,0.03435950,-0.22008739,-0.06616744,0.04748
 581,-0.01068061,-0.09241017,-0.01596495,0.59255163,0.01883097,-0.01336
 638,0.04094416,-0.00785979,0.01463708,-0.02114500,-0.22388044,0.087877
 36,0.14158639,0.37057910,-0.00770008,0.01390535,-0.01292883,0.01134302
 ,-0.00258846,0.02280301,0.08427314,-0.10293354,-0.05924569,-0.16616580
 ,0.20787711,-0.00201273,0.01595861,-0.08134829,-0.00005978,0.00860849,
 -0.04570792,0.16481681,-0.07474465,-0.26894157,-0.12498115,-0.03649682
 ,0.81450659,-0.04480203,0.03591418,0.00532614,-0.06109242,0.00738708,0
 .04583610,-0.04201064,0.02980340,0.03401581,-0.10800447,0.05354615,-0.
 02226580,0.24949037,0.02901094,-0.00867312,0.00248612,0.00416272,-0.04
 020450,-0.00538583,0.03626746,-0.01101456,-0.02053315,0.05694777,-0.07
 441068,0.02037452,-0.12813862,0.12921192,0.05057711,-0.02877665,-0.027
 39770,0.06729534,-0.01894461,-0.19168469,-0.00956395,0.00823321,-0.003
 02881,-0.04335563,0.03431691,-0.06727276,-0.05763125,-0.00283756,0.297
 19672,-0.10293991,0.02234621,0.02062639,-0.01805052,0.00890401,0.02291
 361,0.01227961,-0.00793369,-0.00068915,0.00015622,0.00261432,-0.006940
 99,-0.00031106,0.00356270,0.00015122,0.50020445,0.02324767,-0.08121786
 ,-0.00865264,0.01213955,-0.00492234,-0.01682279,-0.00908110,0.00415547
 ,0.00405173,0.00022616,-0.00007556,0.00396146,0.00568224,0.00367948,0.
 00104303,-0.04940015,0.57859709,0.02450422,-0.00305316,-0.14562607,0.0
 1284508,-0.00948974,0.00145463,0.01226902,-0.00471272,-0.02881674,-0.0
 0277417,0.00240887,-0.00036554,-0.00332537,0.00214439,0.00604592,0.106
 18692,-0.03027699,0.50197285,-0.02499858,-0.00767213,0.01620262,0.0004
 8932,-0.00190944,0.00062097,-0.00001782,-0.00005706,-0.00172327,-0.000
 21619,0.00009340,0.00029280,0.00071016,0.00069612,-0.00018921,-0.14315
 401,-0.05487606,-0.00706504,0.50567145,0.00654783,0.00647762,0.0031893
 9,0.00024429,0.00080848,-0.00121967,0.00058090,-0.00007813,0.00072095,
 0.00066033,-0.00020657,-0.00054360,-0.00022186,-0.00083523,-0.00135158
 ,-0.05876682,-0.12888232,0.00114484,-0.05278953,0.53982281,0.03557140,
 0.01591244,-0.01095882,-0.00269309,0.00344914,-0.00040229,0.00216391,0
 .00013806,0.00080706,0.00020084,-0.00054077,-0.00023570,0.00051438,-0.
 00144062,-0.00231875,-0.01045538,-0.00159243,-0.07521814,0.00888505,0.
 00860397,0.57644495,-0.00548153,-0.00329672,0.00103323,0.00104215,-0.0
 0099978,0.00005136,-0.00050671,0.00021153,-0.00077495,-0.00027206,0.00
 021952,0.00041504,-0.00006151,0.00027875,0.00078345,-0.01271428,0.0069
 2321,0.02131124,-0.11393088,0.02814191,0.11210176,0.12379407,-0.005339
 81,-0.00167200,0.00107775,0.00033073,-0.00056594,0.00031847,-0.0003071
 3,0.00013083,-0.00017103,-0.00002949,0.00002431,0.00004361,-0.00024318
 ,0.00044667,0.00065131,-0.00877419,0.00391090,0.01741851,0.02973538,-0
 .05932935,-0.05027227,-0.02897878,0.06064468,-0.00028917,-0.00009301,0
 .00139212,-0.00042580,0.00033503,0.00014455,-0.00007802,-0.00009326,0.
 00032395,-0.00003121,0.00006038,0.00010217,0.00012794,-0.00008465,-0.0
 0010934,0.00014365,-0.00005224,-0.00188681,0.11428915,-0.04847134,-0.2
 3429437,-0.12484616,0.05305684,0.25090350,0.00159487,0.00051774,-0.001
 38289,-0.00019286,0.00026811,0.00015672,-0.00016483,0.00008965,0.00014
 370,-0.00016719,0.00015180,0.00034856,0.00022004,-0.00024416,-0.000010
 43,-0.01865991,0.00263432,-0.02078836,-0.14396641,0.02199286,-0.125289
 43,0.01153554,-0.00274029,0.01286160,0.15752063,0.00104611,0.00034475,
 -0.00008434,-0.00007418,0.00012215,0.00012180,-0.00007599,0.00019910,-
 0.00021326,-0.00010624,0.00002897,0.00023362,0.00014892,-0.00010625,0.
 00000719,-0.01371981,0.00205646,-0.01877921,0.02266662,-0.05358281,0.0
 3040403,-0.00467676,0.00001980,-0.00522103,-0.02015684,0.05410983,-0.0
 0034979,-0.00028899,0.00143360,0.00034846,-0.00028734,-0.00010845,-0.0
 0012858,0.00023663,0.00008208,-0.00008323,0.00006812,0.00009761,-0.000
 09073,-0.00001424,0.00021409,0.00407407,-0.00054802,0.00208195,-0.1276
 3579,0.02819946,-0.21100989,-0.01652888,0.00402082,-0.01942088,0.13829
 228,-0.03138133,0.22548247,0.00249548,-0.00025940,-0.00137500,-0.00061
 444,0.00062130,0.00005487,0.00006582,0.00014948,0.00031492,0.00009381,
 -0.00003321,-0.00015566,-0.00018848,-0.00002845,0.00004103,0.00631329,
 -0.02981835,0.00166443,-0.07179740,0.07868209,-0.00337006,-0.00498666,
 0.01500703,-0.00202397,-0.00559987,0.01788477,0.00093104,0.07727878,0.
 00076812,0.00126761,-0.00055543,0.00026399,0.00007643,0.00021909,-0.00
 005133,0.00001770,0.00013351,-0.00002474,-0.00001949,-0.00005882,-0.00
 021264,0.00004955,0.00026866,0.00513222,-0.02005514,0.00036431,0.07507
 950,-0.28930246,0.00981867,0.00144880,-0.00480643,0.00014109,0.0008655
 1,-0.00235724,0.00018800,-0.07975221,0.31480806,-0.00121460,0.00085230
 ,0.00067657,0.00035511,-0.00011166,0.00018251,-0.00015147,0.00011482,-
 0.00030141,-0.00004254,0.00002734,0.00009620,-0.00003274,-0.00003115,0
 .00008540,0.00111663,0.00210187,-0.00195875,-0.00415983,0.00918635,-0.
 04809161,0.00674889,-0.02602222,0.00223040,-0.00644444,0.02457078,-0.0
 0010749,0.00324014,-0.01046565,0.04590139,-0.01169841,0.02012736,0.003
 94440,0.00052639,0.00012737,0.00238550,0.00036042,-0.00011677,-0.00143
 908,-0.00026631,-0.00004222,0.00010556,-0.00091975,-0.00015605,0.00065
 092,-0.06653402,0.06864354,-0.00455293,0.00800834,-0.02824092,0.001402
 14,0.00097492,0.00101297,0.00003272,0.00114868,0.00079951,-0.00035021,
 -0.00424748,-0.00345979,0.00023840,0.07679755,0.00381661,-0.00347364,-
 0.00148444,-0.00085766,0.00026378,-0.00059183,-0.00005465,0.00083061,0
 .00146566,0.00045241,0.00003490,-0.00043273,-0.00041027,0.00014468,-0.
 00001459,0.07304233,-0.29954789,0.01159643,0.00349691,-0.01776982,0.00
 191356,0.00001527,0.00054003,0.00026418,0.00031689,0.00094077,-0.00045
 886,-0.00326657,-0.00054742,0.00029559,-0.07672105,0.32099801,0.017493
 23,-0.03303004,-0.00615415,-0.00140176,0.00032318,-0.00320569,0.000732
 46,-0.00071986,0.00126838,0.00015425,-0.00047487,0.00033071,0.00169852
 ,0.00027055,-0.00137618,-0.00967952,0.02103771,-0.05173097,-0.00139466
 ,0.00154056,0.00063782,0.00003224,0.00011822,0.00020716,0.00059521,-0.
 00044675,0.00021000,0.00080959,0.00015158,0.00112784,-0.00226087,-0.01
 305920,0.05813404,0.00998924,-0.00305805,0.02352867,0.00157588,-0.0004
 2138,0.00123614,-0.00221099,0.00206720,0.00168215,0.00020783,-0.000418
 75,0.00146835,0.00026911,-0.00016237,-0.00010350,-0.15743101,0.0265828
 3,-0.13947994,-0.01666013,0.00307538,-0.01932457,0.00064826,0.00038132
 ,0.00029725,-0.00291595,-0.00370226,0.00108341,0.00138011,0.00001246,0
 .00036439,-0.00478900,0.00045522,-0.00650415,0.17008214,-0.00332637,-0
 .00029404,-0.00778846,-0.00045938,0.00065334,-0.00072951,0.00072108,-0
 .00016351,0.00013027,0.00014084,0.00027829,-0.00024306,-0.00011508,-0.
 00017992,-0.00021338,0.02588192,-0.05612013,0.03077346,-0.01434096,0.0
 0269340,-0.01649971,0.00083353,0.00074144,0.00027177,-0.00347729,-0.00
 175357,0.00046726,0.00086097,0.00088960,-0.00052087,0.01783790,-0.0020
 1254,0.02421065,-0.02482500,0.05539510,-0.01338826,0.00490709,-0.03158
 702,-0.00218487,0.00146725,0.00094589,0.00327306,-0.00304827,-0.000619
 26,-0.00011900,0.00053321,-0.00140529,0.00009472,0.00021711,-0.0001625
 3,-0.12625264,0.02565025,-0.20886406,0.00191818,-0.00110071,0.00496570
 ,-0.00038523,-0.00019455,0.00034221,0.00112574,0.00101253,0.00104832,-
 0.00006658,-0.00014473,0.00003509,-0.00026466,0.00086241,0.00133432,0.
 13534691,-0.02932255,0.23320983,-0.00208927,0.00058348,0.00048669,0.00
 145886,0.00054645,0.00020968,-0.25351363,0.15336751,-0.02082167,-0.005
 47784,0.00749024,-0.00330312,0.00137411,0.00288108,0.00149461,-0.00011
 937,-0.00069822,0.00052222,0.00017150,-0.00005788,0.00017600,-0.000027
 80,0.00004338,-0.00005896,-0.00043659,-0.00001304,0.00041714,-0.000041
 10,0.00001626,-0.00007123,0.00026351,-0.00017340,-0.00033127,-0.000001
 55,-0.00010796,-0.00001595,0.25882390,0.00508108,-0.00459239,-0.000726
 54,0.00043237,0.00172152,0.00122860,0.15215767,-0.13588905,0.01867417,
 0.00424250,0.00186495,0.00178831,0.00243051,0.00436871,0.00012117,-0.0
 0059193,-0.00036219,-0.00052367,0.00011324,-0.00012829,0.00013287,-0.0
 0010896,0.00003510,-0.00014480,-0.00017292,0.00006470,-0.00023515,-0.0
 0000865,0.00003728,-0.00005782,0.00004290,-0.00039495,0.00021511,-0.00
 003186,0.00004994,-0.00008637,-0.16253740,0.13485558,-0.02787721,0.019
 05608,-0.00297528,0.00067181,0.00092223,-0.00639082,-0.01216942,0.0123
 7656,-0.05641474,0.01631646,-0.01134423,0.00768497,0.00398653,-0.00154
 810,-0.00058976,-0.00106034,0.00049871,0.00188368,0.00010940,0.0001908
 1,-0.00027670,0.00002922,-0.00002548,0.00005848,0.00039672,-0.00022406
 ,-0.00001799,-0.00001719,-0.00008698,0.00009276,0.00002105,-0.00034462
 ,-0.00074538,0.00011396,-0.00028402,0.00010044,0.02142534,-0.01995828,
 0.05685661,-0.00001700,0.00365606,0.00431727,-0.00478129,0.00434411,-0
 .00145500,0.00660724,-0.00676413,0.01615769,-0.04285533,0.01387537,-0.
 01219309,-0.00096933,0.00147411,-0.01819296,0.00115768,-0.00004860,0.0
 0052777,-0.00005057,-0.00001042,-0.00010286,0.00001741,-0.00001175,0.0
 0001011,0.00000380,-0.00002443,0.00001346,-0.00001203,-0.00001810,0.00
 000789,0.00001055,-0.00002881,-0.00001740,-0.00028853,0.00003753,0.000
 34418,-0.00085806,-0.00177285,-0.00097833,0.04037485,0.00423997,0.0042
 4890,-0.00192391,0.00392872,-0.00139287,0.00092796,-0.00304191,0.00427
 013,-0.00948027,0.01343014,-0.04484681,0.06389124,-0.00161695,-0.00422
 244,0.01172532,-0.00025155,0.00094683,0.00004482,-0.00004046,-0.000067
 45,-0.00016971,0.00006557,0.00000103,0.00001952,0.00000598,-0.00002061
 ,0.00005030,-0.00000734,-0.00001167,0.00001514,-0.00001812,-0.00005171
 ,0.00012923,-0.00002524,-0.00002420,-0.00011878,-0.00189606,-0.0024941
 9,-0.00000350,-0.01513743,0.04181550,0.00265322,-0.00042285,-0.0005032
 2,0.00053462,-0.00034711,0.00146152,-0.00509832,0.00483729,-0.00780363
 ,-0.00967315,0.06200754,-0.35445298,-0.00006486,-0.00033348,-0.0009671
 5,-0.00048160,0.00028895,-0.00007635,-0.00000871,-0.00000875,-0.000059
 55,0.00001412,0.00001123,0.00001450,0.00000372,0.00000045,0.00002270,0
 .00000656,0.00000610,0.00000443,-0.00001159,0.00000259,0.00003270,0.00
 013771,-0.00004604,-0.00011564,-0.00022161,-0.00051639,0.00017503,0.01
 217351,-0.06578339,0.36200419,-0.00776656,0.00982010,-0.02370526,-0.09
 368212,0.05965208,-0.09307341,-0.00199624,0.00384788,0.00297784,-0.000
 86832,0.00075309,0.00446522,0.00629589,-0.00655202,0.00805325,-0.00019
 716,-0.00215705,-0.00184509,-0.00025880,0.00016183,0.00021991,-0.00003
 092,-0.00008621,-0.00000913,0.00008005,0.00000361,0.00000736,-0.000139
 84,-0.00006806,0.00004540,0.00036459,-0.00008324,0.00007414,0.00014458
 ,0.00033828,0.00057441,0.00047333,0.00072429,-0.00096802,0.00166059,0.
 00036468,0.00003638,0.09592092,0.00588698,-0.00498100,0.01429431,0.060
 86640,-0.08428275,0.10192488,0.00402402,0.00202556,-0.00141327,0.00107
 806,0.00106723,-0.00234018,-0.00395387,0.00174569,-0.00422842,-0.00204
 558,-0.00216282,0.00093987,-0.00019555,0.00038012,0.00014278,-0.000077
 11,-0.00012108,0.00001153,-0.00005139,-0.00006604,-0.00001664,-0.00003
 145,-0.00004639,0.00004518,0.00016336,0.00004519,-0.00026606,0.0000704
 9,-0.00015322,-0.00063391,0.00055556,0.00086329,0.00077487,0.00042934,
 0.00184954,0.00030384,-0.06671926,0.08383667,0.00337925,-0.00346789,0.
 00765464,-0.10297981,0.10843029,-0.26814584,0.00175082,-0.00071007,0.0
 0166108,0.00300299,-0.00119417,-0.00308819,-0.00818937,0.00671610,-0.0
 0863447,0.00034712,-0.00068858,0.00110438,-0.00014166,-0.00008069,0.00
 001028,0.00001468,-0.00003120,-0.00000764,-0.00000870,-0.00000043,-0.0
 0000812,-0.00005411,0.00002059,0.00002667,0.00009865,-0.00001416,-0.00
 007062,0.00015322,-0.00020581,0.00077199,0.00009215,0.00008879,0.00055
 871,-0.00061225,0.00067601,0.00026345,0.10314701,-0.10953879,0.2679036
 7\\0.00000258,0.00000072,-0.00000344,-0.00000088,0.00001934,0.00000028
 ,-0.00000873,-0.00001209,-0.00000277,-0.00000935,-0.00001133,-0.000004
 25,-0.00000318,0.00001815,-0.00000611,-0.00000178,0.00000825,0.0000020
 1,0.00000662,-0.00001565,0.00000177,0.00000927,-0.00000891,-0.00000384
 ,0.00002231,-0.00001068,0.00003136,0.00000101,0.00002225,0.00000691,-0
 .00000005,-0.00001383,-0.00000233,-0.00000979,0.00000714,-0.00001095,-
 0.00000472,-0.00000861,-0.00000219,-0.00000665,-0.00000764,-0.00000152
 ,0.00000334,0.00001289,-0.00000493\\\@
 The archive entry for this job was punched.


 ONLY THE DAY DAWNS TO WHICH YOU ARE AWAKE.

                                 -- THOREAU
 Job cpu time:       0 days  0 hours 27 minutes 50.1 seconds.
 Elapsed time:       0 days  0 hours 15 minutes  9.6 seconds.
 File lengths (MBytes):  RWF=    136 Int=      0 D2E=      0 Chk=     16 Scr=      1
 Normal termination of Gaussian 16 at Fri Jun  2 11:16:24 2023.
