 Entering Gaussian System, Link 0=g16
 Input=tetrazolide-isolated-freq.gjf
 Output=tetrazolide-isolated-freq.log
 Initial command:
 /software/commercial/gaussian/g16/AVX/g16/l1.exe "/scratch1/svicchi/G09-659836.pbs02/Gau-1778898.inp" -scrdir="/scratch1/svicchi/G09-659836.pbs02/"
 Entering Link 1 = /software/commercial/gaussian/g16/AVX/g16/l1.exe PID=   1778899.
  
 Copyright (c) 1988-2019, Gaussian, Inc.  All Rights Reserved.
  
 This is part of the Gaussian(R) 16 program.  It is based on
 the Gaussian(R) 09 system (copyright 2009, Gaussian, Inc.),
 the Gaussian(R) 03 system (copyright 2003, Gaussian, Inc.),
 the Gaussian(R) 98 system (copyright 1998, Gaussian, Inc.),
 the Gaussian(R) 94 system (copyright 1995, Gaussian, Inc.),
 the Gaussian 92(TM) system (copyright 1992, Gaussian, Inc.),
 the Gaussian 90(TM) system (copyright 1990, Gaussian, Inc.),
 the Gaussian 88(TM) system (copyright 1988, Gaussian, Inc.),
 the Gaussian 86(TM) system (copyright 1986, Carnegie Mellon
 University), and the Gaussian 82(TM) system (copyright 1983,
 Carnegie Mellon University). Gaussian is a federally registered
 trademark of Gaussian, Inc.
  
 This software contains proprietary and confidential information,
 including trade secrets, belonging to Gaussian, Inc.
  
 This software is provided under written license and may be
 used, copied, transmitted, or stored only in accord with that
 written license.
  
 The following legend is applicable only to US Government
 contracts under FAR:
  
                    RESTRICTED RIGHTS LEGEND
  
 Use, reproduction and disclosure by the US Government is
 subject to restrictions as set forth in subparagraphs (a)
 and (c) of the Commercial Computer Software - Restricted
 Rights clause in FAR 52.227-19.
  
 Gaussian, Inc.
 340 Quinnipiac St., Bldg. 40, Wallingford CT 06492
  
  
 ---------------------------------------------------------------
 Warning -- This program may not be used in any manner that
 competes with the business of Gaussian, Inc. or will provide
 assistance to any competitor of Gaussian, Inc.  The licensee
 of this program is prohibited from giving any competitor of
 Gaussian, Inc. access to this program.  By using this program,
 the user acknowledges that Gaussian, Inc. is engaged in the
 business of creating and licensing software in the field of
 computational chemistry and represents and warrants to the
 licensee that it is not a competitor of Gaussian, Inc. and that
 it will not use this program in any manner prohibited above.
 ---------------------------------------------------------------
  

 Cite this work as:
 Gaussian 16, Revision C.01,
 M. J. Frisch, G. W. Trucks, H. B. Schlegel, G. E. Scuseria, 
 M. A. Robb, J. R. Cheeseman, G. Scalmani, V. Barone, 
 G. A. Petersson, H. Nakatsuji, X. Li, M. Caricato, A. V. Marenich, 
 J. Bloino, B. G. Janesko, R. Gomperts, B. Mennucci, H. P. Hratchian, 
 J. V. Ortiz, A. F. Izmaylov, J. L. Sonnenberg, D. Williams-Young, 
 F. Ding, F. Lipparini, F. Egidi, J. Goings, B. Peng, A. Petrone, 
 T. Henderson, D. Ranasinghe, V. G. Zakrzewski, J. Gao, N. Rega, 
 G. Zheng, W. Liang, M. Hada, M. Ehara, K. Toyota, R. Fukuda, 
 J. Hasegawa, M. Ishida, T. Nakajima, Y. Honda, O. Kitao, H. Nakai, 
 T. Vreven, K. Throssell, J. A. Montgomery, Jr., J. E. Peralta, 
 F. Ogliaro, M. J. Bearpark, J. J. Heyd, E. N. Brothers, K. N. Kudin, 
 V. N. Staroverov, T. A. Keith, R. Kobayashi, J. Normand, 
 K. Raghavachari, A. P. Rendell, J. C. Burant, S. S. Iyengar, 
 J. Tomasi, M. Cossi, J. M. Millam, M. Klene, C. Adamo, R. Cammi, 
 J. W. Ochterski, R. L. Martin, K. Morokuma, O. Farkas, 
 J. B. Foresman, and D. J. Fox, Gaussian, Inc., Wallingford CT, 2019.
 
 ******************************************
 Gaussian 16:  ES64L-G16RevC.01  3-Jul-2019
                 2-Jun-2023 
 ******************************************
 %NProcShared=2
 Will use up to    2 processors via shared memory.
 %mem=55gb
 %chk=/scratch1/svicchi/G09-659836.pbs02/02-freq/tetrazolide-isolated-freq.chk
 ----------------------------------------------------------------------
 #p freq=raman scale=0.967 pop=(nbo,full,hirshfeld) guess=read geom=all
 check b3lyp/6-311+G(d,p) int=grid=ultrafine EmpiricalDispersion=GD3BJ 
 SCRF=(Solvent=ethanol) scf=(xqc,intrep,maxconventionalcycle=350) nosym
 m
 ----------------------------------------------------------------------
 1/10=4,29=7,30=1,38=1,114=967000/1,3;
 2/12=2,15=1,40=1/2;
 3/5=4,6=6,7=111,11=2,14=-4,25=1,30=1,70=2201,71=2,72=4,74=-5,75=-5,116=-2,124=41,140=1/1,2,3;
 4/5=1/1;
 5/5=2,8=3,13=1,17=20,38=6,53=4,85=350,98=1/2,8;
 8/6=4,10=90,11=11/1;
 10/13=10,15=4,31=1/2;
 11/6=3,8=1,9=11,15=111,16=1,31=1/1,2,10;
 10/6=1,31=1/2;
 6/7=3,28=1,40=1,79=1/1,7;
 7/8=1,10=1,25=1,30=1/1,2,3,16;
 1/10=4,30=1/3;
 99//99;
 Leave Link    1 at Fri Jun  2 11:04:26 2023, MaxMem=  7381975040 cpu:               1.1 elap:               2.0
 (Enter /software/commercial/gaussian/g16/AVX/g16/l101.exe)
 Structure from the checkpoint file:  "/scratch1/svicchi/G09-659836.pbs02/02-freq/tetrazolide-isolated-freq.chk"
 ------------------------
 tetrazolide-isolated.gjf
 ------------------------
 Charge = -1 Multiplicity = 1
 No Z-Matrix found in chk file; cartesian coordinates used.
  N                                                -0.000844339846      1.100421231555     -0.002159938412
  N                                                 1.099369947775      0.381018425226     -0.000971831078
  N                                                -1.129694190283      0.366194992880     -0.001307870255
  N                                                 0.695711801304     -0.876640933838      0.000728980522
  C                                                -0.702337520468     -0.920856077968      0.000579738424
  H                                                 0.019593301518      2.111401362145     -0.003558079201
 Recover connectivity data from disk.
 ITRead=  0  0  0  0  0  0
 MicOpt= -1 -1 -1 -1 -1 -1
 NAtoms=      6 NQM=        6 NQMF=       0 NMMI=      0 NMMIF=      0
                NMic=       0 NMicF=      0.
                    Isotopes and Nuclear Properties:
 (Nuclear quadrupole moments (NQMom) in fm**2, nuclear magnetic moments (NMagM)
  in nuclear magnetons)

  Atom         1           2           3           4           5           6
 IAtWgt=          14          14          14          14          12           1
 AtmWgt=  14.0030740  14.0030740  14.0030740  14.0030740  12.0000000   1.0078250
 NucSpn=           2           2           2           2           0           1
 AtZEff=   4.5500000   4.5500000   4.5500000   4.5500000   3.6000000   1.0000000
 NQMom=    2.0440000   2.0440000   2.0440000   2.0440000   0.0000000   0.0000000
 NMagM=    0.4037610   0.4037610   0.4037610   0.4037610   0.0000000   2.7928460
 AtZNuc=   7.0000000   7.0000000   7.0000000   7.0000000   6.0000000   1.0000000
 Leave Link  101 at Fri Jun  2 11:04:27 2023, MaxMem=  7381975040 cpu:               0.3 elap:               0.5
 (Enter /software/commercial/gaussian/g16/AVX/g16/l103.exe)

 GradGradGradGradGradGradGradGradGradGradGradGradGradGradGradGradGradGrad
 Berny optimization.
 Initialization pass.
 Trust Radius=3.00D-01 FncErr=1.00D-07 GrdErr=1.00D-07 EigMax=2.50D+02 EigMin=1.00D-04
 Number of steps in this run=      2 maximum allowed number of steps=      2.
 GradGradGradGradGradGradGradGradGradGradGradGradGradGradGradGradGradGrad

 Leave Link  103 at Fri Jun  2 11:04:29 2023, MaxMem=  7381975040 cpu:               0.1 elap:               0.4
 (Enter /software/commercial/gaussian/g16/AVX/g16/l202.exe)
                          Input orientation:                          
 ---------------------------------------------------------------------
 Center     Atomic      Atomic             Coordinates (Angstroms)
 Number     Number       Type             X           Y           Z
 ---------------------------------------------------------------------
      1          7           0       -0.000844    1.100421   -0.002160
      2          7           0        1.099370    0.381018   -0.000972
      3          7           0       -1.129694    0.366195   -0.001308
      4          7           0        0.695712   -0.876641    0.000729
      5          6           0       -0.702338   -0.920856    0.000580
      6          1           0        0.019593    2.111401   -0.003558
 ---------------------------------------------------------------------
                    Distance matrix (angstroms):
                    1          2          3          4          5
     1  N    0.000000
     2  N    1.314539   0.000000
     3  N    1.346622   2.229113   0.000000
     4  N    2.096181   1.320852   2.208337   0.000000
     5  C    2.139547   2.222843   1.356148   1.398748   0.000000
     6  H    1.011188   2.039644   2.089644   3.063585   3.117016
                    6
     6  H    0.000000
 Symmetry turned off by external request.
 Stoichiometry    CHN4(1-)
 Framework group  C1[X(CHN4)]
 Deg. of freedom    12
 Full point group                 C1      NOp   1
 Rotational constants (GHZ):          11.0639098          10.5764064           5.4073335
 Leave Link  202 at Fri Jun  2 11:04:30 2023, MaxMem=  7381975040 cpu:               0.0 elap:               0.6
 (Enter /software/commercial/gaussian/g16/AVX/g16/l301.exe)
 Standard basis: 6-311+G(d,p) (5D, 7F)
 Ernie: Thresh=  0.10000D-02 Tol=  0.10000D-05 Strict=F.
   116 basis functions,   188 primitive gaussians,   121 cartesian basis functions
    18 alpha electrons       18 beta electrons
       nuclear repulsion energy       156.5001998106 Hartrees.
 IExCor=  402 DFT=T Ex+Corr=B3LYP ExCW=0 ScaHFX=  0.200000
 ScaDFX=  0.800000  0.720000  1.000000  0.810000 ScalE2=  1.000000  1.000000
 IRadAn=      5 IRanWt=     -1 IRanGd=            0 ICorTp=0 IEmpDi=141
 NAtoms=    6 NActive=    6 NUniq=    6 SFac= 1.00D+00 NAtFMM=   60 NAOKFM=F Big=F
 Integral buffers will be    131072 words long.
 Raffenetti 2 integral format.
 Two-electron integral symmetry is turned off.
 R6Disp:  Grimme-D3(BJ) Dispersion energy=       -0.0076520934 Hartrees.
 Nuclear repulsion after empirical dispersion term =      156.4925477172 Hartrees.
 Force inversion solution in PCM.
 ------------------------------------------------------------------------------
 Polarizable Continuum Model (PCM)
 =================================
 Model                : PCM.
 Atomic radii         : UFF (Universal Force Field).
 Polarization charges : Total charges.
 Charge compensation  : None.
 Solution method      : Matrix inversion.
 Cavity type          : Scaled VdW (van der Waals Surface) (Alpha=1.100).
 Cavity algorithm     : GePol (No added spheres)
                        Default sphere list used, NSphG=    6.
                        Lebedev-Laikov grids with approx.  5.0 points / Ang**2.
                        Smoothing algorithm: York/Karplus (Gamma=1.0000).
                        Polarization charges: spherical gaussians, with
                                              point-specific exponents (IZeta= 3).
                        Self-potential: point-specific (ISelfS= 7).
                        Self-field    : sphere-specific E.n sum rule (ISelfD= 2).
 1st derivatives      : Analytical E(r).r(x)/FMM algorithm (CHGder, D1EAlg=3).
                        Cavity 1st derivative terms included.
 2nd derivatives      : Analytical E(r).r(xy)/FMM algorithm (CHGder, D2EAlg=3).
                        Cavity 2nd derivative terms included.
 Solvent              : Ethanol, Eps=  24.852000 Eps(inf)=   1.852593
 ------------------------------------------------------------------------------
 Spheres list:
 ISph  on   Nord     Re0    Alpha      Xe            Ye            Ze
    1   N      1    1.8300  1.100     -0.000844      1.100421     -0.002160
    2   N      2    1.8300  1.100      1.099370      0.381018     -0.000972
    3   N      3    1.8300  1.100     -1.129694      0.366195     -0.001308
    4   N      4    1.8300  1.100      0.695712     -0.876641      0.000729
    5   C      5    1.9255  1.100     -0.702338     -0.920856      0.000580
    6   H      6    1.4430  1.100      0.019593      2.111401     -0.003558
 ------------------------------------------------------------------------------
 GePol: Number of generator spheres                  =       6
 GePol: Total number of spheres                      =       6
 GePol: Number of exposed spheres                    =       6 (100.00%)
 GePol: Number of points                             =     750
 GePol: Average weight of points                     =       0.14
 GePol: Minimum weight of points                     =   0.77D-09
 GePol: Maximum weight of points                     =    0.20577
 GePol: Number of points with low weight             =      35
 GePol: Fraction of low-weight points (<1% of avg)   =       4.67%
 GePol: Cavity surface area                          =    105.685 Ang**2
 GePol: Cavity volume                                =     93.026 Ang**3
 Leave Link  301 at Fri Jun  2 11:04:33 2023, MaxMem=  7381975040 cpu:               0.7 elap:               1.7
 (Enter /software/commercial/gaussian/g16/AVX/g16/l302.exe)
 NPDir=0 NMtPBC=     1 NCelOv=     1 NCel=       1 NClECP=     1 NCelD=      1
         NCelK=      1 NCelE2=     1 NClLst=     1 CellRange=     0.0.
 One-electron integrals computed using PRISM.
 NBasis=   116 RedAO= T EigKep=  6.97D-05  NBF=   116
 NBsUse=   116 1.00D-06 EigRej= -1.00D+00 NBFU=   116
 Precomputing XC quadrature grid using
 IXCGrd= 4 IRadAn=           5 IRanWt=          -1 IRanGd=           0 AccXCQ= 0.00D+00.
 Generated NRdTot=       0 NPtTot=           0 NUsed=           0 NTot=          32
 NSgBfM=   121   121   121   121   121 MxSgAt=     6 MxSgA2=     6.
 Leave Link  302 at Fri Jun  2 11:04:35 2023, MaxMem=  7381975040 cpu:               1.0 elap:               1.4
 (Enter /software/commercial/gaussian/g16/AVX/g16/l303.exe)
 DipDrv:  MaxL=1.
 Leave Link  303 at Fri Jun  2 11:04:36 2023, MaxMem=  7381975040 cpu:               0.1 elap:               0.5
 (Enter /software/commercial/gaussian/g16/AVX/g16/l401.exe)
 Initial guess from the checkpoint file:  "/scratch1/svicchi/G09-659836.pbs02/02-freq/tetrazolide-isolated-freq.chk"
 B after Tr=     0.000000    0.000000    0.000000
         Rot=    1.000000    0.000000    0.000000    0.000000 Ang=   0.00 deg.
 Guess basis will be translated and rotated to current coordinates.
 JPrj=2 DoOrth=T DoCkMO=T.
 Leave Link  401 at Fri Jun  2 11:04:39 2023, MaxMem=  7381975040 cpu:               0.9 elap:               1.2
 (Enter /software/commercial/gaussian/g16/AVX/g16/l502.exe)
 Keep R1 ints in memory in canonical form, NReq=24923354.
 FoFCou: FMM=F IPFlag=           0 FMFlag=           0 FMFlg1=           0
         NFxFlg=           0 DoJE=F BraDBF=F KetDBF=F FulRan=T
         wScrn=  0.000000 ICntrl=       600 IOpCl=  0 I1Cent=           0 NGrid=           0
         NMat0=    1 NMatS0=   6786 NMatT0=    0 NMatD0=    1 NMtDS0=    0 NMtDT0=    0
 Symmetry not used in FoFCou.
 Two-electron integral symmetry not used.
 Closed shell SCF:
 Using DIIS extrapolation, IDIIS=  1040.
 NGot=  7381975040 LenX=  7358915658 LenY=  7358900576
 Requested convergence on RMS density matrix=1.00D-08 within 350 cycles.
 Requested convergence on MAX density matrix=1.00D-06.
 Requested convergence on             energy=1.00D-06.
 No special actions if energy rises.

 Cycle   1  Pass 1  IDiag  1:
 Inv3:  Mode=1 IEnd=     1687500.
 Iteration    1 A*A^-1 deviation from unit magnitude is 2.44D-15 for    719.
 Iteration    1 A*A^-1 deviation from orthogonality  is 1.39D-15 for    703    102.
 Iteration    1 A^-1*A deviation from unit magnitude is 2.44D-15 for    719.
 Iteration    1 A^-1*A deviation from orthogonality  is 1.03D-15 for    614    236.
 E= -257.818325787842    
 DIIS: error= 8.60D-09 at cycle   1 NSaved=   1.
 NSaved= 1 IEnMin= 1 EnMin= -257.818325787842     IErMin= 1 ErrMin= 8.60D-09
 ErrMax= 8.60D-09  0.00D+00 EMaxC= 1.00D-01 BMatC= 3.20D-15 BMatP= 3.20D-15
 IDIUse=1 WtCom= 1.00D+00 WtEn= 0.00D+00
 Coeff-Com:  0.100D+01
 Coeff:      0.100D+01
 Gap=     0.191 Goal=   None    Shift=    0.000
 RMSDP=1.38D-09 MaxDP=2.90D-08              OVMax= 5.93D-08

 Error on total polarization charges =  0.02702
 SCF Done:  E(RB3LYP) =  -257.818325788     A.U. after    1 cycles
            NFock=  1  Conv=0.14D-08     -V/T= 2.0036
 KE= 2.568814219828D+02 PE=-9.235203095927D+02 EE= 2.523280141049D+02
 Leave Link  502 at Fri Jun  2 11:04:45 2023, MaxMem=  7381975040 cpu:               7.5 elap:               5.4
 (Enter /software/commercial/gaussian/g16/AVX/g16/l508.exe)
 QCSCF skips out because SCF is already converged.
 Leave Link  508 at Fri Jun  2 11:04:47 2023, MaxMem=  7381975040 cpu:               0.0 elap:               0.5
 (Enter /software/commercial/gaussian/g16/AVX/g16/l801.exe)
 DoSCS=F DFT=T ScalE2(SS,OS)=  1.000000  1.000000
 Range of M.O.s used for correlation:     1   116
 NBasis=   116 NAE=    18 NBE=    18 NFC=     0 NFV=     0
 NROrb=    116 NOA=    18 NOB=    18 NVA=    98 NVB=    98

 **** Warning!!: The largest alpha MO coefficient is  0.45575259D+02

 Leave Link  801 at Fri Jun  2 11:04:49 2023, MaxMem=  7381975040 cpu:               0.5 elap:               0.7
 (Enter /software/commercial/gaussian/g16/AVX/g16/l1002.exe)
 Minotr:  Closed shell wavefunction.
 NEqPCM:  Using equilibrium solvation (IEInf=0, Eps=  24.8520, EpsInf=   1.8526)
          Direct CPHF calculation.
          Differentiating once with respect to electric field.
                with respect to dipole field.
          Electric field/nuclear overlap derivatives assumed to be zero.
          Requested convergence is 1.0D-08 RMS, and 1.0D-07 maximum.
          Secondary convergence is 1.0D-12 RMS, and 1.0D-12 maximum.
          NewPWx=F KeepS1=T KeepF1=T KeepIn=T MapXYZ=F SortEE=F KeepMc=T.
         1824 words used for storage of precomputed grid.
 Keep R1 ints in memory in canonical form, NReq=25796733.
 FoFCou: FMM=F IPFlag=           0 FMFlag=           0 FMFlg1=           0
         NFxFlg=           0 DoJE=F BraDBF=F KetDBF=F FulRan=T
         wScrn=  0.000000 ICntrl=       600 IOpCl=  0 I1Cent=           0 NGrid=           0
         NMat0=    1 NMatS0=   6786 NMatT0=    0 NMatD0=    1 NMtDS0=    0 NMtDT0=    0
 Symmetry not used in FoFCou.
 Two-electron integral symmetry not used.
          MDV=    7381975040 using IRadAn=       1.
          Solving linear equations simultaneously, MaxMat=       0.
          There are     3 degrees of freedom in the 1st order CPHF.  IDoFFX=0 NUNeed=     3.
      3 vectors produced by pass  0 Test12= 5.88D-14 3.33D-08 XBig12= 6.59D+01 4.29D+00.
 AX will form     3 AO Fock derivatives at one time.
      3 vectors produced by pass  1 Test12= 5.88D-14 3.33D-08 XBig12= 5.32D+01 2.59D+00.
      3 vectors produced by pass  2 Test12= 5.88D-14 3.33D-08 XBig12= 3.17D+00 4.19D-01.
      3 vectors produced by pass  3 Test12= 5.88D-14 3.33D-08 XBig12= 1.46D+00 4.57D-01.
      3 vectors produced by pass  4 Test12= 5.88D-14 3.33D-08 XBig12= 9.31D-02 8.15D-02.
      3 vectors produced by pass  5 Test12= 5.88D-14 3.33D-08 XBig12= 2.63D-02 5.72D-02.
      3 vectors produced by pass  6 Test12= 5.88D-14 3.33D-08 XBig12= 2.41D-03 1.07D-02.
      3 vectors produced by pass  7 Test12= 5.88D-14 3.33D-08 XBig12= 1.17D-04 2.31D-03.
      3 vectors produced by pass  8 Test12= 5.88D-14 3.33D-08 XBig12= 2.42D-06 3.32D-04.
      3 vectors produced by pass  9 Test12= 5.88D-14 3.33D-08 XBig12= 3.03D-08 2.99D-05.
      2 vectors produced by pass 10 Test12= 5.88D-14 3.33D-08 XBig12= 1.28D-09 5.95D-06.
      2 vectors produced by pass 11 Test12= 5.88D-14 3.33D-08 XBig12= 2.74D-11 1.04D-06.
      1 vectors produced by pass 12 Test12= 5.88D-14 3.33D-08 XBig12= 1.32D-12 3.06D-07.
 InvSVY:  IOpt=1 It=  1 EMax= 3.55D-15
 Solved reduced A of dimension    35 with     3 vectors.
 End of Minotr F.D. properties file   721 does not exist.
 End of Minotr F.D. properties file   722 does not exist.
 End of Minotr F.D. properties file   788 does not exist.
 Leave Link 1002 at Fri Jun  2 11:05:11 2023, MaxMem=  7381975040 cpu:              33.4 elap:              20.8
 (Enter /software/commercial/gaussian/g16/AVX/g16/l1101.exe)
 Using compressed storage, NAtomX=     6.
 Will process      7 centers per pass.
 R6Disp: Adding Grimme-D3(BJ) dispersion energy 1st derivatives to the gradient.
 Leave Link 1101 at Fri Jun  2 11:05:12 2023, MaxMem=  7381975040 cpu:               0.4 elap:               0.5
 (Enter /software/commercial/gaussian/g16/AVX/g16/l1102.exe)
 Symmetrizing basis deriv contribution to polar:
 IMax=3 JMax=2 DiffMx= 0.00D+00
 Leave Link 1102 at Fri Jun  2 11:05:14 2023, MaxMem=  7381975040 cpu:               0.3 elap:               0.9
 (Enter /software/commercial/gaussian/g16/AVX/g16/l1110.exe)
 Forming Gx(P) for the SCF density, NAtomX=     6.
 Integral derivatives from FoFJK, PRISM(SPDF).
 Do as many integral derivatives as possible in FoFJK.
 G2DrvN: MDV=    7381974298.
 G2DrvN: will do     7 centers at a time, making    1 passes.
 PxScal for G2LodP:  IOpCl= 0 ISclPx=1 IMOff=     1 NMtTot=     4 NTT=    6786 ScalPx= 6.89D+00
 Calling FoFCou, ICntrl=  3107 FMM=F I1Cent=   0 AccDes= 0.00D+00.
 FoFJK:  IHMeth= 1 ICntrl=    3107 DoSepK=F KAlg= 0 I1Cent=           0 FoldK=F
 IRaf=         0 NMat=       1 IRICut=       1 DoRegI=T DoRafI=F ISym2E= 0 IDoP0=0 IntGTp=1.
 FoFCou: FMM=F IPFlag=           0 FMFlag=      100000 FMFlg1=           0
         NFxFlg=           0 DoJE=F BraDBF=F KetDBF=F FulRan=T
         wScrn=  0.000000 ICntrl=      3107 IOpCl=  0 I1Cent=           0 NGrid=           0
         NMat0=    1 NMatS0=      1 NMatT0=    0 NMatD0=    4 NMtDS0=    3 NMtDT0=    0
 Symmetry not used in FoFCou.
 PxScal for G2LodP:  IOpCl= 0 ISclPx=0 IMOff=     1 NMtTot=     4 NTT=    6786 ScalPx= 1.00D+00
 NEqPCM:  Using equilibrium solvation (IEInf=0, Eps=  24.8520, EpsInf=   1.8526)
 G2PCM: DoFxE=T DoFxN=T DoGrad=T DoDP/DQ/DG/TGxP=TFFF NFrqRd=   0 IEInf=0 SqF1=F DoCFld=F IF1Alg=4.
 GePol: Maximum number of non-zero 1st derivatives   =     201
 End of G2Drv F.D. properties file   721 does not exist.
 End of G2Drv F.D. properties file   722 does not exist.
 End of G2Drv F.D. properties file   788 does not exist.
 Leave Link 1110 at Fri Jun  2 11:05:48 2023, MaxMem=  7381975040 cpu:              63.9 elap:              33.8
 (Enter /software/commercial/gaussian/g16/AVX/g16/l1002.exe)
 Minotr:  Closed shell wavefunction.
          IDoAtm=111111
 NEqPCM:  Using equilibrium solvation (IEInf=0, Eps=  24.8520, EpsInf=   1.8526)
          Direct CPHF calculation.
          Differentiating once with respect to electric field.
                with respect to dipole field.
          Differentiating once with respect to nuclear coordinates.
          Requested convergence is 1.0D-08 RMS, and 1.0D-07 maximum.
          Secondary convergence is 1.0D-12 RMS, and 1.0D-12 maximum.
          NewPWx=T KeepS1=F KeepF1=F KeepIn=T MapXYZ=F SortEE=F KeepMc=T.
         1824 words used for storage of precomputed grid.
 Keep R1 ints in memory in canonical form, NReq=25796871.
 FoFCou: FMM=F IPFlag=           0 FMFlag=           0 FMFlg1=           0
         NFxFlg=           0 DoJE=F BraDBF=F KetDBF=F FulRan=T
         wScrn=  0.000000 ICntrl=       600 IOpCl=  0 I1Cent=           0 NGrid=           0
         NMat0=    1 NMatS0=   6786 NMatT0=    0 NMatD0=    1 NMtDS0=    0 NMtDT0=    0
 Symmetry not used in FoFCou.
 Two-electron integral symmetry not used.
          MDV=    7381975040 using IRadAn=       1.
          Solving linear equations simultaneously, MaxMat=       0.
          There are    21 degrees of freedom in the 1st order CPHF.  IDoFFX=5 NUNeed=    21.
 Will reuse    3 saved solutions.
     15 vectors produced by pass  0 Test12= 8.40D-15 4.76D-09 XBig12= 2.01D-01 1.39D-01.
 AX will form    15 AO Fock derivatives at one time.
     15 vectors produced by pass  1 Test12= 8.40D-15 4.76D-09 XBig12= 4.29D-02 1.09D-01.
     15 vectors produced by pass  2 Test12= 8.40D-15 4.76D-09 XBig12= 7.60D-04 9.07D-03.
     15 vectors produced by pass  3 Test12= 8.40D-15 4.76D-09 XBig12= 1.08D-05 9.07D-04.
     15 vectors produced by pass  4 Test12= 8.40D-15 4.76D-09 XBig12= 1.17D-07 9.05D-05.
     15 vectors produced by pass  5 Test12= 8.40D-15 4.76D-09 XBig12= 4.20D-10 4.85D-06.
     13 vectors produced by pass  6 Test12= 8.40D-15 4.76D-09 XBig12= 9.16D-13 1.80D-07.
      2 vectors produced by pass  7 Test12= 8.40D-15 4.76D-09 XBig12= 1.86D-15 8.82D-09.
 InvSVY:  IOpt=1 It=  1 EMax= 1.33D-15
 Solved reduced A of dimension   105 with    15 vectors.
 FullF1:  Do perturbations      1 to       3.
 Isotropic polarizability for W=    0.000000       67.82 Bohr**3.
 FullF1:  Do perturbations      1 to       6.
 End of Minotr F.D. properties file   721 does not exist.
 End of Minotr F.D. properties file   722 does not exist.
 End of Minotr F.D. properties file   788 does not exist.
 Leave Link 1002 at Fri Jun  2 11:06:33 2023, MaxMem=  7381975040 cpu:              69.6 elap:              43.8
 (Enter /software/commercial/gaussian/g16/AVX/g16/l601.exe)
 Copying SCF densities to generalized density rwf, IOpCl= 0 IROHF=0.

 **********************************************************************

            Population analysis using the SCF Density.

 **********************************************************************

 Alpha  occ. eigenvalues --  -14.40065 -14.36148 -14.31592 -14.30474 -10.14643
 Alpha  occ. eigenvalues --   -1.10618  -0.89899  -0.83762  -0.63520  -0.59215
 Alpha  occ. eigenvalues --   -0.52131  -0.46135  -0.36732  -0.29171  -0.29043
 Alpha  occ. eigenvalues --   -0.25748  -0.25544  -0.19647
 Alpha virt. eigenvalues --   -0.00524   0.02421   0.04770   0.04978   0.05404
 Alpha virt. eigenvalues --    0.07119   0.08886   0.09044   0.11702   0.12909
 Alpha virt. eigenvalues --    0.14158   0.16501   0.17323   0.20068   0.20770
 Alpha virt. eigenvalues --    0.21253   0.21296   0.22399   0.22904   0.24336
 Alpha virt. eigenvalues --    0.25990   0.27584   0.29346   0.31500   0.33042
 Alpha virt. eigenvalues --    0.39270   0.43025   0.47647   0.57605   0.59300
 Alpha virt. eigenvalues --    0.59352   0.72286   0.75536   0.76880   0.79722
 Alpha virt. eigenvalues --    0.81844   0.83967   0.84886   0.85919   0.86479
 Alpha virt. eigenvalues --    0.88800   0.90095   0.92733   0.95860   1.00798
 Alpha virt. eigenvalues --    1.10871   1.21120   1.23531   1.27563   1.32564
 Alpha virt. eigenvalues --    1.33937   1.40230   1.52388   1.55097   1.72174
 Alpha virt. eigenvalues --    1.72259   1.79334   1.85464   1.97011   2.01741
 Alpha virt. eigenvalues --    2.04057   2.15657   2.25714   2.32376   2.35321
 Alpha virt. eigenvalues --    2.40832   2.48221   2.55844   2.61850   2.66577
 Alpha virt. eigenvalues --    2.66711   2.75345   2.78251   2.89295   2.90806
 Alpha virt. eigenvalues --    2.93435   2.99033   3.15511   3.23182   3.24733
 Alpha virt. eigenvalues --    3.55258   3.68236   3.79519   3.88141   3.92642
 Alpha virt. eigenvalues --    3.94513   4.00998   4.14538   4.41459   4.61013
 Alpha virt. eigenvalues --    4.86629   5.06587   5.69509  23.79100  35.35257
 Alpha virt. eigenvalues --   35.52393  35.54366  35.56226
     Molecular Orbital Coefficients:
                           1         2         3         4         5
                           O         O         O         O         O
     Eigenvalues --   -14.40065 -14.36148 -14.31592 -14.30474 -10.14643
   1 1   N  1S          0.55734  -0.00206  -0.00077   0.00006   0.00000
   2        2S          0.46574  -0.00168  -0.00063   0.00009   0.00004
   3        2PX         0.00006   0.00033  -0.00029   0.00005   0.00000
   4        2PY        -0.00017  -0.00021  -0.00017   0.00002   0.00005
   5        2PZ         0.00000   0.00000   0.00000  -0.00000  -0.00000
   6        3S          0.01578  -0.00018  -0.00003  -0.00032  -0.00032
   7        3PX         0.00014  -0.00070   0.00058  -0.00025  -0.00005
   8        3PY         0.00051   0.00054   0.00038   0.00006  -0.00012
   9        3PZ        -0.00000  -0.00000  -0.00000  -0.00000   0.00000
  10        4S         -0.01085   0.00438   0.00294   0.00053   0.00097
  11        4PX         0.00028   0.00164  -0.00204  -0.00006  -0.00011
  12        4PY         0.00434  -0.00198  -0.00160  -0.00056  -0.00172
  13        4PZ        -0.00001   0.00000   0.00000   0.00000   0.00000
  14        5S          0.02007  -0.02552  -0.01038   0.00083  -0.00355
  15        5PX        -0.00073  -0.00232   0.00486  -0.00272   0.00149
  16        5PY        -0.00679   0.00384   0.00158   0.00029   0.00280
  17        5PZ         0.00001  -0.00001  -0.00000  -0.00000  -0.00000
  18        6D 0       -0.00071   0.00018   0.00013  -0.00007  -0.00004
  19        6D+1        0.00000  -0.00000   0.00000  -0.00000   0.00000
  20        6D-1       -0.00000   0.00000  -0.00000  -0.00000  -0.00000
  21        6D+2       -0.00056  -0.00035  -0.00028  -0.00018  -0.00015
  22        6D-2       -0.00007   0.00061  -0.00049   0.00010  -0.00003
  23 2   N  1S          0.00204   0.55736   0.00013  -0.00140   0.00000
  24        2S          0.00176   0.46593   0.00015  -0.00112   0.00003
  25        2PX        -0.00028  -0.00181  -0.00004  -0.00006   0.00000
  26        2PY         0.00022  -0.00036   0.00002  -0.00036   0.00002
  27        2PZ        -0.00000   0.00000  -0.00000   0.00000  -0.00000
  28        3S          0.00004   0.01517  -0.00018  -0.00003  -0.00016
  29        3PX         0.00053  -0.00027   0.00028   0.00010   0.00008
  30        3PY        -0.00049  -0.00021  -0.00011   0.00076  -0.00007
  31        3PZ         0.00000   0.00000   0.00000  -0.00000   0.00000
  32        4S          0.00255  -0.01532  -0.00008   0.00200  -0.00052
  33        4PX        -0.00156   0.00306  -0.00013  -0.00061  -0.00009
  34        4PY        -0.00014   0.00097   0.00039  -0.00142   0.00049
  35        4PZ        -0.00000  -0.00000  -0.00000   0.00000  -0.00000
  36        5S         -0.01071   0.03892   0.00453  -0.00588  -0.00530
  37        5PX         0.00285  -0.00815  -0.00013  -0.00019   0.00248
  38        5PY         0.00039  -0.00294  -0.00293   0.00420  -0.00050
  39        5PZ        -0.00000   0.00000   0.00000  -0.00001   0.00000
  40        6D 0        0.00032  -0.00021  -0.00001   0.00029  -0.00003
  41        6D+1       -0.00000   0.00000  -0.00000   0.00000   0.00000
  42        6D-1        0.00000  -0.00000  -0.00000   0.00000   0.00000
  43        6D+2       -0.00022  -0.00014  -0.00005   0.00049   0.00011
  44        6D-2        0.00060  -0.00014   0.00008  -0.00037   0.00001
  45 3   N  1S          0.00076  -0.00013   0.55735   0.00037  -0.00006
  46        2S          0.00066  -0.00007   0.46593   0.00035  -0.00001
  47        2PX         0.00025   0.00006   0.00164   0.00001   0.00021
  48        2PY         0.00018   0.00001   0.00004  -0.00007  -0.00054
  49        2PZ        -0.00000  -0.00000   0.00000   0.00000   0.00000
  50        3S          0.00009  -0.00009   0.01522  -0.00007   0.00061
  51        3PX        -0.00044  -0.00032   0.00034  -0.00014  -0.00060
  52        3PY        -0.00031  -0.00000  -0.00084   0.00040   0.00159
  53        3PZ         0.00000  -0.00000   0.00000  -0.00000  -0.00000
  54        4S          0.00243  -0.00123  -0.01391  -0.00189  -0.00319
  55        4PX         0.00180  -0.00047  -0.00275  -0.00071  -0.00055
  56        4PY         0.00008   0.00026   0.00064   0.00034   0.00035
  57        4PZ         0.00000  -0.00000  -0.00000  -0.00000  -0.00000
  58        5S         -0.00853   0.00871   0.01944  -0.00372   0.01478
  59        5PX        -0.00305   0.00276   0.00460  -0.00147   0.00338
  60        5PY        -0.00102   0.00054   0.00176  -0.00098  -0.00221
  61        5PZ         0.00000  -0.00000  -0.00000   0.00000   0.00000
  62        6D 0        0.00026   0.00006  -0.00025   0.00005   0.00073
  63        6D+1        0.00000   0.00000   0.00000  -0.00000  -0.00000
  64        6D-1        0.00000   0.00000  -0.00000   0.00000   0.00000
  65        6D+2       -0.00018  -0.00004  -0.00026   0.00016   0.00078
  66        6D-2       -0.00045  -0.00006  -0.00002   0.00009   0.00066
  67 4   N  1S         -0.00006   0.00138  -0.00037   0.55735  -0.00004
  68        2S         -0.00001   0.00121  -0.00027   0.46594  -0.00004
  69        2PX         0.00003   0.00015  -0.00007  -0.00059  -0.00047
  70        2PY         0.00002   0.00033  -0.00004   0.00143  -0.00001
  71        2PZ        -0.00000  -0.00000   0.00000  -0.00000  -0.00000
  72        3S         -0.00023  -0.00004  -0.00012   0.01508   0.00062
  73        3PX        -0.00003  -0.00036   0.00040  -0.00050   0.00113
  74        3PY        -0.00020  -0.00065   0.00010   0.00029   0.00004
  75        3PZ         0.00000   0.00000  -0.00000  -0.00000   0.00000
  76        4S         -0.00069   0.00332  -0.00108  -0.01305  -0.00092
  77        4PX        -0.00016   0.00007   0.00060   0.00153   0.00009
  78        4PY        -0.00002   0.00226  -0.00024  -0.00190   0.00027
  79        4PZ         0.00000  -0.00000   0.00000   0.00000  -0.00000
  80        5S          0.00376  -0.01658  -0.00645   0.01746   0.01195
  81        5PX        -0.00011  -0.00084  -0.00049   0.00003  -0.00378
  82        5PY         0.00047  -0.00626  -0.00258   0.00399   0.00138
  83        5PZ        -0.00000   0.00001   0.00000  -0.00001  -0.00000
  84        6D 0       -0.00003   0.00026   0.00003  -0.00025   0.00054
  85        6D+1        0.00000   0.00000   0.00000  -0.00000  -0.00000
  86        6D-1       -0.00000   0.00000  -0.00000  -0.00000   0.00000
  87        6D+2       -0.00000   0.00049  -0.00023   0.00001  -0.00082
  88        6D-2       -0.00017  -0.00033  -0.00006   0.00025   0.00001
  89 5   C  1S         -0.00001  -0.00001  -0.00000   0.00001   0.56294
  90        2S          0.00004   0.00003   0.00009   0.00003   0.46368
  91        2PX        -0.00009   0.00005  -0.00026   0.00036   0.00092
  92        2PY        -0.00004  -0.00008   0.00035  -0.00013   0.00129
  93        2PZ         0.00000   0.00000  -0.00000   0.00000  -0.00000
  94        3S         -0.00044  -0.00022   0.00025   0.00034   0.01702
  95        3PX         0.00027  -0.00042   0.00079  -0.00063   0.00056
  96        3PY        -0.00011   0.00023  -0.00074   0.00055   0.00173
  97        3PZ         0.00000  -0.00000   0.00000  -0.00000  -0.00000
  98        4S         -0.00003   0.00003   0.00311   0.00321  -0.01321
  99        4PX        -0.00001   0.00006   0.00030   0.00192  -0.00133
 100        4PY         0.00011  -0.00010   0.00218   0.00105  -0.00142
 101        4PZ        -0.00000   0.00000  -0.00000  -0.00000   0.00000
 102        5S         -0.00325  -0.00345  -0.00440  -0.00493  -0.00901
 103        5PX        -0.00039  -0.00173  -0.00075  -0.00151  -0.00125
 104        5PY        -0.00125  -0.00018  -0.00152  -0.00124  -0.00153
 105        5PZ         0.00000  -0.00000   0.00000   0.00000   0.00000
 106        6D 0       -0.00015  -0.00008   0.00031   0.00016  -0.00090
 107        6D+1       -0.00000  -0.00000  -0.00000  -0.00000   0.00000
 108        6D-1       -0.00000  -0.00000   0.00000  -0.00000  -0.00000
 109        6D+2        0.00001  -0.00025   0.00081  -0.00079  -0.00015
 110        6D-2        0.00024   0.00000   0.00056  -0.00007  -0.00058
 111 6   H  1S          0.00013  -0.00010  -0.00011  -0.00012  -0.00014
 112        2S         -0.00368  -0.00034  -0.00004   0.00040   0.00104
 113        3S          0.00276   0.00178   0.00069  -0.00052  -0.00085
 114        4PX         0.00003  -0.00017   0.00023   0.00004   0.00002
 115        4PY         0.00194   0.00026   0.00018   0.00000  -0.00009
 116        4PZ        -0.00000  -0.00000  -0.00000   0.00000   0.00000
                           6         7         8         9        10
                           O         O         O         O         O
     Eigenvalues --    -1.10618  -0.89899  -0.83762  -0.63520  -0.59215
   1 1   N  1S         -0.07638   0.05309   0.05412  -0.03305  -0.00493
   2        2S         -0.11981   0.08397   0.08573  -0.05262  -0.00766
   3        2PX         0.01177   0.06806  -0.08216  -0.06828   0.13803
   4        2PY        -0.04096  -0.00890  -0.03430   0.14583   0.02830
   5        2PZ         0.00006   0.00002   0.00003  -0.00021  -0.00002
   6        3S          0.33117  -0.23930  -0.24797   0.15005   0.01994
   7        3PX         0.01717   0.10471  -0.12421  -0.10158   0.20778
   8        3PY        -0.06670  -0.00986  -0.05038   0.21414   0.04259
   9        3PZ         0.00010   0.00003   0.00005  -0.00031  -0.00003
  10        4S          0.19110  -0.18343  -0.18142   0.15393   0.02982
  11        4PX         0.00104   0.02316  -0.04033  -0.05526   0.13022
  12        4PY        -0.03526   0.00572  -0.02668   0.11616   0.01047
  13        4PZ         0.00005  -0.00000   0.00003  -0.00017   0.00001
  14        5S         -0.02306   0.10881   0.02131  -0.07714  -0.00607
  15        5PX         0.00638   0.01119  -0.00537   0.01255  -0.00705
  16        5PY         0.02119  -0.04167  -0.03265   0.04523   0.00535
  17        5PZ        -0.00003   0.00006   0.00004  -0.00006  -0.00001
  18        6D 0       -0.01359   0.00512   0.00317   0.00040  -0.00041
  19        6D+1        0.00001   0.00002  -0.00002  -0.00001   0.00001
  20        6D-1       -0.00003   0.00001   0.00000  -0.00001  -0.00001
  21        6D+2       -0.00025  -0.00233  -0.00416  -0.00913  -0.00381
  22        6D-2       -0.00282  -0.01578   0.01401   0.00568  -0.00689
  23 2   N  1S         -0.06530  -0.05600   0.03865   0.04352   0.01614
  24        2S         -0.10219  -0.08829   0.06112   0.06925   0.02579
  25        2PX        -0.05704  -0.01390   0.03066   0.03538  -0.04334
  26        2PY        -0.00664  -0.06269  -0.06508  -0.04350   0.12517
  27        2PZ         0.00000   0.00009   0.00010   0.00007  -0.00018
  28        3S          0.28275   0.25115  -0.17639  -0.20448  -0.07601
  29        3PX        -0.09054  -0.02503   0.04800   0.05647  -0.06283
  30        3PY        -0.01111  -0.09620  -0.09785  -0.06389   0.18831
  31        3PZ         0.00000   0.00013   0.00015   0.00010  -0.00027
  32        4S          0.14205   0.18158  -0.13457  -0.18044  -0.10368
  33        4PX        -0.02003  -0.02172   0.01837   0.02429  -0.01573
  34        4PY        -0.00100  -0.02310  -0.02239  -0.01727   0.08115
  35        4PZ        -0.00000   0.00003   0.00003   0.00003  -0.00012
  36        5S         -0.04098  -0.12409   0.04892   0.11678  -0.01074
  37        5PX         0.01158   0.03706  -0.01258  -0.03143  -0.00189
  38        5PY         0.00279   0.00571  -0.00268  -0.02793   0.00611
  39        5PZ        -0.00000  -0.00000   0.00000   0.00003  -0.00001
  40        6D 0       -0.01246  -0.00632   0.00281   0.00181  -0.00080
  41        6D+1        0.00001  -0.00002  -0.00003  -0.00001   0.00002
  42        6D-1       -0.00002  -0.00003   0.00000  -0.00001   0.00001
  43        6D+2        0.00434  -0.01044  -0.00384  -0.01197   0.01125
  44        6D-2       -0.00206   0.01226   0.01887   0.00834  -0.01431
  45 3   N  1S         -0.04353   0.06341  -0.06003   0.02912   0.02158
  46        2S         -0.06792   0.09987  -0.09456   0.04615   0.03445
  47        2PX         0.04248  -0.04208   0.02380  -0.00223  -0.02601
  48        2PY         0.00274  -0.01794  -0.04603   0.06157  -0.10726
  49        2PZ         0.00000   0.00002   0.00007  -0.00009   0.00015
  50        3S          0.18338  -0.28057   0.26515  -0.13122  -0.10286
  51        3PX         0.06621  -0.06806   0.03794  -0.00514  -0.04177
  52        3PY         0.00578  -0.03024  -0.06774   0.08917  -0.16139
  53        3PZ         0.00000   0.00003   0.00010  -0.00013   0.00022
  54        4S          0.09517  -0.17459   0.19333  -0.12297  -0.08295
  55        4PX         0.01284  -0.01847   0.02224  -0.00536  -0.01053
  56        4PY        -0.00215  -0.00886  -0.02283   0.04100  -0.06296
  57        4PZ         0.00001   0.00001   0.00004  -0.00006   0.00009
  58        5S         -0.02744  -0.00516  -0.07167   0.07119  -0.00779
  59        5PX        -0.00076   0.00069  -0.01742   0.01773   0.00474
  60        5PY         0.00783   0.00086   0.01025  -0.00220   0.00380
  61        5PZ        -0.00001  -0.00000  -0.00002   0.00001  -0.00000
  62        6D 0       -0.00867   0.00728  -0.00538   0.00090   0.00132
  63        6D+1       -0.00000   0.00001   0.00001  -0.00001   0.00003
  64        6D-1       -0.00001   0.00001  -0.00002  -0.00000  -0.00001
  65        6D+2        0.00573  -0.00212  -0.00433  -0.00293  -0.00673
  66        6D-2        0.00419  -0.00994  -0.00877   0.00844  -0.02003
  67 4   N  1S         -0.04197  -0.06773  -0.04463  -0.05993   0.00561
  68        2S         -0.06542  -0.10652  -0.07021  -0.09527   0.00891
  69        2PX        -0.00955   0.00517  -0.03904  -0.03725  -0.11132
  70        2PY         0.04054   0.05261   0.00257  -0.03341  -0.07093
  71        2PZ        -0.00006  -0.00007  -0.00001   0.00004   0.00008
  72        3S          0.17553   0.29806   0.19501   0.27471  -0.02914
  73        3PX        -0.01495   0.00732  -0.05990  -0.05529  -0.16500
  74        3PY         0.06428   0.08293   0.00508  -0.04501  -0.10344
  75        3PZ        -0.00009  -0.00012  -0.00002   0.00006   0.00012
  76        4S          0.10628   0.18858   0.16161   0.25232  -0.01110
  77        4PX        -0.01046  -0.00379  -0.02367  -0.02352  -0.07543
  78        4PY         0.01702   0.02408   0.01786  -0.01251  -0.03966
  79        4PZ        -0.00003  -0.00003  -0.00003   0.00001   0.00004
  80        5S         -0.02351   0.00584  -0.06951  -0.07470   0.00505
  81        5PX         0.00790   0.00597   0.00945  -0.00023   0.00960
  82        5PY         0.00127  -0.00075  -0.02266  -0.02286   0.00952
  83        5PZ        -0.00000   0.00000   0.00003   0.00003  -0.00001
  84        6D 0       -0.00861  -0.00766  -0.00408   0.00054   0.00062
  85        6D+1        0.00000  -0.00001   0.00001  -0.00000   0.00002
  86        6D-1       -0.00003  -0.00003   0.00000   0.00002   0.00002
  87        6D+2       -0.00739  -0.00928   0.00898   0.01077   0.01738
  88        6D-2       -0.00060   0.00586  -0.00289   0.00382  -0.01263
  89 5   C  1S         -0.02487   0.00082  -0.05921  -0.00719  -0.06719
  90        2S         -0.03771   0.00123  -0.09097  -0.01147  -0.10469
  91        2PX         0.01489   0.03420   0.02063   0.07008   0.03115
  92        2PY         0.02448  -0.02493   0.04911  -0.04926   0.01716
  93        2PZ        -0.00003   0.00004  -0.00007   0.00008  -0.00002
  94        3S          0.09252  -0.00390   0.23785   0.03255   0.28955
  95        3PX         0.02327   0.04968   0.03375   0.09878   0.04961
  96        3PY         0.03807  -0.03564   0.07326  -0.06853   0.02871
  97        3PZ        -0.00005   0.00006  -0.00010   0.00011  -0.00003
  98        4S          0.02697  -0.00327   0.10112   0.02174   0.20086
  99        4PX        -0.00194   0.00235   0.00213   0.02186   0.01321
 100        4PY         0.00041  -0.00322   0.00660  -0.01417   0.01309
 101        4PZ        -0.00000   0.00000  -0.00001   0.00002  -0.00002
 102        5S          0.06858   0.00413   0.03435  -0.00657   0.01040
 103        5PX         0.01386   0.00552   0.00079   0.00248  -0.00281
 104        5PY         0.02078  -0.00266   0.00962  -0.00330  -0.00840
 105        5PZ        -0.00003   0.00000  -0.00001   0.00001   0.00001
 106        6D 0       -0.00879  -0.00005  -0.01322  -0.00022  -0.00759
 107        6D+1       -0.00000  -0.00001   0.00000  -0.00000   0.00001
 108        6D-1       -0.00002   0.00003  -0.00004   0.00003  -0.00001
 109        6D+2       -0.00255   0.01910  -0.00366   0.02375   0.00789
 110        6D-2        0.00434   0.00754  -0.00099   0.00474  -0.00530
 111 6   H  1S          0.03061  -0.04410  -0.06260   0.13156   0.02710
 112        2S          0.03740  -0.04433  -0.05791   0.14733   0.03815
 113        3S         -0.01410   0.01366   0.02329  -0.00460   0.00229
 114        4PX         0.00033   0.00342  -0.00342  -0.00333   0.00565
 115        4PY        -0.00969   0.00978   0.01238  -0.01884  -0.00413
 116        4PZ         0.00001  -0.00001  -0.00002   0.00003   0.00001
                          11        12        13        14        15
                           O         O         O         O         O
     Eigenvalues --    -0.52131  -0.46135  -0.36732  -0.29171  -0.29043
   1 1   N  1S          0.01764   0.00000   0.01026   0.00202   0.00000
   2        2S          0.02832   0.00000   0.01625   0.00336   0.00000
   3        2PX         0.03374  -0.00003  -0.00733  -0.09591   0.00002
   4        2PY         0.15341   0.00024  -0.04458   0.01116  -0.00017
   5        2PZ        -0.00021   0.17423   0.00006  -0.00004  -0.12469
   6        3S         -0.08843  -0.00000  -0.04095  -0.01394  -0.00000
   7        3PX         0.05091  -0.00004  -0.01256  -0.15149   0.00003
   8        3PY         0.22701   0.00037  -0.05889   0.01463  -0.00026
   9        3PZ        -0.00031   0.26695   0.00008  -0.00005  -0.19038
  10        4S         -0.12754  -0.00000  -0.09267  -0.00185  -0.00000
  11        4PX         0.03971  -0.00004   0.00558  -0.07624   0.00003
  12        4PY         0.18827   0.00030   0.03054  -0.00663  -0.00026
  13        4PZ        -0.00025   0.21383  -0.00004  -0.00001  -0.18959
  14        5S          0.08026   0.00001  -0.05423   0.03212  -0.00001
  15        5PX         0.00225  -0.00000  -0.00881  -0.03333   0.00001
  16        5PY         0.00233   0.00002   0.01516  -0.00481  -0.00005
  17        5PZ        -0.00000   0.01424  -0.00002  -0.00000  -0.03828
  18        6D 0        0.00219   0.00004   0.00211  -0.00056   0.00000
  19        6D+1       -0.00000   0.00382  -0.00000  -0.00003   0.02090
  20        6D-1       -0.00000  -0.01662   0.00005  -0.00001   0.00063
  21        6D+2       -0.00446   0.00002   0.03202  -0.00559  -0.00000
  22        6D-2        0.00067   0.00001   0.00346   0.02020   0.00003
  23 2   N  1S         -0.03203   0.00000  -0.03261  -0.02997   0.00000
  24        2S         -0.05127   0.00000  -0.05245  -0.04806   0.00000
  25        2PX         0.08800  -0.00002   0.11323   0.17405  -0.00003
  26        2PY        -0.03577   0.00019   0.12572   0.02195   0.00018
  27        2PZ         0.00007   0.13742  -0.00016  -0.00000   0.13196
  28        3S          0.14906  -0.00000   0.14934   0.13116  -0.00000
  29        3PX         0.12910  -0.00004   0.16332   0.25728  -0.00004
  30        3PY        -0.05262   0.00030   0.18914   0.03031   0.00028
  31        3PZ         0.00010   0.21127  -0.00024   0.00000   0.19958
  32        4S          0.19616  -0.00000   0.24953   0.20488   0.00000
  33        4PX         0.05338  -0.00003   0.11348   0.21063  -0.00004
  34        4PY        -0.02530   0.00020   0.11966   0.03307   0.00027
  35        4PZ         0.00005   0.14630  -0.00015  -0.00001   0.19494
  36        5S         -0.06489   0.00000   0.06469   0.10882   0.00001
  37        5PX         0.02271  -0.00000   0.00409   0.03053  -0.00001
  38        5PY         0.00702   0.00001   0.02070   0.02453   0.00004
  39        5PZ        -0.00001   0.00851  -0.00003  -0.00003   0.03261
  40        6D 0        0.00433  -0.00000   0.01012   0.01061   0.00006
  41        6D+1       -0.00000  -0.02653   0.00002  -0.00001  -0.00762
  42        6D-1       -0.00002  -0.00298   0.00002   0.00002  -0.02365
  43        6D+2       -0.02362   0.00001  -0.00429  -0.00657   0.00003
  44        6D-2       -0.00147  -0.00004  -0.02041   0.00121  -0.00001
  45 3   N  1S         -0.03479   0.00000  -0.02928   0.03322  -0.00000
  46        2S         -0.05557   0.00000  -0.04722   0.05329  -0.00000
  47        2PX        -0.08862  -0.00001  -0.05566   0.18103   0.00002
  48        2PY        -0.09741   0.00014   0.09951  -0.05290  -0.00020
  49        2PZ         0.00012   0.09912  -0.00015   0.00010  -0.14293
  50        3S          0.15785  -0.00000   0.13959  -0.14828   0.00000
  51        3PX        -0.12929  -0.00002  -0.07192   0.26617   0.00003
  52        3PY        -0.14153   0.00021   0.14461  -0.07529  -0.00030
  53        3PZ         0.00018   0.15056  -0.00022   0.00014  -0.21765
  54        4S          0.20970  -0.00001   0.21991  -0.23350   0.00001
  55        4PX        -0.04884  -0.00002  -0.04434   0.21486   0.00002
  56        4PY        -0.06687   0.00015   0.10951  -0.06636  -0.00027
  57        4PZ         0.00009   0.10431  -0.00016   0.00012  -0.19183
  58        5S          0.00709  -0.00001   0.09402  -0.16643   0.00001
  59        5PX        -0.00844  -0.00000  -0.01590   0.02050   0.00001
  60        5PY        -0.00823  -0.00001  -0.00834  -0.02834  -0.00005
  61        5PZ         0.00001  -0.00323   0.00001   0.00004  -0.03638
  62        6D 0        0.00457   0.00000   0.00483  -0.01054   0.00001
  63        6D+1        0.00001   0.02041  -0.00002   0.00001  -0.01838
  64        6D-1       -0.00002   0.00104   0.00001  -0.00001  -0.00502
  65        6D+2       -0.02340  -0.00000  -0.00035   0.00897   0.00001
  66        6D-2       -0.00923   0.00003   0.01204  -0.00645  -0.00002
  67 4   N  1S          0.00690   0.00000  -0.01766   0.02717   0.00000
  68        2S          0.01076   0.00000  -0.02841   0.04395   0.00000
  69        2PX         0.08225  -0.00001   0.00525  -0.02948  -0.00003
  70        2PY         0.03195   0.00012  -0.15068   0.00021   0.00025
  71        2PZ        -0.00003   0.08812   0.00021  -0.00000   0.17323
  72        3S         -0.02590  -0.00000   0.08037  -0.13361  -0.00000
  73        3PX         0.11904  -0.00002   0.00783  -0.04095  -0.00005
  74        3PY         0.04603   0.00019  -0.22517  -0.00837   0.00038
  75        3PZ        -0.00005   0.13291   0.00032   0.00001   0.26278
  76        4S         -0.06037  -0.00000   0.08805  -0.17371  -0.00001
  77        4PX         0.07336  -0.00002   0.02278  -0.02530  -0.00004
  78        4PY         0.01352   0.00014  -0.16583   0.01466   0.00033
  79        4PZ        -0.00001   0.10083   0.00024  -0.00002   0.23513
  80        5S          0.07008  -0.00001   0.08861  -0.05808  -0.00001
  81        5PX        -0.00634   0.00000   0.00311   0.00363  -0.00001
  82        5PY         0.02047  -0.00001   0.01940   0.01881   0.00006
  83        5PZ        -0.00003  -0.00484  -0.00003  -0.00003   0.04594
  84        6D 0        0.00152  -0.00005   0.00913  -0.00215  -0.00006
  85        6D+1       -0.00002  -0.00542  -0.00002  -0.00000  -0.00288
  86        6D-1       -0.00000   0.01802   0.00005   0.00001   0.02243
  87        6D+2       -0.00482  -0.00002   0.01703   0.01354  -0.00003
  88        6D-2        0.01066  -0.00001   0.01441   0.00343  -0.00001
  89 5   C  1S         -0.01792   0.00000   0.00011  -0.02751   0.00000
  90        2S         -0.02810   0.00000  -0.00002  -0.04401   0.00000
  91        2PX        -0.09100  -0.00001   0.02236   0.02444   0.00000
  92        2PY         0.04967   0.00008  -0.08319   0.04249   0.00001
  93        2PZ        -0.00008   0.05532   0.00012  -0.00006   0.00729
  94        3S          0.08061  -0.00000  -0.00009   0.13155  -0.00000
  95        3PX        -0.12852  -0.00001   0.03073   0.04329   0.00000
  96        3PY         0.06566   0.00012  -0.12934   0.07141   0.00001
  97        3PZ        -0.00011   0.08435   0.00019  -0.00009   0.01103
  98        4S          0.04696   0.00000   0.00038   0.14610   0.00000
  99        4PX        -0.03813  -0.00001   0.01375   0.03430  -0.00000
 100        4PY         0.01541   0.00007  -0.06699   0.02655   0.00002
 101        4PZ        -0.00003   0.04954   0.00010  -0.00003   0.01230
 102        5S         -0.02161   0.00000  -0.02445   0.02910   0.00000
 103        5PX        -0.00600  -0.00000   0.01324   0.01418  -0.00000
 104        5PY        -0.00692   0.00002  -0.02425  -0.00468   0.00000
 105        5PZ         0.00001   0.01285   0.00004   0.00001   0.00176
 106        6D 0        0.00164  -0.00004   0.00606  -0.00325   0.00003
 107        6D+1        0.00002   0.01002   0.00003  -0.00002   0.02080
 108        6D-1       -0.00002   0.01708   0.00004  -0.00003  -0.01183
 109        6D+2       -0.01414  -0.00003   0.01679  -0.01621   0.00001
 110        6D-2       -0.01893   0.00001  -0.01827   0.01312   0.00003
 111 6   H  1S          0.10026  -0.00000  -0.06810   0.01035   0.00000
 112        2S          0.10933  -0.00000  -0.14323   0.02665   0.00000
 113        3S          0.00368  -0.00000  -0.06045   0.01234  -0.00000
 114        4PX         0.00140  -0.00000  -0.00006  -0.00521   0.00000
 115        4PY        -0.01048   0.00002   0.00924  -0.00071  -0.00002
 116        4PZ         0.00001   0.01149  -0.00001  -0.00000  -0.01142
                          16        17        18        19        20
                           O         O         O         V         V
     Eigenvalues --    -0.25748  -0.25544  -0.19647  -0.00524   0.02421
   1 1   N  1S          0.02507  -0.00000  -0.01729  -0.00000   0.02408
   2        2S          0.04112  -0.00000  -0.02842  -0.00000   0.04047
   3        2PX        -0.03178   0.00002  -0.04773   0.00003   0.00435
   4        2PY         0.04358  -0.00019  -0.03076  -0.00024  -0.06086
   5        2PZ        -0.00007  -0.13337   0.00004  -0.17234   0.00008
   6        3S         -0.13389   0.00001   0.09374   0.00000  -0.14826
   7        3PX        -0.04756   0.00003  -0.07177   0.00004   0.00766
   8        3PY         0.07217  -0.00029  -0.04767  -0.00036  -0.08645
   9        3PZ        -0.00011  -0.20315   0.00006  -0.25576   0.00012
  10        4S         -0.21955   0.00001   0.15490   0.00001  -0.19833
  11        4PX        -0.08294   0.00003  -0.10699   0.00006  -0.03863
  12        4PY         0.07405  -0.00029  -0.03089  -0.00050  -0.18040
  13        4PZ        -0.00012  -0.20443   0.00003  -0.36428   0.00024
  14        5S         -0.19133   0.00001   0.06721  -0.00001  -0.46272
  15        5PX         0.00196   0.00001  -0.04529   0.00007   0.42063
  16        5PY         0.04573  -0.00008  -0.00236  -0.00063   1.11826
  17        5PZ        -0.00006  -0.05675  -0.00000  -0.44661  -0.00148
  18        6D 0       -0.00257   0.00000   0.00343   0.00004   0.00433
  19        6D+1        0.00001  -0.02178   0.00001   0.00647  -0.00000
  20        6D-1        0.00000  -0.00301   0.00001  -0.01769   0.00000
  21        6D+2        0.00839   0.00001  -0.00103   0.00002  -0.00669
  22        6D-2       -0.00782  -0.00003  -0.00838   0.00001   0.00130
  23 2   N  1S         -0.03217   0.00000  -0.00640   0.00000   0.01078
  24        2S         -0.05204   0.00000  -0.01057   0.00000   0.01832
  25        2PX         0.03142   0.00002  -0.03110  -0.00003  -0.02823
  26        2PY        -0.01168  -0.00015  -0.06350   0.00028   0.00059
  27        2PZ         0.00002  -0.10815   0.00009   0.20203  -0.00000
  28        3S          0.15448  -0.00000   0.03825  -0.00000  -0.07428
  29        3PX         0.03620   0.00002  -0.04845  -0.00005  -0.02730
  30        3PY        -0.02399  -0.00023  -0.09635   0.00042   0.00412
  31        3PZ         0.00003  -0.16539   0.00013   0.30020  -0.00001
  32        4S          0.29796  -0.00001   0.08611   0.00000  -0.00267
  33        4PX         0.00063   0.00002  -0.05361  -0.00007  -0.12048
  34        4PY         0.01795  -0.00022  -0.09692   0.00058  -0.03565
  35        4PZ        -0.00003  -0.15280   0.00013   0.41094   0.00003
  36        5S          0.26642  -0.00000   0.05463   0.00002  -0.22532
  37        5PX        -0.00660   0.00000  -0.01000  -0.00008   0.03222
  38        5PY        -0.03205  -0.00004  -0.04052   0.00065  -0.15381
  39        5PZ         0.00004  -0.02987   0.00006   0.46770   0.00022
  40        6D 0        0.00378   0.00004  -0.00028   0.00000   0.00256
  41        6D+1       -0.00003   0.01413  -0.00000   0.00268  -0.00001
  42        6D-1        0.00002  -0.01472   0.00001  -0.00172   0.00002
  43        6D+2        0.00251   0.00002   0.00396   0.00000   0.00618
  44        6D-2        0.02215   0.00002   0.00050   0.00000   0.00587
  45 3   N  1S         -0.01123   0.00000   0.03027   0.00000   0.00925
  46        2S         -0.01785   0.00000   0.04913   0.00000   0.01564
  47        2PX        -0.08885  -0.00002   0.01142  -0.00002   0.02825
  48        2PY         0.09822   0.00019   0.03803   0.00020  -0.00157
  49        2PZ        -0.00015   0.13899  -0.00005   0.14208   0.00001
  50        3S          0.04605  -0.00000  -0.14683  -0.00000  -0.06004
  51        3PX        -0.13279  -0.00003   0.01092  -0.00003   0.03782
  52        3PY         0.14212   0.00029   0.06092   0.00030   0.00042
  53        3PZ        -0.00021   0.20674  -0.00009   0.21023   0.00000
  54        4S          0.08055  -0.00000  -0.27345  -0.00000  -0.10330
  55        4PX        -0.10600  -0.00003  -0.01006  -0.00005   0.00768
  56        4PY         0.13075   0.00030   0.02465   0.00040   0.00318
  57        4PZ        -0.00019   0.21374  -0.00004   0.28378  -0.00001
  58        5S          0.12550  -0.00000  -0.10801  -0.00000  -0.68434
  59        5PX        -0.00533  -0.00001   0.02750  -0.00005   0.06761
  60        5PY         0.04876   0.00006  -0.01724   0.00050   0.49967
  61        5PZ        -0.00007   0.04703   0.00003   0.35203  -0.00071
  62        6D 0        0.00509   0.00005  -0.00230   0.00002   0.00453
  63        6D+1       -0.00001   0.00765  -0.00003  -0.00428   0.00001
  64        6D-1        0.00000  -0.01903  -0.00001  -0.01028   0.00002
  65        6D+2       -0.00679   0.00003  -0.00247   0.00001   0.00616
  66        6D-2        0.00240   0.00001   0.01967  -0.00000  -0.00833
  67 4   N  1S          0.03602  -0.00000   0.02618  -0.00000   0.00836
  68        2S          0.05788  -0.00000   0.04243  -0.00000   0.01396
  69        2PX        -0.17967  -0.00001   0.04600   0.00002   0.00078
  70        2PY         0.13088   0.00013   0.03635  -0.00018   0.00474
  71        2PZ        -0.00021   0.09662  -0.00005  -0.12692  -0.00001
  72        3S         -0.16222   0.00000  -0.12538   0.00000  -0.04942
  73        3PX        -0.26343  -0.00002   0.07295   0.00003   0.00664
  74        3PY         0.18863   0.00020   0.04917  -0.00026   0.00350
  75        3PZ        -0.00031   0.14436  -0.00006  -0.18828  -0.00001
  76        4S         -0.26958   0.00000  -0.23888   0.00000  -0.13110
  77        4PX        -0.22591  -0.00002   0.05164   0.00004   0.01559
  78        4PY         0.15920   0.00020   0.01817  -0.00036  -0.03949
  79        4PZ        -0.00026   0.14756  -0.00002  -0.25328   0.00005
  80        5S         -0.25250   0.00000  -0.11125  -0.00001  -1.07861
  81        5PX        -0.07446  -0.00000  -0.01412   0.00004   0.31401
  82        5PY         0.00713   0.00004   0.01771  -0.00041   0.13825
  83        5PZ        -0.00002   0.02861  -0.00003  -0.28981  -0.00015
  84        6D 0       -0.01084  -0.00000  -0.00239  -0.00003   0.00551
  85        6D+1        0.00002  -0.01773  -0.00002   0.01600   0.00001
  86        6D-1       -0.00003  -0.00133  -0.00002   0.01216   0.00001
  87        6D+2        0.00078   0.00000  -0.01051  -0.00002  -0.00072
  88        6D-2       -0.00918  -0.00002   0.01521   0.00002  -0.00717
  89 5   C  1S         -0.01299  -0.00000  -0.05945  -0.00000   0.01380
  90        2S         -0.02089  -0.00000  -0.09517  -0.00000   0.02389
  91        2PX         0.09106  -0.00003  -0.11843   0.00000   0.01304
  92        2PY        -0.04229   0.00021  -0.16460  -0.00004   0.02309
  93        2PZ         0.00008   0.15194   0.00021  -0.02755  -0.00003
  94        3S          0.06107   0.00000   0.25777   0.00000  -0.10651
  95        3PX         0.13863  -0.00004  -0.16850   0.00000   0.00884
  96        3PY        -0.05652   0.00033  -0.22906  -0.00006   0.01217
  97        3PZ         0.00011   0.23370   0.00029  -0.04314  -0.00001
  98        4S          0.09618   0.00001   0.45167   0.00000   0.22218
  99        4PX         0.06446  -0.00003  -0.15090   0.00001   0.13356
 100        4PY        -0.01394   0.00027  -0.21252  -0.00009   0.22955
 101        4PZ         0.00003   0.19559   0.00027  -0.06664  -0.00030
 102        5S          0.02065  -0.00000   0.20331  -0.00000   3.45744
 103        5PX        -0.00180  -0.00001  -0.06058   0.00001   0.40298
 104        5PY         0.00469   0.00005  -0.08233  -0.00011   0.72525
 105        5PZ        -0.00001   0.03605   0.00011  -0.08008  -0.00095
 106        6D 0       -0.00118  -0.00006   0.01715  -0.00005   0.00321
 107        6D+1       -0.00002   0.01360   0.00001  -0.02819  -0.00002
 108        6D-1        0.00004   0.02712   0.00004   0.01781   0.00000
 109        6D+2        0.02548  -0.00004   0.00291  -0.00002  -0.00594
 110        6D-2        0.01815   0.00001  -0.00975  -0.00004   0.01163
 111 6   H  1S          0.00848  -0.00000  -0.01452  -0.00000   0.00838
 112        2S          0.01394  -0.00000  -0.03857  -0.00001   0.16450
 113        3S          0.00863  -0.00000  -0.03379  -0.00001  -0.51039
 114        4PX        -0.00230   0.00000  -0.00426   0.00000   0.00221
 115        4PY         0.00143  -0.00002   0.00033  -0.00004   0.02037
 116        4PZ        -0.00000  -0.01349  -0.00000  -0.02607  -0.00003
                          21        22        23        24        25
                           V         V         V         V         V
     Eigenvalues --     0.04770   0.04978   0.05404   0.07119   0.08886
   1 1   N  1S          0.00000   0.01191   0.01209  -0.02271   0.00000
   2        2S          0.00000   0.02018   0.01995  -0.03731   0.00000
   3        2PX         0.00000  -0.01030   0.00965  -0.00408  -0.00001
   4        2PY        -0.00001  -0.06018  -0.02170   0.03235   0.00007
   5        2PZ        -0.00158   0.00008   0.00003  -0.00004   0.05054
   6        3S         -0.00001  -0.07779  -0.06102   0.11690  -0.00001
   7        3PX         0.00000  -0.01240   0.00973  -0.00568  -0.00001
   8        3PY        -0.00001  -0.09671  -0.03378   0.05514   0.00009
   9        3PZ        -0.00187   0.00013   0.00005  -0.00008   0.06274
  10        4S         -0.00002  -0.03696  -0.25975   0.27042  -0.00000
  11        4PX         0.00000  -0.03126   0.06336  -0.01615  -0.00003
  12        4PY        -0.00002  -0.11043   0.01126   0.10545   0.00023
  13        4PZ        -0.00685   0.00015  -0.00001  -0.00014   0.16224
  14        5S         -0.00008  -3.61795   0.59597   6.61541  -0.00107
  15        5PX        -0.00002   0.85869  -1.07790  -0.36067  -0.00005
  16        5PY         0.00032   2.41060   1.00139  -2.43932  -0.00007
  17        5PZ         0.13843  -0.00323  -0.00158   0.00336  -0.23005
  18        6D 0       -0.00001  -0.00225  -0.00065   0.01572   0.00002
  19        6D+1        0.01738   0.00000   0.00000   0.00000   0.01922
  20        6D-1        0.00542  -0.00001  -0.00000   0.00004  -0.00424
  21        6D+2       -0.00001   0.00039  -0.00024  -0.00056   0.00000
  22        6D-2        0.00002  -0.00250  -0.00216  -0.00415   0.00003
  23 2   N  1S         -0.00000  -0.00435   0.00180   0.01560  -0.00000
  24        2S         -0.00000  -0.00740   0.00347   0.02625  -0.00000
  25        2PX        -0.00001  -0.00972  -0.04228   0.00090  -0.00001
  26        2PY         0.00004   0.00815  -0.02102  -0.01680   0.00010
  27        2PZ         0.02935  -0.00001   0.00002   0.00002   0.06890
  28        3S          0.00000   0.03210  -0.02356  -0.09965   0.00001
  29        3PX        -0.00001  -0.00970  -0.05747   0.01251  -0.00001
  30        3PY         0.00006   0.00956  -0.02848  -0.01987   0.00013
  31        3PZ         0.04546  -0.00002   0.00003   0.00003   0.08738
  32        4S         -0.00000  -0.04964   0.13328  -0.09765   0.00001
  33        4PX        -0.00001  -0.02267  -0.14941  -0.02943  -0.00002
  34        4PY         0.00008   0.07213  -0.07649  -0.04940   0.00030
  35        4PZ         0.05367  -0.00011   0.00008   0.00007   0.20963
  36        5S          0.00013   4.16932  -0.75031  -4.82015   0.00128
  37        5PX        -0.00005  -0.42591   0.06596   1.65652  -0.00036
  38        5PY         0.00035  -1.51667   0.87898   0.13569  -0.00028
  39        5PZ         0.27550   0.00203  -0.00123   0.00007  -0.10816
  40        6D 0       -0.00004  -0.00006  -0.00176   0.00382  -0.00004
  41        6D+1        0.00107   0.00000  -0.00000   0.00001  -0.01077
  42        6D-1        0.01626  -0.00000   0.00000   0.00001   0.01413
  43        6D+2       -0.00002   0.00083   0.00484   0.00393  -0.00002
  44        6D-2       -0.00000  -0.00116   0.00344  -0.00427  -0.00002
  45 3   N  1S         -0.00000   0.00571  -0.01439   0.01897  -0.00000
  46        2S         -0.00000   0.00954  -0.02365   0.03170  -0.00000
  47        2PX         0.00002   0.02221  -0.02681  -0.02759   0.00001
  48        2PY        -0.00014   0.00712   0.02363  -0.00472  -0.00011
  49        2PZ        -0.10051  -0.00000  -0.00003   0.00000  -0.08004
  50        3S          0.00000  -0.03409   0.07671  -0.11465   0.00000
  51        3PX         0.00002   0.02965  -0.04850  -0.04111   0.00002
  52        3PY        -0.00022   0.00529   0.02845  -0.01203  -0.00016
  53        3PZ        -0.15597   0.00001  -0.00004   0.00001  -0.11468
  54        4S          0.00001  -0.00642   0.21093  -0.11246  -0.00000
  55        4PX         0.00004   0.06943   0.08220  -0.07195   0.00004
  56        4PY        -0.00024   0.00380   0.07109   0.01265  -0.00032
  57        4PZ        -0.17542   0.00002  -0.00008  -0.00003  -0.22810
  58        5S          0.00019   3.04118   1.54901  -5.97093   0.00038
  59        5PX         0.00012   1.11050  -0.34952  -1.34004   0.00014
  60        5PY        -0.00085   0.27533  -1.68324  -0.24041  -0.00016
  61        5PZ        -0.56553  -0.00019   0.00234   0.00012  -0.13744
  62        6D 0        0.00002  -0.00317   0.00083   0.00402   0.00005
  63        6D+1       -0.00766  -0.00000  -0.00001  -0.00001   0.00361
  64        6D-1       -0.01080  -0.00001  -0.00000   0.00001  -0.02060
  65        6D+2        0.00002  -0.00010  -0.00244  -0.00232   0.00003
  66        6D-2       -0.00001   0.00118   0.00328   0.00544   0.00001
  67 4   N  1S         -0.00000  -0.01024   0.01315   0.00648   0.00000
  68        2S         -0.00000  -0.01706   0.02185   0.01112   0.00000
  69        2PX         0.00002   0.03702   0.00120  -0.00616   0.00002
  70        2PY        -0.00017  -0.03701   0.01977   0.01367  -0.00013
  71        2PZ        -0.11798   0.00006  -0.00002  -0.00002  -0.09446
  72        3S          0.00000   0.06033  -0.07532  -0.04568  -0.00000
  73        3PX         0.00003   0.04833   0.00019  -0.00875   0.00002
  74        3PY        -0.00026  -0.06283   0.02853   0.01072  -0.00019
  75        3PZ        -0.18235   0.00011  -0.00003  -0.00002  -0.13522
  76        4S          0.00001   0.11077  -0.12450  -0.00448  -0.00000
  77        4PX         0.00004   0.06748  -0.00952  -0.00225   0.00005
  78        4PY        -0.00029   0.02263  -0.01792   0.05863  -0.00037
  79        4PZ        -0.20755  -0.00001   0.00003  -0.00009  -0.25900
  80        5S          0.00005  -0.51658   0.14129   0.25039  -0.00075
  81        5PX         0.00003  -1.51171   0.58142  -0.00274   0.00002
  82        5PY        -0.00093  -1.14498   0.97568   0.09253  -0.00036
  83        5PZ        -0.64863   0.00141  -0.00127  -0.00012  -0.11693
  84        6D 0        0.00002  -0.00098  -0.00174   0.00537   0.00000
  85        6D+1       -0.00499  -0.00001  -0.00000  -0.00000  -0.01680
  86        6D-1       -0.00823  -0.00000  -0.00001   0.00002  -0.00183
  87        6D+2        0.00001  -0.00210  -0.00269   0.00492   0.00000
  88        6D-2       -0.00001   0.00817   0.00052  -0.00054  -0.00002
  89 5   C  1S         -0.00000  -0.01777  -0.01291  -0.01322  -0.00000
  90        2S         -0.00000  -0.03018  -0.02170  -0.02077  -0.00000
  91        2PX        -0.00002  -0.04389  -0.01673  -0.01472  -0.00003
  92        2PY         0.00012  -0.04512  -0.04734  -0.01792   0.00030
  93        2PZ         0.08747   0.00005   0.00006   0.00003   0.21027
  94        3S          0.00001   0.12152   0.08263   0.04783   0.00000
  95        3PX        -0.00003  -0.04106  -0.04096  -0.00718  -0.00004
  96        3PY         0.00020  -0.06734  -0.04832  -0.01278   0.00039
  97        3PZ         0.14413   0.00008   0.00006   0.00002   0.27567
  98        4S         -0.00002  -0.17340  -0.09984   0.30721   0.00002
  99        4PX        -0.00004  -0.22936   0.07658  -0.11204  -0.00011
 100        4PY         0.00025  -0.12942  -0.26331  -0.04748   0.00107
 101        4PZ         0.19318   0.00014   0.00038   0.00006   0.75822
 102        5S         -0.00024  -2.40978  -1.06088   2.81286   0.00008
 103        5PX        -0.00022  -1.15018   2.31819   0.82994   0.00013
 104        5PY         0.00209   1.05399  -1.02426   2.06228  -0.00067
 105        5PZ         1.48005  -0.00173   0.00175  -0.00279  -0.48450
 106        6D 0        0.00002   0.00449   0.00576   0.01479  -0.00003
 107        6D+1       -0.00998   0.00001   0.00001   0.00000   0.00578
 108        6D-1       -0.01054   0.00002   0.00001   0.00005   0.01197
 109        6D+2        0.00002   0.00391  -0.00247   0.01047  -0.00002
 110        6D-2       -0.00001  -0.00978  -0.00724  -0.00403   0.00001
 111 6   H  1S          0.00000  -0.00115   0.00912  -0.03194   0.00000
 112        2S          0.00001   0.11942   0.09751  -0.18621  -0.00000
 113        3S         -0.00004  -0.67573  -0.47541   0.14619   0.00001
 114        4PX        -0.00000  -0.00258   0.00360  -0.00304  -0.00000
 115        4PY         0.00001   0.01995   0.00841  -0.01517  -0.00000
 116        4PZ         0.00498  -0.00003  -0.00001   0.00002  -0.00364
                          26        27        28        29        30
                           V         V         V         V         V
     Eigenvalues --     0.09044   0.11702   0.12909   0.14158   0.16501
   1 1   N  1S          0.00744  -0.00588   0.00000  -0.00000   0.01225
   2        2S          0.01275  -0.01010   0.00000  -0.00000   0.02013
   3        2PX        -0.00843  -0.00565   0.00001  -0.00001  -0.00408
   4        2PY         0.01411  -0.03176  -0.00009   0.00004  -0.02734
   5        2PZ        -0.00003   0.00004  -0.06505   0.03120   0.00004
   6        3S         -0.05584   0.04660  -0.00000   0.00000  -0.06200
   7        3PX        -0.00778  -0.01597   0.00001  -0.00001   0.00225
   8        3PY         0.02022  -0.04312  -0.00010   0.00005  -0.03855
   9        3PZ        -0.00003   0.00006  -0.06698   0.03366   0.00005
  10        4S          0.04748  -0.02633  -0.00001   0.00000  -0.13139
  11        4PX        -0.04656  -0.03594   0.00004  -0.00002  -0.07478
  12        4PY         0.03222  -0.16714  -0.00038   0.00018  -0.17274
  13        4PZ        -0.00007   0.00023  -0.26136   0.12679   0.00023
  14        5S         -8.91854   6.40235   0.00017   0.00013  -7.87240
  15        5PX        -1.53345  -1.27788  -0.00018   0.00005   1.61999
  16        5PY         1.91988  -1.27887   0.00136  -0.00091   2.18223
  17        5PZ        -0.00293   0.00157   1.03160  -0.64057  -0.00284
  18        6D 0       -0.00101  -0.00782  -0.00003   0.00001  -0.00597
  19        6D+1        0.00002   0.00002   0.00337  -0.00279  -0.00001
  20        6D-1       -0.00000  -0.00003   0.01144  -0.00541  -0.00002
  21        6D+2       -0.00043  -0.00869  -0.00002   0.00001  -0.00422
  22        6D-2       -0.01226  -0.01276   0.00000  -0.00000   0.00496
  23 2   N  1S         -0.02666  -0.00676  -0.00000   0.00000  -0.00933
  24        2S         -0.04445  -0.01096  -0.00000   0.00000  -0.01567
  25        2PX         0.02898  -0.01984   0.00001   0.00001   0.00787
  26        2PY         0.01650  -0.00550  -0.00007  -0.00006   0.00735
  27        2PZ        -0.00002   0.00001  -0.05325  -0.04251  -0.00001
  28        3S          0.16090   0.03029   0.00000  -0.00000   0.05819
  29        3PX         0.02273  -0.02180   0.00001   0.00001   0.00600
  30        3PY         0.01509  -0.01798  -0.00007  -0.00006   0.00127
  31        3PZ        -0.00002   0.00003  -0.04680  -0.03954  -0.00000
  32        4S          0.15827   0.15581  -0.00000   0.00001  -0.01822
  33        4PX         0.12333  -0.08339   0.00004   0.00003   0.08050
  34        4PY         0.08769   0.04897  -0.00033  -0.00026   0.12635
  35        4PZ        -0.00012  -0.00007  -0.23682  -0.18555  -0.00016
  36        5S         13.80847  -0.95159  -0.00011  -0.00012   8.60116
  37        5PX        -3.81215   1.26628  -0.00007  -0.00010  -2.37568
  38        5PY        -1.73670  -0.53661   0.00102   0.00112  -2.64463
  39        5PZ         0.00183   0.00094   0.72233   0.76135   0.00334
  40        6D 0        0.01317  -0.00866  -0.00001  -0.00001   0.00309
  41        6D+1        0.00001   0.00001   0.01209   0.00896   0.00001
  42        6D-1        0.00003   0.00000   0.00716   0.00477   0.00001
  43        6D+2        0.00075   0.01686  -0.00001  -0.00001   0.00396
  44        6D-2       -0.00618  -0.00510   0.00002   0.00001  -0.00407
  45 3   N  1S          0.00774   0.01298  -0.00000   0.00000  -0.01138
  46        2S          0.01274   0.02104  -0.00000   0.00000  -0.01872
  47        2PX         0.01631   0.00880   0.00001  -0.00001  -0.01654
  48        2PY        -0.02394  -0.02613  -0.00006   0.00009   0.04413
  49        2PZ         0.00004   0.00004  -0.04121   0.06703  -0.00006
  50        3S         -0.03920  -0.05754   0.00000  -0.00000   0.06264
  51        3PX         0.00896  -0.01006   0.00001  -0.00001  -0.00180
  52        3PY        -0.03035  -0.02842  -0.00006   0.00009   0.04700
  53        3PZ         0.00005   0.00004  -0.04649   0.06631  -0.00006
  54        4S         -0.15045  -0.24892   0.00000  -0.00000   0.12975
  55        4PX         0.05079   0.06668   0.00003  -0.00004  -0.16999
  56        4PY        -0.04086  -0.03298  -0.00022   0.00041   0.13875
  57        4PZ         0.00008   0.00005  -0.15665   0.28858  -0.00021
  58        5S          1.32406  -3.59049  -0.00011  -0.00011   6.26609
  59        5PX         0.42643  -1.94054  -0.00003   0.00007   3.13669
  60        5PY         0.15606  -0.50001  -0.00012  -0.00129  -0.84636
  61        5PZ        -0.00014   0.00040  -0.08198  -0.90699   0.00166
  62        6D 0        0.00277  -0.01171   0.00002   0.00001   0.00725
  63        6D+1        0.00001   0.00001  -0.00252   0.01233  -0.00001
  64        6D-1        0.00000  -0.00002  -0.00721  -0.00306   0.00003
  65        6D+2       -0.00451   0.00465   0.00001   0.00000   0.00598
  66        6D-2       -0.00709  -0.00221  -0.00000   0.00002   0.00893
  67 4   N  1S          0.01410   0.01398   0.00000  -0.00000   0.01153
  68        2S          0.02354   0.02270   0.00000  -0.00000   0.01917
  69        2PX         0.00351  -0.03320   0.00000   0.00001  -0.04165
  70        2PY        -0.02380   0.00286  -0.00004  -0.00009   0.00983
  71        2PZ         0.00004  -0.00001  -0.03082  -0.06537  -0.00002
  72        3S         -0.08647  -0.06477  -0.00000   0.00000  -0.06997
  73        3PX         0.00151  -0.02953   0.00001   0.00001  -0.03933
  74        3PY        -0.03025  -0.02058  -0.00005  -0.00009  -0.00386
  75        3PZ         0.00005   0.00002  -0.03542  -0.06191  -0.00000
  76        4S         -0.05234  -0.18814   0.00000   0.00000  -0.06360
  77        4PX         0.06683  -0.08667   0.00001   0.00005  -0.14666
  78        4PY        -0.03887   0.11699  -0.00015  -0.00041   0.17465
  79        4PZ         0.00008  -0.00018  -0.10931  -0.28602  -0.00027
  80        5S         -9.19635   0.79032   0.00004   0.00015  -8.13217
  81        5PX         0.01717   0.00738   0.00003  -0.00016   1.53745
  82        5PY        -2.55559  -0.73473  -0.00022   0.00135  -3.43828
  83        5PZ         0.00360   0.00102  -0.14563   0.91359   0.00509
  84        6D 0        0.00009  -0.01163   0.00001   0.00003  -0.00728
  85        6D+1       -0.00001   0.00001  -0.00671   0.00711   0.00001
  86        6D-1       -0.00000  -0.00003  -0.00340  -0.01091  -0.00001
  87        6D+2       -0.00424   0.00046   0.00001   0.00001   0.00392
  88        6D-2        0.00465  -0.00503  -0.00001   0.00001  -0.00460
  89 5   C  1S         -0.00536  -0.01491  -0.00000  -0.00000   0.00308
  90        2S         -0.00744  -0.02250  -0.00000  -0.00000   0.00495
  91        2PX         0.00304   0.00553  -0.00001  -0.00000   0.03074
  92        2PY         0.01501   0.00208   0.00012  -0.00000  -0.02560
  93        2PZ        -0.00004   0.00000   0.08577  -0.00199   0.00004
  94        3S         -0.00605   0.02634   0.00000   0.00000  -0.01391
  95        3PX        -0.00016   0.01376  -0.00002   0.00000  -0.00108
  96        3PY         0.02699   0.01204   0.00016  -0.00001  -0.01488
  97        3PZ        -0.00006  -0.00001   0.11670  -0.00410   0.00002
  98        4S          0.37527   0.69965   0.00001   0.00000  -0.05468
  99        4PX         0.11038   0.00852  -0.00005  -0.00000   0.29349
 100        4PY         0.04168   0.07412   0.00044  -0.00001  -0.15669
 101        4PZ        -0.00010  -0.00009   0.31478  -0.00704   0.00026
 102        5S          1.83124  -2.23782  -0.00003  -0.00003   0.40968
 103        5PX         1.00095  -0.31629   0.00014   0.00004  -1.41778
 104        5PY         0.70425  -0.42358  -0.00134  -0.00009   1.51290
 105        5PZ        -0.00080   0.00057  -0.95792  -0.03722  -0.00234
 106        6D 0        0.00340  -0.01751  -0.00002  -0.00000   0.00148
 107        6D+1        0.00001   0.00001   0.00617   0.00003  -0.00000
 108        6D-1       -0.00001  -0.00004   0.00827   0.00085   0.00002
 109        6D+2       -0.00947   0.00098  -0.00001  -0.00000   0.01027
 110        6D-2       -0.00776  -0.00429   0.00001  -0.00000   0.00399
 111 6   H  1S          0.00618   0.02145   0.00000  -0.00000   0.03812
 112        2S         -0.01606   0.10212   0.00001  -0.00000   0.10954
 113        3S          0.22307   0.31512   0.00006  -0.00002   0.70203
 114        4PX        -0.01978  -0.01595  -0.00000   0.00000   0.01081
 115        4PY         0.00566  -0.00191   0.00003  -0.00001   0.01215
 116        4PZ        -0.00001  -0.00000   0.01879  -0.00979  -0.00002
                          31        32        33        34        35
                           V         V         V         V         V
     Eigenvalues --     0.17323   0.20068   0.20770   0.21253   0.21296
   1 1   N  1S         -0.00141  -0.02488  -0.00000   0.00592   0.00000
   2        2S         -0.00241  -0.04139  -0.00000   0.01025   0.00000
   3        2PX         0.02741  -0.05235   0.00001   0.10557   0.00001
   4        2PY         0.00028   0.02936  -0.00012   0.06094  -0.00001
   5        2PZ         0.00000  -0.00005  -0.07930  -0.00007  -0.01229
   6        3S          0.00996   0.13370   0.00000  -0.04626  -0.00001
   7        3PX         0.02547  -0.07089   0.00001   0.15161   0.00002
   8        3PY        -0.00674   0.01802  -0.00014   0.08172  -0.00001
   9        3PZ         0.00001  -0.00004  -0.09360  -0.00010  -0.01108
  10        4S         -0.04433   0.30339  -0.00001   0.06894  -0.00001
  11        4PX        -0.00797  -0.22224   0.00004   0.41177   0.00005
  12        4PY         0.05686   0.21822  -0.00053   0.19973  -0.00008
  13        4PZ        -0.00008  -0.00034  -0.36974  -0.00023  -0.06688
  14        5S          0.32278   7.31912   0.00100  -8.27188  -0.00062
  15        5PX        -1.46159  -1.92653  -0.00101   7.75573   0.00076
[...]
      1  0.511442D+00
      2 -0.301347D-01  0.990323D+00
      3  0.108604D-03 -0.125270D-02  0.924191D-01
      4 -0.248335D+00  0.438539D-01 -0.915251D-04  0.548402D+00
      5  0.808276D-01 -0.136221D+00  0.102118D-03  0.451339D-01  0.427374D+00
      6 -0.144008D-03  0.963899D-04 -0.706516D-01  0.224038D-04 -0.430486D-03
      7 -0.185956D+00 -0.135006D-01  0.325911D-05 -0.125320D+00  0.303119D-01
      8 -0.416515D-01 -0.119022D+00  0.670647D-04 -0.372950D-01 -0.284838D-01
      9  0.440370D-04  0.721771D-04 -0.655926D-01  0.262567D-04  0.881680D-04
     10 -0.113573D-01  0.299267D-02 -0.977990D-05 -0.131628D+00 -0.635590D-01
     11  0.831041D-01 -0.163530D+00  0.279940D-03 -0.304343D-01 -0.234385D+00
     12 -0.122709D-03  0.267912D-03  0.266730D-01  0.221853D-04  0.185369D-03
     13  0.524192D-02  0.799521D-02 -0.140300D-04 -0.551919D-01 -0.123948D+00
     14 -0.879365D-01 -0.119408D+00  0.183381D-03 -0.158243D-01 -0.194162D-01
     15  0.120334D-03  0.197870D-03  0.210580D-01  0.926158D-05  0.555702D-04
     16 -0.710359D-01 -0.112064D-01  0.347169D-05  0.120732D-01  0.312339D-01
     17 -0.420910D-02 -0.452142D+00  0.620195D-03 -0.543420D-02 -0.886855D-02
     18 -0.625877D-05  0.618349D-03 -0.390586D-02  0.114178D-04  0.000000D+00
                6             7             8             9            10 
      6  0.112599D+00
      7 -0.675801D-04  0.471041D+00
      8  0.777953D-04 -0.853967D-01  0.401649D+00
      9  0.313216D-01  0.164462D-03 -0.425295D-03  0.968483D-01
     10  0.676790D-04 -0.530948D-01  0.123708D+00 -0.186021D-03  0.378154D+00
     11  0.190478D-03  0.127631D-01 -0.470368D-02  0.490225D-04 -0.747446D-01
     12 -0.934814D-01 -0.309321D-04  0.665333D-04  0.285022D-01  0.163756D-03
     13  0.161421D-03 -0.119014D+00  0.668060D-01 -0.892569D-04 -0.174292D+00
     14  0.725472D-04  0.516135D-01 -0.244682D+00  0.224607D-03  0.103535D-01
     15  0.332425D-01 -0.672646D-04  0.227712D-03 -0.795474D-01 -0.310508D-04
     16 -0.399159D-04  0.123435D-01 -0.261706D-01  0.405219D-04 -0.778226D-02
     17 -0.672351D-05  0.420883D-02 -0.475748D-02 -0.867996D-05  0.124961D-02
     18 -0.130299D-01 -0.194445D-05 -0.138104D-04 -0.115320D-01 -0.458330D-05
               11            12            13            14            15 
     11  0.498522D+00
     12 -0.554733D-03  0.111427D+00
     13  0.206917D-02 -0.193676D-04  0.350284D+00
     14 -0.983154D-01  0.261780D-04  0.486561D-01  0.482622D+00
     15  0.251760D-04 -0.816494D-01 -0.389468D-04 -0.516701D-03  0.999514D-01
     16  0.724251D-02 -0.129328D-04 -0.702802D-02 -0.686235D-02  0.766627D-05
     17  0.241215D-02  0.874027D-05 -0.157810D-02 -0.800938D-03  0.103738D-04
     18  0.101178D-04  0.852864D-02  0.000000D+00  0.998865D-05  0.694494D-02
               16            17            18 
     16  0.614295D-01
     17  0.576295D-02  0.464157D+00
     18  0.118885D-05 -0.623906D-03  0.129942D-01
 Leave Link  716 at Fri Jun  2 11:07:37 2023, MaxMem=  7381975040 cpu:               0.1 elap:               0.6
 (Enter /software/commercial/gaussian/g16/AVX/g16/l103.exe)

 GradGradGradGradGradGradGradGradGradGradGradGradGradGradGradGradGradGrad
 Berny optimization.
 Search for a local minimum.
 Step number   1 out of a maximum of    2
 All quantities printed in internal units (Hartrees-Bohrs-Radians)
 Second derivative matrix not updated -- analytic derivatives used.
 The second derivative matrix:
                          X1        Y1        Z1        X2        Y2
           X1           0.51144
           Y1          -0.03013   0.99032
           Z1           0.00011  -0.00125   0.09242
           X2          -0.24834   0.04385  -0.00009   0.54840
           Y2           0.08083  -0.13622   0.00010   0.04513   0.42737
           Z2          -0.00014   0.00010  -0.07065   0.00002  -0.00043
           X3          -0.18596  -0.01350   0.00000  -0.12532   0.03031
           Y3          -0.04165  -0.11902   0.00007  -0.03729  -0.02848
           Z3           0.00004   0.00007  -0.06559   0.00003   0.00009
           X4          -0.01136   0.00299  -0.00001  -0.13163  -0.06356
           Y4           0.08310  -0.16353   0.00028  -0.03043  -0.23438
           Z4          -0.00012   0.00027   0.02667   0.00002   0.00019
           X5           0.00524   0.00800  -0.00001  -0.05519  -0.12395
           Y5          -0.08794  -0.11941   0.00018  -0.01582  -0.01942
           Z5           0.00012   0.00020   0.02106   0.00001   0.00006
           X6          -0.07104  -0.01121   0.00000   0.01207   0.03123
           Y6          -0.00421  -0.45214   0.00062  -0.00543  -0.00887
           Z6          -0.00001   0.00062  -0.00391   0.00001  -0.00000
                          Z2        X3        Y3        Z3        X4
           Z2           0.11260
           X3          -0.00007   0.47104
           Y3           0.00008  -0.08540   0.40165
           Z3           0.03132   0.00016  -0.00043   0.09685
           X4           0.00007  -0.05309   0.12371  -0.00019   0.37815
           Y4           0.00019   0.01276  -0.00470   0.00005  -0.07474
           Z4          -0.09348  -0.00003   0.00007   0.02850   0.00016
           X5           0.00016  -0.11901   0.06681  -0.00009  -0.17429
           Y5           0.00007   0.05161  -0.24468   0.00022   0.01035
           Z5           0.03324  -0.00007   0.00023  -0.07955  -0.00003
           X6          -0.00004   0.01234  -0.02617   0.00004  -0.00778
           Y6          -0.00001   0.00421  -0.00476  -0.00001   0.00125
           Z6          -0.01303  -0.00000  -0.00001  -0.01153  -0.00000
                          Y4        Z4        X5        Y5        Z5
           Y4           0.49852
           Z4          -0.00055   0.11143
           X5           0.00207  -0.00002   0.35028
           Y5          -0.09832   0.00003   0.04866   0.48262
           Z5           0.00003  -0.08165  -0.00004  -0.00052   0.09995
           X6           0.00724  -0.00001  -0.00703  -0.00686   0.00001
           Y6           0.00241   0.00001  -0.00158  -0.00080   0.00001
           Z6           0.00001   0.00853   0.00000   0.00001   0.00694
                          X6        Y6        Z6
           X6           0.06143
           Y6           0.00576   0.46416
           Z6           0.00000  -0.00062   0.01299
 ITU=  0
     Eigenvalues ---    0.02574   0.08743   0.22732   0.26674   0.27934
     Eigenvalues ---    0.43749   0.51929   0.62674   0.69774   0.72577
     Eigenvalues ---    0.87313   1.28285
 Angle between quadratic step and forces=  19.01 degrees.
 Linear search not attempted -- first point.
 B after Tr=     0.000013   -0.000049    0.000000
         Rot=    1.000000   -0.000000   -0.000000   -0.000004 Ang=  -0.00 deg.
 Variable       Old X    -DE/DX   Delta X   Delta X   Delta X     New X
                                 (Linear)    (Quad)   (Total)
    X1       -0.00160  -0.00009   0.00000   0.00001   0.00001  -0.00159
    Y1        2.07949   0.00031   0.00000   0.00042   0.00037   2.07986
    Z1       -0.00408  -0.00000   0.00000   0.00000   0.00000  -0.00408
    X2        2.07751   0.00045   0.00000   0.00073   0.00074   2.07825
    Y2        0.72002  -0.00008   0.00000  -0.00025  -0.00028   0.71974
    Z2       -0.00184   0.00000   0.00000   0.00000   0.00000  -0.00184
    X3       -2.13481  -0.00032   0.00000  -0.00069  -0.00068  -2.13549
    Y3        0.69201  -0.00015   0.00000  -0.00041  -0.00047   0.69154
    Z3       -0.00247  -0.00000   0.00000   0.00000   0.00000  -0.00247
    X4        1.31470   0.00040   0.00000   0.00085   0.00088   1.31558
    Y4       -1.65661  -0.00010   0.00000   0.00002  -0.00002  -1.65663
    Z4        0.00138   0.00000   0.00000  -0.00000  -0.00000   0.00138
    X5       -1.32723  -0.00045   0.00000  -0.00100  -0.00097  -1.32820
    Y5       -1.74017  -0.00001   0.00000   0.00005  -0.00001  -1.74018
    Z5        0.00110   0.00000   0.00000  -0.00000  -0.00000   0.00110
    X6        0.03703   0.00000   0.00000   0.00004   0.00003   0.03705
    Y6        3.98997   0.00003   0.00000   0.00046   0.00041   3.99038
    Z6       -0.00672  -0.00000   0.00000  -0.00000  -0.00000  -0.00673
         Item               Value     Threshold  Converged?
 Maximum Force            0.000449     0.000450     YES
 RMS     Force            0.000212     0.000300     YES
 Maximum Displacement     0.000973     0.001800     YES
 RMS     Displacement     0.000431     0.001200     YES
 Predicted change in Energy=-7.793428D-07
 Optimization completed.
    -- Stationary point found.
 GradGradGradGradGradGradGradGradGradGradGradGradGradGradGradGradGradGrad

 Leave Link  103 at Fri Jun  2 11:07:40 2023, MaxMem=  7381975040 cpu:               1.6 elap:               2.0
 (Enter /software/commercial/gaussian/g16/AVX/g16/l9999.exe)

 ----------------------------------------------------------------------

 Electric dipole moment (input orientation):
 (Debye = 10**-18 statcoulomb cm , SI units = C m)
                  (au)            (Debye)         (10**-30 SI)
   Tot        0.288950D+01      0.734438D+01      0.244982D+02
   x          0.733889D+00      0.186536D+01      0.622217D+01
   y          0.279475D+01      0.710354D+01      0.236949D+02
   z         -0.264656D-02     -0.672689D-02     -0.224385D-01

 Dipole polarizability, Alpha (input orientation).
 (esu units = cm**3 , SI units = C**2 m**2 J**-1)
 Alpha(0;0):
               (au)            (10**-24 esu)      (10**-40 SI)
   iso        0.678195D+02      0.100498D+02      0.111819D+02
   aniso      0.343596D+02      0.509157D+01      0.566514D+01
   xx         0.762172D+02      0.112942D+02      0.125665D+02
   yx         0.441328D+01      0.653981D+00      0.727652D+00
   yy         0.815414D+02      0.120832D+02      0.134444D+02
   zx        -0.125735D-02     -0.186320D-03     -0.207309D-03
   zy        -0.496896D-01     -0.736324D-02     -0.819271D-02
   zz         0.456998D+02      0.677201D+01      0.753487D+01

 First dipole hyperpolarizability, Beta (input orientation).
 ||, _|_  parallel and perpendicular components, (z) with respect to z axis,
 vector components x,y,z.  Values do not include the 1/n! factor of 1/2.
 (esu units = statvolt**-1 cm**4 , SI units = C**3 m**3 J**-2)
 Beta(0;0,0):
               (au)            (10**-30 esu)      (10**-50 SI)
   || (z)     0.477744D+00      0.412734D-02      0.153182D-02
   _|_(z)     0.159248D+00      0.137578D-02      0.510607D-03
   x         -0.115474D+04     -0.997606D+01     -0.370252D+01
   y         -0.184746D+04     -0.159606D+02     -0.592362D+01
   z          0.238872D+01      0.206367D-01      0.765910D-02
   ||         0.435731D+03      0.376437D+01      0.139711D+01
   xxx       -0.166990D+03     -0.144267D+01     -0.535431D+00
   xxy       -0.117443D+03     -0.101462D+01     -0.376566D+00
   yxy       -0.650511D+02     -0.561991D+00     -0.208577D+00
   yyy       -0.262185D+03     -0.226508D+01     -0.840661D+00
   xxz        0.186539D+00      0.161156D-02      0.598113D-03
   yxz       -0.105775D+00     -0.913813D-03     -0.339153D-03
   yyz       -0.305289D+00     -0.263746D-02     -0.978867D-03
   zxz       -0.152872D+03     -0.132070D+01     -0.490163D+00
   zyz       -0.236191D+03     -0.204050D+01     -0.757312D+00
   zzz        0.914989D+00      0.790480D-02      0.293379D-02

 ----------------------------------------------------------------------

 Dipole orientation:
     7         -0.51176442          0.13670296          2.01090206
     7          1.76679591         -0.46321349          1.22406629
     7         -2.16649750          0.57134796          0.12710840
     7          1.63679737         -0.43003918         -1.26837380
     6         -0.81393442          0.21451610         -2.02019788
     1         -0.94471544          0.25136659          3.86854066

 Electric dipole moment (dipole orientation):
 (Debye = 10**-18 statcoulomb cm , SI units = C m)
                  (au)            (Debye)         (10**-30 SI)
   Tot        0.288950D+01      0.734438D+01      0.244982D+02
   x          0.000000D+00      0.000000D+00      0.000000D+00
   y          0.000000D+00      0.000000D+00      0.000000D+00
   z          0.288950D+01      0.734438D+01      0.244982D+02

 Dipole polarizability, Alpha (dipole orientation).
 (esu units = cm**3 , SI units = C**2 m**2 J**-1)
 Alpha(0;0):
               (au)            (10**-24 esu)      (10**-40 SI)
   iso        0.678195D+02      0.100498D+02      0.111819D+02
   aniso      0.343596D+02      0.509157D+01      0.566514D+01
   xx         0.725347D+02      0.107485D+02      0.119594D+02
   yx        -0.706049D+01     -0.104626D+01     -0.116412D+01
   yy         0.475574D+02      0.704727D+01      0.784115D+01
   zx         0.245633D+01      0.363990D+00      0.404994D+00
   zy        -0.630671D+00     -0.934558D-01     -0.103984D+00
   zz         0.833663D+02      0.123536D+02      0.137453D+02

 First dipole hyperpolarizability, Beta (dipole orientation).
 ||, _|_  parallel and perpendicular components, (z) with respect to z axis,
 vector components x,y,z.  Values do not include the 1/n! factor of 1/2.
 (esu units = statvolt**-1 cm**4 , SI units = C**3 m**3 J**-2)
 Beta(0;0,0):
               (au)            (10**-30 esu)      (10**-50 SI)
   || (z)    -0.416033D+03     -0.359420D+01     -0.133395D+01
   _|_(z)    -0.138678D+03     -0.119807D+01     -0.444651D+00
   x         -0.626534D+03     -0.541276D+01     -0.200889D+01
   y          0.164025D+03      0.141705D+01      0.525924D+00
   z         -0.208016D+04     -0.179710D+02     -0.666976D+01
   ||         0.435731D+03      0.376437D+01      0.139711D+01
   xxx       -0.846190D+02     -0.731043D+00     -0.271319D+00
   xxy       -0.225225D+02     -0.194577D+00     -0.722152D-01
   yxy       -0.732347D+02     -0.632691D+00     -0.234817D+00
   yyy        0.636852D+02      0.550191D+00      0.204198D+00
   xxz       -0.127471D+03     -0.110125D+01     -0.408717D+00
   yxz       -0.367725D+02     -0.317686D+00     -0.117906D+00
   yyz       -0.257601D+03     -0.222547D+01     -0.825963D+00
   zxz       -0.509908D+02     -0.440521D+00     -0.163495D+00
   zyz        0.135123D+02      0.116736D+00      0.433253D-01
   zzz       -0.308316D+03     -0.266361D+01     -0.988573D+00

 ----------------------------------------------------------------------
 Unable to Open any file for archive entry.
 1\1\GINC-NODE1737\Freq\RB3LYP\6-311+G(d,p)\C1H1N4(1-)\SVICCHI\02-Jun-2
 023\0\\#p freq=raman scale=0.967 pop=(nbo,full,hirshfeld) guess=read g
 eom=allcheck b3lyp/6-311+G(d,p) int=grid=ultrafine EmpiricalDispersion
 =GD3BJ SCRF=(Solvent=ethanol) scf=(xqc,intrep,maxconventionalcycle=350
 ) nosymm\\tetrazolide-isolated.gjf\\-1,1\N,-0.0008443398,1.1004212316,
 -0.0021599384\N,1.0993699478,0.3810184252,-0.0009718311\N,-1.129694190
 3,0.3661949929,-0.0013078703\N,0.6957118013,-0.8766409338,0.0007289805
 \C,-0.7023375205,-0.920856078,0.0005797384\H,0.0195933015,2.1114013621
 ,-0.0035580792\\Version=ES64L-G16RevC.01\HF=-257.8183258\RMSD=1.384e-0
 9\RMSF=2.121e-04\ZeroPoint=0.032381\Thermal=0.0358718\ETot=-257.782454
 \HTot=-257.7815098\GTot=-257.8119836\Dipole=0.7585833,2.9774152,-0.004
 0533\DipoleDeriv=0.3574531,-0.0630531,0.0001547,0.1812086,-1.028153,0.
 0013916,-0.000187,0.0013386,-0.0576133,-0.6923768,-0.4346625,0.0005193
 ,-0.7036795,0.3205068,-0.0006735,0.0008597,-0.0006499,-0.0981918,-0.57
 92617,0.4069929,-0.0006197,0.0716921,-0.0774289,-0.0003337,-0.0002133,
 -0.0003088,-0.3353006,-0.2312381,-0.1653839,0.0002586,0.2238003,-0.558
 1232,0.0002609,-0.0002532,0.0002088,-0.3848029,-0.058129,0.3225409,-0.
 0003721,0.2503037,0.0675378,-0.0008392,-0.0002052,-0.0007854,-0.536458
 7,0.2035525,-0.0664343,0.0000593,-0.0233251,0.2756605,0.0001939,-0.000
 001,0.0001967,0.4123673\Polar=76.2172315,4.4132837,81.5414406,-0.00125
 73,-0.0496896,45.6997586\PolarDeriv=-8.5088481,-5.4225952,-4.2280175,0
 .0059665,0.002819,-1.1622246,-2.5147139,-2.9611482,-4.6156147,0.005217
 ,0.0114091,-1.3598072,0.0018492,0.0038134,0.018571,0.8842013,5.3761442
 ,-0.0145849,16.1355406,2.0918963,6.3910837,-0.0008647,-0.01004,-0.6071
 86,9.9038167,3.1874008,-7.5921626,0.0036931,0.0139992,-1.5904245,-0.01
 22473,0.0020649,0.0208358,4.6942907,3.1648565,-0.0023613,-8.297658,-0.
 3423515,-12.0674214,0.0003761,0.0118082,-3.2253376,14.4487171,-3.48774
 66,-9.4584823,0.0002077,0.0184717,2.2047289,-0.0206703,-0.002944,0.017
 9127,-5.1877672,1.7734104,-0.01286,-4.7908865,-4.3365738,10.6598304,0.
 0044536,-0.0110189,2.7196167,-17.5493277,-6.5413821,-6.5389521,0.01190
 55,-0.0039181,-3.4504443,0.0222546,0.0142504,-0.002702,3.369824,-4.887
 4861,0.0178697,5.7658522,5.0111037,-2.0641455,-0.0056445,0.0088349,2.8
 331172,-6.9695701,7.9141438,6.9357927,-0.0190641,-0.0125844,3.319465,0
 .0127749,-0.0151312,-0.0279504,-4.0632427,-6.0496561,0.0146935,-0.3040
 001,2.9985205,1.3086702,-0.004287,-0.0024031,-0.5579857,2.6810779,1.88
 87324,21.269419,-0.0019593,-0.0273774,0.8764821,-0.0039611,-0.0020536,
 -0.0266671,0.302694,0.622731,-0.0027569\HyperPolar=-166.990298,-117.44
 3494,-65.0511476,-262.1851957,0.1865394,-0.1057749,-0.3052889,-152.872
 032,-236.1905817,0.9149895\Quadrupole=-5.6473614,1.5689653,4.0783961,-
 1.4683764,-0.0003144,0.000143\PG=C01 [X(C1H1N4)]\NImag=0\\0.51144211,-
 0.03013469,0.99032270,0.00010860,-0.00125270,0.09241912,-0.24833501,0.
 04385386,-0.00009153,0.54840237,0.08082765,-0.13622053,0.00010212,0.04
 513394,0.42737389,-0.00014401,0.00009639,-0.07065156,0.00002240,-0.000
 43049,0.11259879,-0.18595591,-0.01350062,0.00000326,-0.12532037,0.0303
 1189,-0.00006758,0.47104149,-0.04165151,-0.11902216,0.00006706,-0.0372
 9496,-0.02848378,0.00007780,-0.08539674,0.40164926,0.00004404,0.000072
 18,-0.06559264,0.00002626,0.00008817,0.03132160,0.00016446,-0.00042529
 ,0.09684833,-0.01135725,0.00299267,-0.00000978,-0.13162822,-0.06355904
 ,0.00006768,-0.05309479,0.12370784,-0.00018602,0.37815436,0.08310414,-
 0.16353011,0.00027994,-0.03043433,-0.23438479,0.00019048,0.01276312,-0
 .00470368,0.00004902,-0.07474460,0.49852185,-0.00012271,0.00026791,0.0
 2667297,0.00002219,0.00018537,-0.09348136,-0.00003093,0.00006653,0.028
 50216,0.00016376,-0.00055473,0.11142696,0.00524192,0.00799521,-0.00001
 403,-0.05519195,-0.12394835,0.00016142,-0.11901395,0.06680595,-0.00008
 926,-0.17429185,0.00206917,-0.00001937,0.35028384,-0.08793648,-0.11940
 756,0.00018338,-0.01582432,-0.01941624,0.00007255,0.05161351,-0.244682
 17,0.00022461,0.01035352,-0.09831542,0.00002618,0.04865612,0.48262233,
 0.00012033,0.00019787,0.02105797,0.00000926,0.00005557,0.03324245,-0.0
 0006726,0.00022771,-0.07954740,-0.00003105,0.00002518,-0.08164938,-0.0
 0003895,-0.00051670,0.09995142,-0.07103586,-0.01120643,0.00000347,0.01
 207317,0.03123391,-0.00003992,0.01234351,-0.02617059,0.00004052,-0.007
 78226,0.00724251,-0.00001293,-0.00702802,-0.00686235,0.00000767,0.0614
 2946,-0.00420910,-0.45214234,0.00062020,-0.00543420,-0.00886855,-0.000
 00672,0.00420883,-0.00475748,-0.00000868,0.00124961,0.00241215,0.00000
 874,-0.00157810,-0.00080094,0.00001037,0.00576295,0.46415715,-0.000006
 26,0.00061835,-0.00390586,0.00001142,-0.00000074,-0.01302992,-0.000001
 94,-0.00001381,-0.01153204,-0.00000458,0.00001012,0.00852864,0.0000001
 8,0.00000999,0.00694494,0.00000119,-0.00062391,0.01299424\\0.00008639,
 -0.00031342,0.00000072,-0.00044752,0.00007550,-0.00000057,0.00031802,0
 .00015168,0.00000050,-0.00040254,0.00009836,-0.00000094,0.00044874,0.0
 0001383,-0.00000008,-0.00000310,-0.00002594,0.00000036\\\@
 The archive entry for this job was punched.


 THERE'S NOTHING WRONG WITH FOLLOWING A TRAIN OF THOUGHT...
 AS LONG AS IT ULTIMATELY PULLS INTO THE STATION.
 Job cpu time:       0 days  0 hours  4 minutes 45.8 seconds.
 Elapsed time:       0 days  0 hours  2 minutes 55.4 seconds.
 File lengths (MBytes):  RWF=     62 Int=      0 D2E=      0 Chk=      7 Scr=      1
 Normal termination of Gaussian 16 at Fri Jun  2 11:07:43 2023.
