 Entering Gaussian System, Link 0=g16
 Input=pyrazolide-isolated-freq.gjf
 Output=pyrazolide-isolated-freq.log
 Initial command:
 /software/commercial/gaussian/g16/AVX/g16/l1.exe "/scratch1/svicchi/G09-659853.pbs02/Gau-317938.inp" -scrdir="/scratch1/svicchi/G09-659853.pbs02/"
 Entering Link 1 = /software/commercial/gaussian/g16/AVX/g16/l1.exe PID=    317939.
  
 Copyright (c) 1988-2019, Gaussian, Inc.  All Rights Reserved.
  
 This is part of the Gaussian(R) 16 program.  It is based on
 the Gaussian(R) 09 system (copyright 2009, Gaussian, Inc.),
 the Gaussian(R) 03 system (copyright 2003, Gaussian, Inc.),
 the Gaussian(R) 98 system (copyright 1998, Gaussian, Inc.),
 the Gaussian(R) 94 system (copyright 1995, Gaussian, Inc.),
 the Gaussian 92(TM) system (copyright 1992, Gaussian, Inc.),
 the Gaussian 90(TM) system (copyright 1990, Gaussian, Inc.),
 the Gaussian 88(TM) system (copyright 1988, Gaussian, Inc.),
 the Gaussian 86(TM) system (copyright 1986, Carnegie Mellon
 University), and the Gaussian 82(TM) system (copyright 1983,
 Carnegie Mellon University). Gaussian is a federally registered
 trademark of Gaussian, Inc.
  
 This software contains proprietary and confidential information,
 including trade secrets, belonging to Gaussian, Inc.
  
 This software is provided under written license and may be
 used, copied, transmitted, or stored only in accord with that
 written license.
  
 The following legend is applicable only to US Government
 contracts under FAR:
  
                    RESTRICTED RIGHTS LEGEND
  
 Use, reproduction and disclosure by the US Government is
 subject to restrictions as set forth in subparagraphs (a)
 and (c) of the Commercial Computer Software - Restricted
 Rights clause in FAR 52.227-19.
  
 Gaussian, Inc.
 340 Quinnipiac St., Bldg. 40, Wallingford CT 06492
  
  
 ---------------------------------------------------------------
 Warning -- This program may not be used in any manner that
 competes with the business of Gaussian, Inc. or will provide
 assistance to any competitor of Gaussian, Inc.  The licensee
 of this program is prohibited from giving any competitor of
 Gaussian, Inc. access to this program.  By using this program,
 the user acknowledges that Gaussian, Inc. is engaged in the
 business of creating and licensing software in the field of
 computational chemistry and represents and warrants to the
 licensee that it is not a competitor of Gaussian, Inc. and that
 it will not use this program in any manner prohibited above.
 ---------------------------------------------------------------
  

 Cite this work as:
 Gaussian 16, Revision C.01,
 M. J. Frisch, G. W. Trucks, H. B. Schlegel, G. E. Scuseria, 
 M. A. Robb, J. R. Cheeseman, G. Scalmani, V. Barone, 
 G. A. Petersson, H. Nakatsuji, X. Li, M. Caricato, A. V. Marenich, 
 J. Bloino, B. G. Janesko, R. Gomperts, B. Mennucci, H. P. Hratchian, 
 J. V. Ortiz, A. F. Izmaylov, J. L. Sonnenberg, D. Williams-Young, 
 F. Ding, F. Lipparini, F. Egidi, J. Goings, B. Peng, A. Petrone, 
 T. Henderson, D. Ranasinghe, V. G. Zakrzewski, J. Gao, N. Rega, 
 G. Zheng, W. Liang, M. Hada, M. Ehara, K. Toyota, R. Fukuda, 
 J. Hasegawa, M. Ishida, T. Nakajima, Y. Honda, O. Kitao, H. Nakai, 
 T. Vreven, K. Throssell, J. A. Montgomery, Jr., J. E. Peralta, 
 F. Ogliaro, M. J. Bearpark, J. J. Heyd, E. N. Brothers, K. N. Kudin, 
 V. N. Staroverov, T. A. Keith, R. Kobayashi, J. Normand, 
 K. Raghavachari, A. P. Rendell, J. C. Burant, S. S. Iyengar, 
 J. Tomasi, M. Cossi, J. M. Millam, M. Klene, C. Adamo, R. Cammi, 
 J. W. Ochterski, R. L. Martin, K. Morokuma, O. Farkas, 
 J. B. Foresman, and D. J. Fox, Gaussian, Inc., Wallingford CT, 2019.
 
 ******************************************
 Gaussian 16:  ES64L-G16RevC.01  3-Jul-2019
                 2-Jun-2023 
 ******************************************
 %NProcShared=2
 Will use up to    2 processors via shared memory.
 %mem=55gb
 %chk=/scratch1/svicchi/G09-659853.pbs02/02-freq/pyrazolide-isolated-freq.chk
 ----------------------------------------------------------------------
 #p freq=raman scale=0.967 pop=(nbo,full,hirshfeld) guess=read geom=all
 check b3lyp/6-311+G(d,p) int=grid=ultrafine EmpiricalDispersion=GD3BJ 
 SCRF=(Solvent=ethanol) scf=(xqc,intrep,maxconventionalcycle=350) nosym
 m
 ----------------------------------------------------------------------
 1/10=4,29=7,30=1,38=1,114=967000/1,3;
 2/12=2,15=1,40=1/2;
 3/5=4,6=6,7=111,11=2,14=-4,25=1,30=1,70=2201,71=2,72=4,74=-5,75=-5,116=-2,124=41,140=1/1,2,3;
 4/5=1/1;
 5/5=2,8=3,13=1,17=20,38=6,53=4,85=350,98=1/2,8;
 8/6=4,10=90,11=11/1;
 10/13=10,15=4,31=1/2;
 11/6=3,8=1,9=11,15=111,16=1,31=1/1,2,10;
 10/6=1,31=1/2;
 6/7=3,28=1,40=1,79=1/1,7;
 7/8=1,10=1,25=1,30=1/1,2,3,16;
 1/10=4,30=1/3;
 99//99;
 Leave Link    1 at Fri Jun  2 11:08:07 2023, MaxMem=  7381975040 cpu:               2.4 elap:               2.6
 (Enter /software/commercial/gaussian/g16/AVX/g16/l101.exe)
 Structure from the checkpoint file:  "/scratch1/svicchi/G09-659853.pbs02/02-freq/pyrazolide-isolated-freq.chk"
 -----------------------
 pyrazolide-isolated.gjf
 -----------------------
 Charge = -1 Multiplicity = 1
 No Z-Matrix found in chk file; cartesian coordinates used.
  N                                                 0.689545919138     -0.895208064910      0.284659683837
  N                                                -0.677767082584     -0.897496159511      0.287830599865
  C                                                 1.100992928263      0.338522440420     -0.078646677177
  C                                                 0.001044717317      1.173770652966     -0.322293581904
  C                                                -1.094981469199      0.334857321888     -0.073607699227
  H                                                 2.157164643935      0.568852439048     -0.148154965790
  H                                                -0.001380454053      2.210256613752     -0.626676453658
  H                                                -2.152219202816      0.561654756347     -0.138370905946
 Recover connectivity data from disk.
 ITRead=  0  0  0  0  0  0  0  0
 MicOpt= -1 -1 -1 -1 -1 -1 -1 -1
 NAtoms=      8 NQM=        8 NQMF=       0 NMMI=      0 NMMIF=      0
                NMic=       0 NMicF=      0.
                    Isotopes and Nuclear Properties:
 (Nuclear quadrupole moments (NQMom) in fm**2, nuclear magnetic moments (NMagM)
  in nuclear magnetons)

  Atom         1           2           3           4           5           6           7           8
 IAtWgt=          14          14          12          12          12           1           1           1
 AtmWgt=  14.0030740  14.0030740  12.0000000  12.0000000  12.0000000   1.0078250   1.0078250   1.0078250
 NucSpn=           2           2           0           0           0           1           1           1
 AtZEff=   4.5500000   4.5500000   3.6000000   3.6000000   3.6000000   1.0000000   1.0000000   1.0000000
 NQMom=    2.0440000   2.0440000   0.0000000   0.0000000   0.0000000   0.0000000   0.0000000   0.0000000
 NMagM=    0.4037610   0.4037610   0.0000000   0.0000000   0.0000000   2.7928460   2.7928460   2.7928460
 AtZNuc=   7.0000000   7.0000000   6.0000000   6.0000000   6.0000000   1.0000000   1.0000000   1.0000000
 Leave Link  101 at Fri Jun  2 11:08:09 2023, MaxMem=  7381975040 cpu:               0.5 elap:               1.1
 (Enter /software/commercial/gaussian/g16/AVX/g16/l103.exe)

 GradGradGradGradGradGradGradGradGradGradGradGradGradGradGradGradGradGrad
 Berny optimization.
 Initialization pass.
 Trust Radius=3.00D-01 FncErr=1.00D-07 GrdErr=1.00D-07 EigMax=2.50D+02 EigMin=1.00D-04
 Number of steps in this run=      2 maximum allowed number of steps=      2.
 GradGradGradGradGradGradGradGradGradGradGradGradGradGradGradGradGradGrad

 Leave Link  103 at Fri Jun  2 11:08:11 2023, MaxMem=  7381975040 cpu:               0.2 elap:               0.6
 (Enter /software/commercial/gaussian/g16/AVX/g16/l202.exe)
                          Input orientation:                          
 ---------------------------------------------------------------------
 Center     Atomic      Atomic             Coordinates (Angstroms)
 Number     Number       Type             X           Y           Z
 ---------------------------------------------------------------------
      1          7           0        0.689546   -0.895208    0.284660
      2          7           0       -0.677767   -0.897496    0.287831
      3          6           0        1.100993    0.338522   -0.078647
      4          6           0        0.001045    1.173771   -0.322294
      5          6           0       -1.094981    0.334857   -0.073608
      6          1           0        2.157165    0.568852   -0.148155
      7          1           0       -0.001380    2.210257   -0.626676
      8          1           0       -2.152219    0.561655   -0.138371
 ---------------------------------------------------------------------
                    Distance matrix (angstroms):
                    1          2          3          4          5
     1  N    0.000000
     2  N    1.367319   0.000000
     3  C    1.350323   2.196824   0.000000
     4  C    2.263426   2.263445   1.402458   0.000000
     5  C    2.196805   1.350334   2.195983   1.402460   0.000000
     6  H    2.117713   3.221351   1.083228   2.246131   3.261405
     7  H    3.309354   3.309373   2.240302   1.080258   2.240306
     8  H    3.221340   2.117729   3.261402   2.246121   1.083228
                    6          7          8
     6  H    0.000000
     7  H    2.753635   0.000000
     8  H    4.309401   2.753623   0.000000
 Symmetry turned off by external request.
 Stoichiometry    C3H3N2(1-)
 Framework group  C1[X(C3H3N2)]
 Deg. of freedom    18
 Full point group                 C1      NOp   1
 Rotational constants (GHZ):           9.8357259           9.8307295           4.9166136
 Leave Link  202 at Fri Jun  2 11:08:14 2023, MaxMem=  7381975040 cpu:               0.0 elap:               1.1
 (Enter /software/commercial/gaussian/g16/AVX/g16/l301.exe)
 Standard basis: 6-311+G(d,p) (5D, 7F)
 Ernie: Thresh=  0.10000D-02 Tol=  0.10000D-05 Strict=F.
   128 basis functions,   204 primitive gaussians,   133 cartesian basis functions
    18 alpha electrons       18 beta electrons
       nuclear repulsion energy       152.5516238946 Hartrees.
 IExCor=  402 DFT=T Ex+Corr=B3LYP ExCW=0 ScaHFX=  0.200000
 ScaDFX=  0.800000  0.720000  1.000000  0.810000 ScalE2=  1.000000  1.000000
 IRadAn=      5 IRanWt=     -1 IRanGd=            0 ICorTp=0 IEmpDi=141
 NAtoms=    8 NActive=    8 NUniq=    8 SFac= 1.00D+00 NAtFMM=   60 NAOKFM=F Big=F
 Integral buffers will be    131072 words long.
 Raffenetti 2 integral format.
 Two-electron integral symmetry is turned off.
 R6Disp:  Grimme-D3(BJ) Dispersion energy=       -0.0104890862 Hartrees.
 Nuclear repulsion after empirical dispersion term =      152.5411348084 Hartrees.
 Force inversion solution in PCM.
 ------------------------------------------------------------------------------
 Polarizable Continuum Model (PCM)
 =================================
 Model                : PCM.
 Atomic radii         : UFF (Universal Force Field).
 Polarization charges : Total charges.
 Charge compensation  : None.
 Solution method      : Matrix inversion.
 Cavity type          : Scaled VdW (van der Waals Surface) (Alpha=1.100).
 Cavity algorithm     : GePol (No added spheres)
                        Default sphere list used, NSphG=    8.
                        Lebedev-Laikov grids with approx.  5.0 points / Ang**2.
                        Smoothing algorithm: York/Karplus (Gamma=1.0000).
                        Polarization charges: spherical gaussians, with
                                              point-specific exponents (IZeta= 3).
                        Self-potential: point-specific (ISelfS= 7).
                        Self-field    : sphere-specific E.n sum rule (ISelfD= 2).
 1st derivatives      : Analytical E(r).r(x)/FMM algorithm (CHGder, D1EAlg=3).
                        Cavity 1st derivative terms included.
 2nd derivatives      : Analytical E(r).r(xy)/FMM algorithm (CHGder, D2EAlg=3).
                        Cavity 2nd derivative terms included.
 Solvent              : Ethanol, Eps=  24.852000 Eps(inf)=   1.852593
 ------------------------------------------------------------------------------
 Spheres list:
 ISph  on   Nord     Re0    Alpha      Xe            Ye            Ze
    1   N      1    1.8300  1.100      0.689546     -0.895208      0.284660
    2   N      2    1.8300  1.100     -0.677767     -0.897496      0.287831
    3   C      3    1.9255  1.100      1.100993      0.338522     -0.078647
    4   C      4    1.9255  1.100      0.001045      1.173771     -0.322294
    5   C      5    1.9255  1.100     -1.094981      0.334857     -0.073608
    6   H      6    1.4430  1.100      2.157165      0.568852     -0.148155
    7   H      7    1.4430  1.100     -0.001380      2.210257     -0.626676
    8   H      8    1.4430  1.100     -2.152219      0.561655     -0.138371
 ------------------------------------------------------------------------------
 GePol: Number of generator spheres                  =       8
 GePol: Total number of spheres                      =       8
 GePol: Number of exposed spheres                    =       8 (100.00%)
 GePol: Number of points                             =     845
 GePol: Average weight of points                     =       0.14
 GePol: Minimum weight of points                     =   0.71D-10
 GePol: Maximum weight of points                     =    0.20577
 GePol: Number of points with low weight             =      38
 GePol: Fraction of low-weight points (<1% of avg)   =       4.50%
 GePol: Cavity surface area                          =    115.419 Ang**2
 GePol: Cavity volume                                =    103.636 Ang**3
 Leave Link  301 at Fri Jun  2 11:08:17 2023, MaxMem=  7381975040 cpu:               1.3 elap:               1.8
 (Enter /software/commercial/gaussian/g16/AVX/g16/l302.exe)
 NPDir=0 NMtPBC=     1 NCelOv=     1 NCel=       1 NClECP=     1 NCelD=      1
         NCelK=      1 NCelE2=     1 NClLst=     1 CellRange=     0.0.
 One-electron integrals computed using PRISM.
 NBasis=   128 RedAO= T EigKep=  7.96D-05  NBF=   128
 NBsUse=   128 1.00D-06 EigRej= -1.00D+00 NBFU=   128
 Precomputing XC quadrature grid using
 IXCGrd= 4 IRadAn=           5 IRanWt=          -1 IRanGd=           0 AccXCQ= 0.00D+00.
 Generated NRdTot=       0 NPtTot=           0 NUsed=           0 NTot=          32
 NSgBfM=   133   133   133   133   133 MxSgAt=     8 MxSgA2=     8.
 Leave Link  302 at Fri Jun  2 11:08:19 2023, MaxMem=  7381975040 cpu:               0.4 elap:               0.6
 (Enter /software/commercial/gaussian/g16/AVX/g16/l303.exe)
 DipDrv:  MaxL=1.
 Leave Link  303 at Fri Jun  2 11:08:20 2023, MaxMem=  7381975040 cpu:               0.2 elap:               0.8
 (Enter /software/commercial/gaussian/g16/AVX/g16/l401.exe)
 Initial guess from the checkpoint file:  "/scratch1/svicchi/G09-659853.pbs02/02-freq/pyrazolide-isolated-freq.chk"
 B after Tr=     0.000000    0.000000    0.000000
         Rot=    1.000000    0.000000    0.000000    0.000000 Ang=   0.00 deg.
 Guess basis will be translated and rotated to current coordinates.
 JPrj=2 DoOrth=T DoCkMO=T.
 Leave Link  401 at Fri Jun  2 11:08:24 2023, MaxMem=  7381975040 cpu:               1.2 elap:               1.8
 (Enter /software/commercial/gaussian/g16/AVX/g16/l502.exe)
 Keep R1 ints in memory in canonical form, NReq=36005155.
 FoFCou: FMM=F IPFlag=           0 FMFlag=           0 FMFlg1=           0
         NFxFlg=           0 DoJE=F BraDBF=F KetDBF=F FulRan=T
         wScrn=  0.000000 ICntrl=       600 IOpCl=  0 I1Cent=           0 NGrid=           0
         NMat0=    1 NMatS0=   8256 NMatT0=    0 NMatD0=    1 NMtDS0=    0 NMtDT0=    0
 Symmetry not used in FoFCou.
 Two-electron integral symmetry not used.
 Closed shell SCF:
 Using DIIS extrapolation, IDIIS=  1040.
 NGot=  7381975040 LenX=  7347852721 LenY=  7347834591
 Requested convergence on RMS density matrix=1.00D-08 within 350 cycles.
 Requested convergence on MAX density matrix=1.00D-06.
 Requested convergence on             energy=1.00D-06.
 No special actions if energy rises.

 Cycle   1  Pass 1  IDiag  1:
 Inv3:  Mode=1 IEnd=     2142075.
 Iteration    1 A*A^-1 deviation from unit magnitude is 2.44D-15 for    732.
 Iteration    1 A*A^-1 deviation from orthogonality  is 1.26D-15 for    834    692.
 Iteration    1 A^-1*A deviation from unit magnitude is 2.44D-15 for    821.
 Iteration    1 A^-1*A deviation from orthogonality  is 1.49D-15 for    598     51.
 E= -225.793752962965    
 DIIS: error= 5.72D-09 at cycle   1 NSaved=   1.
 NSaved= 1 IEnMin= 1 EnMin= -225.793752962965     IErMin= 1 ErrMin= 5.72D-09
 ErrMax= 5.72D-09  0.00D+00 EMaxC= 1.00D-01 BMatC= 2.16D-15 BMatP= 2.16D-15
 IDIUse=1 WtCom= 1.00D+00 WtEn= 0.00D+00
 Coeff-Com:  0.100D+01
 Coeff:      0.100D+01
 Gap=     0.226 Goal=   None    Shift=    0.000
 RMSDP=9.37D-10 MaxDP=1.78D-08              OVMax= 4.03D-08

 Error on total polarization charges =  0.02416
 SCF Done:  E(RB3LYP) =  -225.793752963     A.U. after    1 cycles
            NFock=  1  Conv=0.94D-09     -V/T= 2.0043
 KE= 2.248194664306D+02 PE=-8.395150593121D+02 EE= 2.363607051102D+02
 Leave Link  502 at Fri Jun  2 11:08:33 2023, MaxMem=  7381975040 cpu:              11.2 elap:               8.7
 (Enter /software/commercial/gaussian/g16/AVX/g16/l508.exe)
 QCSCF skips out because SCF is already converged.
 Leave Link  508 at Fri Jun  2 11:08:36 2023, MaxMem=  7381975040 cpu:               0.0 elap:               0.8
 (Enter /software/commercial/gaussian/g16/AVX/g16/l801.exe)
 DoSCS=F DFT=T ScalE2(SS,OS)=  1.000000  1.000000
 Range of M.O.s used for correlation:     1   128
 NBasis=   128 NAE=    18 NBE=    18 NFC=     0 NFV=     0
 NROrb=    128 NOA=    18 NOB=    18 NVA=   110 NVB=   110

 **** Warning!!: The largest alpha MO coefficient is  0.48014797D+02

 Leave Link  801 at Fri Jun  2 11:08:38 2023, MaxMem=  7381975040 cpu:               0.1 elap:               0.8
 (Enter /software/commercial/gaussian/g16/AVX/g16/l1002.exe)
 Minotr:  Closed shell wavefunction.
 NEqPCM:  Using equilibrium solvation (IEInf=0, Eps=  24.8520, EpsInf=   1.8526)
          Direct CPHF calculation.
          Differentiating once with respect to electric field.
                with respect to dipole field.
          Electric field/nuclear overlap derivatives assumed to be zero.
          Requested convergence is 1.0D-08 RMS, and 1.0D-07 maximum.
          Secondary convergence is 1.0D-12 RMS, and 1.0D-12 maximum.
          NewPWx=F KeepS1=T KeepF1=T KeepIn=T MapXYZ=F SortEE=F KeepMc=T.
         2420 words used for storage of precomputed grid.
 Keep R1 ints in memory in canonical form, NReq=37197465.
 FoFCou: FMM=F IPFlag=           0 FMFlag=           0 FMFlg1=           0
         NFxFlg=           0 DoJE=F BraDBF=F KetDBF=F FulRan=T
         wScrn=  0.000000 ICntrl=       600 IOpCl=  0 I1Cent=           0 NGrid=           0
         NMat0=    1 NMatS0=   8256 NMatT0=    0 NMatD0=    1 NMtDS0=    0 NMtDT0=    0
 Symmetry not used in FoFCou.
 Two-electron integral symmetry not used.
          MDV=    7381975040 using IRadAn=       1.
          Solving linear equations simultaneously, MaxMat=       0.
          There are     3 degrees of freedom in the 1st order CPHF.  IDoFFX=0 NUNeed=     3.
      3 vectors produced by pass  0 Test12= 6.60D-14 3.33D-08 XBig12= 6.54D+01 4.64D+00.
 AX will form     3 AO Fock derivatives at one time.
      3 vectors produced by pass  1 Test12= 6.60D-14 3.33D-08 XBig12= 4.17D+01 1.95D+00.
      3 vectors produced by pass  2 Test12= 6.60D-14 3.33D-08 XBig12= 4.49D+00 6.73D-01.
      3 vectors produced by pass  3 Test12= 6.60D-14 3.33D-08 XBig12= 2.50D+00 4.32D-01.
      3 vectors produced by pass  4 Test12= 6.60D-14 3.33D-08 XBig12= 1.23D-01 1.06D-01.
      3 vectors produced by pass  5 Test12= 6.60D-14 3.33D-08 XBig12= 3.97D-03 1.59D-02.
      3 vectors produced by pass  6 Test12= 6.60D-14 3.33D-08 XBig12= 8.92D-04 6.63D-03.
      3 vectors produced by pass  7 Test12= 6.60D-14 3.33D-08 XBig12= 2.64D-05 1.22D-03.
      3 vectors produced by pass  8 Test12= 6.60D-14 3.33D-08 XBig12= 1.80D-07 9.89D-05.
      3 vectors produced by pass  9 Test12= 6.60D-14 3.33D-08 XBig12= 1.53D-09 1.26D-05.
      2 vectors produced by pass 10 Test12= 6.60D-14 3.33D-08 XBig12= 3.26D-11 1.50D-06.
      2 vectors produced by pass 11 Test12= 6.60D-14 3.33D-08 XBig12= 1.46D-12 2.81D-07.
 InvSVY:  IOpt=1 It=  1 EMax= 4.44D-15
 Solved reduced A of dimension    34 with     3 vectors.
 End of Minotr F.D. properties file   721 does not exist.
 End of Minotr F.D. properties file   722 does not exist.
 End of Minotr F.D. properties file   788 does not exist.
 Leave Link 1002 at Fri Jun  2 11:09:09 2023, MaxMem=  7381975040 cpu:              48.7 elap:              29.8
 (Enter /software/commercial/gaussian/g16/AVX/g16/l1101.exe)
 Using compressed storage, NAtomX=     8.
 Will process      9 centers per pass.
 R6Disp: Adding Grimme-D3(BJ) dispersion energy 1st derivatives to the gradient.
 Leave Link 1101 at Fri Jun  2 11:09:12 2023, MaxMem=  7381975040 cpu:               0.7 elap:               1.1
 (Enter /software/commercial/gaussian/g16/AVX/g16/l1102.exe)
 Symmetrizing basis deriv contribution to polar:
 IMax=3 JMax=2 DiffMx= 0.00D+00
 Leave Link 1102 at Fri Jun  2 11:09:15 2023, MaxMem=  7381975040 cpu:               0.6 elap:               1.6
 (Enter /software/commercial/gaussian/g16/AVX/g16/l1110.exe)
 Forming Gx(P) for the SCF density, NAtomX=     8.
 Integral derivatives from FoFJK, PRISM(SPDF).
 Do as many integral derivatives as possible in FoFJK.
 G2DrvN: MDV=    7381974096.
 G2DrvN: will do     9 centers at a time, making    1 passes.
 PxScal for G2LodP:  IOpCl= 0 ISclPx=1 IMOff=     1 NMtTot=     4 NTT=    8256 ScalPx= 1.58D+01
 Calling FoFCou, ICntrl=  3107 FMM=F I1Cent=   0 AccDes= 0.00D+00.
 FoFJK:  IHMeth= 1 ICntrl=    3107 DoSepK=F KAlg= 0 I1Cent=           0 FoldK=F
 IRaf=         0 NMat=       1 IRICut=       1 DoRegI=T DoRafI=F ISym2E= 0 IDoP0=0 IntGTp=1.
 FoFCou: FMM=F IPFlag=           0 FMFlag=      100000 FMFlg1=           0
         NFxFlg=           0 DoJE=F BraDBF=F KetDBF=F FulRan=T
         wScrn=  0.000000 ICntrl=      3107 IOpCl=  0 I1Cent=           0 NGrid=           0
         NMat0=    1 NMatS0=      1 NMatT0=    0 NMatD0=    4 NMtDS0=    3 NMtDT0=    0
 Symmetry not used in FoFCou.
 PxScal for G2LodP:  IOpCl= 0 ISclPx=0 IMOff=     1 NMtTot=     4 NTT=    8256 ScalPx= 1.00D+00
 NEqPCM:  Using equilibrium solvation (IEInf=0, Eps=  24.8520, EpsInf=   1.8526)
 G2PCM: DoFxE=T DoFxN=T DoGrad=T DoDP/DQ/DG/TGxP=TFFF NFrqRd=   0 IEInf=0 SqF1=F DoCFld=F IF1Alg=4.
 GePol: Maximum number of non-zero 1st derivatives   =     196
 End of G2Drv F.D. properties file   721 does not exist.
 End of G2Drv F.D. properties file   722 does not exist.
 End of G2Drv F.D. properties file   788 does not exist.
 Leave Link 1110 at Fri Jun  2 11:10:19 2023, MaxMem=  7381975040 cpu:             117.4 elap:              62.7
 (Enter /software/commercial/gaussian/g16/AVX/g16/l1002.exe)
 Minotr:  Closed shell wavefunction.
          IDoAtm=11111111
 NEqPCM:  Using equilibrium solvation (IEInf=0, Eps=  24.8520, EpsInf=   1.8526)
          Direct CPHF calculation.
          Differentiating once with respect to electric field.
                with respect to dipole field.
          Differentiating once with respect to nuclear coordinates.
          Requested convergence is 1.0D-08 RMS, and 1.0D-07 maximum.
          Secondary convergence is 1.0D-12 RMS, and 1.0D-12 maximum.
          NewPWx=T KeepS1=F KeepF1=F KeepIn=T MapXYZ=F SortEE=F KeepMc=T.
         2420 words used for storage of precomputed grid.
 Keep R1 ints in memory in canonical form, NReq=37197649.
 FoFCou: FMM=F IPFlag=           0 FMFlag=           0 FMFlg1=           0
         NFxFlg=           0 DoJE=F BraDBF=F KetDBF=F FulRan=T
         wScrn=  0.000000 ICntrl=       600 IOpCl=  0 I1Cent=           0 NGrid=           0
         NMat0=    1 NMatS0=   8256 NMatT0=    0 NMatD0=    1 NMtDS0=    0 NMtDT0=    0
 Symmetry not used in FoFCou.
 Two-electron integral symmetry not used.
          MDV=    7381975040 using IRadAn=       1.
          Solving linear equations simultaneously, MaxMat=       0.
          There are    27 degrees of freedom in the 1st order CPHF.  IDoFFX=5 NUNeed=    27.
 Will reuse    3 saved solutions.
     21 vectors produced by pass  0 Test12= 7.33D-15 3.70D-09 XBig12= 1.35D-01 1.28D-01.
 AX will form    21 AO Fock derivatives at one time.
     21 vectors produced by pass  1 Test12= 7.33D-15 3.70D-09 XBig12= 1.64D-02 5.07D-02.
     21 vectors produced by pass  2 Test12= 7.33D-15 3.70D-09 XBig12= 2.82D-04 4.61D-03.
     21 vectors produced by pass  3 Test12= 7.33D-15 3.70D-09 XBig12= 3.46D-06 3.61D-04.
     21 vectors produced by pass  4 Test12= 7.33D-15 3.70D-09 XBig12= 1.14D-08 2.12D-05.
     21 vectors produced by pass  5 Test12= 7.33D-15 3.70D-09 XBig12= 2.98D-11 1.13D-06.
     12 vectors produced by pass  6 Test12= 7.33D-15 3.70D-09 XBig12= 8.51D-14 8.35D-08.
 InvSVY:  IOpt=1 It=  1 EMax= 1.33D-15
 Solved reduced A of dimension   138 with    21 vectors.
 FullF1:  Do perturbations      1 to       3.
 Isotropic polarizability for W=    0.000000       75.64 Bohr**3.
 FullF1:  Do perturbations      1 to       6.
 End of Minotr F.D. properties file   721 does not exist.
 End of Minotr F.D. properties file   722 does not exist.
 End of Minotr F.D. properties file   788 does not exist.
 Leave Link 1002 at Fri Jun  2 11:11:26 2023, MaxMem=  7381975040 cpu:             113.2 elap:              65.6
 (Enter /software/commercial/gaussian/g16/AVX/g16/l601.exe)
 Copying SCF densities to generalized density rwf, IOpCl= 0 IROHF=0.

 **********************************************************************

            Population analysis using the SCF Density.

 **********************************************************************

 Alpha  occ. eigenvalues --  -14.27736 -14.27716 -10.14776 -10.14776 -10.12696
 Alpha  occ. eigenvalues --   -0.96244  -0.73565  -0.71611  -0.53980  -0.51542
 Alpha  occ. eigenvalues --   -0.47260  -0.38525  -0.37469  -0.35622  -0.27192
 Alpha  occ. eigenvalues --   -0.22126  -0.20882  -0.20723
 Alpha virt. eigenvalues --    0.01835   0.03798   0.04777   0.05505   0.05855
 Alpha virt. eigenvalues --    0.06767   0.06867   0.07410   0.09500   0.10655
 Alpha virt. eigenvalues --    0.12439   0.12628   0.13943   0.15735   0.17192
 Alpha virt. eigenvalues --    0.19657   0.20509   0.20586   0.21429   0.22411
 Alpha virt. eigenvalues --    0.22626   0.23454   0.25006   0.27899   0.29717
 Alpha virt. eigenvalues --    0.30441   0.35294   0.41802   0.46781   0.47819
 Alpha virt. eigenvalues --    0.48302   0.53767   0.56586   0.59267   0.60276
 Alpha virt. eigenvalues --    0.62442   0.68785   0.69805   0.74577   0.77759
 Alpha virt. eigenvalues --    0.80558   0.81448   0.82155   0.87069   0.88017
 Alpha virt. eigenvalues --    0.89121   0.90672   0.92300   0.93573   0.99505
 Alpha virt. eigenvalues --    1.03227   1.04067   1.13586   1.21942   1.25245
 Alpha virt. eigenvalues --    1.30924   1.36428   1.39854   1.54419   1.55364
 Alpha virt. eigenvalues --    1.59849   1.69105   1.70045   1.72240   1.79218
 Alpha virt. eigenvalues --    1.81817   1.81940   1.83723   1.97901   2.01607
 Alpha virt. eigenvalues --    2.01643   2.03204   2.16790   2.20171   2.26260
 Alpha virt. eigenvalues --    2.39245   2.45692   2.50622   2.52848   2.53146
 Alpha virt. eigenvalues --    2.64674   2.67527   2.69409   2.72655   2.74063
 Alpha virt. eigenvalues --    2.76769   2.77285   2.81654   2.90060   3.01292
 Alpha virt. eigenvalues --    3.03957   3.15581   3.30884   3.34447   3.39443
 Alpha virt. eigenvalues --    3.60578   3.66244   3.84155   4.00460   4.01848
 Alpha virt. eigenvalues --    4.09364   4.21354   4.54599   4.66660   5.45045
 Alpha virt. eigenvalues --   23.78223  24.02078  24.18214  35.55280  35.58318
     Molecular Orbital Coefficients:
                           1         2         3         4         5
                           O         O         O         O         O
     Eigenvalues --   -14.27736 -14.27716 -10.14776 -10.14776 -10.12696
   1 1   N  1S          0.39293   0.39534   0.00004  -0.00004   0.00000
   2        2S          0.32843   0.33041   0.00005  -0.00002   0.00003
   3        2PX        -0.00091  -0.00053  -0.00003   0.00009   0.00006
   4        2PY         0.00069   0.00075  -0.00032   0.00034   0.00004
   5        2PZ        -0.00020  -0.00022   0.00009  -0.00010  -0.00001
   6        3S          0.01092   0.01096  -0.00064   0.00043  -0.00005
   7        3PX         0.00044  -0.00013   0.00000  -0.00024  -0.00027
   8        3PY         0.00075   0.00057   0.00074  -0.00095  -0.00036
   9        3PZ        -0.00022  -0.00017  -0.00022   0.00028   0.00011
  10        4S         -0.00916  -0.01247   0.00181  -0.00142  -0.00195
  11        4PX        -0.00016   0.00241   0.00056  -0.00034  -0.00003
  12        4PY        -0.00186  -0.00192   0.00080   0.00016  -0.00058
  13        4PZ         0.00055   0.00056  -0.00024  -0.00005   0.00017
  14        5S          0.00488   0.02553  -0.02247   0.00621   0.00139
  15        5PX        -0.00001  -0.00779   0.00614   0.00015   0.00069
  16        5PY         0.00073   0.00125  -0.00313   0.00150   0.00013
  17        5PZ        -0.00021  -0.00035   0.00091  -0.00044  -0.00004
  18        6D 0       -0.00003  -0.00025  -0.00040   0.00036   0.00002
  19        6D+1       -0.00007  -0.00006  -0.00005   0.00010   0.00008
  20        6D-1       -0.00015  -0.00010  -0.00035   0.00035   0.00006
  21        6D+2       -0.00041   0.00013  -0.00040   0.00046   0.00013
  22        6D-2        0.00023   0.00020   0.00015  -0.00034  -0.00026
  23 2   N  1S          0.39533  -0.39294  -0.00004  -0.00004   0.00000
  24        2S          0.33043  -0.32841  -0.00005  -0.00002   0.00003
  25        2PX         0.00091  -0.00052  -0.00004  -0.00009  -0.00006
  26        2PY         0.00070  -0.00075   0.00033   0.00033   0.00004
  27        2PZ        -0.00021   0.00022  -0.00010  -0.00010  -0.00001
  28        3S          0.01098  -0.01089   0.00065   0.00041  -0.00005
  29        3PX        -0.00044  -0.00013   0.00001   0.00024   0.00027
  30        3PY         0.00075  -0.00056  -0.00076  -0.00093  -0.00036
  31        3PZ        -0.00022   0.00017   0.00022   0.00027   0.00011
  32        4S         -0.00924   0.01241  -0.00184  -0.00138  -0.00195
  33        4PX         0.00015   0.00240   0.00057   0.00032   0.00003
  34        4PY        -0.00187   0.00192  -0.00080   0.00018  -0.00058
  35        4PZ         0.00055  -0.00057   0.00023  -0.00005   0.00017
  36        5S          0.00504  -0.02550   0.02261   0.00567   0.00139
  37        5PX         0.00006  -0.00778   0.00612  -0.00031  -0.00069
  38        5PY         0.00073  -0.00127   0.00319   0.00142   0.00013
  39        5PZ        -0.00022   0.00039  -0.00095  -0.00042  -0.00004
  40        6D 0       -0.00004   0.00025   0.00041   0.00035   0.00002
  41        6D+1        0.00007  -0.00006  -0.00005  -0.00010  -0.00008
  42        6D-1       -0.00015   0.00010   0.00036   0.00034   0.00005
  43        6D+2       -0.00040  -0.00013   0.00041   0.00045   0.00013
  44        6D-2       -0.00024   0.00019   0.00017   0.00034   0.00026
  45 3   C  1S         -0.00000   0.00001  -0.39326   0.40267  -0.00693
  46        2S          0.00006   0.00000  -0.32360   0.33143  -0.00551
  47        2PX         0.00000  -0.00008  -0.00018   0.00015  -0.00060
  48        2PY        -0.00038  -0.00031   0.00021  -0.00008   0.00044
  49        2PZ         0.00011   0.00009  -0.00006   0.00002  -0.00013
  50        3S         -0.00003   0.00054  -0.01365   0.01333  -0.00053
  51        3PX         0.00003  -0.00008   0.00062  -0.00001   0.00239
  52        3PY         0.00131   0.00082  -0.00068  -0.00001  -0.00164
  53        3PZ        -0.00038  -0.00024   0.00020   0.00000   0.00048
  54        4S          0.00759   0.00172   0.00754  -0.00695   0.00472
  55        4PX        -0.00427  -0.00204  -0.00322   0.00178  -0.00425
  56        4PY        -0.00188  -0.00212   0.00021   0.00055   0.00001
  57        4PZ         0.00056   0.00063  -0.00006  -0.00016   0.00000
  58        5S         -0.00729  -0.01468   0.00980  -0.01467  -0.01110
  59        5PX         0.00155   0.00354  -0.00147   0.00218   0.00162
  60        5PY         0.00044  -0.00182   0.00190  -0.00031  -0.00055
  61        5PZ        -0.00013   0.00053  -0.00056   0.00009   0.00016
  62        6D 0       -0.00010   0.00013   0.00116  -0.00129   0.00068
  63        6D+1        0.00015   0.00017  -0.00012  -0.00008  -0.00041
  64        6D-1        0.00026   0.00024   0.00045  -0.00042   0.00013
  65        6D+2        0.00096   0.00052  -0.00061   0.00093  -0.00078
  66        6D-2       -0.00053  -0.00059   0.00041   0.00024   0.00141
  67 4   C  1S         -0.00002  -0.00000   0.00011   0.00963   0.56280
  68        2S          0.00007   0.00000   0.00010   0.00820   0.46308
  69        2PX        -0.00000   0.00017  -0.00085   0.00001  -0.00000
  70        2PY        -0.00009   0.00000  -0.00001  -0.00068   0.00030
  71        2PZ         0.00003  -0.00000   0.00000   0.00020  -0.00009
  72        3S          0.00000  -0.00000   0.00000   0.00025   0.01962
  73        3PX         0.00000  -0.00111   0.00346  -0.00005   0.00000
  74        3PY         0.00114   0.00000   0.00004   0.00278  -0.00080
  75        3PZ        -0.00033   0.00000  -0.00002  -0.00082   0.00024
  76        4S         -0.00783  -0.00002  -0.00000  -0.00013  -0.01479
  77        4PX        -0.00002   0.00115  -0.00183   0.00003  -0.00002
  78        4PY         0.00651   0.00002  -0.00002  -0.00165   0.00698
  79        4PZ        -0.00191  -0.00001   0.00001   0.00049  -0.00205
  80        5S          0.00837   0.00002   0.00026   0.02216   0.02000
  81        5PX        -0.00001   0.00483  -0.00400   0.00006   0.00001
  82        5PY        -0.00099   0.00001  -0.00006  -0.00474  -0.00509
  83        5PZ         0.00029  -0.00001   0.00003   0.00139   0.00150
  84        6D 0        0.00009   0.00000   0.00001   0.00101  -0.00170
  85        6D+1        0.00000  -0.00017   0.00070  -0.00000  -0.00000
  86        6D-1       -0.00005  -0.00000   0.00001   0.00045  -0.00128
  87        6D+2       -0.00030  -0.00000   0.00001  -0.00033  -0.00103
  88        6D-2       -0.00000   0.00056  -0.00237   0.00003  -0.00001
  89 5   C  1S         -0.00000  -0.00001   0.40274   0.39319  -0.00693
  90        2S          0.00006  -0.00000   0.33141   0.32362  -0.00551
  91        2PX         0.00000  -0.00008  -0.00018  -0.00014   0.00060
  92        2PY        -0.00038   0.00031  -0.00021  -0.00008   0.00044
  93        2PZ         0.00011  -0.00009   0.00006   0.00002  -0.00013
  94        3S         -0.00003  -0.00054   0.01397   0.01300  -0.00053
  95        3PX        -0.00004  -0.00008   0.00061  -0.00000  -0.00238
  96        3PY         0.00131  -0.00082   0.00068  -0.00002  -0.00165
  97        3PZ        -0.00039   0.00024  -0.00020   0.00001   0.00049
  98        4S          0.00760  -0.00167  -0.00770  -0.00677   0.00472
  99        4PX         0.00429  -0.00202  -0.00326  -0.00170   0.00425
 100        4PY        -0.00187   0.00210  -0.00020   0.00055   0.00003
 101        4PZ         0.00054  -0.00061   0.00007  -0.00016  -0.00002
 102        5S         -0.00738   0.01464  -0.01015  -0.01443  -0.01110
 103        5PX        -0.00157   0.00352  -0.00151  -0.00214  -0.00161
 104        5PY         0.00042   0.00184  -0.00191  -0.00027  -0.00056
 105        5PZ        -0.00012  -0.00055   0.00057   0.00008   0.00017
 106        6D 0       -0.00009  -0.00013  -0.00119  -0.00127   0.00068
 107        6D+1       -0.00016   0.00017  -0.00013   0.00007   0.00042
 108        6D-1        0.00025  -0.00024  -0.00046  -0.00041   0.00014
 109        6D+2        0.00095  -0.00051   0.00063   0.00092  -0.00077
 110        6D-2        0.00054  -0.00059   0.00041  -0.00025  -0.00142
 111 6   H  1S         -0.00025  -0.00009  -0.00020   0.00003  -0.00010
 112        2S          0.00009   0.00019   0.00320  -0.00328   0.00015
 113        3S          0.00119   0.00133  -0.00118   0.00198   0.00172
 114        4PX         0.00027   0.00004  -0.00155   0.00182   0.00025
 115        4PY         0.00024   0.00024  -0.00047   0.00045  -0.00017
 116        4PZ        -0.00007  -0.00007   0.00014  -0.00014   0.00005
 117 7   H  1S          0.00006   0.00000  -0.00000  -0.00012   0.00018
 118        2S         -0.00185  -0.00001  -0.00001  -0.00047  -0.00519
 119        3S         -0.00189  -0.00001   0.00001   0.00091   0.00088
 120        4PX        -0.00000  -0.00012   0.00034  -0.00001  -0.00001
 121        4PY         0.00040   0.00000   0.00001   0.00046   0.00248
 122        4PZ        -0.00012  -0.00000  -0.00000  -0.00014  -0.00073
 123 8   H  1S         -0.00025   0.00009   0.00020   0.00003  -0.00010
 124        2S          0.00009  -0.00019  -0.00328  -0.00320   0.00015
 125        3S          0.00119  -0.00132   0.00122   0.00195   0.00172
 126        4PX        -0.00027   0.00004  -0.00159  -0.00179  -0.00025
 127        4PY         0.00024  -0.00024   0.00047   0.00044  -0.00017
 128        4PZ        -0.00007   0.00007  -0.00014  -0.00013   0.00005
                           6         7         8         9        10
                           O         O         O         O         O
     Eigenvalues --    -0.96244  -0.73565  -0.71611  -0.53980  -0.51542
   1 1   N  1S         -0.07269  -0.05882   0.03849  -0.00701   0.04500
   2        2S         -0.11391  -0.09283   0.06097  -0.01119   0.07173
   3        2PX        -0.04335   0.04133   0.04396  -0.09789  -0.03203
   4        2PY         0.03548   0.05114   0.02144  -0.05881  -0.01599
   5        2PZ        -0.01035  -0.01510  -0.00638   0.01746   0.00476
   6        3S          0.31112   0.26156  -0.17431   0.03380  -0.20726
   7        3PX        -0.07162   0.05898   0.06939  -0.14663  -0.04469
   8        3PY         0.05528   0.07572   0.03297  -0.08540  -0.02411
   9        3PZ        -0.01612  -0.02236  -0.00982   0.02536   0.00717
  10        4S          0.20187   0.20488  -0.13602   0.04457  -0.20630
  11        4PX        -0.01773   0.01725   0.02329  -0.07232  -0.02108
  12        4PY         0.02581   0.03048   0.00651  -0.03471  -0.01102
  13        4PZ        -0.00755  -0.00899  -0.00196   0.01033   0.00328
  14        5S         -0.04476  -0.09582  -0.01378   0.01436   0.00141
  15        5PX         0.00662   0.02304  -0.00384   0.00959  -0.00107
  16        5PY        -0.01230  -0.01470  -0.00211   0.00031   0.00669
  17        5PZ         0.00360   0.00428   0.00063  -0.00011  -0.00196
  18        6D 0       -0.01073  -0.00168   0.00296  -0.00211  -0.00083
  19        6D+1        0.00098  -0.00244   0.00049   0.00173   0.00099
  20        6D-1       -0.00412  -0.00491  -0.00253   0.00322   0.00146
  21        6D+2        0.00577  -0.01231  -0.01298   0.01363   0.00597
  22        6D-2       -0.00348   0.00835  -0.00157  -0.00599  -0.00341
  23 2   N  1S         -0.07269   0.05882   0.03848  -0.00701  -0.04500
  24        2S         -0.11391   0.09284   0.06096  -0.01119  -0.07173
  25        2PX         0.04318   0.04156  -0.04407   0.09816  -0.03211
  26        2PY         0.03563  -0.05100   0.02130  -0.05848   0.01589
  27        2PZ        -0.01055   0.01491  -0.00618   0.01701  -0.00461
  28        3S          0.31111  -0.26159  -0.17427   0.03381   0.20726
  29        3PX         0.07136   0.05932  -0.06955   0.14702  -0.04481
  30        3PY         0.05552  -0.07552   0.03275  -0.08491   0.02396
  31        3PZ        -0.01645   0.02209  -0.00950   0.02469  -0.00696
  32        4S          0.20187  -0.20491  -0.13598   0.04457   0.20630
  33        4PX         0.01761   0.01739  -0.02332   0.07248  -0.02113
  34        4PY         0.02587  -0.03042   0.00644  -0.03447   0.01095
  35        4PZ        -0.00764   0.00891  -0.00185   0.01000  -0.00318
  36        5S         -0.04476   0.09582  -0.01378   0.01436  -0.00141
  37        5PX        -0.00656   0.02297   0.00385  -0.00959  -0.00104
  38        5PY        -0.01232   0.01478  -0.00209   0.00028  -0.00669
  39        5PZ         0.00363  -0.00439   0.00061  -0.00006   0.00196
  40        6D 0       -0.01072   0.00170   0.00296  -0.00209   0.00083
  41        6D+1       -0.00108  -0.00250  -0.00040  -0.00182   0.00103
  42        6D-1       -0.00414   0.00486  -0.00254   0.00319  -0.00144
  43        6D+2        0.00574   0.01224  -0.01300   0.01358  -0.00594
  44        6D-2        0.00350   0.00845   0.00147   0.00610  -0.00345
  45 3   C  1S         -0.04030  -0.06432  -0.04701   0.04051  -0.04337
  46        2S         -0.06167  -0.09933  -0.07289   0.06333  -0.06804
  47        2PX        -0.02872  -0.00333  -0.02970  -0.06406   0.03204
  48        2PY        -0.02824  -0.04478   0.04548   0.05568   0.10007
  49        2PZ         0.00835   0.01316  -0.01332  -0.01625  -0.02947
  50        3S          0.15618   0.26296   0.19323  -0.17317   0.18245
  51        3PX        -0.04017  -0.00463  -0.04476  -0.08710   0.04332
  52        3PY        -0.03971  -0.06424   0.06487   0.08113   0.13802
  53        3PZ         0.01174   0.01889  -0.01899  -0.02369  -0.04064
  54        4S          0.03250   0.14105   0.12409  -0.15949   0.14997
  55        4PX         0.00913  -0.00421  -0.01749  -0.02374   0.01701
  56        4PY         0.00182  -0.01062   0.01215   0.03168   0.05786
  57        4PZ        -0.00055   0.00312  -0.00354  -0.00926  -0.01705
  58        5S          0.11082   0.06669   0.03651   0.05959  -0.03688
  59        5PX        -0.02500  -0.01216  -0.00234  -0.02238   0.02011
  60        5PY         0.00508   0.00317  -0.00044   0.01465   0.00893
  61        5PZ        -0.00145  -0.00091   0.00013  -0.00427  -0.00267
  62        6D 0       -0.00925  -0.00754  -0.00656   0.00339  -0.00264
  63        6D+1       -0.00254  -0.00172   0.00362   0.00160   0.00197
  64        6D-1       -0.00545  -0.00736  -0.00060   0.00264   0.00186
  65        6D+2       -0.00086  -0.00980   0.00943   0.00228   0.01030
  66        6D-2        0.00853   0.00581  -0.01243  -0.00542  -0.00679
  67 4   C  1S         -0.02543  -0.00001  -0.08842  -0.05596   0.00000
  68        2S         -0.03880  -0.00001  -0.13669  -0.08761   0.00000
  69        2PX         0.00006   0.03852   0.00006  -0.00008   0.11066
  70        2PY        -0.02489   0.00006  -0.02844   0.03385   0.00019
  71        2PZ         0.00732  -0.00009   0.00837  -0.00994  -0.00025
  72        3S          0.09529   0.00002   0.35600   0.23230  -0.00000
  73        3PX         0.00008   0.05808   0.00008  -0.00010   0.15802
  74        3PY        -0.03334   0.00009  -0.03734   0.04528   0.00027
  75        3PZ         0.00980  -0.00013   0.01099  -0.01329  -0.00036
  76        4S          0.06769   0.00001   0.18679   0.20745  -0.00000
  77        4PX         0.00008   0.00961  -0.00000   0.00000   0.06935
  78        4PY        -0.03301   0.00002   0.00040  -0.00055   0.00012
  79        4PZ         0.00970  -0.00002  -0.00011   0.00016  -0.00016
  80        5S         -0.17011   0.00000  -0.06164  -0.13661   0.00001
  81        5PX        -0.00006  -0.01799  -0.00005  -0.00006  -0.00411
  82        5PY         0.02629  -0.00003   0.02214   0.02479  -0.00001
  83        5PZ        -0.00773   0.00004  -0.00651  -0.00729   0.00001
  84        6D 0       -0.00557  -0.00002  -0.01066  -0.00475  -0.00001
  85        6D+1       -0.00001   0.00361  -0.00004  -0.00000   0.00328
  86        6D-1       -0.00391   0.00003  -0.00567  -0.00425   0.00003
  87        6D+2       -0.00249   0.00005   0.00085  -0.00497   0.00005
  88        6D-2       -0.00002  -0.01227  -0.00001  -0.00003  -0.01115
  89 5   C  1S         -0.04030   0.06431  -0.04702   0.04052   0.04337
  90        2S         -0.06167   0.09932  -0.07291   0.06333   0.06804
  91        2PX         0.02885  -0.00354   0.02949   0.06380   0.03250
  92        2PY        -0.02814   0.04477   0.04557   0.05588  -0.09996
  93        2PZ         0.00822  -0.01315  -0.01345  -0.01654   0.02933
  94        3S          0.15618  -0.26292   0.19327  -0.17319  -0.18244
  95        3PX         0.04036  -0.00492   0.04445   0.08672   0.04396
  96        3PY        -0.03958   0.06423   0.06501   0.08142  -0.13788
  97        3PZ         0.01156  -0.01887  -0.01919  -0.02409   0.04045
  98        4S          0.03250  -0.14103   0.12412  -0.15950  -0.14996
  99        4PX        -0.00914  -0.00426   0.01743   0.02359   0.01728
 100        4PY         0.00179   0.01060   0.01220   0.03176  -0.05780
 101        4PZ        -0.00050  -0.00310  -0.00362  -0.00937   0.01697
 102        5S          0.11082  -0.06670   0.03651   0.05959   0.03687
 103        5PX         0.02497  -0.01215   0.00234   0.02231   0.02015
 104        5PY         0.00517  -0.00321  -0.00043   0.01473  -0.00887
 105        5PZ        -0.00157   0.00097   0.00012  -0.00437   0.00257
 106        6D 0       -0.00927   0.00755  -0.00653   0.00341   0.00262
 107        6D+1        0.00248  -0.00173  -0.00371  -0.00159   0.00204
 108        6D-1       -0.00540   0.00733  -0.00067   0.00261  -0.00182
 109        6D+2       -0.00079   0.00976   0.00933   0.00224  -0.01025
 110        6D-2       -0.00856   0.00591   0.01249   0.00544  -0.00687
 111 6   H  1S          0.00981   0.04146   0.02738  -0.07259   0.08378
 112        2S          0.00736   0.04816   0.03176  -0.09375   0.11132
 113        3S         -0.00694   0.00065   0.00144  -0.02473   0.02599
 114        4PX        -0.00078  -0.00763  -0.00523   0.00951  -0.01269
 115        4PY        -0.00155  -0.00353   0.00204   0.00477   0.00211
 116        4PZ         0.00046   0.00105  -0.00059  -0.00142  -0.00060
 117 7   H  1S          0.00456   0.00000   0.05453   0.08060  -0.00000
 118        2S          0.00899   0.00000   0.05930   0.10650   0.00000
 119        3S          0.01140  -0.00000  -0.00282   0.03065  -0.00000
 120        4PX         0.00000   0.00238   0.00002   0.00003   0.00574
 121        4PY        -0.00062   0.00000  -0.00886  -0.01126   0.00001
 122        4PZ         0.00018  -0.00001   0.00260   0.00331  -0.00001
 123 8   H  1S          0.00981  -0.04145   0.02739  -0.07260  -0.08378
 124        2S          0.00736  -0.04815   0.03177  -0.09375  -0.11131
 125        3S         -0.00694  -0.00064   0.00144  -0.02473  -0.02599
 126        4PX         0.00079  -0.00765   0.00523  -0.00953  -0.01267
 127        4PY        -0.00155   0.00350   0.00206   0.00474  -0.00216
 128        4PZ         0.00045  -0.00102  -0.00062  -0.00138   0.00066
                          11        12        13        14        15
                           O         O         O         O         O
     Eigenvalues --    -0.47260  -0.38525  -0.37469  -0.35622  -0.27192
   1 1   N  1S         -0.01826  -0.00790   0.00001  -0.00522  -0.01859
   2        2S         -0.02920  -0.01262   0.00001  -0.00841  -0.02976
   3        2PX         0.00046   0.09444   0.00018  -0.01516   0.14301
   4        2PY        -0.06874   0.07661   0.03851   0.02867  -0.10955
   5        2PZ         0.02020  -0.02261   0.13119  -0.00838   0.03195
   6        3S          0.08664   0.03519  -0.00003   0.02611   0.07985
   7        3PX         0.00008   0.13780   0.00028  -0.02503   0.21581
   8        3PY        -0.10229   0.11111   0.05812   0.04323  -0.15953
   9        3PZ         0.03007  -0.03280   0.19798  -0.01263   0.04651
  10        4S          0.09325   0.03342  -0.00011   0.04195   0.11798
  11        4PX         0.00688   0.08718   0.00024  -0.02840   0.16119
  12        4PY        -0.05898   0.06879   0.04592   0.02765  -0.14695
  13        4PZ         0.01733  -0.02029   0.15649  -0.00805   0.04291
  14        5S          0.04335   0.00634  -0.00003   0.02316   0.09694
  15        5PX        -0.01193   0.00419   0.00002   0.01242   0.02533
  16        5PY         0.00915   0.00674   0.00337   0.01710  -0.02668
  17        5PZ        -0.00267  -0.00199   0.01142  -0.00505   0.00780
  18        6D 0        0.00274   0.00155  -0.00771   0.00048   0.00966
  19        6D+1       -0.00375   0.00024  -0.01455   0.00156  -0.00548
  20        6D-1        0.00529  -0.00349   0.01393  -0.00278   0.00264
  21        6D+2        0.01178  -0.01357  -0.00449  -0.00950  -0.00839
  22        6D-2        0.01274  -0.00075  -0.00425  -0.00527   0.01880
  23 2   N  1S         -0.01826  -0.00790   0.00001   0.00522  -0.01860
  24        2S         -0.02920  -0.01262   0.00001   0.00841  -0.02977
  25        2PX        -0.00014  -0.09480   0.00030  -0.01502  -0.14250
  26        2PY        -0.06874   0.07629   0.03852  -0.02871  -0.11004
  27        2PZ         0.02020  -0.02217   0.13118   0.00850   0.03262
  28        3S          0.08663   0.03519  -0.00002  -0.02611   0.07987
  29        3PX         0.00040  -0.13832   0.00045  -0.02482  -0.21506
  30        3PY        -0.10229   0.11065   0.05814  -0.04329  -0.16026
  31        3PZ         0.03006  -0.03216   0.19797   0.01282   0.04753
  32        4S          0.09325   0.03343  -0.00009  -0.04195   0.11801
  33        4PX        -0.00660  -0.08750   0.00034  -0.02827  -0.16050
  34        4PY        -0.05900   0.06850   0.04594  -0.02773  -0.14749
  35        4PZ         0.01735  -0.01989   0.15648   0.00824   0.04367
  36        5S          0.04335   0.00634   0.00001  -0.02316   0.09697
  37        5PX         0.01189  -0.00422   0.00003   0.01251  -0.02520
  38        5PY         0.00919   0.00673   0.00337  -0.01706  -0.02677
  39        5PZ        -0.00272  -0.00197   0.01142   0.00500   0.00792
  40        6D 0        0.00271   0.00155  -0.00782  -0.00049   0.00961
  41        6D+1        0.00370  -0.00015   0.01446   0.00151   0.00559
  42        6D-1        0.00536  -0.00349   0.01395   0.00281   0.00275
  43        6D+2        0.01188  -0.01357  -0.00446   0.00954  -0.00824
  44        6D-2       -0.01263   0.00064   0.00428  -0.00520  -0.01885
  45 3   C  1S         -0.00211   0.01599  -0.00001  -0.01375   0.00234
  46        2S         -0.00310   0.02566  -0.00001  -0.02184   0.00358
  47        2PX         0.11142  -0.02450   0.00020  -0.15123  -0.04029
  48        2PY         0.02467  -0.10114   0.02798   0.03601   0.01982
  49        2PZ        -0.00744   0.02982   0.09502  -0.01032  -0.00576
  50        3S          0.00641  -0.06812   0.00002   0.06832  -0.00533
  51        3PX         0.15451  -0.03082   0.00030  -0.20755  -0.05455
  52        3PY         0.03379  -0.14195   0.04288   0.04932   0.02959
  53        3PZ        -0.01019   0.04185   0.14566  -0.01413  -0.00861
  54        4S          0.01107  -0.07784   0.00013   0.03700  -0.01502
  55        4PX         0.08980  -0.02887   0.00011  -0.13307  -0.01323
  56        4PY         0.02269  -0.07784   0.02967   0.03685  -0.00935
  57        4PZ        -0.00683   0.02299   0.10091  -0.01059   0.00276
  58        5S         -0.06952  -0.03224   0.00008  -0.02601  -0.10538
  59        5PX         0.02769   0.00315   0.00000  -0.00872   0.02007
  60        5PY        -0.01260  -0.01034   0.00472   0.01582  -0.01905
  61        5PZ         0.00365   0.00304   0.01609  -0.00463   0.00556
  62        6D 0        0.00438   0.00194   0.00522   0.00163   0.00412
  63        6D+1        0.00062  -0.00040  -0.01533   0.00203   0.00783
  64        6D-1       -0.00064  -0.00763  -0.00928  -0.00398  -0.00040
  65        6D+2       -0.00959  -0.02705   0.00298  -0.01523  -0.00855
  66        6D-2       -0.00200   0.00148  -0.00452  -0.00682  -0.02654
  67 4   C  1S         -0.00855  -0.01060   0.00001   0.00000  -0.02276
  68        2S         -0.01325  -0.01676   0.00002   0.00000  -0.03649
  69        2PX        -0.00031  -0.00029   0.00011   0.15987   0.00016
  70        2PY         0.12920   0.12644   0.02288   0.00027  -0.07128
  71        2PZ        -0.03797  -0.03711   0.07808  -0.00035   0.02095
  72        3S          0.03340   0.04139  -0.00005  -0.00000   0.10845
  73        3PX        -0.00040  -0.00039   0.00017   0.22924   0.00024
  74        3PY         0.17015   0.17006   0.03463   0.00039  -0.10259
  75        3PZ        -0.05000  -0.04990   0.11814  -0.00051   0.03015
  76        4S          0.06525   0.07096  -0.00022  -0.00001   0.16653
  77        4PX        -0.00021  -0.00026   0.00012   0.12785   0.00014
  78        4PY         0.08891   0.11088   0.02377   0.00022  -0.06015
  79        4PZ        -0.02613  -0.03254   0.08076  -0.00028   0.01768
  80        5S          0.14104   0.05659  -0.00012   0.00000   0.20710
  81        5PX         0.00002  -0.00002  -0.00002  -0.00069   0.00009
  82        5PY        -0.00753   0.00629  -0.00185  -0.00000  -0.03892
  83        5PZ         0.00223  -0.00185  -0.00643   0.00000   0.01144
  84        6D 0        0.00137   0.00034   0.00677  -0.00003   0.00147
  85        6D+1       -0.00002   0.00008   0.00004   0.00776  -0.00000
  86        6D-1        0.00316  -0.00844  -0.01213   0.00007   0.00124
  87        6D+2        0.00743  -0.02681   0.00392   0.00011   0.00131
  88        6D-2        0.00003  -0.00011  -0.00001  -0.02638   0.00001
  89 5   C  1S         -0.00211   0.01599  -0.00001   0.01375   0.00234
  90        2S         -0.00311   0.02566  -0.00002   0.02184   0.00358
  91        2PX        -0.11153   0.02496   0.00019  -0.15106   0.04020
  92        2PY         0.02431  -0.10105   0.02799  -0.03650   0.01996
  93        2PZ        -0.00694   0.02972   0.09501   0.01104  -0.00593
  94        3S          0.00641  -0.06812   0.00005  -0.06831  -0.00534
  95        3PX        -0.15466   0.03148   0.00029  -0.20733   0.05441
  96        3PY         0.03328  -0.14184   0.04290  -0.04999   0.02979
  97        3PZ        -0.00949   0.04173   0.14564   0.01512  -0.00884
  98        4S          0.01107  -0.07784   0.00014  -0.03700  -0.01504
  99        4PX        -0.08990   0.02923   0.00029  -0.13290   0.01327
 100        4PY         0.02239  -0.07774   0.02969  -0.03728  -0.00929
 101        4PZ        -0.00643   0.02286   0.10090   0.01123   0.00272
 102        5S         -0.06952  -0.03224   0.00004   0.02601  -0.10539
 103        5PX        -0.02763  -0.00310   0.00005  -0.00865  -0.01998
 104        5PY        -0.01269  -0.01035   0.00472  -0.01585  -0.01911
 105        5PZ         0.00378   0.00306   0.01609   0.00468   0.00566
 106        6D 0        0.00438   0.00194   0.00510  -0.00164   0.00419
 107        6D+1       -0.00053   0.00056   0.01538   0.00194  -0.00776
 108        6D-1       -0.00065  -0.00762  -0.00925   0.00402  -0.00055
 109        6D+2       -0.00961  -0.02704   0.00301   0.01528  -0.00877
 110        6D-2        0.00193  -0.00170   0.00450  -0.00670   0.02649
 111 6   H  1S          0.08539  -0.06587   0.00005  -0.11083  -0.04651
 112        2S          0.11346  -0.09136   0.00010  -0.16354  -0.08000
 113        3S          0.02278  -0.04042   0.00007  -0.08458  -0.06692
 114        4PX        -0.01291   0.00541   0.00001   0.00804   0.00099
 115        4PY        -0.00296  -0.00460   0.00216   0.00560   0.00238
 116        4PZ         0.00089   0.00135   0.00734  -0.00166  -0.00070
 117 7   H  1S          0.10747   0.13117  -0.00006  -0.00000  -0.04818
 118        2S          0.14660   0.18436  -0.00010  -0.00000  -0.08832
 119        3S          0.03115   0.08161  -0.00008  -0.00000  -0.06730
 120        4PX         0.00004   0.00002   0.00001   0.01098  -0.00001
 121        4PY        -0.01603  -0.00990   0.00175   0.00002   0.00407
 122        4PZ         0.00471   0.00291   0.00596  -0.00002  -0.00120
 123 8   H  1S          0.08540  -0.06586   0.00002   0.11083  -0.04651
 124        2S          0.11347  -0.09136   0.00005   0.16354  -0.07999
 125        3S          0.02278  -0.04042   0.00005   0.08459  -0.06693
 126        4PX         0.01292  -0.00539   0.00002   0.00806  -0.00100
 127        4PY        -0.00292  -0.00462   0.00216  -0.00557   0.00238
 128        4PZ         0.00083   0.00137   0.00734   0.00162  -0.00070
                          16        17        18        19        20
                           O         O         O         V         V
     Eigenvalues --    -0.22126  -0.20882  -0.20723   0.01835   0.03798
   1 1   N  1S         -0.03970  -0.00002   0.00000   0.00931  -0.00356
   2        2S         -0.06379  -0.00003   0.00001   0.01555  -0.00562
   3        2PX         0.03919   0.00024  -0.00022  -0.00775   0.00860
   4        2PY        -0.15853   0.03554  -0.03534   0.00974  -0.02668
   5        2PZ         0.04645   0.12118  -0.12030  -0.00286   0.00778
   6        3S          0.18061   0.00008  -0.00002  -0.05732   0.01230
   7        3PX         0.05068   0.00036  -0.00032  -0.01638   0.01511
   8        3PY        -0.22542   0.05314  -0.05283   0.01343  -0.03486
   9        3PZ         0.06605   0.18118  -0.17981  -0.00394   0.01015
  10        4S          0.32062   0.00016  -0.00005  -0.05411   0.07216
  11        4PX         0.06299   0.00034  -0.00033   0.00679  -0.01675
  12        4PY        -0.18331   0.05144  -0.05367   0.00011  -0.06546
  13        4PZ         0.05366   0.17531  -0.18265  -0.00008   0.01918
  14        5S          0.33049   0.00048   0.00002  -1.29696  -3.69089
  15        5PX        -0.00796   0.00000  -0.00013  -0.35785   1.78422
  16        5PY        -0.06354   0.01579  -0.01845  -0.17018   0.10806
  17        5PZ         0.01867   0.05376  -0.06284   0.05065  -0.03523
  18        6D 0        0.00695  -0.00839   0.00015   0.00252  -0.00087
  19        6D+1        0.00243   0.00926   0.01616   0.00157  -0.00062
  20        6D-1        0.00700   0.01501  -0.00037   0.00029   0.00057
  21        6D+2        0.00970  -0.00481   0.00014  -0.00352   0.00329
  22        6D-2       -0.00825   0.00275   0.00475  -0.00529   0.00207
  23 2   N  1S          0.03970   0.00002  -0.00000   0.00931   0.00356
  24        2S          0.06379   0.00003  -0.00001   0.01555   0.00562
  25        2PX         0.03844  -0.00022  -0.00023   0.00770   0.00847
  26        2PY         0.15865  -0.03557  -0.03537   0.00976   0.02671
  27        2PZ        -0.04666  -0.12124  -0.12023  -0.00290  -0.00782
  28        3S         -0.18061  -0.00007   0.00002  -0.05732  -0.01230
  29        3PX         0.04960  -0.00033  -0.00035   0.01632   0.01494
  30        3PY         0.22556  -0.05318  -0.05287   0.01348   0.03490
  31        3PZ        -0.06633  -0.18127  -0.17970  -0.00401  -0.01022
  32        4S         -0.32062  -0.00015   0.00003  -0.05410  -0.07217
  33        4PX         0.06212  -0.00032  -0.00035  -0.00680  -0.01706
  34        4PY         0.18349  -0.05149  -0.05370   0.00009   0.06539
  35        4PZ        -0.05399  -0.17540  -0.18255  -0.00004  -0.01910
  36        5S         -0.33048  -0.00047   0.00007  -1.29727   3.69085
  37        5PX        -0.00826  -0.00020  -0.00011   0.35850   1.78471
  38        5PY         0.06350  -0.01581  -0.01846  -0.16899  -0.10209
  39        5PZ        -0.01864  -0.05379  -0.06280   0.04904   0.02696
  40        6D 0       -0.00697   0.00832   0.00028   0.00254   0.00088
  41        6D+1        0.00244   0.00935  -0.01616  -0.00153  -0.00060
  42        6D-1       -0.00696  -0.01499  -0.00040   0.00026  -0.00058
  43        6D+2       -0.00964   0.00483   0.00010  -0.00356  -0.00331
  44        6D-2       -0.00835   0.00271  -0.00475   0.00526   0.00205
  45 3   C  1S          0.02243   0.00001  -0.00001   0.01282  -0.01334
  46        2S          0.03599   0.00001  -0.00001   0.02180  -0.02213
  47        2PX         0.01262   0.00024   0.00011  -0.03216   0.04520
  48        2PY         0.09033   0.04236   0.02016  -0.01148   0.01805
  49        2PZ        -0.02663   0.14396   0.06861   0.00344  -0.00536
  50        3S         -0.11140  -0.00002   0.00003  -0.08762   0.07675
  51        3PX         0.02039   0.00037   0.00018  -0.05510   0.08942
  52        3PY         0.13822   0.06482   0.03120  -0.00810   0.02696
  53        3PZ        -0.04074   0.22028   0.10618   0.00250  -0.00805
  54        4S         -0.16839  -0.00011  -0.00005   0.05193   0.08615
  55        4PX         0.02746   0.00038   0.00018  -0.11730  -0.05807
  56        4PY         0.09365   0.06586   0.02962  -0.08717   0.02042
  57        4PZ        -0.02766   0.22398   0.10091   0.02582  -0.00581
  58        5S         -0.16252  -0.00043  -0.00018   3.13028   6.12453
  59        5PX         0.03864   0.00021   0.00006  -0.02992  -2.75028
  60        5PY         0.00529   0.01891   0.00365  -0.58224   1.34335
  61        5PZ        -0.00165   0.06457   0.01250   0.17122  -0.38981
  62        6D 0        0.00086   0.00763  -0.01176   0.00541  -0.00181
  63        6D+1        0.00464  -0.00249  -0.01035  -0.00096   0.00073
  64        6D-1       -0.00007  -0.01368   0.02116   0.00467  -0.00012
  65        6D+2       -0.00186   0.00439  -0.00682   0.00517   0.00273
  66        6D-2       -0.01578  -0.00077  -0.00300   0.00331  -0.00251
  67 4   C  1S         -0.00000  -0.00000   0.00001   0.01552   0.00000
  68        2S         -0.00000  -0.00000   0.00002   0.02586   0.00000
  69        2PX         0.06253   0.00004   0.00030   0.00008  -0.00881
  70        2PY         0.00011   0.00001   0.05038  -0.03429  -0.00002
  71        2PZ        -0.00012   0.00004   0.17145   0.01006   0.00002
  72        3S          0.00000   0.00001  -0.00006  -0.09042  -0.00001
  73        3PX         0.08556   0.00005   0.00046   0.00013  -0.01267
  74        3PY         0.00015   0.00001   0.07654  -0.05615  -0.00003
  75        3PZ        -0.00016   0.00006   0.26047   0.01647   0.00003
  76        4S          0.00001   0.00002   0.00001  -0.13617  -0.00002
  77        4PX         0.10120   0.00008   0.00047  -0.00007  -0.05349
  78        4PY         0.00017   0.00002   0.07895   0.02939  -0.00008
  79        4PZ        -0.00020   0.00006   0.26901  -0.00867   0.00011
  80        5S          0.00003   0.00000   0.00028  -2.25004  -0.00064
  81        5PX         0.05578   0.00016   0.00016  -0.00345  -2.68598
  82        5PY         0.00009   0.00001   0.02514   1.51065  -0.00430
  83        5PZ        -0.00012   0.00002   0.08577  -0.44402   0.00610
  84        6D 0        0.00001  -0.00009   0.00454   0.00683  -0.00000
  85        6D+1       -0.00187   0.02329   0.00002   0.00004   0.00107
  86        6D-1       -0.00002   0.00002  -0.00813   0.00166   0.00001
  87        6D+2       -0.00002   0.00003   0.00262  -0.00666   0.00001
  88        6D-2        0.00632   0.00685  -0.00001  -0.00002  -0.00363
  89 5   C  1S         -0.02243  -0.00000  -0.00000   0.01282   0.01334
  90        2S         -0.03599  -0.00001  -0.00000   0.02180   0.02213
  91        2PX         0.01305  -0.00027   0.00013   0.03221   0.04529
  92        2PY        -0.09028  -0.04235   0.02021  -0.01138  -0.01790
  93        2PZ         0.02659  -0.14392   0.06868   0.00329   0.00516
  94        3S          0.11140   0.00002   0.00000  -0.08762  -0.07675
  95        3PX         0.02104  -0.00041   0.00019   0.05513   0.08954
  96        3PY        -0.13814  -0.06481   0.03127  -0.00792  -0.02666
  97        3PZ         0.04068  -0.22023   0.10628   0.00224   0.00765
  98        4S          0.16839   0.00009  -0.00009   0.05194  -0.08613
  99        4PX         0.02789  -0.00042   0.00017   0.11771  -0.05795
 100        4PY        -0.09355  -0.06587   0.02968  -0.08678  -0.02061
 101        4PZ         0.02757  -0.22393   0.10101   0.02527   0.00609
 102        5S          0.16249   0.00042  -0.00018   3.13060  -6.12379
 103        5PX         0.03866  -0.00002  -0.00002   0.03279  -2.74379
 104        5PY        -0.00516  -0.01892   0.00367  -0.58203  -1.35244
 105        5PZ         0.00148  -0.06456   0.01253   0.17102   0.40239
 106        6D 0       -0.00090  -0.00762  -0.01183   0.00540   0.00180
 107        6D+1        0.00463  -0.00257   0.01022   0.00096   0.00076
 108        6D-1        0.00017   0.01368   0.02117   0.00469   0.00013
 109        6D+2        0.00198  -0.00440  -0.00679   0.00519  -0.00271
 110        6D-2       -0.01576  -0.00073   0.00305  -0.00326  -0.00253
 111 6   H  1S         -0.00067  -0.00001   0.00000  -0.01383   0.01972
 112        2S         -0.00009   0.00000   0.00001   0.04968  -0.00512
 113        3S         -0.00673  -0.00001   0.00001  -0.20845   0.30378
 114        4PX        -0.00129   0.00002   0.00001   0.00905  -0.01421
 115        4PY         0.00526   0.00385   0.00191   0.00224  -0.00224
 116        4PZ        -0.00155   0.01310   0.00649  -0.00067   0.00069
 117 7   H  1S         -0.00000   0.00000   0.00001  -0.01298  -0.00000
 118        2S         -0.00000  -0.00000   0.00004   0.03841   0.00000
 119        3S         -0.00000  -0.00000   0.00005  -0.37887  -0.00003
 120        4PX         0.00460   0.00000   0.00003  -0.00003  -0.00684
 121        4PY         0.00001   0.00000   0.00472   0.01223  -0.00001
 122        4PZ        -0.00001   0.00000   0.01610  -0.00359   0.00001
 123 8   H  1S          0.00067   0.00000   0.00000  -0.01383  -0.01973
 124        2S          0.00008  -0.00001   0.00001   0.04968   0.00513
 125        3S          0.00672  -0.00000   0.00000  -0.20843  -0.30380
 126        4PX        -0.00127  -0.00003   0.00001  -0.00906  -0.01422
 127        4PY        -0.00526  -0.00385   0.00191   0.00221   0.00219
 128        4PZ         0.00156  -0.01309   0.00650  -0.00063  -0.00062
                          21        22        23        24        25
                           V         V         V         V         V
     Eigenvalues --     0.04777   0.05505   0.05855   0.06767   0.06867
   1 1   N  1S          0.00979   0.00000   0.00000  -0.01097  -0.01899
   2        2S          0.01638   0.00000   0.00000  -0.01849  -0.03117
   3        2PX        -0.02793  -0.00029  -0.00007   0.02026  -0.00107
   4        2PY         0.02362  -0.04613  -0.01108  -0.01065  -0.00538
   5        2PZ        -0.00693  -0.15699  -0.03768   0.00309   0.00156
   6        3S         -0.06116  -0.00000  -0.00001   0.06959   0.09950
   7        3PX        -0.04312  -0.00043  -0.00011   0.02120   0.00462
   8        3PY         0.02925  -0.06830  -0.01762  -0.01750  -0.00888
   9        3PZ        -0.00857  -0.23240  -0.05991   0.00509   0.00257
  10        4S         -0.00602  -0.00002  -0.00006   0.07116   0.26431
  11        4PX        -0.03300  -0.00056  -0.00014   0.06894  -0.10280
  12        4PY         0.07452  -0.09303  -0.01613   0.04709   0.05988
  13        4PZ        -0.02191  -0.31661  -0.05463  -0.01393  -0.01745
  14        5S         -1.07441   0.00116  -0.00073   2.22806   2.66214
  15        5PX        -0.21248  -0.00191  -0.00017  -0.25490   0.64529
  16        5PY        -0.30529  -0.22356  -0.07347   0.45427   0.83264
  17        5PZ         0.08998  -0.76040  -0.25005  -0.13333  -0.24599
  18        6D 0       -0.00056   0.00086   0.00086  -0.00415   0.00129
  19        6D+1        0.00107  -0.00616   0.00875   0.00042   0.00001
  20        6D-1       -0.00063  -0.00150  -0.00158  -0.00154   0.00018
  21        6D+2       -0.00099   0.00047   0.00052   0.00241  -0.00169
  22        6D-2       -0.00363  -0.00182   0.00257  -0.00148  -0.00003
  23 2   N  1S          0.00979  -0.00000   0.00001  -0.01098   0.01899
  24        2S          0.01638  -0.00000   0.00001  -0.01850   0.03116
  25        2PX         0.02782   0.00028  -0.00007  -0.02021  -0.00110
  26        2PY         0.02372   0.04613  -0.01110  -0.01072   0.00537
  27        2PZ        -0.00704   0.15698  -0.03773   0.00318  -0.00155
  28        3S         -0.06116   0.00001  -0.00003   0.06963  -0.09948
  29        3PX         0.04299   0.00041  -0.00012  -0.02112   0.00457
  30        3PY         0.02940   0.06829  -0.01764  -0.01757   0.00889
  31        3PZ        -0.00874   0.23239  -0.05999   0.00519  -0.00258
  32        4S         -0.00601   0.00003  -0.00010   0.07125  -0.26427
  33        4PX         0.03265   0.00058  -0.00007  -0.06913  -0.10254
  34        4PY         0.07464   0.09302  -0.01618   0.04688  -0.06020
  35        4PZ        -0.02203   0.31660  -0.05473  -0.01362   0.01792
  36        5S         -1.07413  -0.00101  -0.00152   2.22910  -2.66135
  37        5PX         0.21401   0.00078  -0.00084   0.25260   0.64929
  38        5PY        -0.30456   0.22357  -0.07371   0.45541  -0.83032
  39        5PZ         0.08910   0.76032  -0.25023  -0.13452   0.24298
  40        6D 0       -0.00056  -0.00081   0.00093  -0.00415  -0.00129
  41        6D+1       -0.00107  -0.00617  -0.00873  -0.00046  -0.00000
  42        6D-1       -0.00065   0.00149  -0.00160  -0.00155  -0.00018
  43        6D+2       -0.00102  -0.00049   0.00050   0.00240   0.00169
  44        6D-2        0.00362  -0.00181  -0.00258   0.00149  -0.00002
  45 3   C  1S          0.00613  -0.00000  -0.00001   0.01324   0.01071
  46        2S          0.01057  -0.00000  -0.00002   0.02100   0.01672
  47        2PX         0.00273   0.00013   0.00005  -0.03469   0.00406
  48        2PY        -0.01244   0.02494   0.00046  -0.00251  -0.00429
  49        2PZ         0.00366   0.08482   0.00154   0.00073   0.00128
  50        3S         -0.04583   0.00000   0.00008  -0.04331  -0.02668
  51        3PX         0.00230   0.00018   0.00012  -0.06554   0.00312
  52        3PY        -0.00624   0.03641   0.00687  -0.01944  -0.01591
  53        3PZ         0.00185   0.12384   0.02332   0.00575   0.00471
  54        4S         -0.00278   0.00004   0.00024  -0.58148  -0.44324
  55        4PX         0.02619   0.00043  -0.00014   0.17018   0.03465
  56        4PY        -0.04419   0.07556  -0.01200   0.08430   0.15671
  57        4PZ         0.01294   0.25712  -0.04078  -0.02533  -0.04602
  58        5S         -4.61862  -0.00237   0.00898  -8.49040  -2.81047
  59        5PX         1.44646   0.00259  -0.00156   3.25724   0.97528
  60        5PY        -1.30892   0.27335   0.34188  -0.08066   2.84151
  61        5PZ         0.38300   0.93225   1.15985   0.01912  -0.83699
  62        6D 0        0.00085  -0.01354   0.00101  -0.00763   0.00058
  63        6D+1        0.00108   0.00891   0.01752   0.00050  -0.00198
  64        6D-1        0.00225   0.02426  -0.00188  -0.00396  -0.00249
  65        6D+2        0.00549  -0.00779   0.00062   0.00089  -0.00870
  66        6D-2       -0.00365   0.00267   0.00515  -0.00174   0.00680
  67 4   C  1S         -0.01791   0.00000   0.00002  -0.01585  -0.00000
  68        2S         -0.02938   0.00000   0.00003  -0.02569  -0.00000
  69        2PX        -0.00011   0.00000  -0.00018   0.00003  -0.01695
  70        2PY         0.04829  -0.00001  -0.02902  -0.01246  -0.00003
  71        2PZ        -0.01424  -0.00001  -0.09876   0.00360   0.00004
  72        3S          0.09785  -0.00000  -0.00008   0.06964   0.00001
  73        3PX        -0.00022   0.00001  -0.00023   0.00005  -0.01217
  74        3PY         0.09249  -0.00001  -0.03829  -0.01897  -0.00002
  75        3PZ        -0.02725  -0.00001  -0.13025   0.00552   0.00003
  76        4S          0.15230  -0.00003  -0.00041   0.48854   0.00009
  77        4PX        -0.00000   0.00001  -0.00054   0.00078  -0.06872
  78        4PY         0.00098   0.00000  -0.08735  -0.32499  -0.00017
  79        4PZ        -0.00043  -0.00004  -0.29796   0.09532   0.00018
  80        5S         10.75101  -0.00097  -0.01755  13.97336   0.00283
  81        5PX         0.00689   0.00114  -0.00131   0.00761  -1.31600
  82        5PY        -2.97438   0.00020  -0.21676  -3.14948  -0.00287
  83        5PZ         0.87391  -0.00013  -0.75206   0.92615   0.00315
  84        6D 0        0.00337  -0.00010  -0.00065  -0.00919   0.00001
  85        6D+1        0.00003   0.02611  -0.00001  -0.00001  -0.00263
  86        6D-1       -0.00051   0.00003   0.00119  -0.00666  -0.00003
  87        6D+2       -0.00745   0.00003  -0.00037  -0.00482  -0.00004
  88        6D-2       -0.00003   0.00767  -0.00000  -0.00003   0.00895
  89 5   C  1S          0.00613   0.00000  -0.00002   0.01325  -0.01070
  90        2S          0.01057   0.00000  -0.00003   0.02101  -0.01671
  91        2PX        -0.00267  -0.00017  -0.00005   0.03470   0.00405
  92        2PY        -0.01246  -0.02494   0.00047  -0.00239   0.00430
  93        2PZ         0.00366  -0.08483   0.00157   0.00057  -0.00129
  94        3S         -0.04584  -0.00001   0.00008  -0.04332   0.02667
  95        3PX        -0.00227  -0.00026  -0.00005   0.06563   0.00306
  96        3PY        -0.00626  -0.03641   0.00689  -0.01922   0.01592
  97        3PZ         0.00185  -0.12384   0.02336   0.00546  -0.00472
  98        4S         -0.00280  -0.00005   0.00033  -0.58163   0.44301
  99        4PX        -0.02598  -0.00045  -0.00002  -0.17058   0.03531
 100        4PY        -0.04428  -0.07557  -0.01201   0.08379  -0.15655
 101        4PZ         0.01303  -0.25715  -0.04068  -0.02457   0.04589
 102        5S         -4.61905   0.00317   0.00989  -8.49130   2.80713
 103        5PX        -1.44052  -0.00045   0.00598  -3.25717   0.98730
 104        5PY        -1.31378  -0.27304   0.34190  -0.09054  -2.83830
 105        5PZ         0.38953  -0.93199   1.16012   0.03362   0.83255
 106        6D 0        0.00086   0.01347   0.00114  -0.00763  -0.00057
 107        6D+1       -0.00110   0.00905  -0.01751  -0.00055  -0.00204
 108        6D-1        0.00222  -0.02424  -0.00191  -0.00397   0.00245
 109        6D+2        0.00546   0.00781   0.00057   0.00087   0.00865
 110        6D-2        0.00370   0.00261  -0.00515   0.00172   0.00687
 111 6   H  1S          0.00425   0.00000  -0.00000   0.00105   0.00437
 112        2S          0.01100   0.00003  -0.00005   0.06058   0.06250
 113        3S          0.00470  -0.00003   0.00018  -0.28077  -0.20665
 114        4PX         0.00572   0.00003  -0.00000   0.01176  -0.00259
 115        4PY        -0.00751   0.00509   0.00340   0.00009   0.00871
 116        4PZ         0.00220   0.01730   0.01156  -0.00004  -0.00255
 117 7   H  1S          0.02583   0.00000  -0.00003   0.00218   0.00000
 118        2S         -0.02688   0.00000  -0.00003   0.03123   0.00001
 119        3S          0.39252  -0.00001  -0.00035   0.27384   0.00005
 120        4PX         0.00003   0.00000  -0.00001   0.00001   0.01081
 121        4PY        -0.01459   0.00000  -0.00216  -0.00406   0.00002
 122        4PZ         0.00428  -0.00000  -0.00739   0.00120  -0.00002
 123 8   H  1S          0.00425   0.00001  -0.00001   0.00105  -0.00437
 124        2S          0.01100  -0.00001  -0.00007   0.06061  -0.06247
 125        3S          0.00468   0.00010   0.00018  -0.28085   0.20653
 126        4PX        -0.00569  -0.00003   0.00004  -0.01176  -0.00255
 127        4PY        -0.00753  -0.00509   0.00340   0.00005  -0.00872
 128        4PZ         0.00223  -0.01730   0.01156   0.00001   0.00256
                          26        27        28        29        30
                           V         V         V         V         V
     Eigenvalues --     0.07410   0.09500   0.10655   0.12439   0.12628
   1 1   N  1S          0.00001   0.00676   0.00000  -0.00000   0.01064
   2        2S          0.00002   0.01069   0.00000  -0.00000   0.01758
   3        2PX         0.00007  -0.01705  -0.00010   0.00002   0.00808
   4        2PY         0.01389   0.01189  -0.01611   0.00469   0.02319
   5        2PZ         0.04723  -0.00349  -0.05480   0.01594  -0.00685
   6        3S         -0.00006  -0.02537  -0.00001   0.00001  -0.05722
   7        3PX         0.00010  -0.02899  -0.00014   0.00001   0.01116
   8        3PY         0.02053   0.00718  -0.02178   0.00278   0.02998
   9        3PZ         0.06982  -0.00210  -0.07409   0.00946  -0.00886
  10        4S         -0.00010  -0.12496   0.00003  -0.00002  -0.15655
  11        4PX         0.00016  -0.02275  -0.00030   0.00009   0.06119
  12        4PY         0.03301   0.01992  -0.05022   0.01983   0.01270
  13        4PZ         0.11239  -0.00585  -0.17076   0.06756  -0.00388
  14        5S         -0.00152   0.03660  -0.00249   0.00077  -3.69061
  15        5PX         0.00043  -0.01756   0.00044  -0.00080   0.23011
  16        5PY         0.05760  -0.11848  -0.02260  -0.10965  -0.83617
  17        5PZ         0.19715   0.03452  -0.07510  -0.37245   0.24513
  18        6D 0        0.00503  -0.00688  -0.00289  -0.00635  -0.00140
  19        6D+1       -0.01299   0.00119  -0.00235   0.00250  -0.00071
  20        6D-1       -0.00895  -0.00452   0.00519   0.01139  -0.00017
  21        6D+2        0.00286  -0.00220  -0.00168  -0.00366   0.00191
  22        6D-2       -0.00384  -0.00409  -0.00068   0.00076   0.00238
  23 2   N  1S          0.00001   0.00676  -0.00000   0.00000  -0.01064
  24        2S          0.00002   0.01069  -0.00000   0.00001  -0.01758
  25        2PX         0.00011   0.01699   0.00009   0.00003   0.00819
  26        2PY         0.01389   0.01194   0.01611   0.00469  -0.02316
  27        2PZ         0.04722  -0.00356   0.05480   0.01594   0.00682
  28        3S         -0.00006  -0.02538   0.00001  -0.00002   0.05722
  29        3PX         0.00016   0.02895   0.00012   0.00001   0.01130
  30        3PY         0.02053   0.00728   0.02178   0.00279  -0.02994
  31        3PZ         0.06980  -0.00223   0.07408   0.00946   0.00881
  32        4S         -0.00010  -0.12497  -0.00003  -0.00006   0.15654
  33        4PX         0.00026   0.02265   0.00031   0.00013   0.06125
  34        4PY         0.03299   0.01999   0.05021   0.01984  -0.01249
  35        4PZ         0.11237  -0.00595   0.17076   0.06756   0.00362
  36        5S         -0.00180   0.03604   0.00255  -0.00096   3.69064
  37        5PX         0.00036   0.01804   0.00074  -0.00088   0.22620
  38        5PY         0.05747  -0.11853   0.02262  -0.10982   0.83688
  39        5PZ         0.19713   0.03446   0.07508  -0.37236  -0.24637
  40        6D 0        0.00493  -0.00687   0.00290  -0.00633   0.00140
  41        6D+1        0.01305  -0.00122  -0.00231  -0.00257  -0.00069
  42        6D-1       -0.00893  -0.00455  -0.00520   0.01138   0.00016
  43        6D+2        0.00289  -0.00223   0.00167  -0.00366  -0.00193
  44        6D-2        0.00382   0.00405  -0.00069  -0.00073   0.00237
  45 3   C  1S         -0.00001  -0.00979  -0.00000   0.00000   0.00178
  46        2S         -0.00002  -0.01525  -0.00000   0.00000   0.00334
  47        2PX        -0.00020  -0.01414   0.00018   0.00015   0.03277
  48        2PY        -0.03624   0.00169   0.03262   0.02450  -0.02493
  49        2PZ        -0.12334  -0.00041   0.11097   0.08339   0.00731
  50        3S          0.00005   0.02016  -0.00000  -0.00002  -0.03059
  51        3PX        -0.00026  -0.00025   0.00022   0.00016   0.05718
  52        3PY        -0.04979  -0.00493   0.04020   0.02885  -0.01865
  53        3PZ        -0.16947   0.00155   0.13673   0.09812   0.00544
  54        4S          0.00048   0.53756   0.00021   0.00027   0.22732
  55        4PX        -0.00092  -0.29262   0.00076   0.00062  -0.00304
  56        4PY        -0.12383   0.04415   0.13187   0.12580  -0.16293
  57        4PZ        -0.42113  -0.01224   0.44880   0.42845   0.04803
  58        5S          0.00362  -2.76734   0.00565  -0.00679  -3.68693
  59        5PX        -0.00310   0.50304  -0.00320   0.00051  -1.79416
  60        5PY        -0.24745  -1.47238  -0.36872  -0.23319  -3.49728
  61        5PZ        -0.83944   0.43272  -1.25788  -0.79197   1.03139
[...]
     11  0.265810D-01  0.111590D+00 -0.165276D+00  0.311901D-01 -0.872055D-03
     12  0.116740D-01 -0.322573D-01  0.311766D-01 -0.689349D-01 -0.546458D-03
     13 -0.101480D-01 -0.781741D-01  0.314629D-01 -0.916590D-02 -0.234319D+00
     14  0.622374D-01 -0.318580D-01  0.320140D-01 -0.610950D-02 -0.807161D-01
     15 -0.895768D-01  0.962752D-02 -0.622727D-02  0.132429D-01  0.238628D-01
     16  0.397676D-03 -0.324098D+00 -0.523647D-01  0.158960D-01 -0.861486D-02
     17  0.381802D-02 -0.476501D-01 -0.640094D-01  0.115096D-01  0.161484D-01
     18  0.728428D-02  0.145010D-01  0.115183D-01 -0.287748D-01 -0.472564D-02
     19  0.163824D-02  0.100212D-01  0.205030D-01 -0.604217D-02 -0.552478D-01
     20  0.263663D-02 -0.723126D-02 -0.555036D-02  0.493430D-03  0.644464D-03
     21  0.609977D-02  0.208861D-02  0.476076D-03 -0.401676D-02 -0.130237D-03
     22 -0.180237D-03 -0.280791D-02 -0.129977D-02  0.397356D-03 -0.858508D-02
     23 -0.189528D-02 -0.370194D-02 -0.388191D-02  0.246802D-02 -0.162241D-01
     24 -0.706368D-02  0.110088D-02  0.247011D-02  0.376625D-02  0.477956D-02
               11            12            13            14            15 
     11  0.773426D+00
     12 -0.198083D+00  0.159914D+00
     13 -0.111669D+00  0.329458D-01  0.822509D+00
     14 -0.165929D+00  0.316264D-01 -0.422859D-01  0.525379D+00
     15  0.317429D-01 -0.691609D-01  0.112058D-01 -0.118102D+00  0.159897D+00
     16 -0.972456D-02  0.286649D-02 -0.283097D-02  0.131464D-02 -0.375233D-03
     17  0.997913D-02 -0.303713D-02  0.371657D-02 -0.386537D-02  0.244958D-02
     18 -0.299474D-02  0.630512D-03 -0.107932D-02  0.245902D-02  0.377350D-02
     19  0.645069D-03 -0.128837D-03  0.100838D-01 -0.204481D-01  0.597574D-02
     20 -0.320424D+00  0.880730D-01  0.728618D-02 -0.559358D-02  0.480245D-03
     21  0.880264D-01 -0.464826D-01 -0.215381D-02  0.563450D-03 -0.403496D-02
     22  0.964835D-02 -0.281500D-02 -0.324562D+00  0.515458D-01 -0.145986D-01
     23  0.995670D-02 -0.297328D-02  0.468287D-01 -0.636673D-01  0.112563D-01
     24 -0.302160D-02  0.621517D-03 -0.132022D-01  0.112489D-01 -0.286428D-01
               16            17            18            19            20 
     16  0.341728D+00
     17  0.628622D-01  0.628740D-01
     18 -0.190119D-01 -0.123730D-01  0.250637D-01
     19  0.272600D-04 -0.108159D-02  0.313926D-03  0.441905D-01
     20  0.528602D-03 -0.221355D-03 -0.549479D-03 -0.701959D-03  0.336177D+00
     21 -0.159419D-03 -0.546280D-03 -0.192782D-02  0.162073D-03 -0.932158D-01
     22 -0.571318D-03  0.677948D-03 -0.197048D-03  0.245847D-04 -0.530177D-03
     23 -0.684401D-03  0.125842D-02 -0.642186D-04  0.107991D-02 -0.219407D-03
     24  0.204519D-03 -0.669649D-04  0.105621D-02 -0.321128D-03 -0.548321D-03
               21            22            23            24 
     21  0.461823D-01
     22  0.152576D-03  0.342314D+00
     23 -0.550692D-03 -0.619832D-01  0.624461D-01
     24 -0.192717D-02  0.176186D-01 -0.120398D-01  0.248975D-01
 Leave Link  716 at Fri Jun  2 11:12:52 2023, MaxMem=  7381975040 cpu:               0.1 elap:               1.2
 (Enter /software/commercial/gaussian/g16/AVX/g16/l103.exe)

 GradGradGradGradGradGradGradGradGradGradGradGradGradGradGradGradGradGrad
 Berny optimization.
 Search for a local minimum.
 Step number   1 out of a maximum of    2
 All quantities printed in internal units (Hartrees-Bohrs-Radians)
 Second derivative matrix not updated -- analytic derivatives used.
 ITU=  0
     Eigenvalues ---    0.02497   0.04283   0.04419   0.05787   0.06180
     Eigenvalues ---    0.12689   0.17721   0.22346   0.25149   0.26926
     Eigenvalues ---    0.30279   0.55638   0.63658   0.77031   0.82438
     Eigenvalues ---    1.01570   1.11587   1.20676
 Angle between quadratic step and forces=  48.40 degrees.
 Linear search not attempted -- first point.
 B after Tr=     0.000000   -0.000024    0.000007
         Rot=    1.000000    0.000000   -0.000000    0.000000 Ang=   0.00 deg.
 Variable       Old X    -DE/DX   Delta X   Delta X   Delta X     New X
                                 (Linear)    (Quad)   (Total)
    X1        1.30305   0.00007   0.00000   0.00012   0.00012   1.30317
    Y1       -1.69170  -0.00001   0.00000  -0.00003  -0.00006  -1.69176
    Z1        0.53793   0.00000   0.00000   0.00001   0.00002   0.53795
    X2       -1.28079  -0.00007   0.00000  -0.00012  -0.00012  -1.28091
    Y2       -1.69602  -0.00001   0.00000  -0.00004  -0.00006  -1.69608
    Z2        0.54392   0.00001   0.00000   0.00001   0.00002   0.54394
    X3        2.08058   0.00001   0.00000   0.00003   0.00003   2.08061
    Y3        0.63971   0.00000   0.00000  -0.00001  -0.00003   0.63968
    Z3       -0.14862  -0.00000   0.00000   0.00000   0.00001  -0.14861
    X4        0.00197  -0.00000   0.00000   0.00000   0.00000   0.00197
    Y4        2.21811  -0.00001   0.00000  -0.00004  -0.00006   2.21804
    Z4       -0.60905  -0.00000   0.00000   0.00001   0.00001  -0.60903
    X5       -2.06922  -0.00001   0.00000  -0.00003  -0.00003  -2.06925
    Y5        0.63279   0.00000   0.00000  -0.00001  -0.00003   0.63276
    Z5       -0.13910   0.00000   0.00000   0.00000   0.00001  -0.13909
    X6        4.07645   0.00000   0.00000   0.00001   0.00001   4.07646
    Y6        1.07498   0.00001   0.00000   0.00016   0.00014   1.07511
    Z6       -0.27997  -0.00000   0.00000  -0.00005  -0.00004  -0.28001
    X7       -0.00261  -0.00000   0.00000  -0.00000  -0.00000  -0.00261
    Y7        4.17678   0.00001   0.00000  -0.00001  -0.00003   4.17675
    Z7       -1.18425  -0.00000   0.00000   0.00001   0.00001  -1.18423
    X8       -4.06710  -0.00000   0.00000  -0.00001  -0.00001  -4.06711
    Y8        1.06137   0.00001   0.00000   0.00016   0.00014   1.06151
    Z8       -0.26148  -0.00000   0.00000  -0.00005  -0.00004  -0.26152
         Item               Value     Threshold  Converged?
 Maximum Force            0.000068     0.000450     YES
 RMS     Force            0.000020     0.000300     YES
 Maximum Displacement     0.000138     0.001800     YES
 RMS     Displacement     0.000060     0.001200     YES
 Predicted change in Energy=-1.000587D-08
 Optimization completed.
    -- Stationary point found.
 GradGradGradGradGradGradGradGradGradGradGradGradGradGradGradGradGradGrad

 Leave Link  103 at Fri Jun  2 11:12:56 2023, MaxMem=  7381975040 cpu:               1.5 elap:               2.6
 (Enter /software/commercial/gaussian/g16/AVX/g16/l9999.exe)

 ----------------------------------------------------------------------

 Electric dipole moment (input orientation):
 (Debye = 10**-18 statcoulomb cm , SI units = C m)
                  (au)            (Debye)         (10**-30 SI)
   Tot        0.194041D+01      0.493203D+01      0.164515D+02
   x         -0.115175D-01     -0.292746D-01     -0.976494D-01
   y          0.184961D+01      0.470123D+01      0.156816D+02
   z         -0.586520D+00     -0.149078D+01     -0.497272D+01

 Dipole polarizability, Alpha (input orientation).
 (esu units = cm**3 , SI units = C**2 m**2 J**-1)
 Alpha(0;0):
               (au)            (10**-24 esu)      (10**-40 SI)
   iso        0.756427D+02      0.112091D+02      0.124718D+02
   aniso      0.312074D+02      0.462446D+01      0.514541D+01
   xx         0.857297D+02      0.127038D+02      0.141349D+02
   yx        -0.167579D-01     -0.248326D-02     -0.276300D-02
   yy         0.838464D+02      0.124248D+02      0.138244D+02
   zx        -0.512794D-01     -0.759882D-02     -0.845483D-02
   zy        -0.853423D+01     -0.126464D+01     -0.140710D+01
   zz         0.573520D+02      0.849869D+01      0.945607D+01

 First dipole hyperpolarizability, Beta (input orientation).
 ||, _|_  parallel and perpendicular components, (z) with respect to z axis,
 vector components x,y,z.  Values do not include the 1/n! factor of 1/2.
 (esu units = statvolt**-1 cm**4 , SI units = C**3 m**3 J**-2)
 Beta(0;0,0):
               (au)            (10**-30 esu)      (10**-50 SI)
   || (z)    -0.168453D+02     -0.145531D+00     -0.540122D-01
   _|_(z)    -0.561511D+01     -0.485102D-01     -0.180041D-01
   x         -0.610397D+00     -0.527335D-02     -0.195715D-02
   y          0.284202D+03      0.245528D+01      0.911254D+00
   z         -0.842266D+02     -0.727653D+00     -0.270061D+00
   ||         0.592841D+02      0.512169D+00      0.190086D+00
   xxx        0.303395D+00      0.262110D-02      0.972796D-03
   xxy       -0.419257D+02     -0.362205D+00     -0.134429D+00
   yxy        0.118120D+00      0.102046D-02      0.378734D-03
   yyy       -0.688297D+01     -0.594635D-01     -0.220693D-01
   xxz        0.121585D+02      0.105040D+00      0.389847D-01
   yxz        0.229707D+00      0.198449D-02      0.736522D-03
   yyz        0.116234D+03      0.100417D+01      0.372687D+00
   zxz       -0.624981D+00     -0.539935D-02     -0.200391D-02
   zyz        0.143543D+03      0.124010D+01      0.460249D+00
   zzz       -0.156468D+03     -0.135176D+01     -0.501692D+00

 ----------------------------------------------------------------------

 Dipole orientation:
     7          1.29247497         -0.00702901         -1.78286729
     7         -1.29135658         -0.00020786         -1.77346337
     6          2.08418028         -0.06075470          0.64235284
     6          0.01522605         -0.08998027          2.29839150
     6         -2.06558425         -0.04970844          0.65750412
     1          4.08267226         -0.07579728          1.08510190
     1          0.02256712         -0.13377048          4.33930087
     1         -4.06083150         -0.05392896          1.11488500

 Electric dipole moment (dipole orientation):
 (Debye = 10**-18 statcoulomb cm , SI units = C m)
                  (au)            (Debye)         (10**-30 SI)
   Tot        0.194041D+01      0.493203D+01      0.164515D+02
   x          0.000000D+00      0.000000D+00      0.000000D+00
   y          0.000000D+00      0.000000D+00      0.000000D+00
   z          0.194041D+01      0.493203D+01      0.164515D+02

 Dipole polarizability, Alpha (dipole orientation).
 (esu units = cm**3 , SI units = C**2 m**2 J**-1)
 Alpha(0;0):
               (au)            (10**-24 esu)      (10**-40 SI)
   iso        0.756427D+02      0.112091D+02      0.124718D+02
   aniso      0.312074D+02      0.462446D+01      0.514541D+01
   xx         0.857295D+02      0.127038D+02      0.141349D+02
   yx        -0.841101D-01     -0.124638D-01     -0.138679D-01
   yy         0.548549D+02      0.812866D+01      0.904436D+01
   zx         0.305241D-03      0.452320D-04      0.503274D-04
   zy        -0.659479D+00     -0.977248D-01     -0.108733D+00
   zz         0.863436D+02      0.127948D+02      0.142361D+02

 First dipole hyperpolarizability, Beta (dipole orientation).
 ||, _|_  parallel and perpendicular components, (z) with respect to z axis,
 vector components x,y,z.  Values do not include the 1/n! factor of 1/2.
 (esu units = statvolt**-1 cm**4 , SI units = C**3 m**3 J**-2)
 Beta(0;0,0):
               (au)            (10**-30 esu)      (10**-50 SI)
   || (z)     0.592730D+02      0.512073D+00      0.190051D+00
   _|_(z)     0.197577D+02      0.170691D+00      0.633502D-01
   x          0.112430D+01      0.971311D-02      0.360492D-02
   y         -0.562435D+01     -0.485900D-01     -0.180337D-01
   z          0.296365D+03      0.256036D+01      0.950254D+00
   ||         0.592841D+02      0.512169D+00      0.190086D+00
   xxx       -0.459582D+00     -0.397043D-02     -0.147359D-02
   xxy        0.108717D+01      0.939233D-02      0.348587D-02
   yxy        0.710660D+00      0.613955D-02      0.227863D-02
   yyy       -0.129417D+02     -0.111806D+00     -0.414959D-01
   xxz       -0.436376D+02     -0.376995D+00     -0.139918D+00
   yxz        0.719652D+00      0.621723D-02      0.230746D-02
   yyz        0.202333D+03      0.174800D+01      0.648752D+00
   zxz        0.123690D+00      0.106858D-02      0.396594D-03
   zyz        0.997977D+01      0.862174D-01      0.319987D-01
   zzz       -0.599070D+02     -0.517550D+00     -0.192084D+00

 ----------------------------------------------------------------------
 Unable to Open any file for archive entry.
 1\1\GINC-NODE1957\Freq\RB3LYP\6-311+G(d,p)\C3H3N2(1-)\SVICCHI\02-Jun-2
 023\0\\#p freq=raman scale=0.967 pop=(nbo,full,hirshfeld) guess=read g
 eom=allcheck b3lyp/6-311+G(d,p) int=grid=ultrafine EmpiricalDispersion
 =GD3BJ SCRF=(Solvent=ethanol) scf=(xqc,intrep,maxconventionalcycle=350
 ) nosymm\\pyrazolide-isolated.gjf\\-1,1\N,0.6895459191,-0.8952080649,0
 .2846596838\N,-0.6777670826,-0.8974961595,0.2878305999\C,1.1009929283,
 0.3385224404,-0.0786466772\C,0.0010447173,1.173770653,-0.3222935819\C,
 -1.0949814692,0.3348573219,-0.0736076992\H,2.1571646439,0.568852439,-0
 .1481549658\H,-0.0013804541,2.2102566138,-0.6266764537\H,-2.1522192028
 ,0.5616547563,-0.1383709059\\Version=ES64L-G16RevC.01\HF=-225.793753\R
 MSD=9.370e-10\RMSF=2.039e-05\ZeroPoint=0.0551227\Thermal=0.058768\ETot
 =-225.7349849\HTot=-225.7340407\GTot=-225.7647888\Dipole=-0.0045874,1.
 9508287,-0.5731869\DipoleDeriv=-0.3632271,0.4217686,-0.1233271,0.32324
 28,-0.627561,0.0601745,-0.0952329,0.0603977,-0.436278,-0.3599145,-0.42
 06312,0.1228221,-0.3220777,-0.6305016,0.0623127,0.0948043,0.0632678,-0
 .4377786,0.0947342,-0.1761738,0.0519207,-0.3098637,0.2906289,-0.156815
 5,0.0914594,-0.1579443,-0.1993364,-0.1831298,0.0001829,-0.0004555,0.00
 01241,-0.3321236,-0.0213877,-0.0005112,-0.0199643,-0.4007572,0.0926171
 ,0.1748655,-0.05278,0.3085587,0.2922169,-0.1585244,-0.0921774,-0.15919
 31,-0.1983831,-0.1952402,-0.0786385,0.0240552,-0.0535618,0.080154,0.04
 40168,0.016059,0.0439604,0.2160924,0.1100405,0.0007156,0.0000867,0.000
 7447,-0.1533805,0.1265304,0.0000801,0.1258964,0.2402376,-0.1958802,0.0
 779109,-0.0223221,0.052833,0.0805669,0.0436932,-0.0144814,0.0435794,0.
 2162033\Polar=85.7296787,-0.0167579,83.8464055,-0.0512794,-8.5342261,5
 7.3520033\PolarDeriv=-2.1243773,-0.1393847,7.7975389,0.0446719,-3.2347
 703,-2.2476393,-10.4674503,5.4682398,-8.2368188,-0.9525451,-0.0090767,
 -2.8457241,3.0797357,-0.9900457,-0.5101648,2.4147372,-4.5097847,3.7435
 998,2.1659293,-0.0719619,-7.7733534,0.0204057,3.2152556,2.2743666,-10.
 4114794,-5.4759977,-8.3073057,0.9887684,0.0348393,-2.8441913,3.0409893
 ,0.983537,-0.4613537,-2.3988116,-4.5441807,3.7617526,0.4788232,0.98822
 01,7.6994139,-0.2947127,0.7358281,10.0685206,6.1707289,-9.0749725,-1.5
 228175,5.1380959,0.6491964,-1.7439721,-1.8161766,5.1595159,1.5959398,6
 .9272742,1.576369,-0.6799785,0.0418903,-10.2916793,-0.0297076,3.121398
 7,0.0358834,-0.0437903,2.7787943,-0.0052604,2.7349162,0.006563,4.49859
 67,7.239438,-0.7678065,0.031074,4.3326033,-0.0337294,6.7488233,-7.3242
 362,-0.5077753,0.9579606,-7.6808367,-0.3524832,-0.735811,-10.0621596,6
 .0615291,9.1073738,-1.4880967,-5.177311,0.5861461,-1.7290033,-1.842447
 2,-5.1716717,1.5953369,-6.918176,1.5820813,-0.560029,15.7374806,3.4726
 142,1.3383865,-1.0623028,-0.4893919,-0.1458222,2.3932774,2.25622,1.066
 773,-1.0302315,-0.3623653,0.2584166,-0.7149628,-1.0275431,-0.4788258,-
 0.8942376,-0.1554411,0.0880191,-0.0100097,1.6453755,-0.0304509,-0.4863
 961,0.0024082,0.0019019,1.1088019,-0.0324093,14.7060941,0.0086201,-5.0
 502313,1.4149076,-0.3309926,0.004181,-5.6070604,0.0043119,-0.5400238,0
 .8938491,-15.7819612,3.4388556,-1.3209906,-0.9905816,0.4705978,0.15462
 24,2.365798,-2.2431936,1.0472555,1.0180401,-0.3471051,0.2501285,-0.648
 3393,1.0109526,-0.4664754,0.8986315,-0.1578432,0.077023\HyperPolar=0.3
 033955,-41.925685,0.1181197,-6.8829655,12.1585488,0.2297066,116.233606
 9,-0.6249808,143.5425861,-156.4677014\Quadrupole=1.8354998,-2.5184651,
 0.6829653,0.0230174,-0.0084497,1.1264337\PG=C01 [X(C3H3N2)]\NImag=0\\0
 .41547145,-0.01702140,0.48003085,0.00457010,-0.10940848,0.14068163,-0.
 21924417,-0.03807965,0.01137702,0.41528439,0.03771631,-0.08253818,-0.0
 0042301,0.01624557,0.48014926,-0.01090011,-0.00029022,-0.08352919,-0.0
 0531676,-0.10950432,0.14072495,-0.10804921,-0.03432252,0.01002082,-0.0
 8381588,-0.02959166,0.00880084,0.82217815,-0.05381572,-0.28299394,0.06
 252096,-0.06789017,-0.03596269,0.01641675,0.04276520,0.52566070,0.0158
 0612,0.06247214,-0.08968631,0.02016752,0.01632772,0.01438668,-0.013882
 42,-0.11835150,0.16001693,0.00632179,0.05370649,-0.01577187,0.00653657
 ,-0.05332636,0.01570833,-0.23525424,0.08063930,-0.02317652,0.52916230,
 -0.00761145,-0.07078774,0.02655854,0.00799319,-0.07094510,0.02658101,0
 .11159023,-0.16527631,0.03119006,-0.00087206,0.77342636,0.00230109,0.0
 2648913,0.01173805,-0.00236581,0.02672777,0.01167403,-0.03225728,0.031
 17662,-0.06893489,-0.00054646,-0.19808258,0.15991431,-0.08427231,0.029
 50887,-0.00840235,-0.10843526,0.03515143,-0.01014799,-0.07817413,0.031
 46286,-0.00916590,-0.23431870,-0.11166877,0.03294581,0.82250912,0.0678
 0699,-0.03563715,0.01607667,0.05464066,-0.28270058,0.06223741,-0.03185
 799,0.03201395,-0.00610950,-0.08071614,-0.16592910,0.03162644,-0.04228
 585,0.52537917,-0.01976649,0.01613258,0.01450198,-0.01593157,0.0622680
 7,-0.08957684,0.00962752,-0.00622727,0.01324295,0.02386284,0.03174289,
 -0.06916090,0.01120576,-0.11810240,0.15989709,-0.00584392,-0.00062761,
 0.00018182,0.00020328,-0.00130418,0.00039768,-0.32409796,-0.05236471,0
 .01589602,-0.00861486,-0.00972456,0.00286649,-0.00283097,0.00131464,-0
 .00037523,0.34172850,-0.03086973,-0.00145877,-0.00175390,-0.00380375,-
 0.00455659,0.00381802,-0.04765006,-0.06400944,0.01150964,0.01614839,0.
 00997913,-0.00303713,0.00371657,-0.00386537,0.00244958,0.06286222,0.06
 287398,0.00907080,-0.00180686,-0.00710555,0.00112810,0.00381098,0.0072
 8428,0.01450105,0.01151826,-0.02877485,-0.00472564,-0.00299474,0.00063
 051,-0.00107932,0.00245902,0.00377350,-0.01901187,-0.01237296,0.025063
 72,-0.00456271,0.00549940,-0.00159785,-0.00453685,-0.00549574,0.001638
 24,0.01002118,0.02050301,-0.00604217,-0.05524777,0.00064507,-0.0001288
 4,0.01008381,-0.02044810,0.00597574,0.00002726,-0.00108159,0.00031393,
 0.04419049,-0.00004262,-0.00207497,0.00263025,0.00004677,-0.00209361,0
 .00263663,-0.00723126,-0.00555036,0.00049343,0.00064446,-0.32042394,0.
 08807303,0.00728618,-0.00559358,0.00048024,0.00052860,-0.00022136,-0.0
 0054948,-0.00070196,0.33617722,0.00002856,0.00261088,0.00610723,0.0000
 1164,0.00263592,0.00609977,0.00208861,0.00047608,-0.00401676,-0.000130
 24,0.08802643,-0.04648263,-0.00215381,0.00056345,-0.00403496,-0.000159
 42,-0.00054628,-0.00192782,0.00016207,-0.09321578,0.04618235,0.0001790
 8,0.00133642,-0.00037768,-0.00599207,0.00060463,-0.00018024,-0.0028079
 1,-0.00129977,0.00039736,-0.00858508,0.00964835,-0.00281500,-0.3245615
 8,0.05154579,-0.01459856,-0.00057132,0.00067795,-0.00019705,0.00002458
 ,-0.00053018,0.00015258,0.34231429,0.00383762,-0.00454010,0.00379899,0
 .03084740,-0.00135250,-0.00189528,-0.00370194,-0.00388191,0.00246802,-
 0.01622409,0.00995670,-0.00297328,0.04682870,-0.06366734,0.01125630,-0
 .00068440,0.00125842,-0.00006422,0.00107991,-0.00021941,-0.00055069,-0
 .06198319,0.06244613,-0.00111007,0.00380082,0.00729216,-0.00907015,-0.
 00184311,-0.00706368,0.00110088,0.00247011,0.00376625,0.00477956,-0.00
 302160,0.00062152,-0.01320220,0.01124891,-0.02864281,0.00020452,-0.000
 06696,0.00105621,-0.00032113,-0.00054832,-0.00192717,0.01761859,-0.012
 03985,0.02489753\\-0.00006797,0.00000897,-0.00000485,0.00006588,0.0000
 0963,-0.00000839,-0.00001406,-0.00000342,0.00000367,0.00000086,0.00000
 946,0.00000096,0.00001431,-0.00000277,-0.00000124,-0.00000322,-0.00000
 723,0.00000438,0.00000075,-0.00000788,0.00000477,0.00000345,-0.0000067
 6,0.00000070\\\@
 The archive entry for this job was punched.


 REPARTEE - WHAT YOU THINK OF AFTER YOU BECOME A DEPARTEE.
 Job cpu time:       0 days  0 hours  7 minutes 14.6 seconds.
 Elapsed time:       0 days  0 hours  4 minutes 24.1 seconds.
 File lengths (MBytes):  RWF=     69 Int=      0 D2E=      0 Chk=      9 Scr=      1
 Normal termination of Gaussian 16 at Fri Jun  2 11:13:01 2023.
