 Entering Gaussian System, Link 0=g16
 Input=PDA-isolated-freq.gjf
 Output=PDA-isolated-freq.log
 Initial command:
 /software/commercial/gaussian/g16/AVX/g16/l1.exe "/scratch1/svicchi/G09-659895.pbs02/Gau-2801431.inp" -scrdir="/scratch1/svicchi/G09-659895.pbs02/"
 Entering Link 1 = /software/commercial/gaussian/g16/AVX/g16/l1.exe PID=   2801432.
  
 Copyright (c) 1988-2019, Gaussian, Inc.  All Rights Reserved.
  
 This is part of the Gaussian(R) 16 program.  It is based on
 the Gaussian(R) 09 system (copyright 2009, Gaussian, Inc.),
 the Gaussian(R) 03 system (copyright 2003, Gaussian, Inc.),
 the Gaussian(R) 98 system (copyright 1998, Gaussian, Inc.),
 the Gaussian(R) 94 system (copyright 1995, Gaussian, Inc.),
 the Gaussian 92(TM) system (copyright 1992, Gaussian, Inc.),
 the Gaussian 90(TM) system (copyright 1990, Gaussian, Inc.),
 the Gaussian 88(TM) system (copyright 1988, Gaussian, Inc.),
 the Gaussian 86(TM) system (copyright 1986, Carnegie Mellon
 University), and the Gaussian 82(TM) system (copyright 1983,
 Carnegie Mellon University). Gaussian is a federally registered
 trademark of Gaussian, Inc.
  
 This software contains proprietary and confidential information,
 including trade secrets, belonging to Gaussian, Inc.
  
 This software is provided under written license and may be
 used, copied, transmitted, or stored only in accord with that
 written license.
  
 The following legend is applicable only to US Government
 contracts under FAR:
  
                    RESTRICTED RIGHTS LEGEND
  
 Use, reproduction and disclosure by the US Government is
 subject to restrictions as set forth in subparagraphs (a)
 and (c) of the Commercial Computer Software - Restricted
 Rights clause in FAR 52.227-19.
  
 Gaussian, Inc.
 340 Quinnipiac St., Bldg. 40, Wallingford CT 06492
  
  
 ---------------------------------------------------------------
 Warning -- This program may not be used in any manner that
 competes with the business of Gaussian, Inc. or will provide
 assistance to any competitor of Gaussian, Inc.  The licensee
 of this program is prohibited from giving any competitor of
 Gaussian, Inc. access to this program.  By using this program,
 the user acknowledges that Gaussian, Inc. is engaged in the
 business of creating and licensing software in the field of
 computational chemistry and represents and warrants to the
 licensee that it is not a competitor of Gaussian, Inc. and that
 it will not use this program in any manner prohibited above.
 ---------------------------------------------------------------
  

 Cite this work as:
 Gaussian 16, Revision C.01,
 M. J. Frisch, G. W. Trucks, H. B. Schlegel, G. E. Scuseria, 
 M. A. Robb, J. R. Cheeseman, G. Scalmani, V. Barone, 
 G. A. Petersson, H. Nakatsuji, X. Li, M. Caricato, A. V. Marenich, 
 J. Bloino, B. G. Janesko, R. Gomperts, B. Mennucci, H. P. Hratchian, 
 J. V. Ortiz, A. F. Izmaylov, J. L. Sonnenberg, D. Williams-Young, 
 F. Ding, F. Lipparini, F. Egidi, J. Goings, B. Peng, A. Petrone, 
 T. Henderson, D. Ranasinghe, V. G. Zakrzewski, J. Gao, N. Rega, 
 G. Zheng, W. Liang, M. Hada, M. Ehara, K. Toyota, R. Fukuda, 
 J. Hasegawa, M. Ishida, T. Nakajima, Y. Honda, O. Kitao, H. Nakai, 
 T. Vreven, K. Throssell, J. A. Montgomery, Jr., J. E. Peralta, 
 F. Ogliaro, M. J. Bearpark, J. J. Heyd, E. N. Brothers, K. N. Kudin, 
 V. N. Staroverov, T. A. Keith, R. Kobayashi, J. Normand, 
 K. Raghavachari, A. P. Rendell, J. C. Burant, S. S. Iyengar, 
 J. Tomasi, M. Cossi, J. M. Millam, M. Klene, C. Adamo, R. Cammi, 
 J. W. Ochterski, R. L. Martin, K. Morokuma, O. Farkas, 
 J. B. Foresman, and D. J. Fox, Gaussian, Inc., Wallingford CT, 2019.
 
 ******************************************
 Gaussian 16:  ES64L-G16RevC.01  3-Jul-2019
                 2-Jun-2023 
 ******************************************
 %NProcShared=2
 Will use up to    2 processors via shared memory.
 %mem=55gb
 %chk=/scratch1/svicchi/G09-659895.pbs02/02-freq/PDA-isolated-freq.chk
 ----------------------------------------------------------------------
 #p freq=raman scale=0.967 pop=(nbo,full,hirshfeld) guess=read geom=all
 check b3lyp/6-311+G(d,p) int=grid=ultrafine EmpiricalDispersion=GD3BJ 
 SCRF=(Solvent=ethanol) scf=(xqc,intrep,maxconventionalcycle=350) nosym
 m
 ----------------------------------------------------------------------
 1/10=4,29=7,30=1,38=1,114=967000/1,3;
 2/12=2,15=1,40=1/2;
 3/5=4,6=6,7=111,11=2,14=-4,25=1,30=1,70=2201,71=2,72=4,74=-5,75=-5,116=-2,124=41,140=1/1,2,3;
 4/5=1/1;
 5/5=2,8=3,13=1,17=20,38=6,53=4,85=350,98=1/2,8;
 8/6=4,10=90,11=11/1;
 10/13=10,15=4,31=1/2;
 11/6=3,8=1,9=11,15=111,16=1,31=1/1,2,10;
 10/6=1,31=1/2;
 6/7=3,28=1,40=1,79=1/1,7;
 7/8=1,10=1,25=1,30=1/1,2,3,16;
 1/10=4,30=1/3;
 99//99;
 Leave Link    1 at Fri Jun  2 11:39:52 2023, MaxMem=  7381975040 cpu:               0.6 elap:               0.7
 (Enter /software/commercial/gaussian/g16/AVX/g16/l101.exe)
 Structure from the checkpoint file:  "/scratch1/svicchi/G09-659895.pbs02/02-freq/PDA-isolated-freq.chk"
 ----------------
 PDA-isolated.gjf
 ----------------
 Charge =  0 Multiplicity = 1
 No Z-Matrix found in chk file; cartesian coordinates used.
  C                                                -3.422599879289      0.803804729469      0.104753474899
  C                                                -2.131991645742      1.615879070443      0.043929295990
  C                                                -0.880929701855      0.741772771696     -0.064473816286
  H                                                -2.060370289198      2.242260862164      0.942422496554
  H                                                -2.182791109860      2.300205691052     -0.810473486544
  N                                                -4.597998835999      1.685610663199      0.203273656438
  H                                                -3.357220034660      0.088802032520      0.939042921910
  H                                                -3.523938441570      0.212922555188     -0.811257824317
  H                                                -4.575743836993      2.189910254174      1.085794235493
  H                                                -5.449802787195      1.132552688320      0.216099623675
  C                                                 0.414227151574      1.554004644187     -0.125603244313
  H                                                -0.957324155564      0.110337406648     -0.958305096149
  H                                                -0.838964385076      0.058363790505      0.792660969994
  C                                                 1.660987245882      0.680517436255     -0.232357322409
  N                                                 2.880879211309      1.504220207555     -0.280679501986
  H                                                 1.561029128541      0.018230021776     -1.105816562084
  H                                                 1.728761406223      0.034286244917      0.648731954634
  H                                                 0.498951459678      2.186259411313      0.765427601022
  H                                                 0.377157111101      2.232124201669     -0.987904304953
  H                                                 2.886532721366      2.059554368178     -1.132289495748
  H                                                 3.702803667327      0.909269948774     -0.326733575819
 Recover connectivity data from disk.
 ITRead=  0  0  0  0  0  0  0  0  0  0  0  0  0  0  0  0  0  0  0  0
 ITRead=  0
 MicOpt= -1 -1 -1 -1 -1 -1 -1 -1 -1 -1 -1 -1 -1 -1 -1 -1 -1 -1 -1 -1
 MicOpt= -1
 NAtoms=     21 NQM=       21 NQMF=       0 NMMI=      0 NMMIF=      0
                NMic=       0 NMicF=      0.
                    Isotopes and Nuclear Properties:
 (Nuclear quadrupole moments (NQMom) in fm**2, nuclear magnetic moments (NMagM)
  in nuclear magnetons)

  Atom         1           2           3           4           5           6           7           8           9          10
 IAtWgt=          12          12          12           1           1          14           1           1           1           1
 AtmWgt=  12.0000000  12.0000000  12.0000000   1.0078250   1.0078250  14.0030740   1.0078250   1.0078250   1.0078250   1.0078250
 NucSpn=           0           0           0           1           1           2           1           1           1           1
 AtZEff=   3.6000000   3.6000000   3.6000000   1.0000000   1.0000000   4.5500000   1.0000000   1.0000000   1.0000000   1.0000000
 NQMom=    0.0000000   0.0000000   0.0000000   0.0000000   0.0000000   2.0440000   0.0000000   0.0000000   0.0000000   0.0000000
 NMagM=    0.0000000   0.0000000   0.0000000   2.7928460   2.7928460   0.4037610   2.7928460   2.7928460   2.7928460   2.7928460
 AtZNuc=   6.0000000   6.0000000   6.0000000   1.0000000   1.0000000   7.0000000   1.0000000   1.0000000   1.0000000   1.0000000

  Atom        11          12          13          14          15          16          17          18          19          20
 IAtWgt=          12           1           1          12          14           1           1           1           1           1
 AtmWgt=  12.0000000   1.0078250   1.0078250  12.0000000  14.0030740   1.0078250   1.0078250   1.0078250   1.0078250   1.0078250
 NucSpn=           0           1           1           0           2           1           1           1           1           1
 AtZEff=   3.6000000   1.0000000   1.0000000   3.6000000   4.5500000   1.0000000   1.0000000   1.0000000   1.0000000   1.0000000
 NQMom=    0.0000000   0.0000000   0.0000000   0.0000000   2.0440000   0.0000000   0.0000000   0.0000000   0.0000000   0.0000000
 NMagM=    0.0000000   2.7928460   2.7928460   0.0000000   0.4037610   2.7928460   2.7928460   2.7928460   2.7928460   2.7928460
 AtZNuc=   6.0000000   1.0000000   1.0000000   6.0000000   7.0000000   1.0000000   1.0000000   1.0000000   1.0000000   1.0000000

  Atom        21
 IAtWgt=           1
 AtmWgt=   1.0078250
 NucSpn=           1
 AtZEff=   1.0000000
 NQMom=    0.0000000
 NMagM=    2.7928460
 AtZNuc=   1.0000000
 Leave Link  101 at Fri Jun  2 11:39:54 2023, MaxMem=  7381975040 cpu:               0.2 elap:               0.6
 (Enter /software/commercial/gaussian/g16/AVX/g16/l103.exe)

 GradGradGradGradGradGradGradGradGradGradGradGradGradGradGradGradGradGrad
 Berny optimization.
 Initialization pass.
 Trust Radius=3.00D-01 FncErr=1.00D-07 GrdErr=1.00D-07 EigMax=2.50D+02 EigMin=1.00D-04
 Number of steps in this run=      2 maximum allowed number of steps=      2.
 GradGradGradGradGradGradGradGradGradGradGradGradGradGradGradGradGradGrad

 Leave Link  103 at Fri Jun  2 11:39:55 2023, MaxMem=  7381975040 cpu:               0.2 elap:               0.8
 (Enter /software/commercial/gaussian/g16/AVX/g16/l202.exe)
                          Input orientation:                          
 ---------------------------------------------------------------------
 Center     Atomic      Atomic             Coordinates (Angstroms)
 Number     Number       Type             X           Y           Z
 ---------------------------------------------------------------------
      1          6           0       -3.422600    0.803805    0.104753
      2          6           0       -2.131992    1.615879    0.043929
      3          6           0       -0.880930    0.741773   -0.064474
      4          1           0       -2.060370    2.242261    0.942422
      5          1           0       -2.182791    2.300206   -0.810473
      6          7           0       -4.597999    1.685611    0.203274
      7          1           0       -3.357220    0.088802    0.939043
      8          1           0       -3.523938    0.212923   -0.811258
      9          1           0       -4.575744    2.189910    1.085794
     10          1           0       -5.449803    1.132553    0.216100
     11          6           0        0.414227    1.554005   -0.125603
     12          1           0       -0.957324    0.110337   -0.958305
     13          1           0       -0.838964    0.058364    0.792661
     14          6           0        1.660987    0.680517   -0.232357
     15          7           0        2.880879    1.504220   -0.280680
     16          1           0        1.561029    0.018230   -1.105817
     17          1           0        1.728761    0.034286    0.648732
     18          1           0        0.498951    2.186259    0.765428
     19          1           0        0.377157    2.232124   -0.987904
     20          1           0        2.886533    2.059554   -1.132289
     21          1           0        3.702804    0.909270   -0.326734
 ---------------------------------------------------------------------
                    Distance matrix (angstroms):
                    1          2          3          4          5
     1  C    0.000000
     2  C    1.526052   0.000000
     3  C    2.548053   1.530023   0.000000
     4  H    2.150933   1.097622   2.157866   0.000000
     5  H    2.148018   1.095850   2.163347   1.758121   0.000000
     6  N    1.472702   2.472134   3.844362   2.701066   2.690472
     7  H    1.100701   2.152760   2.750533   2.513805   3.054570
     8  H    1.094755   2.153404   2.796938   3.055428   2.481013
     9  H    2.052674   2.717889   4.131812   2.520000   3.055195
    10  H    2.056702   3.357249   4.594130   3.639677   3.618098
    11  C    3.916262   2.552606   1.529996   2.781728   2.787538
    12  H    2.772828   2.156612   1.097033   3.061793   2.513791
    13  H    2.775621   2.158326   1.097036   2.506724   3.066230
    14  C    5.096244   3.916366   2.548191   4.203291   4.210967
    15  N    6.353974   5.024611   3.844383   5.143601   5.153157
    16  H    5.188368   4.184830   2.751558   4.717640   4.394409
    17  H    5.236850   4.215760   2.796370   4.395330   4.750149
    18  H    4.210254   2.787069   2.163181   2.566046   3.112586
    19  H    4.203826   2.782133   2.157928   3.109309   2.566993
    20  H    6.550751   5.173580   4.131652   5.367463   5.085226
    21  H    7.139235   5.889102   4.594284   6.049942   6.067037
                    6          7          8          9         10
     6  N    0.000000
     7  H    2.151903   0.000000
     8  H    2.086070   1.762599   0.000000
     9  H    1.016689   2.433309   2.934890   0.000000
    10  H    1.015681   2.447645   2.368573   1.624301   0.000000
    11  C    5.024728   4.183791   4.216369   5.174135   5.889077
    12  H    4.133432   3.059394   2.572869   4.647142   4.754631
    13  H    4.138315   2.522690   3.131378   4.311953   4.769291
    14  C    6.354124   5.186975   5.238055   6.550771   7.139243
    15  N    7.496715   6.511913   6.555200   7.611744   8.353753
    16  H    6.513640   5.326876   5.097212   6.868722   7.220868
    17  H    6.553869   5.094552   5.454754   6.677164   7.274967
    18  H    5.152239   4.393123   4.750120   5.084799   6.066279
    19  H    5.144877   4.717259   4.396240   5.369659   6.050797
    20  H    7.611950   6.867222   6.678866   7.786043   8.495409
    21  H    8.353857   7.219369   7.276363   8.495271   9.171408
                   11         12         13         14         15
    11  C    0.000000
    12  H    2.158407   0.000000
    13  H    2.156534   1.755731   0.000000
    14  C    1.526036   2.776267   2.772633   0.000000
    15  N    2.472023   4.139310   4.132771   1.472738   0.000000
    16  H    2.152807   2.524351   3.060359   1.100703   2.151981
    17  H    2.153402   3.131039   2.571869   1.094772   2.086118
    18  H    1.095838   3.066178   2.513702   2.147827   2.689442
    19  H    1.097626   2.506730   3.061797   2.150943   2.701599
    20  H    2.716853   4.313346   4.646453   2.052701   1.016694
    21  H    3.357212   4.770112   4.754444   2.056757   1.015700
                   16         17         18         19         20
    16  H    0.000000
    17  H    1.762621   0.000000
    18  H    3.054491   2.481338   0.000000
    19  H    2.513321   3.055471   1.758155   0.000000
    20  H    2.434064   2.934993   3.052528   2.519443   0.000000
    21  H    2.447064   2.369382   3.617760   3.639645   1.624307
                   21
    21  H    0.000000
 Symmetry turned off by external request.
 Stoichiometry    C5H14N2
 Framework group  C1[X(C5H14N2)]
 Deg. of freedom    57
 Full point group                 C1      NOp   1
 Rotational constants (GHZ):          13.1840027           0.7199634           0.7001739
 Leave Link  202 at Fri Jun  2 11:39:56 2023, MaxMem=  7381975040 cpu:               0.0 elap:               0.3
 (Enter /software/commercial/gaussian/g16/AVX/g16/l301.exe)
 Standard basis: 6-311+G(d,p) (5D, 7F)
 Ernie: Thresh=  0.10000D-02 Tol=  0.10000D-05 Strict=F.
   238 basis functions,   364 primitive gaussians,   245 cartesian basis functions
    29 alpha electrons       29 beta electrons
       nuclear repulsion energy       309.0209835463 Hartrees.
 IExCor=  402 DFT=T Ex+Corr=B3LYP ExCW=0 ScaHFX=  0.200000
 ScaDFX=  0.800000  0.720000  1.000000  0.810000 ScalE2=  1.000000  1.000000
 IRadAn=      5 IRanWt=     -1 IRanGd=            0 ICorTp=0 IEmpDi=141
 NAtoms=   21 NActive=   21 NUniq=   21 SFac= 1.00D+00 NAtFMM=   60 NAOKFM=F Big=F
 Integral buffers will be    131072 words long.
 Raffenetti 2 integral format.
 Two-electron integral symmetry is turned off.
 R6Disp:  Grimme-D3(BJ) Dispersion energy=       -0.0261176711 Hartrees.
 Nuclear repulsion after empirical dispersion term =      308.9948658752 Hartrees.
 Force inversion solution in PCM.
 ------------------------------------------------------------------------------
 Polarizable Continuum Model (PCM)
 =================================
 Model                : PCM.
 Atomic radii         : UFF (Universal Force Field).
 Polarization charges : Total charges.
 Charge compensation  : None.
 Solution method      : Matrix inversion.
 Cavity type          : Scaled VdW (van der Waals Surface) (Alpha=1.100).
 Cavity algorithm     : GePol (No added spheres)
                        Default sphere list used, NSphG=   21.
                        Lebedev-Laikov grids with approx.  5.0 points / Ang**2.
                        Smoothing algorithm: York/Karplus (Gamma=1.0000).
                        Polarization charges: spherical gaussians, with
                                              point-specific exponents (IZeta= 3).
                        Self-potential: point-specific (ISelfS= 7).
                        Self-field    : sphere-specific E.n sum rule (ISelfD= 2).
 1st derivatives      : Analytical E(r).r(x)/FMM algorithm (CHGder, D1EAlg=3).
                        Cavity 1st derivative terms included.
 2nd derivatives      : Analytical E(r).r(xy)/FMM algorithm (CHGder, D2EAlg=3).
                        Cavity 2nd derivative terms included.
 Solvent              : Ethanol, Eps=  24.852000 Eps(inf)=   1.852593
 ------------------------------------------------------------------------------
 GePol: Number of generator spheres                  =      21
 GePol: Total number of spheres                      =      21
 GePol: Number of exposed spheres                    =      21 (100.00%)
 GePol: Number of points                             =    1554
 GePol: Average weight of points                     =       0.13
 GePol: Minimum weight of points                     =   0.10D-08
 GePol: Maximum weight of points                     =    0.20577
 GePol: Number of points with low weight             =     106
 GePol: Fraction of low-weight points (<1% of avg)   =       6.82%
 GePol: Cavity surface area                          =    204.957 Ang**2
 GePol: Cavity volume                                =    193.137 Ang**3
 Leave Link  301 at Fri Jun  2 11:39:58 2023, MaxMem=  7381975040 cpu:               0.2 elap:               0.5
 (Enter /software/commercial/gaussian/g16/AVX/g16/l302.exe)
 NPDir=0 NMtPBC=     1 NCelOv=     1 NCel=       1 NClECP=     1 NCelD=      1
         NCelK=      1 NCelE2=     1 NClLst=     1 CellRange=     0.0.
 One-electron integrals computed using PRISM.
 NBasis=   238 RedAO= T EigKep=  9.51D-06  NBF=   238
 NBsUse=   238 1.00D-06 EigRej= -1.00D+00 NBFU=   238
 Precomputing XC quadrature grid using
 IXCGrd= 4 IRadAn=           5 IRanWt=          -1 IRanGd=           0 AccXCQ= 0.00D+00.
 Generated NRdTot=       0 NPtTot=           0 NUsed=           0 NTot=          32
 NSgBfM=   245   245   245   245   245 MxSgAt=    21 MxSgA2=    21.
 Leave Link  302 at Fri Jun  2 11:39:59 2023, MaxMem=  7381975040 cpu:               0.9 elap:               0.6
 (Enter /software/commercial/gaussian/g16/AVX/g16/l303.exe)
 DipDrv:  MaxL=1.
 Leave Link  303 at Fri Jun  2 11:40:00 2023, MaxMem=  7381975040 cpu:               0.3 elap:               0.5
 (Enter /software/commercial/gaussian/g16/AVX/g16/l401.exe)
 Initial guess from the checkpoint file:  "/scratch1/svicchi/G09-659895.pbs02/02-freq/PDA-isolated-freq.chk"
 B after Tr=     0.000000    0.000000    0.000000
         Rot=    1.000000    0.000000    0.000000    0.000000 Ang=   0.00 deg.
 Guess basis will be translated and rotated to current coordinates.
 JPrj=2 DoOrth=T DoCkMO=T.
 Leave Link  401 at Fri Jun  2 11:40:02 2023, MaxMem=  7381975040 cpu:               0.9 elap:               0.9
 (Enter /software/commercial/gaussian/g16/AVX/g16/l502.exe)
 Keep R1 ints in memory in canonical form, NReq=411904245.
 FoFCou: FMM=F IPFlag=           0 FMFlag=           0 FMFlg1=           0
         NFxFlg=           0 DoJE=F BraDBF=F KetDBF=F FulRan=T
         wScrn=  0.000000 ICntrl=       600 IOpCl=  0 I1Cent=           0 NGrid=           0
         NMat0=    1 NMatS0=  28441 NMatT0=    0 NMatD0=    1 NMtDS0=    0 NMtDT0=    0
 Symmetry not used in FoFCou.
 Two-electron integral symmetry not used.
 Closed shell SCF:
 Using DIIS extrapolation, IDIIS=  1040.
 NGot=  7381975040 LenX=  6977391534 LenY=  6977331068
 Requested convergence on RMS density matrix=1.00D-08 within 350 cycles.
 Requested convergence on MAX density matrix=1.00D-06.
 Requested convergence on             energy=1.00D-06.
 No special actions if energy rises.

 Cycle   1  Pass 1  IDiag  1:
 Inv3:  Mode=1 IEnd=     7244748.
 Iteration    1 A*A^-1 deviation from unit magnitude is 4.44D-15 for   1551.
 Iteration    1 A*A^-1 deviation from orthogonality  is 2.63D-15 for   1549    912.
 Iteration    1 A^-1*A deviation from unit magnitude is 4.44D-15 for   1551.
 Iteration    1 A^-1*A deviation from orthogonality  is 3.48D-15 for   1262   1209.
 E= -308.593506658318    
 DIIS: error= 7.49D-09 at cycle   1 NSaved=   1.
 NSaved= 1 IEnMin= 1 EnMin= -308.593506658318     IErMin= 1 ErrMin= 7.49D-09
 ErrMax= 7.49D-09  0.00D+00 EMaxC= 1.00D-01 BMatC= 4.53D-15 BMatP= 4.53D-15
 IDIUse=1 WtCom= 1.00D+00 WtEn= 0.00D+00
 Coeff-Com:  0.100D+01
 Coeff:      0.100D+01
 Gap=     0.253 Goal=   None    Shift=    0.000
 RMSDP=1.96D-09 MaxDP=1.47D-07              OVMax= 3.12D-08

 Error on total polarization charges =  0.01704
 SCF Done:  E(RB3LYP) =  -308.593506658     A.U. after    1 cycles
            NFock=  1  Conv=0.20D-08     -V/T= 2.0049
 KE= 3.070994454489D+02 PE=-1.334666993246D+03 EE= 4.099791752632D+02
 Leave Link  502 at Fri Jun  2 11:40:27 2023, MaxMem=  7381975040 cpu:              42.9 elap:              23.6
 (Enter /software/commercial/gaussian/g16/AVX/g16/l508.exe)
 QCSCF skips out because SCF is already converged.
 Leave Link  508 at Fri Jun  2 11:40:29 2023, MaxMem=  7381975040 cpu:               0.0 elap:               0.8
 (Enter /software/commercial/gaussian/g16/AVX/g16/l801.exe)
 DoSCS=F DFT=T ScalE2(SS,OS)=  1.000000  1.000000
 Range of M.O.s used for correlation:     1   238
 NBasis=   238 NAE=    29 NBE=    29 NFC=     0 NFV=     0
 NROrb=    238 NOA=    29 NOB=    29 NVA=   209 NVB=   209

 **** Warning!!: The largest alpha MO coefficient is  0.89642714D+02

 Leave Link  801 at Fri Jun  2 11:40:31 2023, MaxMem=  7381975040 cpu:               0.2 elap:               0.9
 (Enter /software/commercial/gaussian/g16/AVX/g16/l1002.exe)
 Minotr:  Closed shell wavefunction.
 NEqPCM:  Using equilibrium solvation (IEInf=0, Eps=  24.8520, EpsInf=   1.8526)
          Direct CPHF calculation.
          Differentiating once with respect to electric field.
                with respect to dipole field.
          Electric field/nuclear overlap derivatives assumed to be zero.
          Requested convergence is 1.0D-08 RMS, and 1.0D-07 maximum.
          Secondary convergence is 1.0D-12 RMS, and 1.0D-12 maximum.
          NewPWx=F KeepS1=T KeepF1=T KeepIn=T MapXYZ=F SortEE=F KeepMc=T.
         6476 words used for storage of precomputed grid.
 Keep R1 ints in memory in canonical form, NReq=411912920.
 FoFCou: FMM=F IPFlag=           0 FMFlag=           0 FMFlg1=           0
         NFxFlg=           0 DoJE=F BraDBF=F KetDBF=F FulRan=T
         wScrn=  0.000000 ICntrl=       600 IOpCl=  0 I1Cent=           0 NGrid=           0
         NMat0=    1 NMatS0=  28441 NMatT0=    0 NMatD0=    1 NMtDS0=    0 NMtDT0=    0
 Symmetry not used in FoFCou.
 Two-electron integral symmetry not used.
          MDV=    7381975040 using IRadAn=       1.
          Solving linear equations simultaneously, MaxMat=       0.
          There are     3 degrees of freedom in the 1st order CPHF.  IDoFFX=0 NUNeed=     3.
      3 vectors produced by pass  0 Test12= 2.02D-13 3.33D-08 XBig12= 5.11D+01 2.25D+00.
 AX will form     3 AO Fock derivatives at one time.
      3 vectors produced by pass  1 Test12= 2.02D-13 3.33D-08 XBig12= 4.47D+00 4.59D-01.
      3 vectors produced by pass  2 Test12= 2.02D-13 3.33D-08 XBig12= 1.06D+00 1.28D-01.
      3 vectors produced by pass  3 Test12= 2.02D-13 3.33D-08 XBig12= 1.27D-01 5.81D-02.
      3 vectors produced by pass  4 Test12= 2.02D-13 3.33D-08 XBig12= 3.96D-02 2.88D-02.
      3 vectors produced by pass  5 Test12= 2.02D-13 3.33D-08 XBig12= 3.04D-03 9.91D-03.
      3 vectors produced by pass  6 Test12= 2.02D-13 3.33D-08 XBig12= 2.54D-04 3.31D-03.
      3 vectors produced by pass  7 Test12= 2.02D-13 3.33D-08 XBig12= 7.71D-05 1.94D-03.
      3 vectors produced by pass  8 Test12= 2.02D-13 3.33D-08 XBig12= 3.94D-06 3.23D-04.
      3 vectors produced by pass  9 Test12= 2.02D-13 3.33D-08 XBig12= 1.33D-07 7.04D-05.
      3 vectors produced by pass 10 Test12= 2.02D-13 3.33D-08 XBig12= 6.43D-09 1.84D-05.
      3 vectors produced by pass 11 Test12= 2.02D-13 3.33D-08 XBig12= 9.61D-11 1.44D-06.
      1 vectors produced by pass 12 Test12= 2.02D-13 3.33D-08 XBig12= 5.51D-12 4.76D-07.
 InvSVY:  IOpt=1 It=  1 EMax= 2.66D-15
 Solved reduced A of dimension    37 with     3 vectors.
 End of Minotr F.D. properties file   721 does not exist.
 End of Minotr F.D. properties file   722 does not exist.
 End of Minotr F.D. properties file   788 does not exist.
 Leave Link 1002 at Fri Jun  2 11:42:26 2023, MaxMem=  7381975040 cpu:             216.4 elap:             114.3
 (Enter /software/commercial/gaussian/g16/AVX/g16/l1101.exe)
 Using compressed storage, NAtomX=    21.
 Will process     22 centers per pass.
 R6Disp: Adding Grimme-D3(BJ) dispersion energy 1st derivatives to the gradient.
 Leave Link 1101 at Fri Jun  2 11:42:28 2023, MaxMem=  7381975040 cpu:               1.0 elap:               1.5
 (Enter /software/commercial/gaussian/g16/AVX/g16/l1102.exe)
 Symmetrizing basis deriv contribution to polar:
 IMax=3 JMax=2 DiffMx= 0.00D+00
 Leave Link 1102 at Fri Jun  2 11:42:31 2023, MaxMem=  7381975040 cpu:               0.2 elap:               0.8
 (Enter /software/commercial/gaussian/g16/AVX/g16/l1110.exe)
 Forming Gx(P) for the SCF density, NAtomX=    21.
 Integral derivatives from FoFJK, PRISM(SPDF).
 Do as many integral derivatives as possible in FoFJK.
 G2DrvN: MDV=    7381972741.
 G2DrvN: will do    22 centers at a time, making    1 passes.
 PxScal for G2LodP:  IOpCl= 0 ISclPx=1 IMOff=     1 NMtTot=     4 NTT=   28441 ScalPx= 1.44D+01
 Calling FoFCou, ICntrl=  3107 FMM=F I1Cent=   0 AccDes= 0.00D+00.
 FoFJK:  IHMeth= 1 ICntrl=    3107 DoSepK=F KAlg= 0 I1Cent=           0 FoldK=F
 IRaf=         0 NMat=       1 IRICut=       1 DoRegI=T DoRafI=F ISym2E= 0 IDoP0=0 IntGTp=1.
 FoFCou: FMM=F IPFlag=           0 FMFlag=      100000 FMFlg1=           0
         NFxFlg=           0 DoJE=F BraDBF=F KetDBF=F FulRan=T
         wScrn=  0.000000 ICntrl=      3107 IOpCl=  0 I1Cent=           0 NGrid=           0
         NMat0=    1 NMatS0=      1 NMatT0=    0 NMatD0=    4 NMtDS0=    3 NMtDT0=    0
 Symmetry not used in FoFCou.
 PxScal for G2LodP:  IOpCl= 0 ISclPx=0 IMOff=     1 NMtTot=     4 NTT=   28441 ScalPx= 1.00D+00
 NEqPCM:  Using equilibrium solvation (IEInf=0, Eps=  24.8520, EpsInf=   1.8526)
 G2PCM: DoFxE=T DoFxN=T DoGrad=T DoDP/DQ/DG/TGxP=TFFF NFrqRd=   0 IEInf=0 SqF1=F DoCFld=F IF1Alg=4.
 GePol: Maximum number of non-zero 1st derivatives   =     197
 End of G2Drv F.D. properties file   721 does not exist.
 End of G2Drv F.D. properties file   722 does not exist.
 End of G2Drv F.D. properties file   788 does not exist.
 Leave Link 1110 at Fri Jun  2 11:48:48 2023, MaxMem=  7381975040 cpu:             744.8 elap:             376.9
 (Enter /software/commercial/gaussian/g16/AVX/g16/l1002.exe)
 Minotr:  Closed shell wavefunction.
          IDoAtm=111111111111111111111
 NEqPCM:  Using equilibrium solvation (IEInf=0, Eps=  24.8520, EpsInf=   1.8526)
          Direct CPHF calculation.
          Differentiating once with respect to electric field.
                with respect to dipole field.
          Differentiating once with respect to nuclear coordinates.
          Requested convergence is 1.0D-08 RMS, and 1.0D-07 maximum.
          Secondary convergence is 1.0D-12 RMS, and 1.0D-12 maximum.
          NewPWx=T KeepS1=F KeepF1=F KeepIn=T MapXYZ=F SortEE=F KeepMc=T.
         6476 words used for storage of precomputed grid.
 Keep R1 ints in memory in canonical form, NReq=411913403.
 FoFCou: FMM=F IPFlag=           0 FMFlag=           0 FMFlg1=           0
         NFxFlg=           0 DoJE=F BraDBF=F KetDBF=F FulRan=T
         wScrn=  0.000000 ICntrl=       600 IOpCl=  0 I1Cent=           0 NGrid=           0
         NMat0=    1 NMatS0=  28441 NMatT0=    0 NMatD0=    1 NMtDS0=    0 NMtDT0=    0
 Symmetry not used in FoFCou.
 Two-electron integral symmetry not used.
          MDV=    7381975040 using IRadAn=       1.
          Solving linear equations simultaneously, MaxMat=       0.
          There are    66 degrees of freedom in the 1st order CPHF.  IDoFFX=5 NUNeed=    66.
 Will reuse    3 saved solutions.
     60 vectors produced by pass  0 Test12= 9.18D-15 1.52D-09 XBig12= 9.17D-02 5.95D-02.
 AX will form    60 AO Fock derivatives at one time.
     60 vectors produced by pass  1 Test12= 9.18D-15 1.52D-09 XBig12= 5.33D-03 8.16D-03.
     60 vectors produced by pass  2 Test12= 9.18D-15 1.52D-09 XBig12= 7.22D-05 1.53D-03.
     60 vectors produced by pass  3 Test12= 9.18D-15 1.52D-09 XBig12= 3.37D-07 6.79D-05.
     60 vectors produced by pass  4 Test12= 9.18D-15 1.52D-09 XBig12= 6.55D-10 2.89D-06.
     36 vectors produced by pass  5 Test12= 9.18D-15 1.52D-09 XBig12= 6.53D-13 7.92D-08.
      1 vectors produced by pass  6 Test12= 9.18D-15 1.52D-09 XBig12= 6.38D-16 4.08D-09.
 InvSVY:  IOpt=1 It=  1 EMax= 3.89D-16
 Solved reduced A of dimension   337 with    66 vectors.
 FullF1:  Do perturbations      1 to       3.
 Isotropic polarizability for W=    0.000000      101.90 Bohr**3.
 FullF1:  Do perturbations      1 to       6.
 End of Minotr F.D. properties file   721 does not exist.
 End of Minotr F.D. properties file   722 does not exist.
 End of Minotr F.D. properties file   788 does not exist.
 Leave Link 1002 at Fri Jun  2 11:54:20 2023, MaxMem=  7381975040 cpu:             638.3 elap:             330.6
 (Enter /software/commercial/gaussian/g16/AVX/g16/l601.exe)
 Copying SCF densities to generalized density rwf, IOpCl= 0 IROHF=0.

 **********************************************************************

            Population analysis using the SCF Density.

 **********************************************************************

 Alpha  occ. eigenvalues --  -14.29549 -14.29547 -10.18974 -10.18974 -10.16384
 Alpha  occ. eigenvalues --  -10.16205 -10.16203  -0.88417  -0.88278  -0.79347
 Alpha  occ. eigenvalues --   -0.72809  -0.65016  -0.59236  -0.58190  -0.49434
 Alpha  occ. eigenvalues --   -0.49033  -0.47542  -0.45171  -0.44996  -0.42085
 Alpha  occ. eigenvalues --   -0.39216  -0.39152  -0.36346  -0.34492  -0.33444
 Alpha  occ. eigenvalues --   -0.32829  -0.32566  -0.25026  -0.24880
 Alpha virt. eigenvalues --    0.00418   0.00795   0.02050   0.02896   0.03018
 Alpha virt. eigenvalues --    0.04538   0.05553   0.06091   0.06280   0.07202
 Alpha virt. eigenvalues --    0.08234   0.08978   0.10002   0.10038   0.10649
 Alpha virt. eigenvalues --    0.12164   0.14137   0.14719   0.14831   0.15822
 Alpha virt. eigenvalues --    0.16314   0.16686   0.16976   0.18234   0.18460
 Alpha virt. eigenvalues --    0.19166   0.19755   0.19869   0.20406   0.20840
 Alpha virt. eigenvalues --    0.20875   0.21993   0.22197   0.23364   0.24389
 Alpha virt. eigenvalues --    0.24833   0.24993   0.25779   0.25963   0.27757
 Alpha virt. eigenvalues --    0.29126   0.30097   0.31028   0.31062   0.31384
 Alpha virt. eigenvalues --    0.31806   0.33236   0.34405   0.41272   0.42097
 Alpha virt. eigenvalues --    0.42581   0.44039   0.48545   0.49275   0.50707
 Alpha virt. eigenvalues --    0.50931   0.55694   0.56471   0.57896   0.58315
 Alpha virt. eigenvalues --    0.60511   0.62108   0.62370   0.64059   0.64817
 Alpha virt. eigenvalues --    0.65277   0.66488   0.67595   0.67852   0.70031
 Alpha virt. eigenvalues --    0.70567   0.71607   0.72583   0.73232   0.75008
 Alpha virt. eigenvalues --    0.75699   0.78431   0.79391   0.80495   0.84924
 Alpha virt. eigenvalues --    0.85249   0.87884   0.88991   0.91160   0.96628
 Alpha virt. eigenvalues --    0.98674   0.99439   1.00659   1.00716   1.11213
 Alpha virt. eigenvalues --    1.12260   1.18519   1.20957   1.22570   1.25605
 Alpha virt. eigenvalues --    1.26277   1.27444   1.28632   1.36710   1.39119
 Alpha virt. eigenvalues --    1.40153   1.46789   1.47452   1.50881   1.52800
 Alpha virt. eigenvalues --    1.53941   1.55853   1.57556   1.58440   1.60424
 Alpha virt. eigenvalues --    1.61330   1.64796   1.65352   1.66435   1.67146
 Alpha virt. eigenvalues --    1.67588   1.68654   1.68658   1.72231   1.72836
 Alpha virt. eigenvalues --    1.74635   1.74899   1.76679   1.80586   1.81269
 Alpha virt. eigenvalues --    1.84769   1.86460   1.86499   1.91210   1.92283
 Alpha virt. eigenvalues --    1.93955   1.98303   2.01864   2.07498   2.07601
 Alpha virt. eigenvalues --    2.10502   2.12116   2.17083   2.17598   2.18570
 Alpha virt. eigenvalues --    2.21155   2.26677   2.30323   2.31190   2.33782
 Alpha virt. eigenvalues --    2.38588   2.39055   2.44881   2.47089   2.47384
 Alpha virt. eigenvalues --    2.50483   2.51229   2.52181   2.53815   2.55583
 Alpha virt. eigenvalues --    2.56910   2.59627   2.59728   2.61853   2.64716
 Alpha virt. eigenvalues --    2.65766   2.66426   2.67198   2.69986   2.70980
 Alpha virt. eigenvalues --    2.71865   2.74795   2.76262   2.76985   2.78389
 Alpha virt. eigenvalues --    2.82254   2.82769   2.84677   2.86045   2.87576
 Alpha virt. eigenvalues --    2.93303   2.96221   2.97336   2.99160   3.04625
 Alpha virt. eigenvalues --    3.10161   3.14191   3.15425   3.28034   3.41161
 Alpha virt. eigenvalues --    3.53575   3.54990   3.76964   3.79029   3.81694
 Alpha virt. eigenvalues --    3.84418   3.86877   4.06633   4.08646   4.10832
 Alpha virt. eigenvalues --    4.16647   4.27664   4.37626   4.72131   4.72265
 Alpha virt. eigenvalues --    4.83962   4.84480  23.85072  23.85335  23.88944
 Alpha virt. eigenvalues --   23.91402  23.91513  35.58687  35.59036
     Molecular Orbital Coefficients:
                           1         2         3         4         5
                           O         O         O         O         O
     Eigenvalues --   -14.29549 -14.29547 -10.18974 -10.18974 -10.16384
   1 1   C  1S          0.00001   0.00000   0.55772   0.07709  -0.00009
   2        2S         -0.00002   0.00000   0.45892   0.06343  -0.00006
   3        2PX        -0.00026   0.00001  -0.00045  -0.00005   0.00008
   4        2PY         0.00024   0.00001   0.00052   0.00008   0.00006
   5        2PZ         0.00002  -0.00000   0.00006   0.00001  -0.00000
   6        3S         -0.00001  -0.00003   0.01857   0.00256   0.00004
   7        3PX         0.00038  -0.00005   0.00050   0.00003  -0.00034
   8        3PY        -0.00063  -0.00004  -0.00211  -0.00034  -0.00025
   9        3PZ        -0.00002   0.00000  -0.00025  -0.00004  -0.00000
  10        4S          0.00586   0.00010  -0.01449  -0.00205  -0.00151
  11        4PX        -0.00116   0.00061  -0.00123  -0.00008  -0.00006
  12        4PY         0.00188  -0.00019  -0.00165  -0.00020  -0.00064
  13        4PZ        -0.00022   0.00001   0.00016  -0.00006  -0.00013
  14        5S          0.00482  -0.00706  -0.04850   0.00241  -0.00097
  15        5PX         0.00176  -0.00027  -0.00538  -0.00089   0.00157
  16        5PY        -0.00022  -0.00128  -0.00624   0.00129  -0.00161
  17        5PZ         0.00001  -0.00004  -0.00004  -0.00001  -0.00019
  18        6D 0        0.00032   0.00001   0.00085   0.00013   0.00008
  19        6D+1        0.00006   0.00001   0.00022   0.00004   0.00002
  20        6D-1       -0.00007  -0.00001  -0.00004  -0.00000   0.00002
  21        6D+2       -0.00014  -0.00000  -0.00059  -0.00010  -0.00010
  22        6D-2        0.00040   0.00003   0.00020   0.00002  -0.00020
  23 2   C  1S          0.00000   0.00000   0.00226   0.00028   0.03446
  24        2S         -0.00000  -0.00000   0.00186   0.00025   0.02836
  25        2PX        -0.00005   0.00000  -0.00041  -0.00003   0.00038
  26        2PY        -0.00003  -0.00001  -0.00032  -0.00006  -0.00036
  27        2PZ         0.00000  -0.00000   0.00002   0.00000  -0.00003
  28        3S          0.00022   0.00007   0.00012  -0.00023   0.00106
  29        3PX         0.00031   0.00001   0.00093   0.00000  -0.00081
  30        3PY         0.00014   0.00003   0.00095   0.00024   0.00113
  31        3PZ        -0.00002  -0.00000  -0.00005   0.00001   0.00008
  32        4S         -0.00351  -0.00058   0.00452   0.00273   0.00558
  33        4PX        -0.00013  -0.00032  -0.00201   0.00102   0.00230
  34        4PY         0.00168   0.00010  -0.00093  -0.00046  -0.00181
  35        4PZ         0.00034  -0.00010   0.00002  -0.00003  -0.00014
  36        5S          0.00544  -0.00166   0.04202   0.02098  -0.00415
  37        5PX         0.01020  -0.00697  -0.01518   0.01105  -0.00252
  38        5PY         0.00050  -0.00140  -0.00931  -0.00148   0.00048
  39        5PZ        -0.00063   0.00034   0.00090  -0.00060   0.00025
  40        6D 0        0.00005   0.00001   0.00044   0.00008   0.00047
  41        6D+1        0.00000  -0.00000   0.00005   0.00001   0.00008
  42        6D-1        0.00001  -0.00000   0.00002   0.00000  -0.00006
  43        6D+2       -0.00010  -0.00002  -0.00024  -0.00002  -0.00018
  44        6D-2       -0.00013   0.00001  -0.00068  -0.00009   0.00061
  45 3   C  1S         -0.00000  -0.00000  -0.00004  -0.00006   0.56087
  46        2S          0.00001   0.00001  -0.00002  -0.00003   0.46152
  47        2PX        -0.00002   0.00002  -0.00007   0.00006   0.00001
  48        2PY         0.00001   0.00001   0.00004   0.00006   0.00026
  49        2PZ         0.00000  -0.00000   0.00001  -0.00000   0.00001
  50        3S         -0.00026  -0.00027   0.00001   0.00002   0.01917
  51        3PX         0.00011  -0.00011   0.00040  -0.00031  -0.00005
  52        3PY        -0.00011  -0.00011  -0.00021  -0.00026  -0.00191
  53        3PZ        -0.00002   0.00002  -0.00004   0.00002  -0.00005
  54        4S          0.00271   0.00283  -0.00131  -0.00174  -0.01767
  55        4PX        -0.00145   0.00141  -0.00104   0.00074  -0.00008
  56        4PY         0.00045   0.00039  -0.00083  -0.00115  -0.00294
  57        4PZ        -0.00009   0.00011   0.00013  -0.00015  -0.00008
  58        5S         -0.00456  -0.00477  -0.02408  -0.03180   0.00434
  59        5PX         0.00083  -0.00080   0.00042  -0.00060   0.00012
  60        5PY        -0.00011  -0.00008  -0.00507  -0.00666   0.00433
  61        5PZ        -0.00021   0.00020  -0.00013  -0.00019   0.00012
  62        6D 0        0.00003   0.00003   0.00006   0.00008   0.00084
  63        6D+1        0.00001   0.00001   0.00001   0.00001   0.00015
  64        6D-1        0.00001  -0.00001  -0.00001   0.00001  -0.00003
  65        6D+2        0.00001   0.00001  -0.00004  -0.00008  -0.00059
  66        6D-2       -0.00001   0.00000   0.00019  -0.00014   0.00003
  67 4   H  1S          0.00004   0.00000  -0.00011  -0.00000  -0.00007
  68        2S         -0.00019   0.00004  -0.00060  -0.00034  -0.00106
  69        3S         -0.00126   0.00019  -0.00050  -0.00053   0.00100
  70        4PX         0.00013   0.00001  -0.00001  -0.00004   0.00007
  71        4PY         0.00001   0.00000   0.00012   0.00004   0.00020
  72        4PZ         0.00010  -0.00000   0.00027   0.00009   0.00036
  73 5   H  1S          0.00002   0.00001  -0.00010  -0.00000  -0.00008
  74        2S         -0.00003  -0.00002  -0.00072  -0.00033  -0.00102
  75        3S         -0.00120   0.00009  -0.00038  -0.00042   0.00104
  76        4PX         0.00011   0.00001  -0.00004  -0.00005   0.00002
  77        4PY        -0.00000   0.00001   0.00015   0.00004   0.00023
  78        4PZ        -0.00012  -0.00000  -0.00026  -0.00008  -0.00035
  79 6   N  1S          0.55724   0.01264  -0.00002  -0.00000   0.00000
  80        2S          0.46563   0.01057  -0.00005  -0.00000   0.00001
  81        2PX         0.00006   0.00000   0.00018   0.00003   0.00003
  82        2PY        -0.00081  -0.00002  -0.00015  -0.00002  -0.00001
  83        2PZ         0.00091   0.00002  -0.00001  -0.00000  -0.00001
  84        3S          0.01565   0.00031   0.00040   0.00003  -0.00014
  85        3PX        -0.00053  -0.00002  -0.00013  -0.00006  -0.00014
  86        3PY        -0.00008   0.00001   0.00015   0.00004   0.00005
  87        3PZ         0.00070   0.00002  -0.00006  -0.00001   0.00003
  88        4S         -0.00926   0.00022   0.00029   0.00005   0.00062
  89        4PX        -0.00248  -0.00002   0.00037   0.00028   0.00072
  90        4PY         0.00098  -0.00015  -0.00020  -0.00006  -0.00006
  91        4PZ         0.00081   0.00001  -0.00018   0.00003   0.00013
  92        5S          0.00660   0.00043   0.01199   0.00125   0.00279
  93        5PX         0.00251  -0.00019  -0.00029   0.00081  -0.00020
  94        5PY         0.00035  -0.00028  -0.00291   0.00050  -0.00051
  95        5PZ        -0.00044   0.00006   0.00045   0.00007  -0.00001
  96        6D 0        0.00003  -0.00001   0.00015   0.00002   0.00002
  97        6D+1       -0.00004  -0.00000   0.00001   0.00000   0.00001
  98        6D-1        0.00052   0.00002  -0.00006  -0.00000   0.00003
  99        6D+2        0.00015   0.00001  -0.00004   0.00000   0.00001
 100        6D-2        0.00049   0.00002   0.00033   0.00004   0.00001
 101 7   H  1S         -0.00002   0.00002   0.00010   0.00003  -0.00002
 102        2S         -0.00096  -0.00019  -0.00283  -0.00045   0.00001
 103        3S         -0.00038   0.00013   0.00411   0.00075  -0.00054
 104        4PX         0.00015  -0.00002   0.00014   0.00001  -0.00007
 105        4PY        -0.00032  -0.00000  -0.00122  -0.00018  -0.00001
 106        4PZ         0.00022   0.00003   0.00168   0.00024   0.00007
 107 8   H  1S         -0.00002   0.00002   0.00006   0.00002  -0.00000
 108        2S         -0.00107  -0.00015  -0.00284  -0.00050  -0.00007
 109        3S         -0.00055   0.00016   0.00423   0.00070  -0.00058
 110        4PX         0.00002  -0.00003  -0.00019  -0.00004  -0.00008
 111        4PY        -0.00023   0.00001  -0.00101  -0.00016  -0.00001
 112        4PZ        -0.00022  -0.00002  -0.00188  -0.00027  -0.00007
 113 9   H  1S          0.00000  -0.00000  -0.00014  -0.00002   0.00001
 114        2S         -0.00168  -0.00004   0.00056   0.00001  -0.00027
 115        3S          0.00038  -0.00008  -0.00109  -0.00020   0.00000
 116        4PX         0.00017   0.00001   0.00014   0.00001  -0.00003
 117        4PY         0.00078   0.00004  -0.00015  -0.00002   0.00002
 118        4PZ         0.00140   0.00003  -0.00009  -0.00000   0.00004
 119 10  H  1S         -0.00000   0.00001  -0.00014  -0.00001  -0.00003
 120        2S         -0.00187  -0.00017   0.00049   0.00007   0.00018
 121        3S          0.00138  -0.00000  -0.00360   0.00026  -0.00066
 122        4PX        -0.00128  -0.00004   0.00001   0.00001  -0.00003
 123        4PY        -0.00100  -0.00004  -0.00005   0.00001   0.00003
 124        4PZ        -0.00003  -0.00000   0.00001  -0.00000  -0.00002
 125 11  C  1S          0.00000   0.00000  -0.00034   0.00225   0.03433
 126        2S         -0.00000  -0.00000  -0.00026   0.00186   0.02826
 127        2PX        -0.00000   0.00005  -0.00008   0.00038  -0.00040
 128        2PY        -0.00000  -0.00003   0.00003  -0.00035  -0.00034
 129        2PZ         0.00000  -0.00001   0.00001  -0.00004   0.00001
 130        3S          0.00006   0.00023  -0.00025   0.00005   0.00105
 131        3PX         0.00001  -0.00031   0.00025  -0.00084   0.00087
 132        3PY         0.00002   0.00015  -0.00004   0.00102   0.00109
 133        3PZ         0.00000   0.00003  -0.00002   0.00010  -0.00002
 134        4S         -0.00042  -0.00353   0.00140   0.00509   0.00558
 135        4PX         0.00032   0.00023  -0.00154   0.00160  -0.00239
 136        4PY         0.00000   0.00169  -0.00011  -0.00110  -0.00169
 137        4PZ         0.00011  -0.00025   0.00002  -0.00007   0.00004
 138        5S         -0.00189   0.00534   0.00880   0.04617  -0.00416
 139        5PX         0.00734  -0.00985  -0.01467   0.01115   0.00255
 140        5PY        -0.00179   0.00092   0.00182  -0.00991   0.00037
 141        5PZ        -0.00045   0.00064   0.00089  -0.00123  -0.00022
 142        6D 0        0.00001   0.00005  -0.00004   0.00045   0.00047
 143        6D+1       -0.00000   0.00001  -0.00001   0.00009   0.00005
 144        6D-1        0.00000  -0.00001   0.00001  -0.00006   0.00003
 145        6D+2       -0.00001  -0.00008   0.00003  -0.00017  -0.00024
 146        6D-2       -0.00001   0.00014  -0.00011   0.00070  -0.00060
 147 12  H  1S          0.00004   0.00003   0.00002   0.00003   0.00008
 148        2S         -0.00049  -0.00038  -0.00021  -0.00031  -0.00269
 149        3S         -0.00004   0.00011   0.00001  -0.00012   0.00429
 150        4PX         0.00005  -0.00006   0.00011  -0.00010  -0.00015
 151        4PY        -0.00004  -0.00002  -0.00000  -0.00000  -0.00105
 152        4PZ        -0.00007  -0.00005  -0.00009  -0.00010  -0.00184
 153 13  H  1S          0.00003   0.00004   0.00002   0.00003   0.00008
 154        2S         -0.00036  -0.00050  -0.00024  -0.00029  -0.00269
 155        3S          0.00011  -0.00004  -0.00011  -0.00003   0.00429
 156        4PX         0.00006  -0.00005   0.00012  -0.00008   0.00009
 157        4PY        -0.00002  -0.00004  -0.00001  -0.00001  -0.00115
 158        4PZ         0.00005   0.00007   0.00007   0.00011   0.00178
 159 14  C  1S         -0.00000   0.00001  -0.07709   0.55772  -0.00009
 160        2S          0.00000  -0.00002  -0.06343   0.45892  -0.00006
 161        2PX        -0.00002   0.00027  -0.00007   0.00047  -0.00008
 162        2PY        -0.00000   0.00022  -0.00006   0.00050   0.00006
 163        2PZ         0.00000  -0.00000   0.00000  -0.00003   0.00000
 164        3S         -0.00003  -0.00001  -0.00257   0.01857   0.00004
 165        3PX         0.00007  -0.00041   0.00012  -0.00060   0.00033
 166        3PY        -0.00002  -0.00061   0.00024  -0.00210  -0.00027
 167        3PZ        -0.00001  -0.00002  -0.00002   0.00013  -0.00001
 168        4S         -0.00017   0.00586   0.00196  -0.01451  -0.00151
 169        4PX        -0.00067   0.00123  -0.00024   0.00112   0.00002
 170        4PY        -0.00024   0.00179   0.00026  -0.00169  -0.00065
 171        4PZ        -0.00003   0.00033   0.00011  -0.00023   0.00010
 172        5S         -0.00728   0.00452   0.01547  -0.04610  -0.00098
 173        5PX         0.00028  -0.00176  -0.00044   0.00512  -0.00165
 174        5PY        -0.00129  -0.00018   0.00295  -0.00594  -0.00154
 175        5PZ        -0.00003  -0.00002   0.00017  -0.00028   0.00010
 176        6D 0        0.00000   0.00032  -0.00010   0.00086   0.00008
 177        6D+1        0.00000   0.00004  -0.00002   0.00021   0.00003
 178        6D-1        0.00000   0.00005   0.00000  -0.00003  -0.00002
 179        6D+2        0.00001  -0.00018   0.00006  -0.00061  -0.00008
 180        6D-2       -0.00001  -0.00039   0.00003  -0.00015   0.00021
 181 15  N  1S         -0.01264   0.55724   0.00000  -0.00002   0.00000
 182        2S         -0.01056   0.46563   0.00001  -0.00005   0.00001
 183        2PX         0.00000  -0.00010   0.00002  -0.00019  -0.00003
 184        2PY         0.00001  -0.00075   0.00002  -0.00015  -0.00001
 185        2PZ         0.00002  -0.00095   0.00000  -0.00000   0.00001
 186        3S         -0.00040   0.01565  -0.00008   0.00039  -0.00014
 187        3PX        -0.00001   0.00052   0.00002   0.00015   0.00014
 188        3PY         0.00001  -0.00006  -0.00000   0.00014   0.00005
 189        3PZ         0.00001  -0.00071  -0.00001   0.00007  -0.00003
 190        4S          0.00064  -0.00924  -0.00003   0.00029   0.00062
 191        4PX        -0.00010   0.00253  -0.00017  -0.00044  -0.00073
 192        4PY        -0.00019   0.00088   0.00001  -0.00020  -0.00002
 193        4PZ         0.00002  -0.00075  -0.00007   0.00015  -0.00014
 194        5S          0.00013   0.00661  -0.00206   0.01191   0.00279
 195        5PX         0.00028  -0.00248  -0.00079  -0.00008   0.00017
 196        5PY        -0.00031   0.00045   0.00130  -0.00264  -0.00053
 197        5PZ        -0.00010   0.00046   0.00013  -0.00061  -0.00002
 198        6D 0       -0.00001  -0.00002  -0.00002   0.00016   0.00002
 199        6D+1       -0.00000  -0.00010   0.00000  -0.00000   0.00001
 200        6D-1        0.00001  -0.00053  -0.00001   0.00005  -0.00003
 201        6D+2        0.00000   0.00007   0.00002  -0.00007   0.00001
 202        6D-2        0.00001  -0.00049   0.00005  -0.00032  -0.00001
 203 16  H  1S          0.00002  -0.00002  -0.00000   0.00010  -0.00002
 204        2S         -0.00014  -0.00097   0.00033  -0.00284   0.00001
 205        3S          0.00015  -0.00037  -0.00039   0.00416  -0.00054
 206        4PX         0.00002  -0.00016   0.00004  -0.00019   0.00007
 207        4PY         0.00001  -0.00030   0.00015  -0.00112  -0.00001
 208        4PZ        -0.00002  -0.00024   0.00023  -0.00175  -0.00007
 209 17  H  1S          0.00002  -0.00002   0.00001   0.00006  -0.00000
 210        2S         -0.00010  -0.00107   0.00029  -0.00287  -0.00007
 211        3S          0.00019  -0.00054  -0.00047   0.00426  -0.00057
 212        4PX         0.00003  -0.00004  -0.00001   0.00013   0.00008
 213        4PY         0.00002  -0.00024   0.00014  -0.00113  -0.00002
 214        4PZ         0.00002   0.00021  -0.00024   0.00182   0.00007
 215 18  H  1S          0.00001   0.00002   0.00002  -0.00009  -0.00008
 216        2S         -0.00002  -0.00003  -0.00012  -0.00078  -0.00102
 217        3S          0.00014  -0.00119  -0.00030  -0.00049   0.00103
 218        4PX        -0.00000  -0.00012   0.00004   0.00006  -0.00000
 219        4PY         0.00001  -0.00000  -0.00000   0.00014   0.00021
 220        4PZ        -0.00000   0.00012   0.00001   0.00028   0.00036
 221 19  H  1S          0.00000   0.00004   0.00003  -0.00011  -0.00007
 222        2S          0.00005  -0.00019  -0.00017  -0.00067  -0.00105
 223        3S          0.00025  -0.00126  -0.00037  -0.00063   0.00100
 224        4PX        -0.00000  -0.00013   0.00003   0.00003  -0.00006
 225        4PY         0.00000   0.00002   0.00000   0.00014   0.00022
 226        4PZ         0.00001  -0.00010  -0.00002  -0.00027  -0.00034
 227 20  H  1S         -0.00000   0.00000   0.00002  -0.00014   0.00001
 228        2S          0.00004  -0.00168  -0.00015   0.00054  -0.00027
 229        3S         -0.00010   0.00037   0.00011  -0.00111   0.00000
 230        4PX         0.00000  -0.00013   0.00003  -0.00014   0.00003
 231        4PY        -0.00000   0.00087   0.00002  -0.00014   0.00002
 232        4PZ         0.00003  -0.00135  -0.00002   0.00007  -0.00004
 233 21  H  1S          0.00001  -0.00000   0.00002  -0.00014  -0.00003
 234        2S         -0.00008  -0.00188  -0.00006   0.00049   0.00018
 235        3S         -0.00006   0.00138   0.00123  -0.00340  -0.00066
 236        4PX        -0.00002   0.00123  -0.00000  -0.00001   0.00003
 237        4PY         0.00001  -0.00106   0.00003  -0.00004   0.00003
 238        4PZ         0.00000  -0.00002   0.00001  -0.00001   0.00002
                           6         7         8         9        10
                           O         O         O         O         O
     Eigenvalues --   -10.16205 -10.16203  -0.88417  -0.88278  -0.79347
   1 1   C  1S         -0.00191  -0.00128  -0.04058   0.03947  -0.01598
   2        2S         -0.00158  -0.00104  -0.06258   0.06088  -0.02469
   3        2PX         0.00031   0.00025  -0.01966   0.02099   0.03061
   4        2PY         0.00026   0.00019   0.01781  -0.01760  -0.00025
   5        2PZ        -0.00000  -0.00001   0.00301  -0.00311  -0.00300
   6        3S         -0.00000  -0.00034   0.16381  -0.15944   0.06455
   7        3PX        -0.00059  -0.00058  -0.03211   0.03455   0.04845
   8        3PY        -0.00074  -0.00062   0.03324  -0.03268   0.00182
   9        3PZ        -0.00002  -0.00001   0.00555  -0.00573  -0.00471
  10        4S          0.00448   0.00569   0.06213  -0.05856   0.03889
  11        4PX         0.00079   0.00234  -0.00695   0.00611   0.01337
  12        4PY         0.00156   0.00108   0.00138  -0.00049  -0.00063
  13        4PZ        -0.00006  -0.00019   0.00420  -0.00431  -0.00087
  14        5S         -0.00632   0.00583   0.05202  -0.03660   0.00184
  15        5PX        -0.00253   0.00181   0.00358  -0.00473  -0.00261
  16        5PY        -0.00003   0.00032   0.00749  -0.00459   0.00131
  17        5PZ         0.00012  -0.00026   0.00035  -0.00007   0.00187
  18        6D 0        0.00034   0.00026  -0.00708   0.00686  -0.00087
  19        6D+1        0.00006   0.00005  -0.00210   0.00208   0.00053
  20        6D-1        0.00002   0.00001   0.00186  -0.00187  -0.00079
  21        6D+2       -0.00020  -0.00011   0.00426  -0.00400   0.00156
  22        6D-2       -0.00050  -0.00034  -0.00820   0.00845   0.00747
  23 2   C  1S          0.46299   0.31841  -0.01882   0.01435  -0.05639
  24        2S          0.38098   0.26201  -0.02895   0.02208  -0.08707
  25        2PX        -0.00001   0.00002  -0.00811   0.01091   0.01805
  26        2PY        -0.00015  -0.00013  -0.00452   0.00328  -0.01362
  27        2PZ         0.00002   0.00001   0.00072  -0.00094  -0.00154
  28        3S          0.01577   0.01103   0.07347  -0.05643   0.22673
  29        3PX         0.00013  -0.00017  -0.01409   0.01870   0.02941
  30        3PY         0.00135   0.00109  -0.01010   0.00751  -0.02690
  31        3PZ         0.00000   0.00002   0.00101  -0.00135  -0.00254
  32        4S         -0.01371  -0.01301   0.04794  -0.03440   0.12080
  33        4PX        -0.00004  -0.00035  -0.00313   0.00891   0.00869
  34        4PY         0.00193   0.00273  -0.00568   0.00512  -0.00577
  35        4PZ         0.00015   0.00013  -0.00110   0.00111  -0.00051
  36        5S         -0.00657  -0.02499  -0.06952   0.05619   0.04288
  37        5PX        -0.00332  -0.00289  -0.00914   0.02491   0.01125
  38        5PY        -0.00173   0.00391   0.01459  -0.00881  -0.00216
  39        5PZ         0.00021   0.00046   0.00080  -0.00130  -0.00222
  40        6D 0        0.00060   0.00046  -0.00280   0.00214  -0.00477
  41        6D+1        0.00010   0.00008  -0.00053   0.00039  -0.00083
  42        6D-1       -0.00003  -0.00003  -0.00007   0.00013   0.00054
  43        6D+2       -0.00042  -0.00037   0.00318  -0.00238   0.00273
  44        6D-2       -0.00009   0.00011   0.00199  -0.00273  -0.00410
  45 3   C  1S         -0.00885  -0.04786  -0.01236  -0.00010  -0.07268
  46        2S         -0.00728  -0.03938  -0.01905  -0.00016  -0.11224
  47        2PX        -0.00054   0.00011   0.00003   0.00697   0.00041
  48        2PY         0.00009   0.00044   0.00316  -0.00014   0.01578
  49        2PZ         0.00004   0.00001   0.00009  -0.00049   0.00045
  50        3S         -0.00033  -0.00180   0.04954   0.00041   0.29240
  51        3PX         0.00117  -0.00025   0.00009   0.01198   0.00083
  52        3PY        -0.00024  -0.00117   0.00716  -0.00023   0.03199
  53        3PZ        -0.00008  -0.00002   0.00021  -0.00101   0.00090
  54        4S          0.00204   0.01115   0.01301   0.00011   0.15647
  55        4PX        -0.00333   0.00069  -0.00006   0.00100   0.00018
  56        4PY         0.00064   0.00303  -0.00212  -0.00002   0.00699
  57        4PZ         0.00013   0.00007  -0.00006  -0.00095   0.00020
  58        5S          0.00669   0.03656   0.08543   0.00083  -0.05352
  59        5PX        -0.00357   0.00085   0.00030   0.00275  -0.00055
  60        5PY         0.00141   0.00720   0.01216   0.00008  -0.02077
  61        5PZ         0.00024   0.00017   0.00032  -0.00093  -0.00057
  62        6D 0        0.00009   0.00050  -0.00188  -0.00002  -0.00622
  63        6D+1        0.00004   0.00007  -0.00043   0.00004  -0.00100
  64        6D-1       -0.00006  -0.00001   0.00005  -0.00014   0.00021
  65        6D+2        0.00001  -0.00020   0.00199   0.00010   0.00419
  66        6D-2        0.00084  -0.00015  -0.00011   0.00168  -0.00019
  67 4   H  1S          0.00008   0.00008   0.01089  -0.00828   0.03509
  68        2S         -0.00213  -0.00147   0.01256  -0.01061   0.04083
  69        3S          0.00372   0.00232   0.00098  -0.00167  -0.00878
  70        4PX         0.00016   0.00003  -0.00093   0.00093   0.00036
  71        4PY         0.00084   0.00057  -0.00170   0.00133  -0.00507
  72        4PZ         0.00145   0.00106  -0.00236   0.00192  -0.00654
  73 5   H  1S          0.00007   0.00007   0.01063  -0.00805   0.03495
  74        2S         -0.00212  -0.00150   0.01111  -0.00901   0.04099
  75        3S          0.00379   0.00242   0.00024  -0.00047  -0.01003
  76        4PX        -0.00003  -0.00011  -0.00040   0.00047   0.00128
  77        4PY         0.00095   0.00065  -0.00172   0.00129  -0.00550
  78        4PZ        -0.00141  -0.00103   0.00228  -0.00185   0.00609
  79 6   N  1S          0.00000   0.00000  -0.06982   0.07024   0.02741
  80        2S          0.00000  -0.00000  -0.10965   0.11032   0.04320
  81        2PX         0.00001   0.00001   0.00670  -0.00632   0.01059
  82        2PY        -0.00003  -0.00003  -0.01945   0.01948   0.00427
  83        2PZ        -0.00000   0.00000   0.01837  -0.01859  -0.01067
  84        3S          0.00013   0.00013   0.30041  -0.30229  -0.12035
  85        3PX        -0.00004  -0.00001   0.01295  -0.01239   0.01515
  86        3PY         0.00011   0.00010  -0.03163   0.03167   0.00694
  87        3PZ         0.00000   0.00000   0.02762  -0.02793  -0.01584
  88        4S         -0.00147  -0.00101   0.20816  -0.21064  -0.08577
  89        4PX        -0.00048  -0.00052   0.00978  -0.00927   0.00666
  90        4PY         0.00044   0.00022  -0.01336   0.01402   0.00360
  91        4PZ         0.00010   0.00009   0.00940  -0.00941  -0.00575
  92        5S         -0.00029   0.00132  -0.02152   0.02050  -0.01394
  93        5PX         0.00047   0.00010  -0.01211   0.01327   0.00337
  94        5PY         0.00048  -0.00047   0.00134  -0.00043   0.00147
  95        5PZ         0.00018   0.00021   0.00181  -0.00235  -0.00316
  96        6D 0        0.00004   0.00003  -0.00236   0.00236  -0.00032
  97        6D+1        0.00002   0.00002  -0.00006   0.00007   0.00032
  98        6D-1       -0.00001  -0.00001   0.00307  -0.00308  -0.00124
  99        6D+2       -0.00001  -0.00002   0.00189  -0.00185   0.00045
 100        6D-2        0.00007   0.00005  -0.00165   0.00156  -0.00161
 101 7   H  1S         -0.00007  -0.00001   0.02025  -0.01962   0.01137
 102        2S         -0.00056  -0.00085   0.02490  -0.02395   0.01181
 103        3S          0.00084   0.00033  -0.00730   0.00683  -0.00265
 104        4PX         0.00011   0.00004  -0.00079   0.00088   0.00115
 105        4PY        -0.00012  -0.00010   0.00427  -0.00418   0.00146
 106        4PZ         0.00016   0.00019  -0.00442   0.00425  -0.00178
 107 8   H  1S         -0.00007  -0.00002   0.02033  -0.01972   0.01149
 108        2S         -0.00065  -0.00089   0.02703  -0.02615   0.01209
 109        3S          0.00092   0.00030  -0.00465   0.00388  -0.00200
 110        4PX         0.00008  -0.00000  -0.00001   0.00013   0.00154
 111        4PY        -0.00011  -0.00008   0.00382  -0.00377   0.00130
 112        4PZ        -0.00019  -0.00021   0.00497  -0.00482   0.00176
 113 9   H  1S          0.00001   0.00001   0.05432  -0.05475  -0.02529
 114        2S          0.00002   0.00005   0.05095  -0.05169  -0.02677
 115        3S         -0.00042  -0.00049  -0.00180   0.00260   0.00403
 116        4PX        -0.00005  -0.00002   0.00021  -0.00021   0.00080
 117        4PY        -0.00001   0.00002  -0.00751   0.00754   0.00326
 118        4PZ         0.00002   0.00000  -0.00977   0.00987   0.00440
 119 10  H  1S         -0.00004  -0.00003   0.05365  -0.05423  -0.02812
 120        2S          0.00035   0.00024   0.05161  -0.05166  -0.02853
 121        3S          0.00026  -0.00036  -0.00606   0.00636   0.00600
 122        4PX         0.00010   0.00011   0.01099  -0.01102  -0.00468
 123        4PY        -0.00001  -0.00004   0.00557  -0.00558  -0.00306
 124        4PZ        -0.00001  -0.00001   0.00095  -0.00097  -0.00071
 125 11  C  1S         -0.32014   0.46180  -0.01859  -0.01466  -0.05638
 126        2S         -0.26343   0.38001  -0.02860  -0.02256  -0.08705
 127        2PX        -0.00002  -0.00002   0.00770   0.01085  -0.01875
 128        2PY         0.00010  -0.00018  -0.00483  -0.00387  -0.01272
 129        2PZ         0.00002  -0.00003  -0.00095  -0.00114   0.00081
 130        3S         -0.01084   0.01590   0.07258   0.05764   0.22669
 131        3PX         0.00014   0.00019   0.01326   0.01851  -0.03078
 132        3PY        -0.00088   0.00149  -0.01061  -0.00856  -0.02542
 133        3PZ        -0.00005   0.00006  -0.00154  -0.00180   0.00109
 134        4S          0.00821  -0.01703   0.04740   0.03519   0.12079
 135        4PX         0.00005   0.00051   0.00269   0.00867  -0.00897
 136        4PY        -0.00085   0.00322  -0.00579  -0.00572  -0.00533
 137        4PZ         0.00004  -0.00000   0.00078   0.00082   0.00019
 138        5S         -0.00272  -0.02568  -0.06862  -0.05742   0.04290
 139        5PX        -0.00192   0.00407   0.00948   0.02556  -0.01132
 140        5PY         0.00310   0.00285   0.01400   0.00780  -0.00171
 141        5PZ         0.00021  -0.00035   0.00003  -0.00082   0.00210
 142        6D 0       -0.00040   0.00064  -0.00276  -0.00217  -0.00481
 143        6D+1       -0.00007   0.00011  -0.00063  -0.00054  -0.00062
 144        6D-1        0.00001  -0.00000   0.00019   0.00023  -0.00020
 145        6D+2        0.00025  -0.00049   0.00294   0.00215   0.00313
 146        6D-2       -0.00014  -0.00002  -0.00223  -0.00298   0.00383
 147 12  H  1S         -0.00002  -0.00013   0.00702   0.00010   0.04561
 148        2S         -0.00018  -0.00086   0.00911  -0.00013   0.05344
 149        3S         -0.00005   0.00003  -0.00286  -0.00025  -0.01064
 150        4PX        -0.00005  -0.00001   0.00015   0.00037   0.00073
 151        4PY        -0.00002  -0.00010   0.00122  -0.00003   0.00657
 152        4PZ        -0.00003  -0.00018   0.00155  -0.00004   0.00847
 153 13  H  1S         -0.00003  -0.00013   0.00703   0.00002   0.04561
 154        2S         -0.00013  -0.00088   0.00911   0.00028   0.05345
 155        3S          0.00005   0.00001  -0.00284   0.00020  -0.01064
 156        4PX        -0.00005   0.00002  -0.00009   0.00037  -0.00037
 157        4PY        -0.00002  -0.00011   0.00131   0.00003   0.00706
 158        4PZ         0.00003   0.00017  -0.00148  -0.00006  -0.00809
 159 14  C  1S          0.00133  -0.00188  -0.03994  -0.04012  -0.01597
 160        2S          0.00111  -0.00153  -0.06160  -0.06188  -0.02467
 161        2PX         0.00019  -0.00033   0.02021   0.02220  -0.03058
 162        2PY        -0.00018   0.00029   0.01664   0.01690   0.00117
 163        2PZ        -0.00001   0.00002  -0.00196  -0.00214   0.00299
 164        3S         -0.00012  -0.00032   0.16123   0.16206   0.06450
 165        3PX        -0.00032   0.00071   0.03321   0.03674  -0.04829
 166        3PY         0.00049  -0.00088   0.03129   0.03163   0.00407
 167        3PZ         0.00001  -0.00003  -0.00359  -0.00393   0.00482
 168        4S         -0.00217   0.00691   0.06119   0.05956   0.03886
 169        4PX        -0.00015  -0.00238   0.00693   0.00625  -0.01339
 170        4PY        -0.00107   0.00168   0.00124   0.00044   0.00002
 171        4PZ        -0.00005   0.00029  -0.00405  -0.00432   0.00083
 172        5S          0.00798   0.00316   0.05143   0.03740   0.00182
 173        5PX        -0.00300  -0.00078  -0.00312  -0.00455   0.00268
 174        5PY         0.00029   0.00031   0.00759   0.00494   0.00128
 175        5PZ         0.00021   0.00022   0.00009   0.00020  -0.00181
 176        6D 0       -0.00023   0.00036  -0.00712  -0.00714  -0.00079
 177        6D+1       -0.00006   0.00009  -0.00168  -0.00169   0.00014
 178        6D-1        0.00004  -0.00005  -0.00129  -0.00135   0.00078
 179        6D+2        0.00011  -0.00012   0.00493   0.00485   0.00082
 180        6D-2       -0.00036   0.00051   0.00770   0.00823  -0.00762
 181 15  N  1S         -0.00000   0.00000  -0.06868  -0.07135   0.02741
 182        2S         -0.00000  -0.00000  -0.10786  -0.11206   0.04320
 183        2PX         0.00001  -0.00001  -0.00755  -0.00741  -0.01037
 184        2PY         0.00002  -0.00003  -0.01767  -0.01830   0.00419
 185        2PZ         0.00000  -0.00000  -0.01915  -0.01999   0.01091
 186        3S         -0.00008   0.00016   0.29551   0.30706  -0.12037
 187        3PX        -0.00004   0.00003  -0.01430  -0.01420  -0.01479
 188        3PY        -0.00007   0.00013  -0.02877  -0.02977   0.00679
 189        3PZ        -0.00000   0.00001  -0.02892  -0.03018   0.01623
 190        4S          0.00102  -0.00147   0.20475   0.21395  -0.08578
 191        4PX        -0.00028   0.00067  -0.01028  -0.01013  -0.00648
 192        4PY        -0.00032   0.00034  -0.01206  -0.01315   0.00360
 193        4PZ         0.00004  -0.00009  -0.00999  -0.01037   0.00596
 194        5S          0.00074   0.00114  -0.02117  -0.02082  -0.01396
 195        5PX         0.00037  -0.00027   0.01195   0.01348  -0.00329
 196        5PY        -0.00064  -0.00024   0.00081  -0.00012   0.00145
 197        5PZ         0.00006  -0.00027  -0.00171  -0.00236   0.00326
 198        6D 0       -0.00002   0.00004  -0.00262  -0.00270  -0.00020
 199        6D+1       -0.00001   0.00002  -0.00012  -0.00014   0.00047
 200        6D-1       -0.00000   0.00001  -0.00288  -0.00298   0.00121
 201        6D+2        0.00001  -0.00003   0.00185   0.00185   0.00069
 202        6D-2        0.00005  -0.00007   0.00143   0.00140   0.00153
 203 16  H  1S          0.00006  -0.00004   0.01993   0.01995   0.01135
 204        2S          0.00022  -0.00100   0.02452   0.02435   0.01179
 205        3S         -0.00067   0.00061  -0.00719  -0.00694  -0.00266
 206        4PX         0.00009  -0.00008   0.00098   0.00110  -0.00108
 207        4PY         0.00007  -0.00012   0.00390   0.00394   0.00142
 208        4PZ         0.00008  -0.00024   0.00458   0.00456   0.00186
 209 17  H  1S          0.00006  -0.00004   0.02001   0.02004   0.01149
 210        2S          0.00030  -0.00107   0.02660   0.02657   0.01208
 211        3S         -0.00076   0.00061  -0.00459  -0.00396  -0.00199
 212        4PX         0.00008  -0.00003   0.00022   0.00035  -0.00147
 213        4PY         0.00007  -0.00013   0.00403   0.00408   0.00147
 214        4PZ        -0.00010   0.00026  -0.00467  -0.00467  -0.00168
 215 18  H  1S         -0.00004   0.00009   0.01051   0.00823   0.03495
 216        2S          0.00145  -0.00215   0.01097   0.00920   0.04099
 217        3S         -0.00269   0.00360   0.00023   0.00047  -0.01003
 218        4PX        -0.00002   0.00016   0.00031   0.00041  -0.00156
 219        4PY        -0.00060   0.00085  -0.00159  -0.00124  -0.00508
 220        4PZ        -0.00099   0.00152  -0.00234  -0.00196  -0.00638
 221 19  H  1S         -0.00005   0.00010   0.01076   0.00846   0.03508
 222        2S          0.00147  -0.00213   0.01239   0.01081   0.04081
 223        3S         -0.00266   0.00349   0.00096   0.00168  -0.00878
 224        4PX         0.00011  -0.00004   0.00082   0.00087  -0.00064
 225        4PY        -0.00064   0.00092  -0.00185  -0.00151  -0.00539
 226        4PZ         0.00094  -0.00146   0.00223   0.00188   0.00624
 227 20  H  1S         -0.00000   0.00001   0.05344   0.05562  -0.02528
 228        2S         -0.00000   0.00005   0.05011   0.05249  -0.02677
 229        3S          0.00021  -0.00061  -0.00177  -0.00263   0.00405
 230        4PX        -0.00004   0.00004  -0.00061  -0.00063  -0.00062
 231        4PY         0.00001   0.00001  -0.00791  -0.00821   0.00355
 232        4PZ         0.00001  -0.00001   0.00916   0.00956  -0.00420
 233 21  H  1S          0.00003  -0.00004   0.05277   0.05508  -0.02812
 234        2S         -0.00024   0.00034   0.05077   0.05248  -0.02853
 235        3S         -0.00037  -0.00024  -0.00596  -0.00647   0.00600
 236        4PX         0.00006  -0.00014  -0.01051  -0.01089   0.00451
 237        4PY        -0.00001  -0.00003   0.00608   0.00629  -0.00333
 238        4PZ        -0.00000   0.00001  -0.00060  -0.00064   0.00052
                          11        12        13        14        15
                           O         O         O         O         O
     Eigenvalues --    -0.72809  -0.65016  -0.59236  -0.58190  -0.49434
   1 1   C  1S          0.04231  -0.05899  -0.04861  -0.02061  -0.00814
   2        2S          0.06564  -0.09194  -0.07599  -0.03222  -0.01275
   3        2PX        -0.03911   0.01189  -0.02696  -0.01637   0.01237
   4        2PY        -0.00125  -0.01033  -0.04185  -0.04279   0.00743
   5        2PZ         0.00475  -0.00601  -0.00821  -0.00489   0.07126
   6        3S         -0.17532   0.24987   0.20822   0.08886   0.03456
   7        3PX        -0.06000   0.01633  -0.04341  -0.02695   0.01762
   8        3PY        -0.00696  -0.00941  -0.05787  -0.06166   0.01158
   9        3PZ         0.00699  -0.00857  -0.01165  -0.00692   0.10541
  10        4S         -0.10201   0.16236   0.14628   0.04029   0.03700
  11        4PX        -0.01561   0.00071  -0.01833  -0.01309   0.02193
  12        4PY         0.00050  -0.00834  -0.03605  -0.04069   0.01328
  13        4PZ         0.00002   0.00144  -0.00298  -0.00549   0.06909
  14        5S         -0.24823   0.13882   0.14628   0.05854  -0.01013
  15        5PX        -0.04308   0.01761   0.00242   0.01059   0.01533
  16        5PY        -0.02512   0.01472   0.02490   0.00591  -0.00645
  17        5PZ        -0.00102   0.00372   0.00148  -0.00269   0.00865
  18        6D 0        0.00128   0.00170   0.00556   0.00409   0.00005
  19        6D+1       -0.00092   0.00175   0.00216   0.00100   0.00013
  20        6D-1        0.00080  -0.00047  -0.00039  -0.00036  -0.00061
  21        6D+2       -0.00030  -0.00321  -0.00151   0.00234  -0.00618
  22        6D-2       -0.00912   0.00316  -0.00564  -0.00555  -0.00240
  23 2   C  1S          0.05974  -0.00392   0.04648   0.04209   0.00995
  24        2S          0.09253  -0.00608   0.07251   0.06571   0.01562
  25        2PX         0.01695  -0.05596  -0.01830   0.01234  -0.01285
  26        2PY         0.01017  -0.00134  -0.02975  -0.05899  -0.00972
  27        2PZ        -0.00071   0.00260  -0.00305  -0.00444   0.07212
  28        3S         -0.24435   0.01566  -0.19600  -0.17897  -0.04217
  29        3PX         0.02598  -0.08657  -0.02928   0.01946  -0.01819
  30        3PY         0.02042  -0.00181  -0.04139  -0.08416  -0.01426
  31        3PZ        -0.00105   0.00417  -0.00430  -0.00661   0.10586
  32        4S         -0.14229   0.02348  -0.13602  -0.09800  -0.05355
  33        4PX         0.01211  -0.02879  -0.01242   0.00677  -0.00515
  34        4PY         0.00850  -0.00563  -0.02407  -0.05443  -0.00359
  35        4PZ        -0.00073  -0.00069  -0.00563  -0.00281   0.05844
  36        5S          0.02335  -0.15863  -0.06695  -0.11026  -0.04554
  37        5PX        -0.12773   0.02099   0.09441   0.00691  -0.04412
  38        5PY        -0.03446   0.02172   0.01568   0.01113   0.00176
  39        5PZ         0.00813  -0.00439  -0.00662   0.00227   0.00525
  40        6D 0        0.00239   0.00002  -0.00528  -0.00689  -0.00194
  41        6D+1        0.00003   0.00071  -0.00015  -0.00049  -0.00022
  42        6D-1       -0.00007  -0.00073  -0.00029   0.00052   0.00114
  43        6D+2        0.00072  -0.00022   0.00357  -0.00049   0.00219
  44        6D-2       -0.00380   0.01298   0.00634  -0.00422   0.00240
  45 3   C  1S         -0.00001   0.05662  -0.00000  -0.05156  -0.00004
  46        2S         -0.00001   0.08806  -0.00001  -0.08048  -0.00006
  47        2PX         0.04824   0.00001   0.04088  -0.00175   0.02308
  48        2PY        -0.00117   0.00054  -0.00095  -0.06690  -0.00291
  49        2PZ        -0.00317   0.00002  -0.00444  -0.00187   0.07033
  50        3S          0.00003  -0.23536   0.00001   0.21874   0.00015
  51        3PX         0.07537  -0.00007   0.06414  -0.00250   0.03431
  52        3PY        -0.00182  -0.00272  -0.00150  -0.09521  -0.00430
  53        3PZ        -0.00509  -0.00007  -0.00688  -0.00266   0.10350
  54        4S          0.00002  -0.16823   0.00001   0.12843   0.00035
  55        4PX         0.02633  -0.00014   0.02525  -0.00164   0.01578
  56        4PY        -0.00066  -0.00537  -0.00070  -0.06216  -0.00246
  57        4PZ        -0.00088  -0.00015   0.00106  -0.00174   0.06459
  58        5S         -0.00002   0.08306   0.00022   0.10348   0.00281
  59        5PX        -0.07955   0.00073  -0.01887   0.00041   0.01106
  60        5PY         0.00187   0.02766   0.00048   0.01431   0.00034
  61        5PZ         0.00701   0.00078   0.00191   0.00040  -0.00294
  62        6D 0       -0.00004  -0.00145  -0.00005   0.00800  -0.00006
  63        6D+1        0.00027  -0.00042   0.00031   0.00120   0.00003
  64        6D-1       -0.00074  -0.00004  -0.00108  -0.00041  -0.00202
  65        6D+2        0.00051   0.00424   0.00061  -0.00051   0.00018
  66        6D-2        0.01013  -0.00021   0.01222  -0.00001   0.00419
  67 4   H  1S         -0.04039   0.00151  -0.05421  -0.06251   0.03140
  68        2S         -0.04889   0.00068  -0.06643  -0.07991   0.04232
  69        3S          0.00455   0.00603  -0.00549  -0.00848   0.01473
  70        4PX         0.00126  -0.00258   0.00029   0.00139  -0.00137
  71        4PY         0.00531  -0.00015   0.00385   0.00333  -0.00397
  72        4PZ         0.00702  -0.00005   0.00745   0.00860  -0.00028
  73 5   H  1S         -0.04054   0.00290  -0.05016  -0.06038  -0.05653
  74        2S         -0.04947   0.00235  -0.06188  -0.07649  -0.07146
  75        3S          0.00614   0.00270  -0.00635  -0.00432  -0.01591
  76        4PX         0.00027  -0.00277  -0.00125  -0.00030  -0.00152
  77        4PY         0.00583  -0.00031   0.00399   0.00364   0.00534
  78        4PZ        -0.00680   0.00051  -0.00690  -0.00829  -0.00295
  79 6   N  1S         -0.03169   0.02610   0.01440   0.00379   0.00467
  80        2S         -0.05005   0.04131   0.02282   0.00604   0.00746
  81        2PX        -0.02869   0.04739   0.03205  -0.00354   0.05504
  82        2PY         0.00149  -0.01822  -0.03876  -0.02534   0.04678
  83        2PZ         0.01736  -0.02504  -0.02900  -0.01333   0.05955
  84        3S          0.14049  -0.11658  -0.06447  -0.01766  -0.02180
  85        3PX        -0.04208   0.07020   0.04777  -0.00511   0.07966
  86        3PY         0.00196  -0.02736  -0.05755  -0.03731   0.06755
  87        3PZ         0.02576  -0.03688  -0.04235  -0.01928   0.08737
  88        4S          0.10686  -0.09648  -0.05280  -0.00498  -0.02013
  89        4PX        -0.02010   0.03468   0.02467  -0.00110   0.05027
  90        4PY         0.00059  -0.01404  -0.03557  -0.02584   0.03987
  91        4PZ         0.01079  -0.01835  -0.02302  -0.00974   0.05642
  92        5S          0.04210  -0.05699  -0.03563   0.00504   0.00273
  93        5PX        -0.00197   0.00090   0.00996   0.00493  -0.00108
  94        5PY        -0.01015   0.01004   0.01241   0.00124  -0.00290
  95        5PZ         0.00579  -0.00692  -0.00390   0.00076  -0.00068
  96        6D 0        0.00183  -0.00394  -0.00513  -0.00250   0.00758
  97        6D+1       -0.00078   0.00121   0.00050  -0.00044   0.00561
  98        6D-1        0.00173  -0.00221  -0.00261  -0.00141   0.00043
  99        6D+2       -0.00091  -0.00009  -0.00263  -0.00242   0.00028
 100        6D-2        0.00454  -0.00775  -0.00665  -0.00143  -0.00587
 101 7   H  1S         -0.03034   0.04916   0.05486   0.03417   0.04575
 102        2S         -0.03562   0.05894   0.06657   0.04465   0.05604
 103        3S          0.00683  -0.00183   0.00535   0.00367   0.01198
 104        4PX        -0.00142   0.00015  -0.00153  -0.00057   0.00069
 105        4PY        -0.00402   0.00532   0.00392   0.00181   0.00453
 106        4PZ         0.00489  -0.00731  -0.00753  -0.00473  -0.00166
 107 8   H  1S         -0.03155   0.05354   0.06328   0.03795  -0.04044
 108        2S         -0.03797   0.06609   0.07791   0.04809  -0.04901
 109        3S          0.00473   0.00257   0.00762   0.00177  -0.00673
 110        4PX        -0.00252   0.00176  -0.00001   0.00020  -0.00062
 111        4PY        -0.00362   0.00495   0.00369   0.00126  -0.00323
 112        4PZ        -0.00513   0.00809   0.00869   0.00523  -0.00153
 113 9   H  1S          0.03536  -0.04311  -0.04552  -0.02209   0.05669
 114        2S          0.03892  -0.04973  -0.05459  -0.02753   0.07344
 115        3S         -0.00643   0.00454  -0.00565  -0.00804   0.02199
 116        4PX        -0.00206   0.00332   0.00201  -0.00061   0.00472
 117        4PY        -0.00392   0.00346   0.00232   0.00082  -0.00349
 118        4PZ        -0.00563   0.00603   0.00578   0.00294  -0.00520
 119 10  H  1S          0.04077  -0.04341  -0.01803   0.00827  -0.06256
 120        2S          0.04409  -0.05063  -0.02507   0.00646  -0.08280
 121        3S         -0.01184   0.00835   0.00835   0.00333  -0.02574
 122        4PX         0.00571  -0.00447  -0.00047   0.00140  -0.00692
 123        4PY         0.00475  -0.00609  -0.00494  -0.00116  -0.00293
 124        4PZ         0.00121  -0.00180  -0.00203  -0.00090   0.00396
 125 11  C  1S         -0.05974  -0.00393  -0.04647   0.04210  -0.00982
 126        2S         -0.09254  -0.00608  -0.07249   0.06571  -0.01541
 127        2PX         0.01639   0.05582  -0.01671  -0.01542  -0.01199
 128        2PY        -0.01098  -0.00411   0.03077  -0.05842   0.00596
[...]
 52405,-0.02570492,0.00008094,0.00072579,-0.00002762,-0.00064376,0.0006
 7932,-0.00018778,-0.01704036,-0.01235105,0.00470214,0.17846620,0.16603
 355,-0.00043226,0.00582003,-0.00250958,0.00167272,-0.00142466,-0.00006
 871,0.00042380,0.00046917,0.00066158,0.00012992,0.00027734,0.00020934,
 -0.00037746,-0.00030488,0.00015913,0.03432360,-0.00284960,-0.03051250,
 -0.00008388,-0.00102026,0.00031569,0.00018533,0.00007955,0.00001129,-0
 .03190232,-0.02016191,-0.00204095,-0.00420760,0.01938101,0.03382045,-0
 .00166613,0.00354951,0.00011074,-0.03055347,-0.01416396,0.00148535,-0.
 14795941,-0.04873884,0.00379408,0.00167225,-0.00116339,-0.00038967,0.0
 0156020,-0.00111083,0.00006526,-0.00093198,-0.00088383,-0.00009322,-0.
 00003025,-0.00014137,0.00019162,-0.00003093,0.00001639,-0.00012455,0.0
 0000314,-0.00001723,0.00003068,-0.00037969,0.00026139,0.00013039,0.457
 95889,0.00182796,-0.00477687,-0.00014328,0.01642705,0.01464054,-0.0006
 6364,-0.04960020,-0.11441819,0.00195690,0.00063334,0.00035532,-0.00006
 801,0.00063082,0.00037093,-0.00007380,0.00262368,0.00095526,0.00013258
 ,-0.00002196,0.00026550,-0.00037757,-0.00004856,0.00009984,0.00033508,
 -0.00012139,0.00004546,0.00000894,0.00071281,-0.00030879,-0.00028037,0
 .00160271,0.52849201,0.00028058,-0.00031032,-0.00049623,0.00239381,0.0
 0150178,-0.00208421,0.00342338,0.00148524,-0.07738655,0.00089724,0.000
 24584,0.00019629,-0.00099837,-0.00005520,0.00031161,0.00024877,0.00009
 495,0.00051045,-0.00003602,-0.00037211,0.00022974,0.00013537,0.0002935
 8,0.00027982,-0.00009355,0.00007188,0.00001589,0.00004378,-0.00006108,
 0.00002152,0.00905212,0.00222527,0.58087884,0.00133304,0.00074176,0.00
 104399,-0.00019148,0.01590303,0.02356819,-0.04753592,-0.00979323,-0.01
 431884,-0.00435184,0.00324281,0.00048345,0.00109401,-0.00069827,-0.000
 50072,0.00005811,-0.00005803,-0.00016760,-0.00004948,-0.00008799,-0.00
 001802,-0.00027525,-0.00028208,-0.00039324,0.00013726,-0.00010334,-0.0
 0017203,0.00000553,-0.00006253,-0.00007227,-0.00398600,-0.01629951,-0.
 02423096,0.05703838,-0.00104928,0.00023689,0.00002181,0.00017468,-0.01
 228436,-0.01686292,-0.00969372,-0.12551388,-0.11195274,0.00331135,-0.0
 0172545,-0.00039386,-0.00073862,0.00037348,0.00021273,0.00007014,0.000
 16853,0.00036775,0.00009816,0.00003293,0.00002109,0.00042691,0.0005221
 9,0.00023639,-0.00025062,0.00000368,0.00006974,0.00004110,0.00003168,0
 .00000397,-0.00277862,-0.01150994,-0.01550424,0.01061580,0.13792167,-0
 .00054335,-0.00012532,0.00015674,0.00040637,-0.00120341,-0.00222217,-0
 .01445374,-0.11305383,-0.21647750,0.00042807,-0.00032883,0.00152748,0.
 00040272,-0.00010646,0.00089388,0.00030425,0.00024254,0.00028123,0.000
 02943,-0.00002766,-0.00000317,0.00051542,0.00021757,0.00013025,-0.0001
 6664,0.00002192,-0.00000914,0.00009481,-0.00002218,-0.00006014,-0.0002
 2687,0.00104105,0.00111730,0.01517161,0.12707586,0.23335194,0.00112260
 ,0.00098977,-0.00120679,-0.00299039,0.01715039,-0.02247433,-0.04670088
 ,0.00594418,-0.00787275,0.00111415,-0.00069213,0.00041805,-0.00422961,
 0.00302691,0.00066002,-0.00014029,-0.00026883,0.00033707,-0.00029600,-
 0.00037808,0.00042831,-0.00006244,-0.00006591,0.00004049,0.00001482,0.
 00003263,-0.00000201,0.00001352,-0.00009751,0.00010171,-0.00111202,-0.
 01783796,0.02345870,-0.00061073,0.00139612,-0.00180436,0.05614101,-0.0
 0119395,0.00013216,0.00015569,0.00232380,-0.01334185,0.01595667,0.0058
 5449,-0.13918048,0.11686516,-0.00072672,0.00040729,-0.00013466,0.00322
 787,-0.00170322,-0.00035679,0.00000568,0.00025810,-0.00028267,0.000379
 29,0.00063916,-0.00030071,0.00003301,0.00004096,-0.00002997,-0.0000202
 3,-0.00009847,0.00002266,0.00005367,0.00006274,-0.00009853,-0.00081680
 ,-0.01231895,0.01503771,-0.00066161,0.01185898,-0.01394994,-0.00661654
 ,0.15329690,0.00036648,0.00014634,0.00012225,-0.00015734,-0.00180137,0
 .00190371,-0.00795174,0.11796654,-0.20363510,-0.00049681,0.00016926,0.
 00093965,0.00055553,-0.00025704,0.00150133,-0.00007314,-0.00028427,0.0
 0011388,-0.00038007,-0.00028319,0.00021003,0.00002870,0.00005259,0.000
 00463,0.00003040,0.00002679,-0.00002145,-0.00010716,0.00003652,0.00000
 240,0.00043168,0.00059122,-0.00127456,-0.00108405,0.01589498,-0.021622
 62,0.00789794,-0.13214690,0.21886663,0.00000319,0.00071771,0.00005946,
 -0.00195545,-0.00199594,0.00018239,-0.02747107,0.01147915,0.00203648,0
 .00003819,-0.00005245,0.00007098,0.00004701,-0.00009924,-0.00003991,-0
 .00013807,-0.00014324,-0.00002432,0.00000727,-0.00004030,0.00004527,0.
 00000371,-0.00000847,-0.00003609,0.00000653,-0.00000912,0.00000110,-0.
 00003446,0.00002630,0.00001200,-0.13813059,0.06132434,0.00516762,0.001
 13124,0.00111682,0.00041908,0.00134688,0.00102114,-0.00048657,0.452952
 15,-0.00062707,0.00172192,0.00005558,-0.00370004,-0.00449758,0.0000671
 5,-0.01449439,0.01431560,0.00147260,0.00020521,0.00010128,0.00033074,0
 .00009944,0.00015280,-0.00032166,-0.00100950,-0.00034778,-0.00005756,0
 .00004219,-0.00001642,0.00008734,0.00004052,0.00000871,-0.00009751,0.0
 0003777,-0.00000974,-0.00000603,-0.00028063,0.00010958,0.00011212,0.05
 091664,-0.12573694,-0.00482724,-0.00097543,0.00014432,-0.00016696,-0.0
 0085691,0.00022164,0.00015759,-0.01124949,0.53026114,0.00002230,0.0000
 0836,0.00055800,-0.00008680,-0.00008805,-0.00048305,0.00123948,-0.0002
 7546,-0.00237703,-0.00000990,0.00026074,0.00028165,0.00008199,-0.00028
 743,0.00023124,-0.00005732,0.00000635,-0.00000940,-0.00007122,-0.00004
 870,-0.00001549,0.00006687,0.00005415,-0.00002622,-0.00000431,-0.00000
 507,0.00000220,-0.00001565,0.00000296,0.00000954,0.00673150,-0.0051513
 5,-0.07943622,-0.00126700,-0.00008026,0.00010926,0.00100331,-0.0000749
 6,0.00015808,0.01165123,-0.02193700,0.58618641,-0.00007598,0.00099709,
 -0.00000150,-0.00101825,-0.00252999,0.00009628,-0.00381039,0.00592293,
 -0.00021661,-0.00003267,0.00012681,0.00016693,-0.00000019,0.00010277,-
 0.00014162,-0.00063428,-0.00018462,-0.00003097,-0.00000475,-0.00003269
 ,0.00005241,0.00001452,-0.00001652,-0.00005859,0.00003174,-0.00000249,
 -0.00000440,-0.00015848,0.00006616,0.00007957,-0.03657789,-0.02163736,
 0.00220707,-0.00013153,0.00000938,-0.00006135,0.00005633,-0.00007845,0
 .00028647,-0.16195219,-0.06165680,-0.02170122,0.56268487,0.00013061,-0
 .00040712,-0.00002600,0.00099259,0.00104711,-0.00007743,0.00297525,-0.
 00269945,-0.00027023,-0.00011650,0.00002072,-0.00005378,-0.00008453,0.
 00002481,0.00005050,0.00022150,0.00008663,0.00001556,0.00000003,0.0000
 0912,-0.00002381,0.00000050,0.00000207,0.00002427,-0.00001049,-0.00000
 189,0.00000437,0.00006541,-0.00002648,-0.00002385,0.01484882,0.0131720
 6,0.00044160,0.00026280,0.00020271,0.00028986,0.00007123,0.00020084,-0
 .00026341,-0.04128945,-0.12868474,0.00337456,-0.10155975,0.45882379,-0
 .00001400,0.00003882,-0.00000776,-0.00004666,-0.00010414,0.00049845,-0
 .00001907,0.00031544,0.00020741,-0.00008541,0.00004262,-0.00000045,0.0
 0007730,-0.00003580,-0.00002646,-0.00002064,-0.00000930,-0.00000743,0.
 00000100,-0.00000225,0.00000431,0.00000086,-0.00000347,0.00000011,0.00
 000212,-0.00000095,-0.00000231,-0.00000719,0.00000472,-0.00000242,-0.0
 0014765,0.00091335,0.00060994,0.00036396,0.00026581,0.00014375,-0.0001
 8389,-0.00036329,0.00025003,0.01153832,0.02644555,-0.07267260,-0.02299
 891,-0.20437159,0.39675997,0.00000731,-0.00003894,-0.00007088,-0.00002
 203,0.00003656,-0.00001542,0.00147398,0.00086910,0.00068091,-0.0000343
 1,-0.00012963,-0.00014145,0.00002084,0.00000335,-0.00000327,-0.0000034
 2,0.00000030,0.00000112,-0.00000047,-0.00000223,0.00000160,-0.00002618
 ,-0.00001771,-0.00000285,0.00000376,0.00000290,0.00000057,-0.00000149,
 0.00000283,0.00000382,-0.00007421,0.01597124,0.02273271,-0.00027210,-0
 .00029894,-0.00037698,-0.00004981,-0.00009423,0.00002717,-0.04785209,-
 0.00602797,-0.01122292,-0.01393318,-0.02632412,-0.02266134,0.06072180,
 0.00003721,-0.00001350,0.00005222,0.00014575,0.00021460,0.00037388,-0.
 00105646,0.00013870,-0.00008250,-0.00018785,0.00009934,0.00006275,-0.0
 0000187,-0.00003284,-0.00000793,0.00002959,0.00000613,0.00000219,0.000
 00227,0.00000354,-0.00000439,0.00002085,0.00000828,0.00000180,-0.00000
 123,-0.00000303,-0.00000053,0.00000824,-0.00000403,-0.00000931,0.00102
 437,-0.01235579,-0.01800727,0.00041419,0.00059611,0.00032180,0.0000932
 4,0.00003299,0.00002794,-0.00473343,-0.12676121,-0.10568998,-0.0131243
 0,-0.01517375,-0.01384522,0.01286902,0.14198070,0.00004246,-0.00008994
 ,-0.00001760,0.00021911,0.00036575,0.00027110,-0.00031239,-0.00018503,
 0.00012037,-0.00016298,0.00006261,-0.00001361,-0.00001289,0.00000128,-
 0.00000950,0.00005561,0.00002138,0.00000552,0.00000199,0.00000489,-0.0
 0000478,0.00000843,0.00000050,0.00000873,-0.00000248,-0.00000072,0.000
 00031,0.00001455,-0.00000744,-0.00000936,-0.00047046,-0.00151063,-0.00
 284614,0.00047333,0.00029340,0.00024203,-0.00001443,-0.00002005,-0.000
 00169,-0.00969356,-0.10646859,-0.20712251,-0.00292293,0.00031585,0.007
 41737,0.01415985,0.12232159,0.21949117,0.00000295,-0.00004328,0.000061
 55,-0.00002721,0.00004930,0.00011875,0.00149512,0.00065326,-0.00084947
 ,0.00000967,0.00000748,0.00000408,0.00003009,-0.00015943,0.00011915,0.
 00001468,-0.00000137,0.00000089,-0.00002620,-0.00001943,0.00000726,0.0
 0000416,0.00000020,-0.00000044,0.00000007,0.00000173,-0.00000171,0.000
 00023,0.00000252,-0.00000241,-0.00342616,0.01626856,-0.02285215,-0.000
 06123,-0.00002939,0.00002161,-0.00026029,-0.00039916,0.00046978,-0.048
 67597,0.01382921,-0.01938633,-0.00250856,-0.02371203,0.02545035,0.0008
 9085,0.00141509,-0.00090642,0.05989454,0.00001145,0.00000914,-0.000055
 63,-0.00000053,0.00013342,-0.00031194,-0.00105483,0.00033023,-0.000021
 62,0.00000686,-0.00004088,-0.00000379,-0.00016035,0.00007321,-0.000021
 89,0.00001782,0.00000224,0.00000354,0.00001953,0.00000845,-0.00000086,
 -0.00000040,0.00000223,0.00000439,-0.00000153,-0.00000155,0.00000137,0
 .00000657,-0.00000414,0.00000075,0.00324975,-0.01261455,0.01632785,0.0
 0006892,0.00004021,-0.00005261,0.00035989,0.00057771,-0.00023412,0.009
 45310,-0.12979893,0.11258153,-0.00241311,-0.01499626,0.01644058,-0.001
 12149,0.01150020,-0.01476993,-0.00742980,0.14629563,-0.00002975,0.0001
 0068,-0.00002343,-0.00014230,-0.00033558,0.00024424,-0.00002147,0.0000
 3316,0.00029645,-0.00000566,0.00000777,-0.00000917,0.00012409,-0.00001
 595,-0.00006107,-0.00005905,-0.00002096,-0.00000126,-0.00000186,-0.000
 00147,0.00000845,-0.00000071,-0.00000416,-0.00000531,0.00000422,0.0000
 0152,-0.00000140,-0.00001587,0.00000767,0.00000516,-0.00008721,-0.0019
 2744,0.00212698,0.00004554,0.00002859,0.00000166,-0.00039465,-0.000202
 95,0.00011244,-0.01533447,0.11772207,-0.21864486,0.00225244,0.00138229
 ,0.00124622,-0.00284755,0.01399551,-0.02232881,0.01540476,-0.12989860,
 0.23258470,0.00004653,-0.00010016,0.00009375,0.00157859,-0.00064622,-0
 .00103929,-0.00436133,-0.01622309,-0.02374883,-0.00027061,0.00039214,0
 .00049049,-0.00006173,0.00006146,0.00001311,0.00000067,0.00008146,0.00
 008361,0.00002099,-0.00000025,-0.00001336,0.00004859,0.00015352,0.0001
 3391,-0.00003799,0.00001132,0.00000579,0.00001058,-0.00001317,-0.00000
 347,-0.04732978,-0.01105297,-0.01631823,-0.00455023,-0.00310392,0.0003
 8637,0.00116705,0.00067490,0.00044598,-0.00040713,0.01667892,0.0235215
 4,0.00205385,-0.00027380,-0.00004297,-0.00429807,0.00310965,0.00057650
 ,0.00114247,-0.00078396,-0.00040070,0.05552781,0.00010872,0.00011764,0
 .00027532,0.00104275,0.00034468,0.00011497,-0.00254648,-0.01109619,-0.
 01471718,-0.00033775,0.00052543,0.00025977,-0.00005580,0.00004564,0.00
 004172,-0.00009315,0.00002546,0.00003446,-0.00000622,-0.00003349,-0.00
 000182,0.00015389,0.00005297,0.00001592,-0.00001218,-0.00000040,-0.000
 00567,-0.00001773,-0.00000287,0.00000493,-0.01002204,-0.12642384,-0.11
 379184,-0.00291139,-0.00140476,0.00006041,0.00068572,0.00031089,0.0000
 5445,-0.00052445,-0.01398475,-0.01763189,-0.00108706,0.00157215,0.0008
 4090,0.00340012,-0.00192417,-0.00046116,-0.00081048,0.00048971,0.00015
 242,0.01163340,0.13983693,-0.00001603,0.00031622,0.00026417,0.00013016
 ,0.00007326,0.00032380,0.00014298,0.00123549,0.00141619,-0.00041326,0.
 00021443,0.00012032,0.00000508,-0.00003808,-0.00002497,-0.00014967,-0.
 00003998,-0.00002745,-0.00000285,0.00000700,-0.00000925,0.00012865,0.0
 0002179,-0.00005902,0.00000239,-0.00001646,0.00000141,-0.00003541,0.00
 001584,0.00001122,-0.01548718,-0.11506182,-0.21853520,0.00050587,0.000
 15104,0.00152203,-0.00047285,-0.00021627,0.00088409,-0.00055858,-0.001
 59738,-0.00242589,0.00013300,0.00070978,0.00029905,0.00044024,-0.00047
 201,0.00154169,0.00043729,-0.00003374,0.00109820,0.01697070,0.12856186
 ,0.23498506,0.00003009,-0.00019964,-0.00003393,0.00169766,-0.00074526,
 0.00084483,-0.00130496,-0.01793442,0.02356991,-0.00006086,0.00006511,-
 0.00000314,-0.00025942,0.00040832,-0.00040714,-0.00003445,0.00012458,-
 0.00008083,-0.00001727,0.00020221,-0.00015516,0.00000880,-0.00000921,-
 0.00000685,0.00000542,-0.00000980,-0.00000150,0.00001671,-0.00001152,0
 .00000061,-0.04664245,0.00563716,-0.00724594,0.00118755,0.00071414,-0.
 00046596,-0.00468908,-0.00317543,0.00025878,-0.00386993,0.01796435,-0.
 02305826,0.00221238,0.00015741,-0.00043443,0.00108435,-0.00094203,0.00
 037582,-0.00438562,0.00321312,0.00055060,-0.00053195,0.00145853,-0.001
 75554,0.05568179,0.00005398,0.00014056,-0.00026522,0.00111051,0.000344
 08,-0.00028809,-0.00093401,-0.01237057,0.01482661,-0.00005913,0.000045
 40,-0.00001943,-0.00037080,0.00056011,-0.00017488,-0.00013262,0.000020
 76,-0.00003706,0.00014321,0.00008724,-0.00004846,-0.00001022,-0.000039
 99,-0.00000955,0.00000777,-0.00000418,0.00000054,-0.00001761,-0.000001
 91,0.00001538,0.00584942,-0.13714545,0.11599907,0.00062871,0.00034264,
 -0.00017382,-0.00310911,-0.00141549,0.00013667,0.00174560,-0.01409544,
 0.01705084,-0.00110000,0.00118569,-0.00068639,-0.00066331,0.00052232,-
 0.00015497,0.00322804,-0.00161557,-0.00043313,-0.00055787,0.01152572,-
 0.01397267,-0.00643011,0.15154322,0.00005745,-0.00034053,0.00024782,-0
 .00032655,0.00009146,0.00018463,0.00009754,0.00071263,-0.00143998,-0.0
 0000594,0.00002273,-0.00001723,0.00045202,-0.00026708,0.00009948,0.000
 16039,0.00004632,0.00000018,-0.00013717,-0.00004921,-0.00001945,0.0000
 0357,0.00000236,-0.00000934,-0.00000611,0.00000549,-0.00000449,0.00003
 651,-0.00001413,-0.00001496,-0.00681689,0.11714044,-0.20450293,0.00046
 154,0.00008131,0.00093509,0.00031687,0.00019460,0.00155879,0.00054640,
 -0.00161905,0.00142695,-0.00050428,-0.00055433,0.00064513,-0.00060177,
 0.00026543,0.00105494,0.00064995,-0.00020154,0.00157928,-0.00085167,0.
 01584046,-0.02148016,0.00738488,-0.13129359,0.21967484,0.00000474,-0.0
 0003960,-0.00000639,0.00001104,0.00013182,-0.00009010,-0.00022410,-0.0
 0005604,-0.00039632,0.00000542,-0.00000813,-0.00000708,-0.00003770,0.0
 0001376,0.00000401,0.00003343,0.00000894,0.00000295,0.00000368,0.00000
 102,-0.00000230,0.00000006,0.00000148,0.00000420,-0.00000207,-0.000000
 11,0.00000080,0.00000771,-0.00000433,-0.00000295,0.00165162,-0.0008942
 4,0.00145561,0.00001505,0.00001388,0.00003109,0.00015817,0.00025358,-0
 .00015523,-0.00065204,-0.01981661,0.02976664,-0.06075466,0.00463824,-0
 .00162507,0.00096188,0.00035237,-0.00047402,-0.00511272,-0.00359980,0.
 00045190,-0.00007755,0.00004550,-0.00010992,-0.00053037,0.00076473,-0.
 00077110,0.06431589,0.00000831,-0.00000890,0.00000466,0.00001808,0.000
 04285,-0.00006568,0.00022752,-0.00003327,-0.00012770,0.00000926,-0.000
 00371,-0.00000480,-0.00000966,-0.00000189,0.00001587,0.00000095,-0.000
 00226,0.00000103,-0.00000330,-0.00000299,0.00000062,-0.00000163,-0.000
 00129,-0.00000171,0.00000028,0.00000249,-0.00000147,0.00000054,-0.0000
 0065,0.00000144,0.00043448,0.00131915,-0.00079611,-0.00003880,-0.00009
 388,-0.00003174,0.00010518,-0.00001096,-0.00001310,-0.00262548,-0.0149
 5440,0.01941871,0.00400385,-0.13012722,0.15697068,0.00166907,0.0005191
 2,0.00017696,-0.00345894,-0.00100320,-0.00079611,0.00005337,-0.0000566
 6,-0.00011285,-0.00035163,0.00029016,0.00019742,0.00001215,0.15833601,
 0.00000176,0.00000509,0.00000276,0.00003091,-0.00000811,0.00001156,0.0
 0010059,-0.00012710,0.00026953,-0.00000099,-0.00000042,-0.00000482,0.0
 0000528,0.00000517,0.00000248,-0.00000427,-0.00000413,-0.00000241,0.00
 000050,0.00000034,0.00000032,-0.00000184,-0.00000126,-0.00000156,0.000
 00086,0.00000167,-0.00000128,-0.00000158,0.00000089,0.00000087,0.00019
 628,-0.00029345,0.00024993,-0.00000586,-0.00002696,-0.00002372,-0.0001
 6787,-0.00005909,-0.00001390,-0.00337884,-0.00444374,-0.00282729,-0.00
 205234,0.20658802,-0.30610945,-0.00007771,-0.00035364,0.00181873,0.001
 01690,0.00028537,0.00176626,0.00005783,0.00002110,-0.00009926,0.000555
 38,-0.00018117,-0.00009983,0.00172023,-0.19592026,0.30619436,-0.000020
 47,0.00028734,0.00000038,-0.00043029,-0.00070658,0.00000604,-0.0007319
 2,0.00194805,0.00019730,0.00001830,0.00001450,0.00003839,0.00001174,0.
 00001887,-0.00003511,-0.00016439,-0.00005805,-0.00001074,-0.00000198,-
 0.00000930,0.00001433,-0.00000010,-0.00000609,-0.00001662,0.00000757,-
 0.00000089,-0.00000172,-0.00004035,0.00001986,0.00002117,-0.00401515,-
 0.00614551,0.00027845,0.00001560,-0.00004537,-0.00011158,0.00000699,-0
 .00004430,0.00009318,-0.02439718,0.02088062,0.00279606,-0.28546069,0.1
 6900626,0.01085334,0.00140258,0.00052533,-0.00095509,0.00099912,0.0001
 5877,0.00050771,0.00032925,-0.00010391,0.00010493,0.00040162,-0.000147
 20,-0.00014564,0.00022251,-0.00005361,0.00200479,0.31184723,-0.0000195
 8,0.00010296,0.00000302,-0.00026402,-0.00027778,0.00004145,-0.00089519
 ,0.00081433,0.00016443,0.00001051,-0.00000322,0.00001300,0.00001249,-0
 .00000326,-0.00001484,-0.00006396,-0.00002109,-0.00000548,-0.00000320,
 -0.00000443,0.00000702,-0.00000261,-0.00000330,-0.00000749,0.00000400,
 -0.00000069,-0.00000093,-0.00001879,0.00000608,0.00000768,-0.00191656,
 -0.00210674,0.00000064,0.00009418,0.00005625,-0.00002826,0.00006771,0.
 00002908,0.00002250,-0.02411310,0.01185092,-0.00148805,0.19419414,-0.1
 8423082,0.01714392,-0.00010596,0.00064629,0.00010426,0.00060789,0.0006
 1272,0.00020469,-0.00009472,0.00007991,0.00025455,-0.00013588,0.000080
 69,-0.00026117,0.01818141,-0.01420849,-0.00548829,-0.18553878,0.186580
 60,0.00000440,-0.00010572,0.00000340,0.00012798,0.00025253,0.00003984,
 0.00034327,-0.00047210,0.00064705,0.00000041,-0.00001468,-0.00001513,-
 0.00000277,-0.00000539,0.00000986,0.00007624,0.00001858,-0.00000155,0.
 00000406,0.00000937,-0.00000833,-0.00000275,-0.00000095,0.00000444,-0.
 00000256,-0.00000141,0.00000074,0.00001957,-0.00000766,-0.00000955,0.0
 0162397,0.00120653,0.00001375,0.00011312,0.00009653,0.00000583,-0.0000
 6854,0.00000429,-0.00005861,-0.00217799,-0.00490801,-0.00292280,0.0454
 2055,-0.00753221,-0.02925288,-0.00002584,0.00104766,0.00038206,0.00023
 661,-0.00003911,0.00000526,-0.00036107,0.00033090,0.00019396,0.0001078
 5,-0.00029067,0.00018125,-0.02979692,0.02108414,-0.00113329,-0.0156395
 7,-0.01067264,0.03191469\\-0.00000193,0.00000243,-0.00000048,0.0000004
 3,0.00000030,-0.00000150,-0.00000004,0.00000003,0.00000066,0.00000025,
 0.00000182,0.00000039,0.00000057,0.00000135,-0.00000303,0.00000037,-0.
 00000135,-0.00001705,-0.00000044,-0.00000058,0.00000203,-0.00000057,-0
 .00000239,-0.00000353,-0.00000098,0.00000727,0.00000616,0.00000123,-0.
 00000029,0.00000070,0.00000039,-0.00000110,0.00000039,0.00000012,-0.00
 000045,0.00000083,-0.00000049,0.00000073,0.00000065,-0.00000169,-0.000
 00041,0.00000279,-0.00000142,-0.00000379,0.00001595,-0.00000057,-0.000
 00326,-0.00000110,-0.00000041,-0.00000258,0.00000500,-0.00000008,0.000
 00127,0.00000082,0.00000051,-0.00000039,-0.00000088,0.00000218,0.00000
 496,-0.00000786,0.00000256,-0.00000358,-0.00000094\\\@
 The archive entry for this job was punched.


 AN OPTIMIST IS A GUY
 THAT HAS NEVER HAD
 MUCH EXPERIENCE
   (CERTAIN MAXIMS OF ARCHY  -- DON MARQUIS)
 Job cpu time:       0 days  0 hours 39 minutes 54.3 seconds.
 Elapsed time:       0 days  0 hours 20 minutes 34.7 seconds.
 File lengths (MBytes):  RWF=    182 Int=      0 D2E=      0 Chk=     21 Scr=      1
 Normal termination of Gaussian 16 at Fri Jun  2 12:00:48 2023.
