 Entering Gaussian System, Link 0=g16
 Input=PyrCHOCH3-CO2_binding-site_index-5-freq.gjf
 Output=PyrCHOCH3-CO2_binding-site_index-5-freq.log
 Initial command:
 /software/commercial/gaussian/g16/AVX2/g16/l1.exe "/scratch1/svicchi/G09-1734025.pbs02/Gau-1651847.inp" -scrdir="/scratch1/svicchi/G09-1734025.pbs02/"
 Entering Link 1 = /software/commercial/gaussian/g16/AVX2/g16/l1.exe PID=   1651848.
  
 Copyright (c) 1988-2021, Gaussian, Inc.  All Rights Reserved.
  
 This is part of the Gaussian(R) 16 program.  It is based on
 the Gaussian(R) 09 system (copyright 2009, Gaussian, Inc.),
 the Gaussian(R) 03 system (copyright 2003, Gaussian, Inc.),
 the Gaussian(R) 98 system (copyright 1998, Gaussian, Inc.),
 the Gaussian(R) 94 system (copyright 1995, Gaussian, Inc.),
 the Gaussian 92(TM) system (copyright 1992, Gaussian, Inc.),
 the Gaussian 90(TM) system (copyright 1990, Gaussian, Inc.),
 the Gaussian 88(TM) system (copyright 1988, Gaussian, Inc.),
 the Gaussian 86(TM) system (copyright 1986, Carnegie Mellon
 University), and the Gaussian 82(TM) system (copyright 1983,
 Carnegie Mellon University). Gaussian is a federally registered
 trademark of Gaussian, Inc.
  
 This software contains proprietary and confidential information,
 including trade secrets, belonging to Gaussian, Inc.
  
 This software is provided under written license and may be
 used, copied, transmitted, or stored only in accord with that
 written license.
  
 The following legend is applicable only to US Government
 contracts under FAR:
  
                    RESTRICTED RIGHTS LEGEND
  
 Use, reproduction and disclosure by the US Government is
 subject to restrictions as set forth in subparagraphs (a)
 and (c) of the Commercial Computer Software - Restricted
 Rights clause in FAR 52.227-19.
  
 Gaussian, Inc.
 340 Quinnipiac St., Bldg. 40, Wallingford CT 06492
  
  
 ---------------------------------------------------------------
 Warning -- This program may not be used in any manner that
 competes with the business of Gaussian, Inc. or will provide
 assistance to any competitor of Gaussian, Inc.  The licensee
 of this program is prohibited from giving any competitor of
 Gaussian, Inc. access to this program.  By using this program,
 the user acknowledges that Gaussian, Inc. is engaged in the
 business of creating and licensing software in the field of
 computational chemistry and represents and warrants to the
 licensee that it is not a competitor of Gaussian, Inc. and that
 it will not use this program in any manner prohibited above.
 ---------------------------------------------------------------
  

 Cite this work as:
 Gaussian 16, Revision C.02,
 M. J. Frisch, G. W. Trucks, H. B. Schlegel, G. E. Scuseria, 
 M. A. Robb, J. R. Cheeseman, G. Scalmani, V. Barone, 
 G. A. Petersson, H. Nakatsuji, X. Li, M. Caricato, A. V. Marenich, 
 J. Bloino, B. G. Janesko, R. Gomperts, B. Mennucci, H. P. Hratchian, 
 J. V. Ortiz, A. F. Izmaylov, J. L. Sonnenberg, D. Williams-Young, 
 F. Ding, F. Lipparini, F. Egidi, J. Goings, B. Peng, A. Petrone, 
 T. Henderson, D. Ranasinghe, V. G. Zakrzewski, J. Gao, N. Rega, 
 G. Zheng, W. Liang, M. Hada, M. Ehara, K. Toyota, R. Fukuda, 
 J. Hasegawa, M. Ishida, T. Nakajima, Y. Honda, O. Kitao, H. Nakai, 
 T. Vreven, K. Throssell, J. A. Montgomery, Jr., J. E. Peralta, 
 F. Ogliaro, M. J. Bearpark, J. J. Heyd, E. N. Brothers, K. N. Kudin, 
 V. N. Staroverov, T. A. Keith, R. Kobayashi, J. Normand, 
 K. Raghavachari, A. P. Rendell, J. C. Burant, S. S. Iyengar, 
 J. Tomasi, M. Cossi, J. M. Millam, M. Klene, C. Adamo, R. Cammi, 
 J. W. Ochterski, R. L. Martin, K. Morokuma, O. Farkas, 
 J. B. Foresman, and D. J. Fox, Gaussian, Inc., Wallingford CT, 2019.
 
 ******************************************
 Gaussian 16:  ES64L-G16RevC.02  7-Dec-2021
                14-Dec-2023 
 ******************************************
 %NProcShared=12
 Will use up to   12 processors via shared memory.
 %mem=110gb
 %chk=/scratch1/svicchi/G09-1734025.pbs02/02-freq/PyrCHOCH3-CO2_binding-site_inde
 x-5-freq.chk
 ----------------------------------------------------------------------
 #p freq=raman scale=0.967 guess=read geom=allcheck b3lyp/6-311+G(d,p) 
 int=grid=ultrafine EmpiricalDispersion=GD3BJ SCRF=(Solvent=ethanol) sc
 f=(xqc,intrep,maxconventionalcycle=350) nosymm
 ----------------------------------------------------------------------
 1/10=4,29=7,30=1,38=1,114=967000/1,3;
 2/12=2,15=1,40=1/2;
 3/5=4,6=6,7=111,11=2,14=-4,25=1,30=1,70=2201,71=2,72=4,74=-5,75=-5,116=-2,124=41,140=1/1,2,3;
 4/5=1/1;
 5/5=2,8=3,13=1,17=20,38=6,53=4,85=350,98=1/2,8;
 8/6=4,10=90,11=11/1;
 10/13=10,15=4,31=1/2;
 11/6=3,8=1,9=11,15=111,16=1,31=1/1,2,10;
 10/6=1,31=1/2;
 6/7=2,8=2,9=2,10=2,28=1/1;
 7/8=1,10=1,25=1,30=1/1,2,3,16;
 1/10=4,30=1/3;
 99//99;
 Leave Link    1 at Thu Dec 14 13:10:10 2023, MaxMem= 14763950080 cpu:               0.1 elap:               0.1
 (Enter /software/commercial/gaussian/g16/AVX2/g16/l101.exe)
 Structure from the checkpoint file:  "/scratch1/svicchi/G09-1734025.pbs02/02-freq/PyrCHOCH3-CO2_binding-site_index-5-freq.chk"
 ----------------------------------
 PyrCHOCH3-CO2_binding-site_index-5
 ----------------------------------
 Charge = -1 Multiplicity = 1
 No Z-Matrix found in chk file; cartesian coordinates used.
  C                                                -0.476432029138      0.794687201424      0.079321369913
  C                                                -1.199879477377     -0.246827512783     -0.472749419089
  C                                                -0.317266589179     -1.347081960022     -0.581658254380
  H                                                -2.239117027686     -0.213679435601     -0.761611294662
  C                                                 0.926188034009     -0.945793616560     -0.103361388925
  N                                                 0.811749328480      0.383563312138      0.294806335929
  H                                                -0.777697288311      1.783966984296      0.379509598217
  C                                                 2.165298119139     -1.711953761185     -0.252003704400
  H                                                -0.523260624085     -2.310906482802     -1.021009831920
  O                                                 2.129496619500     -2.943038897940     -0.237695848495
  C                                                 3.471506537637     -1.007500603511     -0.551349063820
  H                                                 3.344751546517      0.045499310225     -0.794961923299
  H                                                 3.942283172894     -1.526635649686     -1.389661403471
  H                                                 4.130380923985     -1.083823295610      0.314802988450
  C                                                 1.749642935428      1.157580043727      1.174235970740
  O                                                 1.554490721862      2.382946050711      1.159836960384
  O                                                 2.562421696325      0.460759413180      1.797915908827
 Recover connectivity data from disk.
 ITRead=  0  0  0  0  0  0  0  0  0  0  0  0  0  0  0  0  0
 MicOpt= -1 -1 -1 -1 -1 -1 -1 -1 -1 -1 -1 -1 -1 -1 -1 -1 -1
 NAtoms=     17 NQM=       17 NQMF=       0 NMMI=      0 NMMIF=      0
                NMic=       0 NMicF=      0.
                    Isotopes and Nuclear Properties:
 (Nuclear quadrupole moments (NQMom) in fm**2, nuclear magnetic moments (NMagM)
  in nuclear magnetons)

  Atom         1           2           3           4           5           6           7           8           9          10
 IAtWgt=          12          12          12           1          12          14           1          12           1          16
 AtmWgt=  12.0000000  12.0000000  12.0000000   1.0078250  12.0000000  14.0030740   1.0078250  12.0000000   1.0078250  15.9949146
 NucSpn=           0           0           0           1           0           2           1           0           1           0
 AtZEff=   3.6000000   3.6000000   3.6000000   1.0000000   3.6000000   4.5500000   1.0000000   3.6000000   1.0000000   5.6000000
 NQMom=    0.0000000   0.0000000   0.0000000   0.0000000   0.0000000   2.0440000   0.0000000   0.0000000   0.0000000   0.0000000
 NMagM=    0.0000000   0.0000000   0.0000000   2.7928460   0.0000000   0.4037610   2.7928460   0.0000000   2.7928460   0.0000000
 AtZNuc=   6.0000000   6.0000000   6.0000000   1.0000000   6.0000000   7.0000000   1.0000000   6.0000000   1.0000000   8.0000000

  Atom        11          12          13          14          15          16          17
 IAtWgt=          12           1           1           1          12          16          16
 AtmWgt=  12.0000000   1.0078250   1.0078250   1.0078250  12.0000000  15.9949146  15.9949146
 NucSpn=           0           1           1           1           0           0           0
 AtZEff=   3.6000000   1.0000000   1.0000000   1.0000000   3.6000000   5.6000000   5.6000000
 NQMom=    0.0000000   0.0000000   0.0000000   0.0000000   0.0000000   0.0000000   0.0000000
 NMagM=    0.0000000   2.7928460   2.7928460   2.7928460   0.0000000   0.0000000   0.0000000
 AtZNuc=   6.0000000   1.0000000   1.0000000   1.0000000   6.0000000   8.0000000   8.0000000
 Leave Link  101 at Thu Dec 14 13:10:10 2023, MaxMem= 14763950080 cpu:               0.1 elap:               0.1
 (Enter /software/commercial/gaussian/g16/AVX2/g16/l103.exe)

 GradGradGradGradGradGradGradGradGradGradGradGradGradGradGradGradGradGrad
 Berny optimization.
 Initialization pass.
 Trust Radius=3.00D-01 FncErr=1.00D-07 GrdErr=1.00D-07 EigMax=2.50D+02 EigMin=1.00D-04
 Number of steps in this run=      2 maximum allowed number of steps=      2.
 GradGradGradGradGradGradGradGradGradGradGradGradGradGradGradGradGradGrad

 Leave Link  103 at Thu Dec 14 13:10:11 2023, MaxMem= 14763950080 cpu:               0.0 elap:               0.1
 (Enter /software/commercial/gaussian/g16/AVX2/g16/l202.exe)
                          Input orientation:                          
 ---------------------------------------------------------------------
 Center     Atomic      Atomic             Coordinates (Angstroms)
 Number     Number       Type             X           Y           Z
 ---------------------------------------------------------------------
      1          6           0       -0.476432    0.794687    0.079321
      2          6           0       -1.199879   -0.246828   -0.472749
      3          6           0       -0.317267   -1.347082   -0.581658
      4          1           0       -2.239117   -0.213679   -0.761611
      5          6           0        0.926188   -0.945794   -0.103361
      6          7           0        0.811749    0.383563    0.294806
      7          1           0       -0.777697    1.783967    0.379510
      8          6           0        2.165298   -1.711954   -0.252004
      9          1           0       -0.523261   -2.310906   -1.021010
     10          8           0        2.129497   -2.943039   -0.237696
     11          6           0        3.471507   -1.007501   -0.551349
     12          1           0        3.344752    0.045499   -0.794962
     13          1           0        3.942283   -1.526636   -1.389661
     14          1           0        4.130381   -1.083823    0.314803
     15          6           0        1.749643    1.157580    1.174236
     16          8           0        1.554491    2.382946    1.159837
     17          8           0        2.562422    0.460759    1.797916
 ---------------------------------------------------------------------
                    Distance matrix (angstroms):
                    1          2          3          4          5
     1  C    0.000000
     2  C    1.383080   0.000000
     3  C    2.247088   1.414718   0.000000
     4  H    2.197960   1.079145   2.238413   0.000000
     5  C    2.242764   2.268295   1.391395   3.314882   0.000000
     6  N    1.369258   2.243476   2.244549   3.283368   1.392416
     7  H    1.076823   2.242478   3.307462   2.725527   3.253918
     8  C    3.656742   3.676920   2.530797   4.680107   1.464408
     9  H    3.295092   2.240273   1.079083   2.722097   2.192376
    10  O    4.567490   4.290635   2.941435   5.177710   2.335591
    11  C    4.385413   4.733566   3.804081   5.769366   2.585178
    12  H    3.990877   4.565408   3.923666   5.589980   2.703779
    13  H    5.203027   5.377776   4.339225   6.350434   3.329981
    14  H    4.980660   5.452749   4.544724   6.518153   3.234311
    15  C    2.507177   3.658497   3.691695   4.640912   2.595094
    16  O    2.795483   4.143381   4.522100   4.982558   3.615376
    17  O    3.507094   4.451012   4.150093   5.482775   2.875849
                    6          7          8          9         10
     6  N    0.000000
     7  H    2.120058   0.000000
     8  C    2.553877   4.613187   0.000000
     9  H    3.282345   4.335226   2.859801   0.000000
    10  O    3.617499   5.583664   1.231689   2.837304   0.000000
    11  C    3.118549   5.168609   1.513949   4.228193   2.376063
    12  H    2.778126   4.625607   2.185076   4.534894   3.273950
    13  H    4.035658   6.030611   2.118085   4.548853   2.572823
    14  H    3.628628   5.684861   2.139478   4.994648   2.786660
    15  C    1.500714   2.722389   3.231277   4.692078   4.353495
    16  O    2.301624   2.531163   4.374310   5.577221   5.536230
    17  O    2.308712   3.862531   3.013397   5.014969   3.989609
                   11         12         13         14         15
    11  C    0.000000
    12  H    1.088220   0.000000
    13  H    1.092657   1.783906   0.000000
    14  H    1.090945   1.767530   1.771063   0.000000
    15  C    3.260373   2.767460   4.311178   3.380892   0.000000
    16  O    4.254202   3.534109   5.242740   4.400884   1.240892
    17  O    2.915694   2.739981   4.001800   2.654026   1.239010
                   16         17
    16  O    0.000000
    17  O    2.262271   0.000000
 Symmetry turned off by external request.
 Stoichiometry    C7H6NO3(1-)
 Framework group  C1[X(C7H6NO3)]
 Deg. of freedom    45
 Full point group                 C1      NOp   1
 Rotational constants (GHZ):           1.5096909           1.1735228           0.7177388
 Leave Link  202 at Thu Dec 14 13:10:11 2023, MaxMem= 14763950080 cpu:               0.0 elap:               0.0
 (Enter /software/commercial/gaussian/g16/AVX2/g16/l301.exe)
 Standard basis: 6-311+G(d,p) (5D, 7F)
 Ernie: Thresh=  0.10000D-02 Tol=  0.10000D-05 Strict=F.
   278 basis functions,   444 primitive gaussians,   289 cartesian basis functions
    40 alpha electrons       40 beta electrons
       nuclear repulsion energy       589.7799282695 Hartrees.
 IExCor=  402 DFT=T Ex+Corr=B3LYP ExCW=0 ScaHFX=  0.200000
 ScaDFX=  0.800000  0.720000  1.000000  0.810000 ScalE2=  1.000000  1.000000
 IRadAn=      5 IRanWt=     -1 IRanGd=            0 ICorTp=0 IEmpDi=141
 NAtoms=   17 NActive=   17 NUniq=   17 SFac= 1.00D+00 NAtFMM=   60 NAOKFM=F Big=F
 Integral buffers will be    131072 words long.
 Raffenetti 2 integral format.
 Two-electron integral symmetry is turned off.
 R6Disp:  Grimme-D3(BJ) Dispersion energy=       -0.0313950104 Hartrees.
 Nuclear repulsion after empirical dispersion term =      589.7485332591 Hartrees.
 Force inversion solution in PCM.
 ------------------------------------------------------------------------------
 Polarizable Continuum Model (PCM)
 =================================
 Model                : PCM.
 Atomic radii         : UFF (Universal Force Field).
 Polarization charges : Total charges.
 Charge compensation  : None.
 Solution method      : Matrix inversion.
 Cavity type          : Scaled VdW (van der Waals Surface) (Alpha=1.100).
 Cavity algorithm     : GePol (No added spheres)
                        Default sphere list used, NSphG=   17.
                        Lebedev-Laikov grids with approx.  5.0 points / Ang**2.
                        Smoothing algorithm: York/Karplus (Gamma=1.0000).
                        Polarization charges: spherical gaussians, with
                                              point-specific exponents (IZeta= 3).
                        Self-potential: point-specific (ISelfS= 7).
                        Self-field    : sphere-specific E.n sum rule (ISelfD= 2).
 1st derivatives      : Analytical E(r).r(x)/FMM algorithm (CHGder, D1EAlg=3).
                        Cavity 1st derivative terms included.
 2nd derivatives      : Analytical E(r).r(xy)/FMM algorithm (CHGder, D2EAlg=3).
                        Cavity 2nd derivative terms included.
 Solvent              : Ethanol, Eps=  24.852000 Eps(inf)=   1.852593
 ------------------------------------------------------------------------------
 Spheres list:
 ISph  on   Nord     Re0    Alpha      Xe            Ye            Ze
    1   C      1    1.9255  1.100     -0.476432      0.794687      0.079321
    2   C      2    1.9255  1.100     -1.199879     -0.246828     -0.472749
    3   C      3    1.9255  1.100     -0.317267     -1.347082     -0.581658
    4   H      4    1.4430  1.100     -2.239117     -0.213679     -0.761611
    5   C      5    1.9255  1.100      0.926188     -0.945794     -0.103361
    6   N      6    1.8300  1.100      0.811749      0.383563      0.294806
    7   H      7    1.4430  1.100     -0.777697      1.783967      0.379510
    8   C      8    1.9255  1.100      2.165298     -1.711954     -0.252004
    9   H      9    1.4430  1.100     -0.523261     -2.310906     -1.021010
   10   O     10    1.7500  1.100      2.129497     -2.943039     -0.237696
   11   C     11    1.9255  1.100      3.471507     -1.007501     -0.551349
   12   H     12    1.4430  1.100      3.344752      0.045499     -0.794962
   13   H     13    1.4430  1.100      3.942283     -1.526636     -1.389661
   14   H     14    1.4430  1.100      4.130381     -1.083823      0.314803
   15   C     15    1.9255  1.100      1.749643      1.157580      1.174236
   16   O     16    1.7500  1.100      1.554491      2.382946      1.159837
   17   O     17    1.7500  1.100      2.562422      0.460759      1.797916
 ------------------------------------------------------------------------------
 GePol: Number of generator spheres                  =      17
 GePol: Total number of spheres                      =      17
 GePol: Number of exposed spheres                    =      17 (100.00%)
 GePol: Number of points                             =    1525
 GePol: Average weight of points                     =       0.13
 GePol: Minimum weight of points                     =   0.90D-10
 GePol: Maximum weight of points                     =    0.20577
 GePol: Number of points with low weight             =      94
 GePol: Fraction of low-weight points (<1% of avg)   =       6.16%
 GePol: Cavity surface area                          =    201.290 Ang**2
 GePol: Cavity volume                                =    203.531 Ang**3
 Leave Link  301 at Thu Dec 14 13:10:11 2023, MaxMem= 14763950080 cpu:               0.1 elap:               0.1
 (Enter /software/commercial/gaussian/g16/AVX2/g16/l302.exe)
 NPDir=0 NMtPBC=     1 NCelOv=     1 NCel=       1 NClECP=     1 NCelD=      1
         NCelK=      1 NCelE2=     1 NClLst=     1 CellRange=     0.0.
 One-electron integrals computed using PRISM.
 NBasis=   278 RedAO= T EigKep=  3.93D-06  NBF=   278
 NBsUse=   278 1.00D-06 EigRej= -1.00D+00 NBFU=   278
 Precomputing XC quadrature grid using
 IXCGrd= 4 IRadAn=           5 IRanWt=          -1 IRanGd=           0 AccXCQ= 0.00D+00.
 Generated NRdTot=       0 NPtTot=           0 NUsed=           0 NTot=          32
 NSgBfM=   289   289   289   289   289 MxSgAt=    17 MxSgA2=    17.
 Leave Link  302 at Thu Dec 14 13:10:12 2023, MaxMem= 14763950080 cpu:               1.2 elap:               0.2
 (Enter /software/commercial/gaussian/g16/AVX2/g16/l303.exe)
 DipDrv:  MaxL=1.
 Leave Link  303 at Thu Dec 14 13:10:12 2023, MaxMem= 14763950080 cpu:               0.1 elap:               0.1
 (Enter /software/commercial/gaussian/g16/AVX2/g16/l401.exe)
 Initial guess from the checkpoint file:  "/scratch1/svicchi/G09-1734025.pbs02/02-freq/PyrCHOCH3-CO2_binding-site_index-5-freq.chk"
 B after Tr=     0.000000    0.000000    0.000000
         Rot=    1.000000    0.000000    0.000000    0.000000 Ang=   0.00 deg.
 Guess basis will be translated and rotated to current coordinates.
 JPrj=2 DoOrth=T DoCkMO=T.
 Leave Link  401 at Thu Dec 14 13:10:12 2023, MaxMem= 14763950080 cpu:               0.6 elap:               0.2
 (Enter /software/commercial/gaussian/g16/AVX2/g16/l502.exe)
 Two-electron integral symmetry not used.
 Closed shell SCF:
 Using DIIS extrapolation, IDIIS=  1040.
 NGot= 14763950080 LenX= 14763777041 LenY= 14763693079
 Requested convergence on RMS density matrix=1.00D-08 within 350 cycles.
 Requested convergence on MAX density matrix=1.00D-06.
 Requested convergence on             energy=1.00D-06.
 No special actions if energy rises.
 Fock matrices will be formed incrementally for  20 cycles.

 Cycle   1  Pass 1  IDiag  1:
 FoFJK:  IHMeth= 1 ICntrl=       0 DoSepK=F KAlg= 0 I1Cent=           0 FoldK=F
 IRaf= 930000000 NMat=       1 IRICut=       1 DoRegI=T DoRafI=F ISym2E= 0 IDoP0=0 IntGTp=1.
 FoFCou: FMM=F IPFlag=           0 FMFlag=      100000 FMFlg1=           0
         NFxFlg=           0 DoJE=F BraDBF=F KetDBF=F FulRan=T
         wScrn=  0.000000 ICntrl=         0 IOpCl=  0 I1Cent=           0 NGrid=           0
         NMat0=    1 NMatS0=      1 NMatT0=    0 NMatD0=    1 NMtDS0=    0 NMtDT0=    0
 Symmetry not used in FoFCou.
 Inv3:  Mode=1 IEnd=     6976875.
 Iteration    1 A*A^-1 deviation from unit magnitude is 3.11D-15 for   1110.
 Iteration    1 A*A^-1 deviation from orthogonality  is 2.07D-15 for   1222   1093.
 Iteration    1 A^-1*A deviation from unit magnitude is 2.89D-15 for   1109.
 Iteration    1 A^-1*A deviation from orthogonality  is 1.83D-15 for   1020    676.
 E= -551.142873527916    
 DIIS: error= 1.56D-08 at cycle   1 NSaved=   1.
 NSaved= 1 IEnMin= 1 EnMin= -551.142873527916     IErMin= 1 ErrMin= 1.56D-08
 ErrMax= 1.56D-08  0.00D+00 EMaxC= 1.00D-01 BMatC= 1.13D-13 BMatP= 1.13D-13
 IDIUse=1 WtCom= 1.00D+00 WtEn= 0.00D+00
 Coeff-Com:  0.100D+01
 Coeff:      0.100D+01
 Gap=     0.175 Goal=   None    Shift=    0.000
 RMSDP=7.45D-09 MaxDP=7.12D-07              OVMax= 2.44D-07

 Error on total polarization charges =  0.01844
 SCF Done:  E(RB3LYP) =  -551.142873528     A.U. after    1 cycles
            NFock=  1  Conv=0.74D-08     -V/T= 2.0039
 KE= 5.489903689704D+02 PE=-2.482915343920D+03 EE= 7.930335681629D+02
 Leave Link  502 at Thu Dec 14 13:10:16 2023, MaxMem= 14763950080 cpu:              28.0 elap:               2.9
 (Enter /software/commercial/gaussian/g16/AVX2/g16/l508.exe)
 QCSCF skips out because SCF is already converged.
 Leave Link  508 at Thu Dec 14 13:10:16 2023, MaxMem= 14763950080 cpu:               0.0 elap:               0.0
 (Enter /software/commercial/gaussian/g16/AVX2/g16/l801.exe)
 DoSCS=F DFT=T ScalE2(SS,OS)=  1.000000  1.000000
 Range of M.O.s used for correlation:     1   278
 NBasis=   278 NAE=    40 NBE=    40 NFC=     0 NFV=     0
 NROrb=    278 NOA=    40 NOB=    40 NVA=   238 NVB=   238

 **** Warning!!: The largest alpha MO coefficient is  0.10744557D+03

 Leave Link  801 at Thu Dec 14 13:10:16 2023, MaxMem= 14763950080 cpu:               0.1 elap:               0.1
 (Enter /software/commercial/gaussian/g16/AVX2/g16/l1002.exe)
 Minotr:  Closed shell wavefunction.
 NEqPCM:  Using equilibrium solvation (IEInf=0, Eps=  24.8520, EpsInf=   1.8526)
          Direct CPHF calculation.
          Differentiating once with respect to electric field.
                with respect to dipole field.
          Electric field/nuclear overlap derivatives assumed to be zero.
          Requested convergence is 1.0D-08 RMS, and 1.0D-07 maximum.
          Secondary convergence is 1.0D-12 RMS, and 1.0D-12 maximum.
          NewPWx=F KeepS1=T KeepF1=T KeepIn=T MapXYZ=F SortEE=F KeepMc=T.
         5249 words used for storage of precomputed grid.
 Two-electron integral symmetry not used.
          MDV=   14763950080 using IRadAn=       1.
          Solving linear equations simultaneously, MaxMat=     384.
          There are     3 degrees of freedom in the 1st order CPHF.  IDoFFX=0 NUNeed=     3.
      3 vectors produced by pass  0 Test12= 3.17D-13 3.33D-08 XBig12= 1.43D+02 7.40D+00.
 AX will form     3 AO Fock derivatives at one time.
 FoFJK:  IHMeth= 1 ICntrl=       0 DoSepK=F KAlg= 0 I1Cent=           0 FoldK=F
 IRaf= 930000000 NMat=       3 IRICut=       1 DoRegI=T DoRafI=F ISym2E= 0 IDoP0=0 IntGTp=1.
 FoFCou: FMM=F IPFlag=           0 FMFlag=      100000 FMFlg1=           0
         NFxFlg=           0 DoJE=F BraDBF=F KetDBF=F FulRan=T
         wScrn=  0.000000 ICntrl=         0 IOpCl=  0 I1Cent=           0 NGrid=           0
         NMat0=    3 NMatS0=      3 NMatT0=    0 NMatD0=    3 NMtDS0=    0 NMtDT0=    0
 Symmetry not used in FoFCou.
      3 vectors produced by pass  1 Test12= 3.17D-13 3.33D-08 XBig12= 5.69D+01 9.87D-01.
      3 vectors produced by pass  2 Test12= 3.17D-13 3.33D-08 XBig12= 1.12D+01 7.63D-01.
      3 vectors produced by pass  3 Test12= 3.17D-13 3.33D-08 XBig12= 3.76D+00 3.88D-01.
      3 vectors produced by pass  4 Test12= 3.17D-13 3.33D-08 XBig12= 6.10D-01 1.54D-01.
      3 vectors produced by pass  5 Test12= 3.17D-13 3.33D-08 XBig12= 2.24D-01 8.48D-02.
      3 vectors produced by pass  6 Test12= 3.17D-13 3.33D-08 XBig12= 3.46D-02 2.70D-02.
      3 vectors produced by pass  7 Test12= 3.17D-13 3.33D-08 XBig12= 6.88D-03 1.38D-02.
      3 vectors produced by pass  8 Test12= 3.17D-13 3.33D-08 XBig12= 9.63D-04 6.55D-03.
      3 vectors produced by pass  9 Test12= 3.17D-13 3.33D-08 XBig12= 5.37D-05 1.20D-03.
      3 vectors produced by pass 10 Test12= 3.17D-13 3.33D-08 XBig12= 1.20D-06 1.89D-04.
      3 vectors produced by pass 11 Test12= 3.17D-13 3.33D-08 XBig12= 4.03D-08 2.33D-05.
      3 vectors produced by pass 12 Test12= 3.17D-13 3.33D-08 XBig12= 1.01D-09 5.35D-06.
      3 vectors produced by pass 13 Test12= 3.17D-13 3.33D-08 XBig12= 3.42D-11 1.03D-06.
      2 vectors produced by pass 14 Test12= 3.17D-13 3.33D-08 XBig12= 8.73D-13 1.40D-07.
 InvSVY:  IOpt=1 It=  1 EMax= 2.44D-15
 Solved reduced A of dimension    44 with     3 vectors.
 End of Minotr F.D. properties file   721 does not exist.
 End of Minotr F.D. properties file   722 does not exist.
 End of Minotr F.D. properties file   788 does not exist.
 Leave Link 1002 at Thu Dec 14 13:11:01 2023, MaxMem= 14763950080 cpu:             521.6 elap:              44.8
 (Enter /software/commercial/gaussian/g16/AVX2/g16/l1101.exe)
 Using compressed storage, NAtomX=    17.
 Will process     18 centers per pass.
 R6Disp: Adding Grimme-D3(BJ) dispersion energy 1st derivatives to the gradient.
 Leave Link 1101 at Thu Dec 14 13:11:02 2023, MaxMem= 14763950080 cpu:               1.4 elap:               0.2
 (Enter /software/commercial/gaussian/g16/AVX2/g16/l1102.exe)
 Symmetrizing basis deriv contribution to polar:
 IMax=3 JMax=2 DiffMx= 0.00D+00
 Leave Link 1102 at Thu Dec 14 13:11:02 2023, MaxMem= 14763950080 cpu:               0.1 elap:               0.1
 (Enter /software/commercial/gaussian/g16/AVX2/g16/l1110.exe)
 Forming Gx(P) for the SCF density, NAtomX=    17.
 Integral derivatives from FoFJK, PRISM(SPDF).
 Do as many integral derivatives as possible in FoFJK.
 G2DrvN: MDV=   14763948193.
 G2DrvN: will do    18 centers at a time, making    1 passes.
 PxScal for G2LodP:  IOpCl= 0 ISclPx=1 IMOff=     1 NMtTot=     4 NTT=   38781 ScalPx= 7.38D+01
 Calling FoFCou, ICntrl=  3107 FMM=F I1Cent=   0 AccDes= 0.00D+00.
 FoFJK:  IHMeth= 1 ICntrl=    3107 DoSepK=F KAlg= 0 I1Cent=           0 FoldK=F
 IRaf=         0 NMat=       1 IRICut=       1 DoRegI=T DoRafI=F ISym2E= 0 IDoP0=0 IntGTp=1.
 FoFCou: FMM=F IPFlag=           0 FMFlag=      100000 FMFlg1=           0
         NFxFlg=           0 DoJE=F BraDBF=F KetDBF=F FulRan=T
         wScrn=  0.000000 ICntrl=      3107 IOpCl=  0 I1Cent=           0 NGrid=           0
         NMat0=    1 NMatS0=      1 NMatT0=    0 NMatD0=    4 NMtDS0=    3 NMtDT0=    0
 Symmetry not used in FoFCou.
 PxScal for G2LodP:  IOpCl= 0 ISclPx=0 IMOff=     1 NMtTot=     4 NTT=   38781 ScalPx= 1.00D+00
 NEqPCM:  Using equilibrium solvation (IEInf=0, Eps=  24.8520, EpsInf=   1.8526)
 G2PCM: DoFxE=T DoFxN=T DoGrad=T DoDP/DQ/DG/TGxP=TFFF NFrqRd=   0 IEInf=0 SqF1=F DoCFld=F IF1Alg=4.
 GePol: Maximum number of non-zero 1st derivatives   =     209
 End of G2Drv F.D. properties file   721 does not exist.
 End of G2Drv F.D. properties file   722 does not exist.
 End of G2Drv F.D. properties file   788 does not exist.
 Leave Link 1110 at Thu Dec 14 13:11:47 2023, MaxMem= 14763950080 cpu:             534.9 elap:              45.2
 (Enter /software/commercial/gaussian/g16/AVX2/g16/l1002.exe)
 Minotr:  Closed shell wavefunction.
          IDoAtm=11111111111111111
 NEqPCM:  Using equilibrium solvation (IEInf=0, Eps=  24.8520, EpsInf=   1.8526)
          Direct CPHF calculation.
          Differentiating once with respect to electric field.
                with respect to dipole field.
          Differentiating once with respect to nuclear coordinates.
          Requested convergence is 1.0D-08 RMS, and 1.0D-07 maximum.
          Secondary convergence is 1.0D-12 RMS, and 1.0D-12 maximum.
          NewPWx=T KeepS1=F KeepF1=F KeepIn=T MapXYZ=F SortEE=F KeepMc=T.
         5249 words used for storage of precomputed grid.
 Keep R1 ints in memory in canonical form, NReq=765438963.
 FoFCou: FMM=F IPFlag=           0 FMFlag=           0 FMFlg1=           0
         NFxFlg=           0 DoJE=F BraDBF=F KetDBF=F FulRan=T
         wScrn=  0.000000 ICntrl=       600 IOpCl=  0 I1Cent=           0 NGrid=           0
         NMat0=    1 NMatS0=  38781 NMatT0=    0 NMatD0=    1 NMtDS0=    0 NMtDT0=    0
 Symmetry not used in FoFCou.
 Two-electron integral symmetry not used.
          MDV=   14763950080 using IRadAn=       1.
          Solving linear equations simultaneously, MaxMat=       0.
          There are    54 degrees of freedom in the 1st order CPHF.  IDoFFX=5 NUNeed=    54.
 Will reuse    3 saved solutions.
     48 vectors produced by pass  0 Test12= 1.76D-14 1.85D-09 XBig12= 1.92D-01 1.47D-01.
 AX will form    48 AO Fock derivatives at one time.
     48 vectors produced by pass  1 Test12= 1.76D-14 1.85D-09 XBig12= 3.94D-02 4.80D-02.
     48 vectors produced by pass  2 Test12= 1.76D-14 1.85D-09 XBig12= 3.64D-04 2.86D-03.
     48 vectors produced by pass  3 Test12= 1.76D-14 1.85D-09 XBig12= 3.08D-06 2.08D-04.
     48 vectors produced by pass  4 Test12= 1.76D-14 1.85D-09 XBig12= 1.62D-08 1.55D-05.
     47 vectors produced by pass  5 Test12= 1.76D-14 1.85D-09 XBig12= 4.42D-11 7.19D-07.
     20 vectors produced by pass  6 Test12= 1.76D-14 1.85D-09 XBig12= 9.25D-14 2.54D-08.
 InvSVY:  IOpt=1 It=  1 EMax= 5.00D-16
 Solved reduced A of dimension   307 with    54 vectors.
 FullF1:  Do perturbations      1 to       3.
 Isotropic polarizability for W=    0.000000      142.77 Bohr**3.
 FullF1:  Do perturbations      1 to       6.
 End of Minotr F.D. properties file   721 does not exist.
 End of Minotr F.D. properties file   722 does not exist.
 End of Minotr F.D. properties file   788 does not exist.
 Leave Link 1002 at Thu Dec 14 13:12:37 2023, MaxMem= 14763950080 cpu:             561.7 elap:              49.1
 (Enter /software/commercial/gaussian/g16/AVX2/g16/l601.exe)
 Copying SCF densities to generalized density rwf, IOpCl= 0 IROHF=0.

 **********************************************************************

            Population analysis using the SCF Density.

 **********************************************************************

 Alpha  occ. eigenvalues --  -19.10433 -19.07075 -19.07073 -14.35637 -10.29094
 Alpha  occ. eigenvalues --  -10.26195 -10.19763 -10.19651 -10.16983 -10.16268
 Alpha  occ. eigenvalues --  -10.16102  -1.05461  -1.03535  -0.96749  -0.96104
 Alpha  occ. eigenvalues --   -0.78019  -0.75850  -0.71633  -0.61309  -0.59710
 Alpha  occ. eigenvalues --   -0.57451  -0.49673  -0.47848  -0.45604  -0.45019
 Alpha  occ. eigenvalues --   -0.43823  -0.43304  -0.42752  -0.41859  -0.39372
 Alpha  occ. eigenvalues --   -0.39269  -0.37783  -0.37523  -0.35056  -0.27629
 Alpha  occ. eigenvalues --   -0.26411  -0.26097  -0.25721  -0.24271  -0.22461
 Alpha virt. eigenvalues --   -0.04954   0.00956   0.02214   0.02726   0.03226
 Alpha virt. eigenvalues --    0.04295   0.04814   0.05110   0.05599   0.05951
 Alpha virt. eigenvalues --    0.07126   0.07263   0.07969   0.08304   0.08782
 Alpha virt. eigenvalues --    0.10201   0.10783   0.11204   0.12099   0.12386
 Alpha virt. eigenvalues --    0.13107   0.13592   0.15207   0.15412   0.16740
 Alpha virt. eigenvalues --    0.17426   0.18091   0.18472   0.18813   0.19277
 Alpha virt. eigenvalues --    0.20128   0.20700   0.21678   0.22551   0.22779
 Alpha virt. eigenvalues --    0.22998   0.23765   0.24034   0.25115   0.25406
 Alpha virt. eigenvalues --    0.25752   0.25951   0.26485   0.27099   0.28517
 Alpha virt. eigenvalues --    0.28793   0.29255   0.30088   0.30920   0.31247
 Alpha virt. eigenvalues --    0.32415   0.32950   0.34354   0.35051   0.35524
 Alpha virt. eigenvalues --    0.37178   0.37703   0.38401   0.39992   0.42703
 Alpha virt. eigenvalues --    0.43613   0.44407   0.46457   0.48048   0.49042
 Alpha virt. eigenvalues --    0.50886   0.52410   0.53612   0.55445   0.57608
 Alpha virt. eigenvalues --    0.59677   0.60736   0.61602   0.62890   0.64061
 Alpha virt. eigenvalues --    0.66591   0.67176   0.68194   0.69085   0.70446
 Alpha virt. eigenvalues --    0.71238   0.72166   0.72523   0.73637   0.75494
 Alpha virt. eigenvalues --    0.75909   0.78305   0.79221   0.80773   0.82069
 Alpha virt. eigenvalues --    0.84080   0.85462   0.86798   0.89041   0.90293
 Alpha virt. eigenvalues --    0.91157   0.95869   0.97436   1.01341   1.02420
 Alpha virt. eigenvalues --    1.04087   1.07197   1.09934   1.11897   1.13346
 Alpha virt. eigenvalues --    1.14856   1.16465   1.18364   1.20904   1.21042
 Alpha virt. eigenvalues --    1.21459   1.23442   1.24155   1.26021   1.27022
 Alpha virt. eigenvalues --    1.29080   1.31163   1.33920   1.38942   1.42901
 Alpha virt. eigenvalues --    1.43532   1.44741   1.48131   1.52385   1.54191
 Alpha virt. eigenvalues --    1.55342   1.56571   1.57339   1.59292   1.60435
 Alpha virt. eigenvalues --    1.62249   1.64488   1.65899   1.70181   1.71590
 Alpha virt. eigenvalues --    1.73018   1.75414   1.77617   1.78430   1.80034
 Alpha virt. eigenvalues --    1.81547   1.84394   1.86045   1.89060   1.91211
 Alpha virt. eigenvalues --    1.93787   1.95051   1.96630   1.98116   2.00406
 Alpha virt. eigenvalues --    2.02672   2.03353   2.10284   2.13162   2.15666
 Alpha virt. eigenvalues --    2.19108   2.26288   2.29222   2.37745   2.40602
 Alpha virt. eigenvalues --    2.43015   2.45778   2.47764   2.48802   2.51145
 Alpha virt. eigenvalues --    2.53361   2.56141   2.59841   2.60700   2.63251
 Alpha virt. eigenvalues --    2.64264   2.68694   2.72105   2.72383   2.74685
 Alpha virt. eigenvalues --    2.78903   2.79669   2.82023   2.84442   2.86098
 Alpha virt. eigenvalues --    2.87220   2.88736   2.91338   2.93986   2.94918
 Alpha virt. eigenvalues --    2.97515   2.98287   2.99497   3.03197   3.04832
 Alpha virt. eigenvalues --    3.15330   3.21079   3.25312   3.29190   3.31166
 Alpha virt. eigenvalues --    3.33240   3.34254   3.37365   3.44363   3.47581
 Alpha virt. eigenvalues --    3.49735   3.52785   3.56514   3.63668   3.66884
 Alpha virt. eigenvalues --    3.73656   3.81157   3.84485   3.87662   3.92426
 Alpha virt. eigenvalues --    3.97275   4.07849   4.08224   4.17505   4.21671
 Alpha virt. eigenvalues --    4.39355   4.87796   5.07652   5.09637   5.11352
 Alpha virt. eigenvalues --    5.12644   5.18746   5.22423   5.22675   5.68143
 Alpha virt. eigenvalues --    5.72746   5.90531  23.72261  23.85095  23.88026
 Alpha virt. eigenvalues --   23.92123  23.98147  24.08510  24.17745  35.57395
 Alpha virt. eigenvalues --   49.96281  49.99407  50.06225
          Condensed to atoms (all electrons):
               1          2          3          4          5          6
     1  C    5.974214  -0.414498   1.367357  -0.032412  -1.343154   0.361636
     2  C   -0.414498   6.399404  -1.511556   0.390688   1.468669  -0.201457
     3  C    1.367357  -1.511556  10.715736  -0.002345  -3.379602  -0.184570
     4  H   -0.032412   0.390688  -0.002345   0.510670  -0.017645   0.016375
     5  C   -1.343154   1.468669  -3.379602  -0.017645  10.427173  -0.114444
     6  N    0.361636  -0.201457  -0.184570   0.016375  -0.114444   7.299107
     7  H    0.411758  -0.006845  -0.030001  -0.003170   0.031512  -0.050737
     8  C   -0.245568   0.245594  -1.183409   0.002028  -0.099514  -0.028880
     9  H   -0.010971  -0.006856   0.372144  -0.004253  -0.033658   0.015848
    10  O    0.002333   0.007333  -0.014410   0.000027  -0.225544   0.020862
    11  C   -0.010536  -0.013438   0.022741   0.000493  -0.814991   0.056623
    12  H    0.000663  -0.001002   0.005464  -0.000002   0.027983   0.003987
    13  H    0.002698  -0.003421   0.008336  -0.000001   0.006344  -0.002352
    14  H   -0.000318   0.001675  -0.005597  -0.000001  -0.021241   0.004704
    15  C   -0.071419   0.019950  -0.183848   0.001028  -0.066415   0.125455
    16  O   -0.052297   0.046131   0.004758   0.000152   0.060177  -0.191322
    17  O    0.007392   0.004897   0.043764   0.000105   0.040821  -0.209821
               7          8          9         10         11         12
     1  C    0.411758  -0.245568  -0.010971   0.002333  -0.010536   0.000663
     2  C   -0.006845   0.245594  -0.006856   0.007333  -0.013438  -0.001002
     3  C   -0.030001  -1.183409   0.372144  -0.014410   0.022741   0.005464
     4  H   -0.003170   0.002028  -0.004253   0.000027   0.000493  -0.000002
     5  C    0.031512  -0.099514  -0.033658  -0.225544  -0.814991   0.027983
     6  N   -0.050737  -0.028880   0.015848   0.020862   0.056623   0.003987
     7  H    0.487018   0.002784  -0.000146   0.000050  -0.000352   0.000006
     8  C    0.002784   6.537005   0.015349   0.487565   0.305554  -0.076998
     9  H   -0.000146   0.015349   0.507852   0.000570   0.003126  -0.000036
    10  O    0.000050   0.487565   0.000570   8.223874  -0.100898   0.012745
    11  C   -0.000352   0.305554   0.003126  -0.100898   5.889540   0.400037
    12  H    0.000006  -0.076998  -0.000036   0.012745   0.400037   0.523580
    13  H    0.000000  -0.029219  -0.000007  -0.008609   0.388183  -0.025822
    14  H    0.000001  -0.016775  -0.000014  -0.004364   0.427851  -0.022499
    15  C    0.002935   0.119966   0.000880   0.002735   0.003999   0.004582
    16  O    0.000992  -0.005250   0.000089  -0.000035  -0.009760  -0.001745
    17  O   -0.000137  -0.024882   0.000109  -0.004978  -0.019374  -0.008222
              13         14         15         16         17
     1  C    0.002698  -0.000318  -0.071419  -0.052297   0.007392
     2  C   -0.003421   0.001675   0.019950   0.046131   0.004897
     3  C    0.008336  -0.005597  -0.183848   0.004758   0.043764
     4  H   -0.000001  -0.000001   0.001028   0.000152   0.000105
     5  C    0.006344  -0.021241  -0.066415   0.060177   0.040821
     6  N   -0.002352   0.004704   0.125455  -0.191322  -0.209821
     7  H    0.000000   0.000001   0.002935   0.000992  -0.000137
     8  C   -0.029219  -0.016775   0.119966  -0.005250  -0.024882
     9  H   -0.000007  -0.000014   0.000880   0.000089   0.000109
    10  O   -0.008609  -0.004364   0.002735  -0.000035  -0.004978
    11  C    0.388183   0.427851   0.003999  -0.009760  -0.019374
    12  H   -0.025822  -0.022499   0.004582  -0.001745  -0.008222
    13  H    0.517363  -0.022621   0.000725   0.000021   0.004311
    14  H   -0.022621   0.482153  -0.001768   0.000113  -0.014240
    15  C    0.000725  -0.001768   4.917247   0.413880   0.430248
    16  O    0.000021   0.000113   0.413880   8.386313  -0.136077
    17  O    0.004311  -0.014240   0.430248  -0.136077   8.378631
 Mulliken charges:
               1
     1  C    0.053119
     2  C   -0.425268
     3  C   -0.044961
     4  H    0.138263
     5  C    0.053528
     6  N    0.078986
     7  H    0.154333
     8  C   -0.005347
     9  H    0.139976
    10  O   -0.399256
    11  C   -0.528797
    12  H    0.157277
    13  H    0.164070
    14  H    0.192940
    15  C    0.279822
    16  O   -0.516139
    17  O   -0.492546
 Sum of Mulliken charges =  -1.00000
 Mulliken charges with hydrogens summed into heavy atoms:
               1
     1  C    0.207453
     2  C   -0.287005
     3  C    0.095015
     5  C    0.053528
     6  N    0.078986
     8  C   -0.005347
    10  O   -0.399256
    11  C   -0.014510
    15  C    0.279822
    16  O   -0.516139
    17  O   -0.492546
 APT charges:
               1
     1  C    0.055674
     2  C   -0.348809
     3  C    0.079493
     4  H    0.071022
     5  C   -0.420671
     6  N   -0.701511
     7  H    0.123730
     8  C    1.580596
     9  H    0.087562
    10  O   -1.169103
    11  C   -0.122441
    12  H    0.008404
    13  H    0.007064
    14  H    0.028404
    15  C    2.221136
    16  O   -1.263475
    17  O   -1.237074
 Sum of APT charges =  -1.00000
 APT charges with hydrogens summed into heavy atoms:
               1
     1  C    0.179404
     2  C   -0.277787
     3  C    0.167054
     5  C   -0.420671
     6  N   -0.701511
     8  C    1.580596
    10  O   -1.169103
    11  C   -0.078569
    15  C    2.221136
    16  O   -1.263475
    17  O   -1.237074
 Electronic spatial extent (au):  <R**2>=           2102.5669
 Charge=             -1.0000 electrons
 Dipole moment (field-independent basis, Debye):
    X=             -9.7964    Y=             -0.8370    Z=             -6.2188  Tot=             11.6337
 Quadrupole moment (field-independent basis, Debye-Ang):
   XX=            -83.8898   YY=            -98.2398   ZZ=            -77.6268
   XY=             -1.7154   XZ=            -14.7166   YZ=             -7.2604
 Traceless Quadrupole moment (field-independent basis, Debye-Ang):
   XX=              2.6957   YY=            -11.6543   ZZ=              8.9587
   XY=             -1.7154   XZ=            -14.7166   YZ=             -7.2604
 Octapole moment (field-independent basis, Debye-Ang**2):
  XXX=           -288.1171  YYY=             73.3698  ZZZ=            -56.3192  XYY=           -149.0816
  XXY=             15.6050  XXZ=            -54.0412  XZZ=           -107.6084  YZZ=              4.0369
  YYZ=            -30.5683  XYZ=            -19.5113
 Hexadecapole moment (field-independent basis, Debye-Ang**3):
 XXXX=          -1587.3308 YYYY=          -1247.5904 ZZZZ=           -386.2184 XXXY=            112.3844
 XXXZ=           -203.3424 YYYX=            194.9570 YYYZ=           -201.9729 ZZZX=           -166.4528
 ZZZY=           -162.7541 XXYY=           -534.9240 XXZZ=           -377.4842 YYZZ=           -236.5503
 XXYZ=            -84.4488 YYXZ=            -60.5516 ZZXY=             13.6768
 N-N= 5.897485332591D+02 E-N=-2.482915347567D+03  KE= 5.489903689704D+02
  Exact polarizability:     165.638     -18.854     163.828      15.262      14.278      98.837
 Approx polarizability:     181.776     -25.946     193.232      19.364      11.445     109.991
 No NMR shielding tensors so no spin-rotation constants.
 Leave Link  601 at Thu Dec 14 13:12:37 2023, MaxMem= 14763950080 cpu:               0.8 elap:               0.1
 (Enter /software/commercial/gaussian/g16/AVX2/g16/l701.exe)
 ... and contract with generalized density number  0.
 Compute integral second derivatives.
 R6Disp: Adding Grimme-D3(BJ) dispersion energy 2nd derivatives to the Hessian.
 D2PCM: PCM CHGder 2nd derivatives, FixD1E=F FixD2E=F DoIter=F DoCFld=F I1PDM=0
 GePol: Maximum number of non-zero 2nd derivatives   =     209
 Leave Link  701 at Thu Dec 14 13:12:42 2023, MaxMem= 14763950080 cpu:              42.3 elap:               4.0
 (Enter /software/commercial/gaussian/g16/AVX2/g16/l702.exe)
 L702 exits ... SP integral derivatives will be done elsewhere.
 Leave Link  702 at Thu Dec 14 13:12:42 2023, MaxMem= 14763950080 cpu:               0.1 elap:               0.1
 (Enter /software/commercial/gaussian/g16/AVX2/g16/l703.exe)
 Integral derivatives from FoFJK, PRISM(SPDF).
 Compute integral second derivatives, UseDBF=F ICtDFT=           0.
 Calling FoFJK, ICntrl=    100127 FMM=F ISym2X=0 I1Cent= 0 IOpClX= 0 NMat=1 NMatS=1 NMatT=0.
 FoFJK:  IHMeth= 1 ICntrl=  100127 DoSepK=F KAlg= 0 I1Cent=           0 FoldK=F
 IRaf=         0 NMat=       1 IRICut=       1 DoRegI=T DoRafI=F ISym2E= 0 IDoP0=0 IntGTp=1.
 FoFCou: FMM=F IPFlag=           0 FMFlag=      100000 FMFlg1=         800
         NFxFlg=           0 DoJE=F BraDBF=F KetDBF=F FulRan=T
         wScrn=  0.000000 ICntrl=    100127 IOpCl=  0 I1Cent=           0 NGrid=           0
         NMat0=    1 NMatS0=      1 NMatT0=    0 NMatD0=    1 NMtDS0=    0 NMtDT0=    0
 Symmetry not used in FoFCou.
 Leave Link  703 at Thu Dec 14 13:13:43 2023, MaxMem= 14763950080 cpu:             722.5 elap:              60.5
 (Enter /software/commercial/gaussian/g16/AVX2/g16/l716.exe)
 Dipole        =-3.85419270D+00-3.29289784D-01-2.44664510D+00
 Polarizability= 1.65637902D+02-1.88542325D+01 1.63828099D+02
                 1.52618035D+01 1.42778184D+01 9.88369346D+01
 HyperPolar    = 6.27175913D+02-5.52184952D+02 3.96727125D+02
                -1.78908985D+02 3.72548830D+00 1.54908871D+02
                -5.28044939D+01-9.16502433D+01 7.00715691D+01
                -9.80182371D+01
 Full mass-weighted force constant matrix:
 Low frequencies ---  -14.3107   -5.8277   -0.0003    0.0003    0.0005   10.7444
 Low frequencies ---   35.9114   79.0172  133.4412
 Diagonal vibrational polarizability:
       45.1705797      46.5369667     277.0793772
 Diagonal vibrational hyperpolarizability:
      -97.8700522     178.5639125    -959.4550773
 Harmonic frequencies (cm**-1), IR intensities (KM/Mole), Raman scattering
 activities (A**4/AMU), depolarization ratios for plane and unpolarized
 incident light, reduced masses (AMU), force constants (mDyne/A),
 and normal coordinates:
                      1                      2                      3
                      A                      A                      A
 Frequencies --     35.0457                78.9825               133.1306
 Red. masses --      4.8443                 7.5214                 1.1297
 Frc consts  --      0.0035                 0.0276                 0.0118
 IR Inten    --     11.0567                 4.3410                 1.6526
 Raman Activ --      0.8940                 3.7110                 3.7977
 Depolar (P) --      0.6709                 0.7458                 0.4330
 Depolar (U) --      0.8030                 0.8544                 0.6043
  Atom  AN      X      Y      Z        X      Y      Z        X      Y      Z
     1   6     0.00   0.03  -0.07    -0.03   0.00  -0.01    -0.01  -0.01   0.02
     2   6     0.02   0.04  -0.10    -0.04   0.00   0.01    -0.00  -0.01   0.00
     3   6     0.01   0.03  -0.06    -0.05  -0.01   0.00     0.00   0.00  -0.02
     4   1     0.03   0.05  -0.15    -0.04   0.01   0.01    -0.00  -0.01   0.00
     5   6    -0.01   0.02  -0.01    -0.05  -0.01  -0.00     0.00   0.00  -0.01
     6   7    -0.01   0.02  -0.02    -0.04  -0.02  -0.02    -0.01  -0.01   0.02
     7   1    -0.00   0.03  -0.07    -0.02   0.01  -0.01    -0.02  -0.02   0.04
     8   6     0.00   0.02   0.07     0.01   0.09   0.02    -0.00   0.00   0.01
     9   1     0.02   0.03  -0.06    -0.06  -0.01   0.00     0.01   0.01  -0.03
    10   8     0.04   0.02   0.31     0.16   0.09   0.15    -0.01  -0.00  -0.03
    11   6    -0.05   0.00  -0.22    -0.10   0.23  -0.14     0.02  -0.02   0.06
    12   1    -0.06   0.05  -0.00    -0.22   0.25   0.02     0.13   0.11   0.57
    13   1    -0.36   0.12  -0.47    -0.24   0.39  -0.31    -0.26   0.31  -0.30
    14   1     0.24  -0.22  -0.46     0.09   0.14  -0.29     0.23  -0.55  -0.15
    15   6    -0.01  -0.04   0.02     0.02  -0.10  -0.00     0.00   0.01  -0.01
    16   8    -0.10  -0.05   0.21     0.32  -0.06  -0.21     0.00   0.01  -0.04
    17   8     0.10  -0.07  -0.15    -0.24  -0.21   0.21     0.01   0.02  -0.00
                      4                      5                      6
                      A                      A                      A
 Frequencies --    151.8613               159.4377               194.8021
 Red. masses --      4.4795                 5.6858                 5.5431
 Frc consts  --      0.0609                 0.0852                 0.1239
 IR Inten    --      3.6615                 0.8659                18.4406
 Raman Activ --      3.9791                 4.2987                 2.0482
 Depolar (P) --      0.6182                 0.7347                 0.7180
 Depolar (U) --      0.7641                 0.8471                 0.8359
  Atom  AN      X      Y      Z        X      Y      Z        X      Y      Z
     1   6     0.14   0.08  -0.23     0.04  -0.02   0.01     0.01  -0.05   0.13
     2   6     0.05   0.01   0.03     0.09   0.07  -0.22     0.02  -0.03   0.10
     3   6    -0.03  -0.08   0.26     0.03   0.01  -0.08     0.09   0.04  -0.10
     4   1     0.05   0.02   0.03     0.16   0.17  -0.46    -0.01  -0.07   0.21
     5   6     0.02  -0.05   0.12    -0.04  -0.11   0.22     0.10   0.06  -0.16
     6   7     0.11   0.05  -0.15    -0.04  -0.12   0.28     0.07   0.03  -0.04
     7   1     0.20   0.16  -0.42     0.06  -0.00  -0.03    -0.02  -0.10   0.27
     8   6    -0.01  -0.05  -0.02    -0.05  -0.07   0.03     0.03  -0.05  -0.11
     9   1    -0.09  -0.15   0.45     0.07   0.06  -0.21     0.11   0.06  -0.16
    10   8     0.02  -0.05  -0.12     0.01  -0.08  -0.08    -0.09  -0.05   0.10
    11   6    -0.06   0.01  -0.10    -0.15   0.04  -0.16     0.08  -0.21  -0.25
    12   1    -0.10   0.05   0.10    -0.31   0.01  -0.20     0.15  -0.21  -0.30
    13   1    -0.18   0.16  -0.26    -0.19   0.05  -0.18    -0.03  -0.29  -0.25
    14   1     0.08  -0.15  -0.21    -0.04   0.18  -0.23     0.14  -0.22  -0.30
    15   6    -0.02   0.03   0.03     0.02   0.03   0.08    -0.04   0.08   0.07
    16   8    -0.08   0.02   0.10    -0.03   0.02  -0.11    -0.07   0.07  -0.03
    17   8    -0.10   0.02   0.11     0.11   0.17   0.13    -0.15   0.12   0.25
                      7                      8                      9
                      A                      A                      A
 Frequencies --    256.0717               360.6173               409.1516
 Red. masses --      5.2017                 5.2018                 9.5173
 Frc consts  --      0.2010                 0.3986                 0.9387
 IR Inten    --      1.3285                 5.0921                 5.3483
 Raman Activ --      1.8014                 1.2874                10.6371
 Depolar (P) --      0.5679                 0.2323                 0.1314
 Depolar (U) --      0.7244                 0.3770                 0.2322
  Atom  AN      X      Y      Z        X      Y      Z        X      Y      Z
     1   6    -0.15  -0.04  -0.08     0.02   0.13   0.04    -0.16  -0.00  -0.03
     2   6     0.04  -0.17  -0.11    -0.00   0.18   0.02    -0.19   0.02  -0.06
     3   6     0.17  -0.07   0.08    -0.06   0.11   0.11    -0.19   0.01  -0.04
     4   1     0.07  -0.31  -0.25     0.02   0.24  -0.05    -0.18   0.04  -0.08
     5   6     0.06   0.10   0.19    -0.01  -0.01   0.14    -0.12  -0.08  -0.04
     6   7    -0.12   0.10   0.11    -0.06  -0.02   0.13    -0.14   0.04   0.00
     7   1    -0.31  -0.05  -0.20     0.13   0.17   0.02    -0.18   0.01  -0.07
     8   6     0.02   0.08   0.05     0.10   0.05   0.02     0.00  -0.16  -0.07
     9   1     0.36  -0.12   0.11    -0.14   0.14   0.08    -0.27   0.02  -0.04
    10   8    -0.16   0.08  -0.08     0.16   0.05  -0.04     0.41  -0.18  -0.03
    11   6     0.09  -0.11  -0.10     0.22  -0.16  -0.07     0.03  -0.19  -0.01
    12   1     0.19  -0.11  -0.19     0.47  -0.14  -0.17     0.17  -0.17  -0.01
    13   1    -0.02  -0.25  -0.07     0.09  -0.37  -0.01     0.05  -0.25   0.05
    14   1     0.13  -0.09  -0.13     0.20  -0.23  -0.06    -0.06  -0.28   0.05
    15   6    -0.03   0.05   0.03    -0.13  -0.09  -0.06     0.01   0.20   0.07
    16   8     0.17   0.08   0.06    -0.15  -0.09  -0.14     0.24   0.24   0.21
    17   8    -0.07  -0.09  -0.07    -0.11  -0.09  -0.07    -0.04   0.09  -0.03
                     10                     11                     12
                      A                      A                      A
 Frequencies --    442.2120               582.8471               604.5974
 Red. masses --      5.7828                 3.4129                 3.9438
 Frc consts  --      0.6663                 0.6831                 0.8494
 IR Inten    --      2.1109                 3.3132                24.7890
 Raman Activ --      5.7090                 2.1581                 2.4156
 Depolar (P) --      0.4481                 0.7474                 0.7467
 Depolar (U) --      0.6189                 0.8554                 0.8550
  Atom  AN      X      Y      Z        X      Y      Z        X      Y      Z
     1   6    -0.04  -0.02  -0.16    -0.04   0.04  -0.09     0.09  -0.14   0.19
     2   6    -0.11  -0.05  -0.07    -0.08  -0.06   0.14     0.08   0.03  -0.14
     3   6    -0.18  -0.12   0.06     0.04   0.06  -0.15    -0.08  -0.09  -0.01
     4   1    -0.11  -0.00  -0.09    -0.12  -0.13   0.26     0.08   0.18  -0.13
     5   6    -0.12  -0.01  -0.09    -0.03   0.03   0.04    -0.08  -0.10   0.07
     6   7    -0.06  -0.08  -0.00    -0.00   0.05  -0.08     0.11  -0.04  -0.14
     7   1    -0.03   0.02  -0.29    -0.03   0.08  -0.22     0.07  -0.25   0.52
     8   6    -0.03   0.19  -0.09     0.00   0.02   0.29    -0.07   0.13   0.13
     9   1    -0.22  -0.15   0.16     0.10   0.10  -0.26    -0.14  -0.10   0.02
    10   8    -0.03   0.20   0.04     0.07   0.01  -0.11     0.01   0.13  -0.05
    11   6     0.15  -0.05  -0.03    -0.05  -0.06   0.02    -0.04  -0.04   0.01
    12   1     0.52  -0.02  -0.09    -0.10  -0.13  -0.26     0.22  -0.06  -0.19
    13   1     0.10  -0.25   0.06    -0.43  -0.31  -0.04    -0.32  -0.35   0.04
    14   1     0.02  -0.24   0.06     0.30   0.13  -0.24     0.08  -0.09  -0.09
    15   6     0.12  -0.07   0.10     0.03  -0.04   0.01     0.06   0.07  -0.07
    16   8     0.02  -0.11  -0.01    -0.01  -0.06  -0.02     0.00   0.07   0.05
    17   8     0.21   0.12   0.19     0.06   0.02   0.06    -0.08  -0.01  -0.03
                     13                     14                     15
                      A                      A                      A
 Frequencies --    616.5850               633.2647               696.0599
 Red. masses --      4.0776                 3.1949                 4.2777
 Frc consts  --      0.9134                 0.7549                 1.2211
 IR Inten    --     28.6014                10.1504                25.4803
 Raman Activ --      8.0766                11.0015                 8.8380
 Depolar (P) --      0.2533                 0.1730                 0.7317
 Depolar (U) --      0.4042                 0.2950                 0.8450
  Atom  AN      X      Y      Z        X      Y      Z        X      Y      Z
     1   6     0.10  -0.03  -0.07     0.13  -0.00  -0.11    -0.10  -0.00   0.02
     2   6    -0.06   0.01   0.09     0.03  -0.07   0.18    -0.09   0.01   0.01
     3   6    -0.12  -0.04  -0.08     0.05  -0.01  -0.13     0.01   0.07  -0.07
     4   1    -0.06   0.15   0.12     0.02  -0.02   0.21    -0.09  -0.04  -0.01
     5   6    -0.02  -0.14  -0.04    -0.04  -0.06   0.10    -0.07  -0.12   0.35
     6   7    -0.02  -0.15   0.08     0.04  -0.07   0.09     0.03   0.07  -0.21
     7   1     0.28   0.08  -0.25     0.23   0.09  -0.34    -0.16  -0.09   0.25
     8   6     0.13  -0.02   0.12    -0.10   0.09  -0.13     0.03  -0.04  -0.10
     9   1    -0.26   0.04  -0.19     0.16   0.11  -0.46     0.14   0.24  -0.52
    10   8    -0.16  -0.02  -0.01     0.04   0.10   0.04    -0.05  -0.04   0.04
    11   6     0.22   0.12  -0.03    -0.10  -0.05   0.00     0.14   0.06  -0.05
    12   1    -0.05   0.07  -0.11     0.22   0.00   0.08     0.13   0.11   0.14
    13   1     0.10   0.18  -0.14     0.01  -0.13   0.12     0.38   0.24  -0.02
    14   1     0.46   0.34  -0.20    -0.36  -0.31   0.18    -0.06  -0.02   0.10
    15   6    -0.04   0.07  -0.01    -0.02   0.04   0.00     0.01  -0.05  -0.07
    16   8     0.06   0.10   0.07    -0.00   0.06   0.01     0.02  -0.06   0.03
    17   8    -0.08   0.02  -0.06    -0.05  -0.03  -0.05     0.03   0.06   0.04
                     16                     17                     18
                      A                      A                      A
 Frequencies --    750.7459               763.4330               799.5224
 Red. masses --      1.2178                11.6698                 6.6669
 Frc consts  --      0.4044                 4.0073                 2.5109
 IR Inten    --    127.3059               330.4021                32.5392
 Raman Activ --     19.3238                30.8596                 4.0001
 Depolar (P) --      0.7385                 0.1473                 0.7497
 Depolar (U) --      0.8496                 0.2567                 0.8569
  Atom  AN      X      Y      Z        X      Y      Z        X      Y      Z
     1   6     0.03   0.02  -0.08    -0.00   0.07   0.02     0.07  -0.01  -0.03
     2   6     0.02   0.02  -0.06     0.13   0.05   0.03     0.03   0.01   0.04
     3   6     0.01   0.01  -0.05     0.09  -0.01   0.03    -0.03  -0.05   0.07
     4   1    -0.21  -0.22   0.73     0.11  -0.03   0.11     0.11   0.16  -0.22
     5   6    -0.01  -0.01   0.03     0.04  -0.03  -0.08     0.01  -0.04  -0.03
     6   7    -0.01  -0.01   0.03    -0.07  -0.10   0.03     0.05   0.04  -0.14
     7   1    -0.13  -0.19   0.45     0.13   0.10   0.05    -0.01  -0.17   0.41
     8   6    -0.00  -0.00  -0.01     0.01   0.04   0.00     0.00   0.02   0.02
     9   1    -0.08  -0.12   0.29    -0.00  -0.06   0.20     0.03   0.17  -0.43
    10   8    -0.00   0.00   0.00     0.01   0.06  -0.01    -0.00   0.02  -0.01
    11   6     0.00   0.00  -0.00    -0.11  -0.05   0.02    -0.01  -0.01   0.01
    12   1     0.01   0.00   0.01    -0.01  -0.04   0.00    -0.01  -0.02  -0.04
    13   1     0.02   0.01   0.00    -0.17  -0.13   0.04    -0.08  -0.08   0.01
    14   1    -0.01  -0.01   0.01    -0.12  -0.11   0.02     0.03   0.01  -0.03
    15   6    -0.02   0.00   0.02    -0.35  -0.30  -0.40    -0.43  -0.07   0.45
    16   8     0.00   0.01  -0.01     0.28  -0.21   0.24     0.12   0.01  -0.11
    17   8     0.01  -0.00  -0.01    -0.10   0.43  -0.00     0.10   0.05  -0.13
                     19                     20                     21
                      A                      A                      A
 Frequencies --    849.5256               899.9122               908.1294
 Red. masses --      1.5214                 1.4221                 4.6490
 Frc consts  --      0.6469                 0.6785                 2.2590
 IR Inten    --      8.2455                 3.9042                 0.7623
 Raman Activ --      9.6496                 6.0356                19.6368
 Depolar (P) --      0.5749                 0.5620                 0.4137
 Depolar (U) --      0.7301                 0.7196                 0.5852
  Atom  AN      X      Y      Z        X      Y      Z        X      Y      Z
     1   6    -0.02  -0.05   0.11    -0.02  -0.06   0.07    -0.08   0.24   0.11
     2   6    -0.00   0.01  -0.02    -0.01   0.05  -0.12     0.34   0.00   0.04
     3   6     0.03   0.04  -0.12    -0.02  -0.00   0.10    -0.03  -0.27  -0.08
     4   1    -0.04  -0.00   0.11    -0.21  -0.17   0.57     0.25  -0.12   0.34
     5   6    -0.01  -0.02   0.05     0.03   0.01  -0.02    -0.14  -0.07  -0.03
     6   7     0.02   0.01  -0.04     0.01  -0.01  -0.01    -0.10   0.12  -0.03
     7   1     0.19   0.22  -0.57     0.17   0.15  -0.45    -0.31   0.28  -0.25
     8   6    -0.01   0.00  -0.01     0.01   0.00  -0.00    -0.04  -0.02   0.01
     9   1    -0.16  -0.26   0.65     0.18   0.22  -0.48    -0.31  -0.10  -0.34
    10   8    -0.00   0.00   0.00     0.00   0.01  -0.00    -0.00  -0.04  -0.00
    11   6     0.01   0.01  -0.02    -0.01  -0.01   0.01     0.06   0.03  -0.01
    12   1     0.05   0.02   0.02    -0.04  -0.02  -0.00     0.08   0.03  -0.03
    13   1     0.06   0.01   0.01    -0.03  -0.01  -0.00     0.05   0.02  -0.01
    14   1    -0.06  -0.03   0.03     0.00   0.01  -0.01     0.07   0.03  -0.02
    15   6    -0.06  -0.01   0.06    -0.01  -0.00   0.01     0.02   0.00   0.02
    16   8     0.01  -0.00  -0.02     0.00  -0.00   0.00    -0.02   0.00  -0.01
    17   8     0.01   0.00  -0.02     0.00   0.00  -0.00     0.02  -0.01   0.02
                     22                     23                     24
                      A                      A                      A
 Frequencies --    990.4241              1015.7337              1035.8782
 Red. masses --      2.3439                 1.4568                 1.7614
 Frc consts  --      1.3547                 0.8855                 1.1136
 IR Inten    --     95.4903                16.1362                30.1050
 Raman Activ --     16.3856                24.9963                 3.3767
 Depolar (P) --      0.3419                 0.2978                 0.7339
 Depolar (U) --      0.5096                 0.4590                 0.8466
  Atom  AN      X      Y      Z        X      Y      Z        X      Y      Z
     1   6     0.05  -0.06  -0.01     0.03  -0.05  -0.01     0.00   0.01  -0.00
     2   6    -0.01  -0.02  -0.01    -0.03   0.03   0.01    -0.01   0.00  -0.00
     3   6    -0.01  -0.01   0.01    -0.03  -0.09  -0.03    -0.00  -0.01   0.01
     4   1    -0.03   0.25   0.09    -0.06   0.67   0.18    -0.01  -0.03  -0.00
     5   6    -0.06   0.08  -0.02    -0.04   0.06   0.01     0.02   0.02  -0.04
     6   7     0.05   0.07   0.06     0.03   0.07   0.03    -0.01  -0.02  -0.01
     7   1    -0.10  -0.09  -0.08    -0.23  -0.11  -0.10     0.09   0.02   0.07
     8   6    -0.18  -0.05   0.01     0.03   0.00   0.02     0.02  -0.01   0.19
     9   1     0.38  -0.09   0.00     0.32  -0.19  -0.00    -0.01   0.01  -0.05
    10   8     0.01  -0.12   0.00     0.01   0.03  -0.01    -0.01  -0.02  -0.03
    11   6     0.08   0.17   0.00     0.01  -0.08  -0.02    -0.03   0.04  -0.16
    12   1     0.63   0.18  -0.25    -0.32  -0.08   0.16     0.35   0.18   0.26
    13   1    -0.17  -0.23   0.09     0.22   0.22  -0.08     0.45   0.06   0.12
    14   1     0.18  -0.10  -0.09    -0.06   0.12   0.05    -0.58  -0.28   0.25
    15   6    -0.03  -0.02  -0.02    -0.01  -0.01  -0.02     0.01   0.01   0.01
    16   8     0.01  -0.03   0.00     0.00  -0.02  -0.00     0.00   0.00   0.00
    17   8    -0.01   0.02  -0.01    -0.00   0.01  -0.00     0.00  -0.00   0.00
                     25                     26                     27
                      A                      A                      A
 Frequencies --   1063.2887              1092.0701              1186.1487
 Red. masses --      1.5169                 2.0185                 3.0558
 Frc consts  --      1.0104                 1.4184                 2.5331
 IR Inten    --    163.3336                44.2519                16.7579
 Raman Activ --     11.6053                 7.8639                77.7541
 Depolar (P) --      0.6578                 0.6874                 0.0682
 Depolar (U) --      0.7936                 0.8148                 0.1276
  Atom  AN      X      Y      Z        X      Y      Z        X      Y      Z
     1   6    -0.01   0.11   0.03    -0.09   0.01  -0.02     0.05   0.03   0.02
     2   6    -0.07   0.03  -0.01    -0.02   0.09   0.03    -0.12  -0.08  -0.06
     3   6     0.06  -0.08  -0.01     0.06  -0.03   0.00    -0.09  -0.16  -0.08
     4   1    -0.07   0.02  -0.02    -0.04   0.56   0.14    -0.14  -0.05  -0.05
     5   6    -0.03  -0.00  -0.00     0.09  -0.11  -0.01     0.07   0.07   0.06
     6   7    -0.07  -0.07  -0.05    -0.03  -0.04  -0.03     0.05   0.20   0.09
     7   1     0.55   0.22   0.26    -0.38  -0.05  -0.11     0.62   0.16   0.21
     8   6    -0.01  -0.00  -0.01     0.15  -0.00  -0.04     0.18  -0.00  -0.05
     9   1     0.67  -0.26   0.09     0.07  -0.05   0.04    -0.41  -0.08  -0.15
    10   8     0.00  -0.00   0.00    -0.04  -0.00   0.01    -0.02  -0.03   0.01
    11   6     0.01   0.00   0.01    -0.09   0.08   0.03    -0.08   0.04   0.02
    12   1    -0.02  -0.01  -0.03     0.29   0.07  -0.13     0.09   0.02  -0.08
    13   1    -0.03  -0.00  -0.01    -0.30  -0.33   0.15    -0.18  -0.20   0.11
    14   1     0.06   0.03  -0.02    -0.08  -0.26  -0.02    -0.05  -0.19  -0.02
    15   6     0.02   0.02   0.02     0.01   0.01  -0.00    -0.01  -0.02  -0.02
    16   8    -0.00   0.02   0.00    -0.01   0.04  -0.00    -0.00  -0.04  -0.01
    17   8     0.01  -0.00   0.00     0.02  -0.03   0.02    -0.01   0.01  -0.01
                     28                     29                     30
                      A                      A                      A
 Frequencies --   1198.1416              1276.5549              1321.0127
 Red. masses --      2.5408                 3.9919                 4.8441
 Frc consts  --      2.1490                 3.8328                 4.9805
 IR Inten    --    477.6217               710.3182                42.1327
 Raman Activ --     45.6017                55.1307                28.3239
 Depolar (P) --      0.5727                 0.6347                 0.5958
 Depolar (U) --      0.7283                 0.7765                 0.7467
  Atom  AN      X      Y      Z        X      Y      Z        X      Y      Z
     1   6    -0.04   0.10   0.03    -0.11  -0.05  -0.05    -0.19   0.12  -0.01
     2   6    -0.08   0.05  -0.01    -0.02   0.00  -0.01    -0.14   0.09  -0.01
     3   6    -0.04  -0.02  -0.01     0.12  -0.05   0.02     0.17  -0.18  -0.02
     4   1    -0.06  -0.63  -0.23    -0.04   0.33   0.09    -0.18   0.20   0.00
     5   6    -0.07  -0.12  -0.06     0.03  -0.01  -0.01     0.14   0.03   0.02
     6   7     0.23   0.03   0.09     0.03   0.03   0.02     0.21  -0.12   0.04
     7   1    -0.42   0.03  -0.11     0.52   0.07   0.19    -0.14   0.14   0.04
     8   6     0.04  -0.01   0.02    -0.15  -0.01   0.02    -0.19  -0.00   0.02
     9   1     0.44  -0.17   0.06    -0.51   0.13  -0.08    -0.67   0.03  -0.13
    10   8    -0.01   0.03  -0.00     0.02   0.02  -0.00     0.02   0.02  -0.00
    11   6    -0.00  -0.00  -0.01     0.04  -0.02  -0.00     0.03  -0.02   0.00
    12   1    -0.02   0.00   0.03     0.03  -0.00   0.02     0.10   0.00  -0.00
    13   1    -0.00  -0.02   0.01     0.06   0.13  -0.09     0.09   0.17  -0.09
    14   1    -0.05  -0.02   0.02     0.04   0.15   0.01     0.09   0.19  -0.02
    15   6    -0.07  -0.05  -0.05    -0.15  -0.14  -0.16     0.08   0.08   0.10
    16   8    -0.01   0.07  -0.00    -0.03   0.23   0.01     0.02  -0.12  -0.00
    17   8     0.02  -0.03   0.01     0.15  -0.12   0.12    -0.11   0.07  -0.09
                     31                     32                     33
                      A                      A                      A
 Frequencies --   1367.6718              1378.5177              1431.6035
 Red. masses --      9.9581                 1.2217                 3.4015
 Frc consts  --     10.9747                 1.3678                 4.1074
 IR Inten    --     69.6365                23.9173               208.5746
 Raman Activ --      1.9573                12.3448               547.3791
 Depolar (P) --      0.3257                 0.4833                 0.4041
 Depolar (U) --      0.4913                 0.6516                 0.5756
  Atom  AN      X      Y      Z        X      Y      Z        X      Y      Z
     1   6    -0.17   0.08  -0.01     0.01   0.00   0.00     0.01  -0.19  -0.06
     2   6     0.15  -0.08   0.02    -0.00   0.00  -0.00    -0.01   0.29   0.09
     3   6    -0.24  -0.02  -0.08    -0.01   0.00  -0.00     0.15  -0.12   0.00
     4   1     0.16   0.05   0.04    -0.00  -0.02  -0.01     0.05  -0.54  -0.18
     5   6    -0.08   0.55   0.19     0.01  -0.02  -0.00    -0.17   0.10  -0.00
     6   7     0.20  -0.41  -0.09    -0.01   0.01  -0.00    -0.03   0.02  -0.00
     7   1    -0.16   0.08  -0.01    -0.02  -0.01  -0.01     0.09  -0.21  -0.03
     8   6     0.17  -0.03  -0.05     0.01   0.00  -0.00     0.05  -0.04  -0.01
     9   1     0.01  -0.10  -0.02     0.03  -0.01   0.00    -0.24  -0.01  -0.06
    10   8     0.00  -0.07   0.00    -0.00   0.01   0.00    -0.00   0.01  -0.00
    11   6    -0.06   0.04   0.03    -0.13  -0.04   0.02    -0.00   0.04   0.00
    12   1    -0.03   0.00  -0.09     0.41   0.03   0.03    -0.27  -0.02  -0.08
    13   1     0.04  -0.14   0.19     0.55   0.20   0.23     0.16  -0.16   0.21
    14   1     0.13  -0.24  -0.14     0.48   0.14  -0.41     0.13  -0.37  -0.13
    15   6    -0.08  -0.06  -0.03    -0.00  -0.00  -0.00     0.01   0.01   0.00
    16   8     0.01   0.13   0.01    -0.00   0.00   0.00     0.00  -0.01   0.00
    17   8     0.03  -0.03   0.02     0.00  -0.00   0.00    -0.00   0.00   0.00
                     34                     35                     36
                      A                      A                      A
 Frequencies --   1446.0600              1462.1689              1476.6407
 Red. masses --      1.9759                 1.3244                 1.2718
 Frc consts  --      2.4344                 1.6682                 1.6338
 IR Inten    --    112.1599                39.7430                57.9596
 Raman Activ --     61.0004               133.7782               121.5902
 Depolar (P) --      0.0889                 0.3582                 0.3213
 Depolar (U) --      0.1633                 0.5275                 0.4863
  Atom  AN      X      Y      Z        X      Y      Z        X      Y      Z
     1   6     0.14   0.00   0.04    -0.07  -0.05  -0.04    -0.06  -0.04  -0.03
     2   6    -0.07   0.10   0.01     0.05   0.02   0.02     0.04   0.02   0.02
     3   6    -0.02  -0.09  -0.04     0.01   0.02   0.01    -0.00   0.02   0.01
     4   1    -0.06  -0.31  -0.12     0.06   0.02   0.02     0.05   0.01   0.01
     5   6     0.11   0.07   0.05    -0.08  -0.00  -0.01    -0.06  -0.01  -0.01
     6   7    -0.09  -0.03  -0.04     0.04   0.01   0.02     0.03   0.01   0.01
     7   1    -0.36  -0.10  -0.15     0.21   0.00   0.07     0.17   0.00   0.06
     8   6    -0.01   0.03  -0.01     0.05  -0.00  -0.02     0.06  -0.01   0.01
     9   1    -0.05  -0.10  -0.05     0.02   0.02   0.02     0.04   0.01   0.02
    10   8     0.00  -0.04   0.00    -0.01  -0.01   0.00    -0.01   0.00  -0.00
    11   6    -0.01  -0.05   0.01    -0.02  -0.03  -0.03    -0.03  -0.04   0.05
    12   1     0.39   0.03   0.06     0.30   0.15   0.55     0.37  -0.11  -0.54
    13   1    -0.28   0.19  -0.28    -0.27  -0.25  -0.02    -0.09   0.55  -0.36
    14   1    -0.16   0.46   0.17    -0.02   0.60   0.04    -0.19   0.00   0.16
    15   6    -0.03  -0.02  -0.03     0.01   0.02   0.01     0.01   0.01   0.01
    16   8    -0.00   0.03   0.00     0.00  -0.02  -0.00     0.00  -0.01  -0.00
    17   8     0.03  -0.02   0.02    -0.01   0.01  -0.01    -0.01   0.01  -0.01
                     37                     38                     39
                      A                      A                      A
 Frequencies --   1546.9634              1655.9988              1717.1531
 Red. masses --      4.7846                10.8596                12.7460
 Frc consts  --      6.7461                17.5462                22.1432
 IR Inten    --    191.2286               601.6630              1050.6777
 Raman Activ --     41.7742               343.6987                13.7693
 Depolar (P) --      0.4408                 0.3234                 0.7484
 Depolar (U) --      0.6119                 0.4888                 0.8561
  Atom  AN      X      Y      Z        X      Y      Z        X      Y      Z
     1   6    -0.20  -0.13  -0.11    -0.05  -0.00  -0.02    -0.00   0.02   0.01
     2   6     0.14   0.18   0.10    -0.01   0.02   0.00     0.00  -0.02  -0.01
     3   6    -0.28  -0.03  -0.09     0.08   0.01   0.02     0.01  -0.00   0.00
     4   1     0.20  -0.30  -0.04    -0.01   0.06   0.02    -0.00   0.04   0.00
     5   6     0.32  -0.06   0.04    -0.09  -0.07  -0.03    -0.03   0.01  -0.01
     6   7     0.00   0.06   0.03     0.05  -0.02   0.01     0.04  -0.05   0.01
     7   1     0.39  -0.04   0.10     0.03   0.02   0.01    -0.00   0.04   0.02
     8   6    -0.12   0.05   0.01     0.05   0.74  -0.00    -0.00  -0.01  -0.00
     9   1     0.48  -0.28   0.05    -0.06   0.06   0.03    -0.02   0.02  -0.01
    10   8     0.01  -0.01   0.00    -0.01  -0.48   0.01     0.00   0.00  -0.00
    11   6     0.02   0.01  -0.01    -0.01  -0.06   0.00    -0.00   0.00   0.01
    12   1    -0.16  -0.00   0.04    -0.31  -0.10  -0.04     0.01  -0.02  -0.06
    13   1     0.09  -0.06   0.07     0.19   0.13   0.02     0.04   0.03   0.00
    14   1     0.05  -0.08  -0.04     0.04  -0.11  -0.04     0.02  -0.04  -0.02
    15   6     0.01   0.02  -0.00    -0.00  -0.00  -0.00    -0.40   0.73  -0.24
    16   8     0.00  -0.03  -0.00     0.00   0.00   0.00     0.06  -0.32   0.01
    17   8     0.00  -0.00   0.00    -0.00   0.00   0.00     0.22  -0.20   0.16
                     40                     41                     42
                      A                      A                      A
 Frequencies --   3047.8347              3115.4703              3142.9703
 Red. masses --      1.0369                 1.0993                 1.1023
 Frc consts  --      5.6750                 6.2863                 6.4156
 IR Inten    --     13.2573                12.6864                24.5861
 Raman Activ --    455.0649               185.4344                89.6781
 Depolar (P) --      0.0401                 0.6558                 0.7500
 Depolar (U) --      0.0770                 0.7922                 0.8571
  Atom  AN      X      Y      Z        X      Y      Z        X      Y      Z
     1   6     0.00  -0.00   0.00    -0.00  -0.00  -0.00    -0.00  -0.00  -0.00
     2   6     0.00  -0.00   0.00    -0.00  -0.00   0.00    -0.00  -0.00  -0.00
     3   6    -0.00   0.00   0.00    -0.00   0.00   0.00    -0.00   0.00  -0.00
     4   1    -0.00  -0.00  -0.00     0.00   0.00   0.00     0.00   0.00   0.00
     5   6     0.00   0.00   0.00    -0.00  -0.00  -0.00    -0.00  -0.00  -0.00
     6   7    -0.00  -0.00   0.00     0.00   0.00   0.00     0.00   0.00  -0.00
     7   1     0.00  -0.00  -0.00    -0.00   0.00   0.00    -0.00   0.00   0.00
     8   6    -0.00  -0.00  -0.00    -0.00  -0.00  -0.00     0.00  -0.00  -0.00
     9   1    -0.00  -0.00  -0.00     0.00   0.00   0.00     0.00  -0.00  -0.00
    10   8    -0.00  -0.00   0.00    -0.00   0.00   0.00    -0.00   0.00   0.00
    11   6     0.05   0.00  -0.02    -0.01  -0.03  -0.08     0.04  -0.08   0.03
    12   1     0.06  -0.42   0.09    -0.02   0.15  -0.05    -0.11   0.86  -0.19
    13   1    -0.30   0.35   0.56    -0.28   0.30   0.48    -0.10   0.11   0.20
    14   1    -0.31   0.04  -0.42     0.46  -0.06   0.59    -0.23   0.01  -0.31
    15   6     0.00   0.00   0.00    -0.00   0.00  -0.00    -0.00   0.00  -0.00
    16   8    -0.00  -0.00  -0.00     0.00  -0.00   0.00    -0.00  -0.00   0.00
    17   8    -0.00   0.00   0.00     0.00  -0.00  -0.00     0.00   0.00  -0.00
                     43                     44                     45
                      A                      A                      A
 Frequencies --   3228.6940              3243.1274              3270.6024
 Red. masses --      1.0909                 1.0989                 1.1000
 Frc consts  --      6.7000                 6.8100                 6.9329
 IR Inten    --      6.6532                 5.3172                 2.8569
 Raman Activ --    190.3324               244.3514               240.2412
 Depolar (P) --      0.6941                 0.2011                 0.1758
 Depolar (U) --      0.8195                 0.3349                 0.2990
  Atom  AN      X      Y      Z        X      Y      Z        X      Y      Z
     1   6     0.01  -0.01  -0.00     0.01  -0.01  -0.00     0.02  -0.08  -0.02
     2   6    -0.07   0.00  -0.02    -0.05   0.00  -0.01     0.02   0.00   0.01
     3   6     0.01   0.04   0.02    -0.01  -0.07  -0.03    -0.00   0.01   0.00
     4   1     0.78  -0.02   0.22     0.51  -0.02   0.14    -0.22   0.00  -0.06
     5   6    -0.00   0.00  -0.00     0.00   0.00   0.00    -0.00   0.00   0.00
     6   7     0.00  -0.00  -0.00     0.00   0.00   0.00    -0.00   0.00  -0.00
     7   1    -0.05   0.15   0.04    -0.05   0.17   0.05    -0.27   0.89   0.27
     8   6     0.00   0.00   0.00    -0.00  -0.00  -0.00     0.00  -0.00   0.00
     9   1    -0.11  -0.50  -0.23     0.16   0.73   0.33    -0.01  -0.05  -0.02
    10   8    -0.00  -0.00  -0.00     0.00   0.00   0.00    -0.00  -0.00  -0.00
    11   6    -0.00   0.00  -0.00    -0.00   0.00   0.00    -0.00   0.00  -0.00
    12   1     0.00  -0.00   0.00     0.00  -0.00   0.00    -0.00  -0.00   0.00
    13   1     0.00  -0.00  -0.00    -0.00   0.00   0.00     0.00  -0.00  -0.00
    14   1    -0.00  -0.00   0.00    -0.00   0.00  -0.00    -0.00  -0.00   0.00
    15   6     0.00  -0.00  -0.00     0.00  -0.00   0.00     0.00  -0.00  -0.00
    16   8    -0.00   0.00  -0.00    -0.00  -0.00  -0.00    -0.00   0.00  -0.00
    17   8     0.00   0.00   0.00    -0.00   0.00  -0.00     0.00   0.00   0.00

 -------------------
 - Thermochemistry -
 -------------------
 Temperature   298.150 Kelvin.  Pressure   1.00000 Atm.
 Thermochemistry will use frequencies scaled by 0.9670.
 Atom     1 has atomic number  6 and mass  12.00000
 Atom     2 has atomic number  6 and mass  12.00000
 Atom     3 has atomic number  6 and mass  12.00000
 Atom     4 has atomic number  1 and mass   1.00783
 Atom     5 has atomic number  6 and mass  12.00000
 Atom     6 has atomic number  7 and mass  14.00307
 Atom     7 has atomic number  1 and mass   1.00783
 Atom     8 has atomic number  6 and mass  12.00000
 Atom     9 has atomic number  1 and mass   1.00783
 Atom    10 has atomic number  8 and mass  15.99491
 Atom    11 has atomic number  6 and mass  12.00000
 Atom    12 has atomic number  1 and mass   1.00783
 Atom    13 has atomic number  1 and mass   1.00783
 Atom    14 has atomic number  1 and mass   1.00783
 Atom    15 has atomic number  6 and mass  12.00000
 Atom    16 has atomic number  8 and mass  15.99491
 Atom    17 has atomic number  8 and mass  15.99491
 Molecular mass:   152.03477 amu.
 Principal axes and moments of inertia in atomic units:
                           1         2         3
     Eigenvalues --  1195.437551537.883332514.48204
           X           -0.23764   0.94243  -0.23526
           Y            0.90985   0.13115  -0.39367
           Z            0.34016   0.30760   0.88864
 This molecule is an asymmetric top.
 Rotational symmetry number  1.
 Warning -- assumption of classical behavior for rotation
           may cause significant error
 Rotational temperatures (Kelvin)      0.07245     0.05632     0.03445
 Rotational constants (GHZ):           1.50969     1.17352     0.71774
 Zero-point vibrational energy     306761.1 (Joules/Mol)
                                   73.31767 (Kcal/Mol)
 Warning -- explicit consideration of  14 degrees of freedom as
           vibrations may cause significant error
 Vibrational temperatures:     48.76   109.89   185.22   211.28   221.83
          (Kelvin)            271.03   356.27   501.73   569.25   615.25
                              810.91   841.17   857.85   881.06   968.43
                             1044.51  1062.16  1112.37  1181.94  1252.05
[...]
 474909,-5.3512144,-16.2500359,27.3212622,-20.8489279,8.1328765,0.44668
 49,2.7217222,-2.3980321,10.4108088,-6.6332008,-4.4235261,0.5456117,-5.
 6473662,-25.9436585,26.3407104,-17.5899221,5.2907224,2.067549,2.873831
 6,-4.1243981,-10.662948,2.1985357,-0.7559242,1.9253979,-4.0380783,-1.6
 806034,3.8414586,1.7313822,-3.6668411,-1.6173566,-6.5687574,-16.795778
 4,0.7407337,-1.2318473,-4.8159555,-0.1254762,-2.2856572,1.1979395,-2.1
 729438,0.2550604,-0.8469295,-0.6079489,-0.5499917,-5.7237612,0.12791,-
 0.9645553,-0.1202454,-0.1590439,0.193213,33.746232,-26.697488,20.14289
 39,-2.3373774,0.3612881,0.1217518,-4.2337567,3.4843083,-8.6154793,-3.5
 322442,-2.4024157,0.6309032,1.6940894,-1.1173383,1.5509771,3.231023,-3
 .5959866,2.3108052,1.3096582,11.4664688,0.7037093,4.67316,2.6702431,1.
 9676641,6.3147219,-2.0698541,5.1564391,0.7307458,1.3403777,-1.5136483,
 -1.8333644,2.601823,-0.27775,2.618655,2.8607723,2.1233833,-2.4989418,3
 .6413221,-4.2975466,0.5580856,0.02504,-0.2131258,3.9740273,-4.5242479,
 11.1066724,-1.1993179,3.1631687,1.7653556,0.2294712,-1.256288,4.397859
 3,0.5193494,-0.0263293,0.318116,-8.7135043,9.6172146,-8.2588494,1.1507
 656,0.8142171,4.4028517,27.0891184,-29.4921312,32.5238513,-1.2465932,2
 .9850066,-2.7880422,0.833131,1.1570471,0.8381344,2.9131689,0.0595626,-
 0.5573025,-1.7309506,-1.6820384,-2.3611378,-1.4424493,-1.1405453,-1.10
 09494,-1.8930284,-3.60657,-9.5246044,-2.0877439,-4.5182213,-3.1929249,
 -1.6867079,-2.6927287,-4.5912244,-0.485097,-2.1614766,-1.093641,2.0694
 475,-4.2228145,-0.5027445,0.4407197,-0.9383554,-1.08066,-29.80549,28.0
 301718,-40.1649194,2.2047544,-2.0429457,-0.1728161,-1.1964927,1.066932
 4,-0.911761,1.1661825,-5.9047615,0.9561055,-6.0445139,3.8808903,0.1073
 421,-2.1332696,-1.552379,-5.0590405,8.175905,-1.1334837,-5.8325566,-3.
 0872268,3.4772079,3.6401764,-2.5689569,-5.996841,5.489544,-8.3650149,3
 .5852426,1.0846275,0.4947828,0.7086263,-0.239785,0.0497759,0.1756098,0
 .2044568,3.7830361,1.0115674,9.7743606,-0.487797,-1.8848201,1.9639628,
 -0.0196755,0.1197551,-2.1208934,1.0027297,1.5995609,-1.1380809,4.69518
 02,-1.6154294,0.81098,-2.8832705,1.1466373,2.66986,-4.1596226,1.988202
 9,-2.7933727,2.2894157,-2.7043864,-2.9970517,-4.4472985,2.5805063,-3.2
 385581,5.2707691,-2.9572882,-7.0241379,11.120058,-2.0053038,1.8479293,
 3.4770857,0.1144743,3.1973603,-1.754946,1.3504285,0.6901935,-0.043188,
 1.0871241,-0.8467182,8.4687652,0.0034575,1.3193799,4.8509468,-0.582029
 2,5.2570929,1.5227252,-5.2465792,-0.2451189,-4.4636625,-0.5012461,-2.2
 135522,4.6905993,-2.4707349,-7.6081728,0.7879155,-2.029781,2.4167891,2
 .6812194,-2.3700028,0.3918827,-3.1645303,-0.6224263,-2.8619455,-2.1101
 331,4.4894931,-1.160885,0.1577428,-1.2970446,-1.3087244,2.5509917,2.87
 54199,20.5385288,1.8947313,2.9421806,3.142664,-1.1722506,-0.1312601,-0
 .0528207,0.4556265,4.7604485,0.325334,8.5859172,1.6171332,4.0345025,5.
 8097874,1.6436782,4.1530467,-3.8345146,-0.0734941,-5.2942855,-2.527258
 2,0.406932,-5.3585701,1.7484799,0.7605055,1.8875831,5.8862475,-1.80182
 21,8.4692275\HyperPolar=627.1759126,-552.1849519,396.727125,-178.90898
 52,3.7254883,154.9088712,-52.8044939,-91.6502433,70.0715691,-98.018237
 1\Quadrupole=2.0041733,-8.6647174,6.6605441,-1.2753215,-10.9414561,-5.
 3979251\PG=C01 [X(C7H6N1O3)]\NImag=0\\0.55520754,-0.07771109,0.7896584
 0,0.09155537,0.22304099,0.23579176,-0.17327017,-0.10810815,-0.06697411
 ,0.78766226,-0.08200062,-0.24435804,-0.08540625,-0.01480042,0.51666213
 ,-0.05492684,-0.09263182,-0.11107646,0.18831275,0.13000763,0.21284538,
 0.03797346,0.02821316,0.01751424,-0.17966069,0.07781733,-0.01267323,0.
 55208410,-0.01676841,-0.06701689,-0.03136057,0.10850716,-0.21451925,-0
 .02074480,0.02636202,0.72410296,0.00044253,-0.01911306,0.00501133,0.00
 089552,-0.02867411,-0.07091799,0.13196683,0.22597046,0.24529617,-0.006
 40511,0.00452603,0.,-0.32726296,0.01004819,-0.08339783,-0.00741647,-0.
 00466222,-0.00360914,0.34240226,-0.02167834,0.00733853,-0.00328247,0.0
 1137087,-0.05421233,-0.00563976,0.02086682,0.00632522,0.00842593,-0.01
 074005,0.04629757,-0.00784035,0.00490560,-0.00165512,-0.08280049,-0.00
 769986,-0.05310902,0.00429324,0.00136308,0.00115263,0.08902659,0.00480
 036,0.04883027,-0.05462576,0.03604437,-0.00889290,-0.05996200,0.061417
 80,0.00444881,-0.26670455,-0.07154697,-0.09044475,-0.00162422,0.003146
 83,0.00049317,0.69821378,0.06062646,-0.05460306,-0.00213799,0.00933193
 ,0.00335551,0.00164767,-0.06868865,-0.11174417,-0.03590187,0.00284349,
 -0.00422282,-0.00250825,-0.07578015,0.55577180,0.00504102,-0.01220993,
 0.01149376,-0.01643724,0.00924459,0.01226647,-0.08149311,-0.03509011,-
 0.10071096,-0.00052293,-0.00178413,0.00353236,0.08462653,0.12396644,0.
 19728485,-0.25965347,0.06020348,-0.02647348,-0.06591326,-0.05214802,-0
 .04297936,-0.03786972,-0.01557584,-0.01621880,-0.00008944,-0.00271740,
 -0.00376953,-0.09522360,0.02747326,-0.00267582,0.58527589,0.07293212,-
 0.12745381,-0.01001549,-0.00908323,-0.00623834,-0.00629939,-0.04778643
 ,-0.05059335,-0.03234971,-0.00165299,-0.00376569,-0.00284519,0.0003790
 3,-0.22180618,-0.05262427,-0.05150572,0.56839181,-0.03253474,-0.010570
 57,-0.07349105,-0.02700855,-0.02008921,-0.00105038,-0.02898704,-0.0253
 8132,-0.00280549,-0.00246731,-0.00409382,0.00329386,-0.00903575,-0.051
 41715,-0.08401472,0.15566422,0.13946859,0.23043028,-0.07618325,0.07260
 857,0.01377876,0.01147047,-0.01329902,-0.00269775,-0.00201976,-0.00261
 903,-0.00256727,-0.00017799,0.00067122,0.00101581,-0.00522569,-0.00061
 462,-0.00191258,-0.00631639,0.03006119,0.01018577,0.07534170,0.0823596
 6,-0.30769751,-0.08537298,0.00821148,-0.00644869,-0.00151072,-0.001913
 31,-0.00113582,-0.00284650,-0.00057549,-0.00017973,0.00096699,0.000934
 13,0.00133161,-0.00057154,0.00128560,-0.00427420,-0.00069922,-0.088023
 65,0.32030401,0.01642524,-0.09004378,-0.05904113,0.00541669,-0.0044695
 9,0.00261464,-0.00071450,-0.00326641,0.00330721,0.00066073,0.00118737,
 -0.00244736,-0.00315060,-0.00046418,0.00199849,-0.00051938,0.00578394,
 0.00121267,-0.01883021,0.09137163,0.05181374,0.01548449,-0.00748552,0.
 00315178,-0.00125623,-0.01370493,-0.00801088,-0.03972074,0.01787558,0.
 00426318,0.00072286,0.00067694,-0.00085628,-0.20254415,0.04962793,0.01
 009761,0.00049902,0.01013079,-0.00357906,0.00117766,-0.00015102,0.0003
 1894,0.51422082,-0.02017338,-0.00215347,-0.00884533,-0.00624338,0.0176
 3822,0.00307083,0.02182252,0.00759853,0.00292422,-0.00128973,0.0013597
 1,0.00025598,0.01214833,-0.09982167,-0.01090058,0.03395725,-0.02727685
 ,0.00497201,0.00085444,0.00020056,-0.00082667,0.01637520,0.81386008,-0
 .00370203,-0.00260551,0.00021808,-0.00393963,0.00021762,0.00262089,-0.
 00592745,0.00643381,0.00179924,-0.00061185,0.00017404,0.00128221,0.014
 83481,-0.01817627,-0.06641214,0.01096550,0.00006621,-0.00749491,-0.000
 57947,-0.00081903,0.00267689,-0.04106749,-0.00245857,0.22619956,-0.002
 49131,0.00416864,-0.00072477,0.01027235,0.01482352,0.00835329,-0.06713
 374,-0.04711721,-0.02815185,0.00013165,-0.00139441,0.00030668,0.002910
 62,-0.02174845,-0.00841601,-0.00524471,-0.00149409,-0.00400381,0.00092
 732,0.00052338,0.00022249,0.00046973,-0.00138331,0.00084419,0.05803293
 ,0.00346312,-0.00225879,-0.00137629,-0.00836731,-0.00933279,-0.0066653
 0,-0.05000391,-0.28722495,-0.11573407,-0.00005554,0.00023672,0.0010482
 1,0.00080549,-0.00120976,-0.00027449,-0.00024934,0.00082406,-0.0019176
 4,-0.00058599,-0.00014154,-0.00041881,0.00035879,-0.00255682,0.0007443
 0,0.05337805,0.30036358,-0.00294982,-0.00134124,0.00279523,-0.00066623
 ,0.00312233,0.00193300,-0.02962918,-0.11692235,-0.08400466,0.00072243,
 0.00051106,-0.00209426,0.00279162,-0.00763914,-0.00179878,-0.00168879,
 -0.00310332,0.00290239,-0.00008163,-0.00009517,0.00072666,0.00051225,0
 .00072462,-0.00233532,0.03093940,0.12437966,0.08021763,-0.00170785,0.0
 0373474,0.00100104,0.00069391,0.00062175,0.00135897,0.00073979,0.00061
 141,-0.00096898,-0.00021803,-0.00000312,0.00007224,0.00864130,0.041347
 25,0.00194430,-0.00449998,0.00209242,-0.00008416,-0.00058526,0.0001346
 2,0.00007542,-0.09887786,-0.01632103,0.00621190,0.00083265,0.00116133,
 0.00017508,0.09405728,0.01149545,-0.00383959,0.00255581,0.00205644,-0.
 01120503,-0.00475739,-0.01950975,0.00113954,-0.00063032,0.00082295,-0.
 00015443,-0.00050684,0.04918988,-0.06320740,-0.00461827,0.00039962,0.0
 0757041,-0.00122049,0.00077111,-0.00006202,0.00028616,-0.03917698,-0.6
 0581950,0.00738037,0.00077296,0.00083079,0.00097740,0.01658632,0.71744
 394,0.00331114,0.00034333,0.00059271,0.00061793,-0.00275221,-0.0003533
 4,-0.00208710,0.00101267,-0.00101353,0.00008796,0.00000940,-0.00014068
 ,0.00441749,-0.00676863,0.01621466,-0.00257893,-0.00032265,0.00497124,
 0.00032529,0.00040708,-0.00100399,0.00252783,0.00765324,-0.06953510,0.
 00025837,0.00031083,0.00025798,-0.01265496,-0.01195701,0.03004757,-0.0
 0221978,0.00027376,-0.00049951,-0.00109084,0.00165449,-0.00017163,0.00
 134941,0.00090477,0.00231167,-0.00007219,0.00027120,-0.00021262,-0.022
 41931,-0.00802920,0.00714433,0.00057022,-0.00169731,0.00023371,-0.0000
 1403,0.00006102,-0.00011778,-0.16506492,-0.02703023,0.01565826,0.00006
 663,-0.00012840,0.00002788,0.00335147,-0.02265710,0.00527583,0.4696074
 7,0.00038597,-0.00006994,0.00011026,0.00079497,0.00001738,0.00061265,0
 .00183169,-0.00217266,-0.00057752,0.00013161,-0.00031358,0.00009977,0.
 01111013,0.01218967,0.00003023,-0.00135928,-0.00006692,0.00031254,-0.0
 0002085,-0.00002048,0.00001859,-0.03241492,-0.09513895,0.00761927,0.00
 002921,0.00017564,-0.00001825,-0.04323095,-0.04137919,0.00799177,-0.03
 958822,0.58341358,-0.00300864,0.00004429,-0.00108438,0.00066391,0.0036
 1537,0.00061628,0.00377501,-0.00345742,0.00155769,0.00011493,-0.000116
 12,-0.00028592,-0.00013695,0.00668952,0.01739460,0.00058457,-0.0022716
 3,-0.00018124,0.00005082,0.00003251,-0.00031921,0.02815435,0.00483218,
 -0.08565099,0.00004000,-0.00006176,0.00015327,0.00366620,0.00832534,0.
 01516152,0.01427630,0.00487569,0.52878457,-0.00067989,0.00012654,-0.00
 027425,0.00011484,0.00036440,0.00030839,0.00064947,-0.00002052,-0.0000
 5751,0.00000592,-0.00001392,0.00005750,-0.00077937,0.00027120,-0.00044
 524,-0.00028098,0.00005431,0.00007035,0.00000357,-0.00000733,-0.000001
 98,0.01083051,-0.02682858,0.00525286,0.00005107,0.00002823,-0.00000476
 ,-0.00713885,-0.00617764,0.00091543,-0.05258108,0.03656259,-0.00584179
 ,0.05514951,-0.00023690,0.00019257,-0.00006072,0.00018194,0.00003432,0
 .00014720,0.00004766,0.00021431,-0.00024849,-0.00002641,-0.00000064,0.
 00006391,-0.00023516,-0.00010020,-0.00075383,0.00052654,0.00030016,-0.
 00035401,0.00001604,0.00000643,-0.00000723,0.00758472,-0.01112835,0.00
 077465,0.00005067,0.00002229,0.00001947,-0.00504121,-0.00260168,0.0015
 2233,0.03101819,-0.30207277,0.06038066,-0.03616828,0.32711491,0.000564
 47,-0.00014172,0.00018958,-0.00010679,-0.00032445,-0.00019932,-0.00040
 540,-0.00003602,-0.00001673,-0.00000573,-0.00001079,-0.00003486,0.0006
 9071,0.00017142,0.00027866,-0.00016219,0.00000014,-0.00009485,0.000001
 99,0.00000707,-0.00000276,-0.00479059,0.00435082,-0.00426536,-0.000035
 60,-0.00001852,-0.00001065,0.00167889,0.00127187,0.00232111,-0.0039073
 9,0.05812889,-0.05936943,0.00612023,-0.06319812,0.05961633,0.00006172,
 0.00007354,0.00008879,-0.00041650,-0.00020099,-0.00024478,-0.00057787,
 0.00097227,0.00005111,-0.00006519,0.00011663,0.00000130,-0.00213431,-0
 .00379655,-0.00147755,0.00039976,0.00007598,0.00007672,-0.00003541,0.0
 0000259,0.00005017,-0.01859586,0.01429093,0.02479916,-0.00000976,-0.00
 005134,-0.00000450,0.00349882,0.00142342,-0.00314224,-0.08958673,0.053
 37658,0.08960919,-0.00234352,0.00111273,0.00179540,0.09975122,-0.00043
 247,0.00009352,-0.00016541,-0.00004261,0.00013678,0.00008416,0.0000964
 7,0.00046362,-0.00017035,-0.00002363,0.00003352,0.00006002,-0.00132115
 ,-0.00136566,-0.00072420,0.00048778,-0.00002767,0.00006963,-0.00000533
 ,-0.00000221,0.00000963,-0.00569044,0.00602354,0.01301731,0.00002982,-
 0.00000623,-0.00000031,-0.00079273,-0.00016398,-0.00060827,0.05384615,
 -0.10867624,-0.09646375,0.01218971,-0.01127098,-0.02370502,-0.05697832
 ,0.11369418,0.00029384,-0.00002639,0.00013163,0.00012416,-0.00021291,-
 0.00003313,-0.00031303,-0.00011462,-0.00000515,0.00002690,-0.00001398,
 -0.00002592,0.00073903,0.00068380,-0.00020650,-0.00027773,0.00029889,0
 .00018203,0.00000067,-0.00000099,-0.00000689,0.00050359,-0.00469905,-0
 .00564674,0.00001421,0.00001814,0.00000330,-0.00087209,0.00106043,0.00
 196844,0.08883132,-0.09490843,-0.20020906,-0.00455619,0.00334666,0.007
 26500,-0.09690516,0.10730806,0.21568980,-0.00116165,0.00011770,-0.0003
 0599,-0.00007339,0.00118917,0.00011037,0.00091651,-0.00036308,0.000762
 61,-0.00001694,0.00007156,-0.00011218,-0.00310455,-0.00124744,0.003119
 65,0.00070933,-0.00052785,0.00020088,-0.00001442,0.00001053,-0.0000682
 5,-0.01887456,0.00147100,-0.02383399,0.00001656,-0.00005028,0.00006318
 ,0.00195756,0.00169975,0.00282981,-0.13956041,0.01005627,-0.13421783,-
 0.00211946,0.00027115,-0.00213887,0.00958424,-0.00154423,0.01169632,0.
 15202884,0.00000573,0.00012093,-0.00000612,0.00012886,0.00003943,0.000
 01604,0.00001976,-0.00008264,0.00008430,-0.00001192,0.00000456,-0.0000
 1306,-0.00033634,-0.00013410,0.00058266,-0.00004634,0.00029539,-0.0001
 5725,0.00001821,0.00001035,-0.00004910,-0.00715500,-0.00057694,-0.0141
 4455,0.00001227,-0.00000289,0.00003440,-0.00024991,-0.00069583,0.00285
 044,0.00880047,-0.04341006,0.01579376,0.01898980,-0.00101935,0.0243284
 1,-0.00997728,0.00081140,-0.01169633,-0.01038775,0.04515640,0.00037797
 ,0.00004706,0.00004959,0.00003153,-0.00036422,-0.00001802,-0.00027024,
 0.00022607,-0.00012278,-0.00000361,-0.00000104,0.00003246,0.00080688,-
 0.00064640,-0.00159685,-0.00003684,0.00029787,0.00022517,-0.00000189,-
 0.00000241,0.00002139,0.00393288,-0.00062947,0.00715256,-0.00000041,0.
 00000928,-0.00003340,-0.00018214,-0.00019981,0.00004594,-0.13107801,0.
 01852152,-0.21231517,-0.00318692,-0.00007842,-0.00534475,-0.01424171,0
 .00228071,-0.01807133,0.14270319,-0.01828755,0.23112283,-0.04168628,-0
 .01127289,-0.02074321,0.00105283,0.01659258,0.00533188,0.01544751,0.00
 681876,0.00375433,0.00094699,0.00017923,0.00003406,0.00301985,-0.02150
 996,0.00281802,-0.06937633,0.02325523,0.00627087,0.00002488,-0.0009581
 3,0.00071123,0.01104835,-0.00453388,0.00184327,0.00190374,0.00104997,-
 0.00024078,-0.00361112,0.00601692,0.00034723,-0.00095113,0.00074467,-0
 .00109677,-0.00036161,0.00010954,0.00194567,-0.00037642,-0.00106653,-0
 .00082146,-0.00181497,0.00068796,-0.00027778,0.45274439,-0.02335155,0.
 01499115,0.00165283,0.01036344,0.01059775,0.00477449,0.01233748,-0.002
 38571,0.00115782,0.00140125,0.00164286,-0.00004886,-0.01778089,-0.0253
 6001,-0.01123141,0.02347164,-0.07699780,0.00481141,0.00300928,-0.00277
 112,0.00082033,0.00307137,-0.00885253,-0.00163998,0.00045474,0.0006367
 3,-0.00040212,-0.00136830,0.00568535,0.00033426,-0.00053172,0.00031349
 ,0.00066485,0.00065187,0.00091216,-0.00177483,-0.00037837,0.00113796,0
 .00093133,0.00079948,-0.00073174,0.00025233,-0.23952727,0.80100235,-0.
 02152966,0.00949659,-0.00936554,0.00640155,0.00849333,0.00668159,0.010
 52050,0.00384276,0.00392573,0.00070426,0.00065427,0.00228544,-0.000527
 30,-0.01422504,-0.00982945,-0.00132623,-0.00764179,-0.05343805,0.00089
 531,-0.00031242,-0.00138020,0.00869331,-0.00488595,-0.00033018,0.00079
 424,0.00015840,0.00253373,-0.00284486,0.00623091,0.00058879,0.00080063
 ,-0.00169448,-0.00151285,0.00155749,-0.00076075,-0.00032389,-0.0007172
 5,-0.00045743,-0.00092112,-0.00153645,0.00089745,-0.00077415,0.1493359
 4,-0.12373468,0.34308643,-0.00092096,-0.00072633,-0.00009545,0.0016523
 9,-0.00153679,-0.00054710,-0.00120804,-0.00279588,-0.00104251,-0.00017
 203,0.00002020,0.00004572,-0.00124506,0.00098831,-0.00204875,0.0077619
 7,-0.03052045,-0.01214816,0.00122525,-0.00226311,-0.00023695,-0.002613
 94,0.00117237,-0.00047332,-0.00031929,-0.00040808,0.00005425,0.0008218
 1,-0.00150617,-0.00002650,0.00022653,-0.00010737,0.00006870,0.00000911
 ,-0.00007677,-0.00020471,0.00009387,0.00010883,0.00016244,0.00037843,-
 0.00010116,0.00003397,-0.09844699,0.06732633,-0.00495664,0.09160548,0.
 01293252,-0.00343378,0.00352577,-0.00284079,-0.00475533,-0.00271154,-0
 .00463985,-0.00383925,-0.00255294,-0.00053494,-0.00029513,-0.00036948,
 -0.00647413,0.01039476,-0.00116773,-0.02141901,-0.07175551,-0.03236783
 ,-0.00187935,0.00053036,0.00000358,-0.00241239,0.00490954,0.00132892,-
 0.00117048,-0.00039346,-0.00035836,0.00112033,-0.00363241,-0.00012719,
 0.00089729,-0.00071310,-0.00051666,-0.00016917,-0.00024089,0.00065889,
 0.00012958,-0.00042013,-0.00075166,-0.00068059,0.00036122,-0.00032420,
 0.06732982,-0.49518060,0.00429946,-0.09195085,0.64663598,0.00262921,-0
 .00195222,0.00125536,-0.00041916,-0.00216275,-0.00081384,-0.00221367,-
 0.00203956,-0.00141962,-0.00015026,-0.00007128,-0.00032725,-0.00328926
 ,0.00135368,0.00252006,-0.01105101,-0.03713534,0.00252817,0.00012872,-
 0.00082459,-0.00031340,-0.00234061,0.00112010,-0.00003322,-0.00024237,
 0.00002494,-0.00090959,0.00072532,-0.00142172,-0.00013796,-0.00016707,
 0.00031717,0.00046286,-0.00017882,0.00022323,-0.00012385,0.00013295,0.
 00017689,0.00025946,0.00042942,-0.00019622,0.00018870,-0.00418760,0.00
 435749,-0.08651479,0.03859712,-0.00233439,0.06481293,0.01227826,-0.004
 78656,-0.00210629,-0.00401303,-0.00683842,-0.00257507,-0.00684867,-0.0
 0058282,-0.00138695,-0.00068911,-0.00084425,0.00024515,0.00280702,0.00
 890518,0.00063777,-0.05074830,0.00528700,-0.05285394,0.00040136,0.0003
 6903,-0.00024126,-0.00690519,0.00171149,-0.00027470,-0.00041644,-0.000
 34480,-0.00002043,0.00204436,-0.00220718,-0.00042457,-0.00161130,0.001
 69790,0.00329799,-0.00052924,0.00086557,-0.00104010,0.00075196,0.00113
 869,0.00135318,0.00114888,-0.00039736,0.00139312,-0.26956370,0.1600512
 3,-0.14626483,0.00115148,0.05176200,-0.01840291,0.32074166,-0.00184828
 ,0.00048977,-0.00285606,-0.00146119,0.00258829,0.00060004,0.00312699,0
 .00087050,0.00023621,-0.00020060,-0.00009433,0.00042763,-0.00170120,0.
 00053169,-0.00187342,-0.00278423,0.01287447,-0.00136569,-0.00096221,0.
 00034999,0.00006452,0.00248989,0.00173492,0.00208742,0.00006469,0.0000
 3742,0.00011133,-0.00040292,0.00009102,0.00010061,0.00193484,-0.002075
 87,-0.00236683,0.00014680,-0.00036228,0.00029195,-0.00019140,-0.000461
 41,-0.00122294,-0.00088537,-0.00014613,-0.00110132,0.15608398,-0.22464
 030,0.11963936,0.06237692,-0.07817228,0.04056458,-0.21578670,0.2863845
 2,0.00585130,-0.00724162,-0.00181535,-0.00411185,-0.00254530,-0.002006
 73,-0.00335588,-0.00043568,-0.00103309,-0.00057515,-0.00074905,-0.0002
 8882,0.00162847,0.00537237,0.00158550,-0.05745621,0.00869316,-0.023175
 13,0.00028765,0.00027028,0.00014327,-0.00151080,0.00334162,-0.00024547
 ,-0.00019805,-0.00022689,-0.00033654,0.00069783,-0.00277644,0.00001461
 ,0.00159410,-0.00143967,-0.00320254,0.00026521,-0.00101654,0.00011577,
 0.00012842,-0.00071166,-0.00037383,0.00029814,-0.00003728,-0.00056220,
 -0.14502489,0.11907475,-0.19471151,-0.01718211,0.03376537,0.01856598,0
 .21866385,-0.15333741,0.20732608\\-0.00000037,-0.00000228,-0.00000473,
 -0.00000159,-0.00000794,0.00000780,-0.00000080,-0.00000784,0.00001535,
 -0.00000060,-0.00000467,0.00000489,-0.00000036,-0.00000273,0.00000677,
 -0.00000055,0.00000120,-0.00000591,0.00000008,0.00000033,-0.00000544,-
 0.00000119,-0.00000134,0.00000988,-0.00000083,-0.00000516,0.00001039,0
 .00000204,-0.00000304,0.00002519,-0.00001403,-0.00000315,0.00000126,-0
 .00000407,0.00000640,-0.00000764,0.00000256,-0.00001104,-0.00001058,0.
 00001104,0.00000005,0.00001046,0.00000152,0.00000987,-0.00001550,0.000
 00220,0.00001318,-0.00003165,0.00000498,0.00001815,-0.00001055\\\@
 The archive entry for this job was punched.


 IT IS BY LOGIC THAT WE PROVE, BUT BY INTUITION THAT WE DISCOVER.
     -- J.H.POINCARE (1854-1912)
 Job cpu time:       0 days  0 hours 40 minutes 16.4 seconds.
 Elapsed time:       0 days  0 hours  3 minutes 28.4 seconds.
 File lengths (MBytes):  RWF=    209 Int=      0 D2E=      0 Chk=     23 Scr=      1
 Normal termination of Gaussian 16 at Thu Dec 14 13:13:44 2023.
