 Entering Gaussian System, Link 0=g16
 Input=TDA-CO2_binding_direct-site_index-10-freq.gjf
 Output=TDA-CO2_binding_direct-site_index-10-freq.log
 Initial command:
 /software/commercial/gaussian/g16/AVX/g16/l1.exe "/scratch1/svicchi/G09-659902.pbs02/Gau-277061.inp" -scrdir="/scratch1/svicchi/G09-659902.pbs02/"
 Entering Link 1 = /software/commercial/gaussian/g16/AVX/g16/l1.exe PID=    277062.
  
 Copyright (c) 1988-2019, Gaussian, Inc.  All Rights Reserved.
  
 This is part of the Gaussian(R) 16 program.  It is based on
 the Gaussian(R) 09 system (copyright 2009, Gaussian, Inc.),
 the Gaussian(R) 03 system (copyright 2003, Gaussian, Inc.),
 the Gaussian(R) 98 system (copyright 1998, Gaussian, Inc.),
 the Gaussian(R) 94 system (copyright 1995, Gaussian, Inc.),
 the Gaussian 92(TM) system (copyright 1992, Gaussian, Inc.),
 the Gaussian 90(TM) system (copyright 1990, Gaussian, Inc.),
 the Gaussian 88(TM) system (copyright 1988, Gaussian, Inc.),
 the Gaussian 86(TM) system (copyright 1986, Carnegie Mellon
 University), and the Gaussian 82(TM) system (copyright 1983,
 Carnegie Mellon University). Gaussian is a federally registered
 trademark of Gaussian, Inc.
  
 This software contains proprietary and confidential information,
 including trade secrets, belonging to Gaussian, Inc.
  
 This software is provided under written license and may be
 used, copied, transmitted, or stored only in accord with that
 written license.
  
 The following legend is applicable only to US Government
 contracts under FAR:
  
                    RESTRICTED RIGHTS LEGEND
  
 Use, reproduction and disclosure by the US Government is
 subject to restrictions as set forth in subparagraphs (a)
 and (c) of the Commercial Computer Software - Restricted
 Rights clause in FAR 52.227-19.
  
 Gaussian, Inc.
 340 Quinnipiac St., Bldg. 40, Wallingford CT 06492
  
  
 ---------------------------------------------------------------
 Warning -- This program may not be used in any manner that
 competes with the business of Gaussian, Inc. or will provide
 assistance to any competitor of Gaussian, Inc.  The licensee
 of this program is prohibited from giving any competitor of
 Gaussian, Inc. access to this program.  By using this program,
 the user acknowledges that Gaussian, Inc. is engaged in the
 business of creating and licensing software in the field of
 computational chemistry and represents and warrants to the
 licensee that it is not a competitor of Gaussian, Inc. and that
 it will not use this program in any manner prohibited above.
 ---------------------------------------------------------------
  

 Cite this work as:
 Gaussian 16, Revision C.01,
 M. J. Frisch, G. W. Trucks, H. B. Schlegel, G. E. Scuseria, 
 M. A. Robb, J. R. Cheeseman, G. Scalmani, V. Barone, 
 G. A. Petersson, H. Nakatsuji, X. Li, M. Caricato, A. V. Marenich, 
 J. Bloino, B. G. Janesko, R. Gomperts, B. Mennucci, H. P. Hratchian, 
 J. V. Ortiz, A. F. Izmaylov, J. L. Sonnenberg, D. Williams-Young, 
 F. Ding, F. Lipparini, F. Egidi, J. Goings, B. Peng, A. Petrone, 
 T. Henderson, D. Ranasinghe, V. G. Zakrzewski, J. Gao, N. Rega, 
 G. Zheng, W. Liang, M. Hada, M. Ehara, K. Toyota, R. Fukuda, 
 J. Hasegawa, M. Ishida, T. Nakajima, Y. Honda, O. Kitao, H. Nakai, 
 T. Vreven, K. Throssell, J. A. Montgomery, Jr., J. E. Peralta, 
 F. Ogliaro, M. J. Bearpark, J. J. Heyd, E. N. Brothers, K. N. Kudin, 
 V. N. Staroverov, T. A. Keith, R. Kobayashi, J. Normand, 
 K. Raghavachari, A. P. Rendell, J. C. Burant, S. S. Iyengar, 
 J. Tomasi, M. Cossi, J. M. Millam, M. Klene, C. Adamo, R. Cammi, 
 J. W. Ochterski, R. L. Martin, K. Morokuma, O. Farkas, 
 J. B. Foresman, and D. J. Fox, Gaussian, Inc., Wallingford CT, 2019.
 
 ******************************************
 Gaussian 16:  ES64L-G16RevC.01  3-Jul-2019
                 2-Jun-2023 
 ******************************************
 %NProcShared=2
 Will use up to    2 processors via shared memory.
 %mem=55gb
 %chk=/scratch1/svicchi/G09-659902.pbs02/02-freq/TDA-CO2_binding_direct-site_inde
 x-10-freq.chk
 ----------------------------------------------------------------------
 #p freq=raman scale=0.967 pop=(nbo,full,hirshfeld) guess=read geom=all
 check b3lyp/6-311+G(d,p) int=grid=ultrafine EmpiricalDispersion=GD3BJ 
 SCRF=(Solvent=ethanol) scf=(xqc,intrep,maxconventionalcycle=350) nosym
 m
 ----------------------------------------------------------------------
 1/10=4,29=7,30=1,38=1,114=967000/1,3;
 2/12=2,15=1,40=1/2;
 3/5=4,6=6,7=111,11=2,14=-4,25=1,30=1,70=2201,71=2,72=4,74=-5,75=-5,116=-2,124=41,140=1/1,2,3;
 4/5=1/1;
 5/5=2,8=3,13=1,17=20,38=6,53=4,85=350,98=1/2,8;
 8/6=4,10=90,11=11/1;
 10/13=10,15=4,31=1/2;
 11/6=3,8=1,9=11,15=111,16=1,31=1/1,2,10;
 10/6=1,31=1/2;
 6/7=3,28=1,40=1,79=1/1,7;
 7/8=1,10=1,25=1,30=1/1,2,3,16;
 1/10=4,30=1/3;
 99//99;
 Leave Link    1 at Fri Jun  2 16:04:51 2023, MaxMem=  7381975040 cpu:               5.1 elap:               5.1
 (Enter /software/commercial/gaussian/g16/AVX/g16/l101.exe)
 Structure from the checkpoint file:  "/scratch1/svicchi/G09-659902.pbs02/02-freq/TDA-CO2_binding_direct-site_index-10-freq.chk"
 ----------------------------------------
 TDA-CO2_binding_direct-site_index-10.gjf
 ----------------------------------------
 Charge =  0 Multiplicity = 1
 No Z-Matrix found in chk file; cartesian coordinates used.
  C                                                -3.636826145555      0.835388687006      0.244055965569
  C                                                -2.484760347620      1.649429241159     -0.338123759931
  C                                                -1.196963603933      0.840523371889     -0.462085361370
  H                                                -2.298248017702      2.523437325431      0.296429267480
  H                                                -2.778652945361      2.028859636640     -1.323787208373
  N                                                -4.857507771518      1.652368218318      0.342243091122
  H                                                -3.326699838404      0.416782561299      1.213493148501
  H                                                -3.854708943335     -0.012752072850     -0.412473215352
  H                                                -4.715870348089      2.403170932353      1.012860873846
  H                                                -5.623822474903      1.092173488175      0.703368030209
  N                                                -0.109945556552      1.671635199051     -1.002428466169
  H                                                -1.390051808185     -0.054591352395     -1.071753761249
  H                                                -0.886007384612      0.492954934347      0.527671312214
  H                                                 0.737950301233      1.120650678814     -1.098958253485
  H                                                -0.348084612973      1.993137467342     -1.936894505891
  C                                                 0.501567981668      3.581908447067      0.922374206631
  O                                                 0.284478863337      2.811024630650      1.764396423295
  O                                                 0.741668652505      4.421517605705      0.155938212954
 Recover connectivity data from disk.
 ITRead=  0  0  0  0  0  0  0  0  0  0  0  0  0  0  0  0  0  0
 MicOpt= -1 -1 -1 -1 -1 -1 -1 -1 -1 -1 -1 -1 -1 -1 -1 -1 -1 -1
 NAtoms=     18 NQM=       18 NQMF=       0 NMMI=      0 NMMIF=      0
                NMic=       0 NMicF=      0.
                    Isotopes and Nuclear Properties:
 (Nuclear quadrupole moments (NQMom) in fm**2, nuclear magnetic moments (NMagM)
  in nuclear magnetons)

  Atom         1           2           3           4           5           6           7           8           9          10
 IAtWgt=          12          12          12           1           1          14           1           1           1           1
 AtmWgt=  12.0000000  12.0000000  12.0000000   1.0078250   1.0078250  14.0030740   1.0078250   1.0078250   1.0078250   1.0078250
 NucSpn=           0           0           0           1           1           2           1           1           1           1
 AtZEff=   3.6000000   3.6000000   3.6000000   1.0000000   1.0000000   4.5500000   1.0000000   1.0000000   1.0000000   1.0000000
 NQMom=    0.0000000   0.0000000   0.0000000   0.0000000   0.0000000   2.0440000   0.0000000   0.0000000   0.0000000   0.0000000
 NMagM=    0.0000000   0.0000000   0.0000000   2.7928460   2.7928460   0.4037610   2.7928460   2.7928460   2.7928460   2.7928460
 AtZNuc=   6.0000000   6.0000000   6.0000000   1.0000000   1.0000000   7.0000000   1.0000000   1.0000000   1.0000000   1.0000000

  Atom        11          12          13          14          15          16          17          18
 IAtWgt=          14           1           1           1           1          12          16          16
 AtmWgt=  14.0030740   1.0078250   1.0078250   1.0078250   1.0078250  12.0000000  15.9949146  15.9949146
 NucSpn=           2           1           1           1           1           0           0           0
 AtZEff=   4.5500000   1.0000000   1.0000000   1.0000000   1.0000000   3.6000000   5.6000000   5.6000000
 NQMom=    2.0440000   0.0000000   0.0000000   0.0000000   0.0000000   0.0000000   0.0000000   0.0000000
 NMagM=    0.4037610   2.7928460   2.7928460   2.7928460   2.7928460   0.0000000   0.0000000   0.0000000
 AtZNuc=   7.0000000   1.0000000   1.0000000   1.0000000   1.0000000   6.0000000   8.0000000   8.0000000
 Leave Link  101 at Fri Jun  2 16:04:55 2023, MaxMem=  7381975040 cpu:               0.4 elap:               1.3
 (Enter /software/commercial/gaussian/g16/AVX/g16/l103.exe)

 GradGradGradGradGradGradGradGradGradGradGradGradGradGradGradGradGradGrad
 Berny optimization.
 Initialization pass.
 Trust Radius=3.00D-01 FncErr=1.00D-07 GrdErr=1.00D-07 EigMax=2.50D+02 EigMin=1.00D-04
 Number of steps in this run=      2 maximum allowed number of steps=      2.
 GradGradGradGradGradGradGradGradGradGradGradGradGradGradGradGradGradGrad

 Leave Link  103 at Fri Jun  2 16:04:56 2023, MaxMem=  7381975040 cpu:               0.1 elap:               0.6
 (Enter /software/commercial/gaussian/g16/AVX/g16/l202.exe)
                          Input orientation:                          
 ---------------------------------------------------------------------
 Center     Atomic      Atomic             Coordinates (Angstroms)
 Number     Number       Type             X           Y           Z
 ---------------------------------------------------------------------
      1          6           0       -3.636826    0.835389    0.244056
      2          6           0       -2.484760    1.649429   -0.338124
      3          6           0       -1.196964    0.840523   -0.462085
      4          1           0       -2.298248    2.523437    0.296429
      5          1           0       -2.778653    2.028860   -1.323787
      6          7           0       -4.857508    1.652368    0.342243
      7          1           0       -3.326700    0.416783    1.213493
      8          1           0       -3.854709   -0.012752   -0.412473
      9          1           0       -4.715870    2.403171    1.012861
     10          1           0       -5.623822    1.092173    0.703368
     11          7           0       -0.109946    1.671635   -1.002428
     12          1           0       -1.390052   -0.054591   -1.071754
     13          1           0       -0.886007    0.492955    0.527671
     14          1           0        0.737950    1.120651   -1.098958
     15          1           0       -0.348085    1.993137   -1.936895
     16          6           0        0.501568    3.581908    0.922374
     17          8           0        0.284479    2.811025    1.764396
     18          8           0        0.741669    4.421518    0.155938
 ---------------------------------------------------------------------
                    Distance matrix (angstroms):
                    1          2          3          4          5
     1  C    0.000000
     2  C    1.526057   0.000000
     3  C    2.539998   1.525816   0.000000
     4  H    2.155004   1.096054   2.149505   0.000000
     5  H    2.149178   1.096300   2.157873   1.760823   0.000000
     6  N    1.472128   2.468367   3.834791   2.703825   2.690546
     7  H    1.100553   2.153090   2.742790   2.517283   3.055641
     8  H    1.094462   2.155257   2.791801   3.058982   2.481243
     9  H    2.052642   2.714984   4.123110   2.524408   3.058242
    10  H    2.055495   3.353945   4.584614   3.643290   3.616867
    11  N    3.833004   2.466078   1.471165   2.683517   2.711619
    12  H    2.751620   2.154132   1.100095   3.056628   2.516446
    13  H    2.786522   2.154773   1.094128   2.484100   3.060884
    14  H    4.585164   3.353258   2.056203   3.624006   3.638941
    15  H    4.112511   2.690648   2.055280   3.011991   2.506958
    16  C    5.012962   3.773790   3.509548   3.057963   4.268144
    17  O    4.646634   3.665867   3.321862   2.984646   4.419439
    18  O    5.660327   4.282338   4.118709   3.586578   4.506336
                    6          7          8          9         10
     6  N    0.000000
     7  H    2.151539   0.000000
     8  H    2.085145   1.762686   0.000000
     9  H    1.016609   2.432239   2.934256   0.000000
    10  H    1.015612   2.448092   2.365528   1.624462   0.000000
    11  N    4.934355   4.102740   4.148308   5.080460   5.800720
    12  H    4.115380   3.032351   2.551654   4.631121   4.731907
    13  H    4.141429   2.536362   3.154806   4.307225   4.778789
    14  H    5.802494   4.729085   4.779998   5.987387   6.612212
    15  H    5.064138   4.613240   4.317854   5.286467   5.967925
    16  C    5.725327   4.975782   5.803495   5.349698   6.615675
    17  O    5.459398   4.367665   5.463090   5.072932   6.244058
    18  O    6.249294   5.805855   6.411905   5.881562   7.204421
                   11         12         13         14         15
    11  N    0.000000
    12  H    2.150194   0.000000
    13  H    2.081529   1.764094   0.000000
    14  H    1.015790   2.431116   2.382680   0.000000
    15  H    1.016514   2.455068   2.934961   1.625682   0.000000
    16  C    2.779921   4.558388   3.409221   3.193658   3.379574
    17  O    3.018128   4.365725   2.876278   3.355861   3.842998
    18  O    3.103049   5.107545   4.268620   3.531360   3.385933
                   16         17         18
    16  C    0.000000
    17  O    1.162063   0.000000
    18  O    1.161902   2.321605   0.000000
 Symmetry turned off by external request.
 Stoichiometry    C4H10N2O2
 Framework group  C1[X(C4H10N2O2)]
 Deg. of freedom    48
 Full point group                 C1      NOp   1
 Rotational constants (GHZ):           2.9434559           0.8089829           0.7283453
 Leave Link  202 at Fri Jun  2 16:05:00 2023, MaxMem=  7381975040 cpu:               0.0 elap:               1.3
 (Enter /software/commercial/gaussian/g16/AVX/g16/l301.exe)
 Standard basis: 6-311+G(d,p) (5D, 7F)
 Ernie: Thresh=  0.10000D-02 Tol=  0.10000D-05 Strict=F.
   236 basis functions,   368 primitive gaussians,   244 cartesian basis functions
    32 alpha electrons       32 beta electrons
       nuclear repulsion energy       363.9481505508 Hartrees.
 IExCor=  402 DFT=T Ex+Corr=B3LYP ExCW=0 ScaHFX=  0.200000
 ScaDFX=  0.800000  0.720000  1.000000  0.810000 ScalE2=  1.000000  1.000000
 IRadAn=      5 IRanWt=     -1 IRanGd=            0 ICorTp=0 IEmpDi=141
 NAtoms=   18 NActive=   18 NUniq=   18 SFac= 1.00D+00 NAtFMM=   60 NAOKFM=F Big=F
 Integral buffers will be    131072 words long.
 Raffenetti 2 integral format.
 Two-electron integral symmetry is turned off.
 R6Disp:  Grimme-D3(BJ) Dispersion energy=       -0.0224770230 Hartrees.
 Nuclear repulsion after empirical dispersion term =      363.9256735278 Hartrees.
 Force inversion solution in PCM.
 ------------------------------------------------------------------------------
 Polarizable Continuum Model (PCM)
 =================================
 Model                : PCM.
 Atomic radii         : UFF (Universal Force Field).
 Polarization charges : Total charges.
 Charge compensation  : None.
 Solution method      : Matrix inversion.
 Cavity type          : Scaled VdW (van der Waals Surface) (Alpha=1.100).
 Cavity algorithm     : GePol (No added spheres)
                        Default sphere list used, NSphG=   18.
                        Lebedev-Laikov grids with approx.  5.0 points / Ang**2.
                        Smoothing algorithm: York/Karplus (Gamma=1.0000).
                        Polarization charges: spherical gaussians, with
                                              point-specific exponents (IZeta= 3).
                        Self-potential: point-specific (ISelfS= 7).
                        Self-field    : sphere-specific E.n sum rule (ISelfD= 2).
 1st derivatives      : Analytical E(r).r(x)/FMM algorithm (CHGder, D1EAlg=3).
                        Cavity 1st derivative terms included.
 2nd derivatives      : Analytical E(r).r(xy)/FMM algorithm (CHGder, D2EAlg=3).
                        Cavity 2nd derivative terms included.
 Solvent              : Ethanol, Eps=  24.852000 Eps(inf)=   1.852593
 ------------------------------------------------------------------------------
 Spheres list:
 ISph  on   Nord     Re0    Alpha      Xe            Ye            Ze
    1   C      1    1.9255  1.100     -3.636826      0.835389      0.244056
    2   C      2    1.9255  1.100     -2.484760      1.649429     -0.338124
    3   C      3    1.9255  1.100     -1.196964      0.840523     -0.462085
    4   H      4    1.4430  1.100     -2.298248      2.523437      0.296429
    5   H      5    1.4430  1.100     -2.778653      2.028860     -1.323787
    6   N      6    1.8300  1.100     -4.857508      1.652368      0.342243
    7   H      7    1.4430  1.100     -3.326700      0.416783      1.213493
    8   H      8    1.4430  1.100     -3.854709     -0.012752     -0.412473
    9   H      9    1.4430  1.100     -4.715870      2.403171      1.012861
   10   H     10    1.4430  1.100     -5.623822      1.092173      0.703368
   11   N     11    1.8300  1.100     -0.109946      1.671635     -1.002428
   12   H     12    1.4430  1.100     -1.390052     -0.054591     -1.071754
   13   H     13    1.4430  1.100     -0.886007      0.492955      0.527671
   14   H     14    1.4430  1.100      0.737950      1.120651     -1.098958
   15   H     15    1.4430  1.100     -0.348085      1.993137     -1.936895
   16   C     16    1.9255  1.100      0.501568      3.581908      0.922374
   17   O     17    1.7500  1.100      0.284479      2.811025      1.764396
   18   O     18    1.7500  1.100      0.741669      4.421518      0.155938
 ------------------------------------------------------------------------------
 GePol: Number of generator spheres                  =      18
 GePol: Total number of spheres                      =      18
 GePol: Number of exposed spheres                    =      18 (100.00%)
 GePol: Number of points                             =    1547
 GePol: Average weight of points                     =       0.13
 GePol: Minimum weight of points                     =   0.39D-09
 GePol: Maximum weight of points                     =    0.20577
 GePol: Number of points with low weight             =     102
 GePol: Fraction of low-weight points (<1% of avg)   =       6.59%
 GePol: Cavity surface area                          =    205.609 Ang**2
 GePol: Cavity volume                                =    194.211 Ang**3
 Leave Link  301 at Fri Jun  2 16:05:04 2023, MaxMem=  7381975040 cpu:               1.6 elap:               3.4
 (Enter /software/commercial/gaussian/g16/AVX/g16/l302.exe)
 NPDir=0 NMtPBC=     1 NCelOv=     1 NCel=       1 NClECP=     1 NCelD=      1
         NCelK=      1 NCelE2=     1 NClLst=     1 CellRange=     0.0.
 One-electron integrals computed using PRISM.
 NBasis=   236 RedAO= T EigKep=  2.68D-05  NBF=   236
 NBsUse=   236 1.00D-06 EigRej= -1.00D+00 NBFU=   236
 Precomputing XC quadrature grid using
 IXCGrd= 4 IRadAn=           5 IRanWt=          -1 IRanGd=           0 AccXCQ= 0.00D+00.
 Generated NRdTot=       0 NPtTot=           0 NUsed=           0 NTot=          32
 NSgBfM=   244   244   244   244   244 MxSgAt=    18 MxSgA2=    18.
 Leave Link  302 at Fri Jun  2 16:05:10 2023, MaxMem=  7381975040 cpu:               0.9 elap:               1.4
 (Enter /software/commercial/gaussian/g16/AVX/g16/l303.exe)
 DipDrv:  MaxL=1.
 Leave Link  303 at Fri Jun  2 16:05:11 2023, MaxMem=  7381975040 cpu:               0.1 elap:               0.5
 (Enter /software/commercial/gaussian/g16/AVX/g16/l401.exe)
 Initial guess from the checkpoint file:  "/scratch1/svicchi/G09-659902.pbs02/02-freq/TDA-CO2_binding_direct-site_index-10-freq.chk"
 B after Tr=     0.000000    0.000000    0.000000
         Rot=    1.000000    0.000000    0.000000    0.000000 Ang=   0.00 deg.
 Guess basis will be translated and rotated to current coordinates.
 JPrj=2 DoOrth=T DoCkMO=T.
 Leave Link  401 at Fri Jun  2 16:05:16 2023, MaxMem=  7381975040 cpu:               0.7 elap:               1.8
 (Enter /software/commercial/gaussian/g16/AVX/g16/l502.exe)
 Keep R1 ints in memory in canonical form, NReq=398416783.
 FoFCou: FMM=F IPFlag=           0 FMFlag=           0 FMFlg1=           0
         NFxFlg=           0 DoJE=F BraDBF=F KetDBF=F FulRan=T
         wScrn=  0.000000 ICntrl=       600 IOpCl=  0 I1Cent=           0 NGrid=           0
         NMat0=    1 NMatS0=  27966 NMatT0=    0 NMatD0=    1 NMtDS0=    0 NMtDT0=    0
 Symmetry not used in FoFCou.
 Two-electron integral symmetry not used.
 Closed shell SCF:
 Using DIIS extrapolation, IDIIS=  1040.
 NGot=  7381975040 LenX=  6990789585 LenY=  6990729608
 Requested convergence on RMS density matrix=1.00D-08 within 350 cycles.
 Requested convergence on MAX density matrix=1.00D-06.
 Requested convergence on             energy=1.00D-06.
 No special actions if energy rises.

 Cycle   1  Pass 1  IDiag  1:
 Inv3:  Mode=1 IEnd=     7179627.
 Iteration    1 A*A^-1 deviation from unit magnitude is 3.33D-15 for   1541.
 Iteration    1 A*A^-1 deviation from orthogonality  is 2.97D-15 for   1521    310.
 Iteration    1 A^-1*A deviation from unit magnitude is 3.33D-15 for   1541.
 Iteration    1 A^-1*A deviation from orthogonality  is 1.22D-12 for   1517   1483.
 E= -418.590981870946    
 DIIS: error= 4.55D-08 at cycle   1 NSaved=   1.
 NSaved= 1 IEnMin= 1 EnMin= -418.590981870946     IErMin= 1 ErrMin= 4.55D-08
 ErrMax= 4.55D-08  0.00D+00 EMaxC= 1.00D-01 BMatC= 2.85D-13 BMatP= 2.85D-13
 IDIUse=1 WtCom= 1.00D+00 WtEn= 0.00D+00
 Coeff-Com:  0.100D+01
 Coeff:      0.100D+01
 Gap=     0.244 Goal=   None    Shift=    0.000
 RMSDP=3.91D-09 MaxDP=1.73D-07              OVMax= 2.95D-07

 Error on total polarization charges =  0.01306
 SCF Done:  E(RB3LYP) =  -418.590981871     A.U. after    1 cycles
            NFock=  1  Conv=0.39D-08     -V/T= 2.0040
 KE= 4.169266587320D+02 PE=-1.706983713750D+03 EE= 5.075403996195D+02
 Leave Link  502 at Fri Jun  2 16:05:42 2023, MaxMem=  7381975040 cpu:              41.3 elap:              25.3
 (Enter /software/commercial/gaussian/g16/AVX/g16/l508.exe)
 QCSCF skips out because SCF is already converged.
 Leave Link  508 at Fri Jun  2 16:05:45 2023, MaxMem=  7381975040 cpu:               0.0 elap:               1.2
 (Enter /software/commercial/gaussian/g16/AVX/g16/l801.exe)
 DoSCS=F DFT=T ScalE2(SS,OS)=  1.000000  1.000000
 Range of M.O.s used for correlation:     1   236
 NBasis=   236 NAE=    32 NBE=    32 NFC=     0 NFV=     0
 NROrb=    236 NOA=    32 NOB=    32 NVA=   204 NVB=   204

 **** Warning!!: The largest alpha MO coefficient is  0.59783969D+02

 Leave Link  801 at Fri Jun  2 16:05:46 2023, MaxMem=  7381975040 cpu:               0.1 elap:               0.7
 (Enter /software/commercial/gaussian/g16/AVX/g16/l1002.exe)
 Minotr:  Closed shell wavefunction.
 NEqPCM:  Using equilibrium solvation (IEInf=0, Eps=  24.8520, EpsInf=   1.8526)
          Direct CPHF calculation.
          Differentiating once with respect to electric field.
                with respect to dipole field.
          Electric field/nuclear overlap derivatives assumed to be zero.
          Requested convergence is 1.0D-08 RMS, and 1.0D-07 maximum.
          Secondary convergence is 1.0D-12 RMS, and 1.0D-12 maximum.
          NewPWx=F KeepS1=T KeepF1=T KeepIn=T MapXYZ=F SortEE=F KeepMc=T.
         5554 words used for storage of precomputed grid.
 Keep R1 ints in memory in canonical form, NReq=398424347.
 FoFCou: FMM=F IPFlag=           0 FMFlag=           0 FMFlg1=           0
         NFxFlg=           0 DoJE=F BraDBF=F KetDBF=F FulRan=T
         wScrn=  0.000000 ICntrl=       600 IOpCl=  0 I1Cent=           0 NGrid=           0
         NMat0=    1 NMatS0=  27966 NMatT0=    0 NMatD0=    1 NMtDS0=    0 NMtDT0=    0
 Symmetry not used in FoFCou.
 Two-electron integral symmetry not used.
          MDV=    7381975040 using IRadAn=       1.
          Solving linear equations simultaneously, MaxMat=       0.
          There are     3 degrees of freedom in the 1st order CPHF.  IDoFFX=0 NUNeed=     3.
      3 vectors produced by pass  0 Test12= 2.18D-13 3.33D-08 XBig12= 5.22D+01 2.26D+00.
 AX will form     3 AO Fock derivatives at one time.
      3 vectors produced by pass  1 Test12= 2.18D-13 3.33D-08 XBig12= 1.39D+01 1.03D+00.
      3 vectors produced by pass  2 Test12= 2.18D-13 3.33D-08 XBig12= 2.81D+00 2.42D-01.
      3 vectors produced by pass  3 Test12= 2.18D-13 3.33D-08 XBig12= 2.43D-01 1.60D-01.
      3 vectors produced by pass  4 Test12= 2.18D-13 3.33D-08 XBig12= 7.30D-02 4.87D-02.
      3 vectors produced by pass  5 Test12= 2.18D-13 3.33D-08 XBig12= 1.17D-02 1.63D-02.
      3 vectors produced by pass  6 Test12= 2.18D-13 3.33D-08 XBig12= 1.50D-03 6.18D-03.
      3 vectors produced by pass  7 Test12= 2.18D-13 3.33D-08 XBig12= 7.79D-05 1.73D-03.
      3 vectors produced by pass  8 Test12= 2.18D-13 3.33D-08 XBig12= 2.74D-06 4.70D-04.
      3 vectors produced by pass  9 Test12= 2.18D-13 3.33D-08 XBig12= 8.07D-08 6.65D-05.
      3 vectors produced by pass 10 Test12= 2.18D-13 3.33D-08 XBig12= 3.33D-09 1.21D-05.
      3 vectors produced by pass 11 Test12= 2.18D-13 3.33D-08 XBig12= 5.33D-11 1.41D-06.
      3 vectors produced by pass 12 Test12= 2.18D-13 3.33D-08 XBig12= 1.23D-12 2.02D-07.
 InvSVY:  IOpt=1 It=  1 EMax= 3.55D-15
 Solved reduced A of dimension    39 with     3 vectors.
 End of Minotr F.D. properties file   721 does not exist.
 End of Minotr F.D. properties file   722 does not exist.
 End of Minotr F.D. properties file   788 does not exist.
 Leave Link 1002 at Fri Jun  2 16:07:37 2023, MaxMem=  7381975040 cpu:             201.9 elap:             109.1
 (Enter /software/commercial/gaussian/g16/AVX/g16/l1101.exe)
 Using compressed storage, NAtomX=    18.
 Will process     19 centers per pass.
 R6Disp: Adding Grimme-D3(BJ) dispersion energy 1st derivatives to the gradient.
 Leave Link 1101 at Fri Jun  2 16:07:40 2023, MaxMem=  7381975040 cpu:               1.5 elap:               2.0
 (Enter /software/commercial/gaussian/g16/AVX/g16/l1102.exe)
 Symmetrizing basis deriv contribution to polar:
 IMax=3 JMax=2 DiffMx= 0.00D+00
 Leave Link 1102 at Fri Jun  2 16:07:43 2023, MaxMem=  7381975040 cpu:               0.1 elap:               1.2
 (Enter /software/commercial/gaussian/g16/AVX/g16/l1110.exe)
 Forming Gx(P) for the SCF density, NAtomX=    18.
 Integral derivatives from FoFJK, PRISM(SPDF).
 Do as many integral derivatives as possible in FoFJK.
 G2DrvN: MDV=    7381973050.
 G2DrvN: will do    19 centers at a time, making    1 passes.
 PxScal for G2LodP:  IOpCl= 0 ISclPx=1 IMOff=     1 NMtTot=     4 NTT=   27966 ScalPx= 1.30D+01
 Calling FoFCou, ICntrl=  3107 FMM=F I1Cent=   0 AccDes= 0.00D+00.
 FoFJK:  IHMeth= 1 ICntrl=    3107 DoSepK=F KAlg= 0 I1Cent=           0 FoldK=F
 IRaf=         0 NMat=       1 IRICut=       1 DoRegI=T DoRafI=F ISym2E= 0 IDoP0=0 IntGTp=1.
 FoFCou: FMM=F IPFlag=           0 FMFlag=      100000 FMFlg1=           0
         NFxFlg=           0 DoJE=F BraDBF=F KetDBF=F FulRan=T
         wScrn=  0.000000 ICntrl=      3107 IOpCl=  0 I1Cent=           0 NGrid=           0
         NMat0=    1 NMatS0=      1 NMatT0=    0 NMatD0=    4 NMtDS0=    3 NMtDT0=    0
 Symmetry not used in FoFCou.
 PxScal for G2LodP:  IOpCl= 0 ISclPx=0 IMOff=     1 NMtTot=     4 NTT=   27966 ScalPx= 1.00D+00
 NEqPCM:  Using equilibrium solvation (IEInf=0, Eps=  24.8520, EpsInf=   1.8526)
 G2PCM: DoFxE=T DoFxN=T DoGrad=T DoDP/DQ/DG/TGxP=TFFF NFrqRd=   0 IEInf=0 SqF1=F DoCFld=F IF1Alg=4.
 GePol: Maximum number of non-zero 1st derivatives   =     215
 End of G2Drv F.D. properties file   721 does not exist.
 End of G2Drv F.D. properties file   722 does not exist.
 End of G2Drv F.D. properties file   788 does not exist.
 Leave Link 1110 at Fri Jun  2 16:12:55 2023, MaxMem=  7381975040 cpu:             614.8 elap:             311.3
 (Enter /software/commercial/gaussian/g16/AVX/g16/l1002.exe)
 Minotr:  Closed shell wavefunction.
          IDoAtm=111111111111111111
 NEqPCM:  Using equilibrium solvation (IEInf=0, Eps=  24.8520, EpsInf=   1.8526)
          Direct CPHF calculation.
          Differentiating once with respect to electric field.
                with respect to dipole field.
          Differentiating once with respect to nuclear coordinates.
          Requested convergence is 1.0D-08 RMS, and 1.0D-07 maximum.
          Secondary convergence is 1.0D-12 RMS, and 1.0D-12 maximum.
          NewPWx=T KeepS1=F KeepF1=F KeepIn=T MapXYZ=F SortEE=F KeepMc=T.
         5554 words used for storage of precomputed grid.
 Keep R1 ints in memory in canonical form, NReq=398424761.
 FoFCou: FMM=F IPFlag=           0 FMFlag=           0 FMFlg1=           0
         NFxFlg=           0 DoJE=F BraDBF=F KetDBF=F FulRan=T
         wScrn=  0.000000 ICntrl=       600 IOpCl=  0 I1Cent=           0 NGrid=           0
         NMat0=    1 NMatS0=  27966 NMatT0=    0 NMatD0=    1 NMtDS0=    0 NMtDT0=    0
 Symmetry not used in FoFCou.
 Two-electron integral symmetry not used.
          MDV=    7381975040 using IRadAn=       1.
          Solving linear equations simultaneously, MaxMat=       0.
          There are    57 degrees of freedom in the 1st order CPHF.  IDoFFX=5 NUNeed=    57.
 Will reuse    3 saved solutions.
     51 vectors produced by pass  0 Test12= 1.15D-14 1.75D-09 XBig12= 2.12D-01 1.32D-01.
 AX will form    51 AO Fock derivatives at one time.
     51 vectors produced by pass  1 Test12= 1.15D-14 1.75D-09 XBig12= 4.81D-03 1.38D-02.
     51 vectors produced by pass  2 Test12= 1.15D-14 1.75D-09 XBig12= 8.46D-05 1.60D-03.
     51 vectors produced by pass  3 Test12= 1.15D-14 1.75D-09 XBig12= 4.11D-07 1.01D-04.
     51 vectors produced by pass  4 Test12= 1.15D-14 1.75D-09 XBig12= 6.52D-10 3.23D-06.
     41 vectors produced by pass  5 Test12= 1.15D-14 1.75D-09 XBig12= 6.00D-13 1.06D-07.
      7 vectors produced by pass  6 Test12= 1.15D-14 1.75D-09 XBig12= 5.63D-16 4.68D-09.
 InvSVY:  IOpt=1 It=  1 EMax= 4.16D-16
 Solved reduced A of dimension   303 with    57 vectors.
 FullF1:  Do perturbations      1 to       3.
 Isotropic polarizability for W=    0.000000       90.53 Bohr**3.
 FullF1:  Do perturbations      1 to       6.
 End of Minotr F.D. properties file   721 does not exist.
 End of Minotr F.D. properties file   722 does not exist.
 End of Minotr F.D. properties file   788 does not exist.
 Leave Link 1002 at Fri Jun  2 16:19:20 2023, MaxMem=  7381975040 cpu:             731.4 elap:             382.3
 (Enter /software/commercial/gaussian/g16/AVX/g16/l601.exe)
 Copying SCF densities to generalized density rwf, IOpCl= 0 IROHF=0.

 **********************************************************************

            Population analysis using the SCF Density.

 **********************************************************************

 Alpha  occ. eigenvalues --  -19.19563 -19.19548 -14.29807 -14.29668 -10.35561
 Alpha  occ. eigenvalues --  -10.19236 -10.19220 -10.16421  -1.15726  -1.11816
 Alpha  occ. eigenvalues --   -0.89060  -0.88084  -0.75545  -0.64610  -0.59064
 Alpha  occ. eigenvalues --   -0.56141  -0.52019  -0.51310  -0.51182  -0.50231
 Alpha  occ. eigenvalues --   -0.47466  -0.47028  -0.46253  -0.41405  -0.39786
 Alpha  occ. eigenvalues --   -0.36976  -0.36788  -0.35522  -0.35184  -0.33882
 Alpha  occ. eigenvalues --   -0.25333  -0.25054
 Alpha virt. eigenvalues --   -0.00626   0.00780   0.01651   0.02525   0.03220
 Alpha virt. eigenvalues --    0.03668   0.04216   0.04436   0.05621   0.06622
 Alpha virt. eigenvalues --    0.06936   0.08412   0.08662   0.09540   0.10837
 Alpha virt. eigenvalues --    0.11127   0.12706   0.13240   0.13952   0.14432
 Alpha virt. eigenvalues --    0.15183   0.16273   0.17151   0.17799   0.18209
 Alpha virt. eigenvalues --    0.19385   0.19514   0.20503   0.20808   0.21057
 Alpha virt. eigenvalues --    0.22528   0.22803   0.23718   0.24143   0.24311
 Alpha virt. eigenvalues --    0.24916   0.25697   0.26009   0.27391   0.28070
 Alpha virt. eigenvalues --    0.28169   0.29654   0.30105   0.30946   0.31605
 Alpha virt. eigenvalues --    0.31761   0.33135   0.35322   0.38911   0.42649
 Alpha virt. eigenvalues --    0.44857   0.46652   0.49109   0.51304   0.52583
 Alpha virt. eigenvalues --    0.56257   0.57575   0.58593   0.60208   0.61207
 Alpha virt. eigenvalues --    0.63667   0.64724   0.65236   0.66469   0.66643
 Alpha virt. eigenvalues --    0.67989   0.70027   0.70836   0.73294   0.74106
 Alpha virt. eigenvalues --    0.75456   0.77984   0.79397   0.82505   0.83270
 Alpha virt. eigenvalues --    0.85788   0.86415   0.89795   0.91729   0.92916
 Alpha virt. eigenvalues --    0.94794   0.97825   1.01881   1.02667   1.06904
 Alpha virt. eigenvalues --    1.07549   1.11404   1.12415   1.14693   1.16216
 Alpha virt. eigenvalues --    1.18123   1.20736   1.21853   1.25717   1.26183
 Alpha virt. eigenvalues --    1.28661   1.29783   1.36872   1.39011   1.40426
 Alpha virt. eigenvalues --    1.42187   1.43849   1.45140   1.48891   1.52465
 Alpha virt. eigenvalues --    1.54200   1.55644   1.59598   1.59752   1.64181
 Alpha virt. eigenvalues --    1.66212   1.67341   1.68853   1.69035   1.71036
 Alpha virt. eigenvalues --    1.72309   1.74254   1.78467   1.79445   1.81967
 Alpha virt. eigenvalues --    1.84634   1.87923   1.91933   1.92989   1.95039
 Alpha virt. eigenvalues --    2.02877   2.03689   2.09220   2.11512   2.15240
 Alpha virt. eigenvalues --    2.17997   2.18362   2.30969   2.33748   2.34582
 Alpha virt. eigenvalues --    2.45490   2.46551   2.47338   2.50276   2.51907
 Alpha virt. eigenvalues --    2.55781   2.57135   2.58209   2.60317   2.61187
 Alpha virt. eigenvalues --    2.61695   2.61838   2.63852   2.67034   2.68896
 Alpha virt. eigenvalues --    2.70108   2.73209   2.74305   2.75123   2.76057
 Alpha virt. eigenvalues --    2.77234   2.79611   2.80114   2.81596   2.84650
 Alpha virt. eigenvalues --    2.85488   2.86520   2.89655   2.96161   2.97486
 Alpha virt. eigenvalues --    2.99143   3.07795   3.12129   3.14472   3.15478
 Alpha virt. eigenvalues --    3.16329   3.21351   3.30684   3.51269   3.56350
 Alpha virt. eigenvalues --    3.67348   3.68668   3.77128   3.81328   3.82470
 Alpha virt. eigenvalues --    3.84414   3.85687   4.08186   4.12260   4.18560
 Alpha virt. eigenvalues --    4.31962   4.71882   4.72204   4.82848   4.85178
 Alpha virt. eigenvalues --    4.97188   5.01350   5.03706   5.07838   5.65507
 Alpha virt. eigenvalues --    5.70478  23.84134  23.86963  23.90592  24.39003
 Alpha virt. eigenvalues --   35.58514  35.59549  49.92862  50.06842
     Molecular Orbital Coefficients:
                           1         2         3         4         5
                           O         O         O         O         O
     Eigenvalues --   -19.19563 -19.19548 -14.29807 -14.29668 -10.35561
   1 1   C  1S          0.00000  -0.00000  -0.00000   0.00001  -0.00000
   2        2S          0.00000   0.00000   0.00001  -0.00003   0.00000
   3        2PX         0.00001  -0.00000   0.00002  -0.00027   0.00000
   4        2PY        -0.00000   0.00000   0.00001   0.00022  -0.00000
   5        2PZ         0.00000  -0.00000  -0.00001   0.00000   0.00000
   6        3S         -0.00000  -0.00006  -0.00019   0.00003  -0.00002
   7        3PX        -0.00003   0.00001  -0.00008   0.00043  -0.00002
   8        3PY         0.00001  -0.00001  -0.00010  -0.00060   0.00001
   9        3PZ         0.00000  -0.00001   0.00007   0.00010  -0.00002
  10        4S         -0.00024   0.00078   0.00190   0.00554   0.00002
  11        4PX         0.00014   0.00008   0.00111  -0.00127   0.00006
  12        4PY        -0.00007   0.00025   0.00016   0.00165  -0.00002
  13        4PZ         0.00027   0.00002  -0.00000  -0.00040   0.00039
  14        5S          0.00099   0.00106  -0.01575  -0.00562   0.00007
  15        5PX         0.00036   0.00013  -0.00167   0.00064   0.00029
  16        5PY         0.00000   0.00015  -0.00212  -0.00163  -0.00014
  17        5PZ        -0.00015  -0.00013   0.00146   0.00044  -0.00019
  18        6D 0        0.00000  -0.00001   0.00003   0.00032  -0.00000
  19        6D+1       -0.00000   0.00000   0.00003   0.00010   0.00000
  20        6D-1       -0.00002   0.00001   0.00000  -0.00004  -0.00000
  21        6D+2        0.00001   0.00000   0.00002  -0.00018   0.00001
  22        6D-2       -0.00000   0.00000  -0.00000   0.00039  -0.00001
  23 2   C  1S          0.00000  -0.00000   0.00000   0.00000   0.00000
  24        2S         -0.00001   0.00000  -0.00001  -0.00000  -0.00000
  25        2PX        -0.00003   0.00002   0.00003  -0.00004  -0.00002
  26        2PY        -0.00001   0.00001  -0.00003  -0.00002  -0.00000
  27        2PZ        -0.00002   0.00000  -0.00000   0.00002  -0.00001
  28        3S         -0.00002   0.00001   0.00020   0.00018  -0.00001
  29        3PX         0.00015  -0.00009  -0.00023   0.00028   0.00010
  30        3PY         0.00006  -0.00006   0.00016   0.00014   0.00002
  31        3PZ         0.00007  -0.00001   0.00005  -0.00013   0.00005
  32        4S          0.00078  -0.00056  -0.00310  -0.00303   0.00035
  33        4PX        -0.00024   0.00015  -0.00085  -0.00022  -0.00053
  34        4PY         0.00002   0.00034   0.00139   0.00166   0.00030
  35        4PZ        -0.00012  -0.00042  -0.00069  -0.00027  -0.00018
  36        5S          0.00268  -0.00176   0.01914   0.01300  -0.00046
  37        5PX         0.00096  -0.00001  -0.00500   0.00422  -0.00111
  38        5PY         0.00027   0.00092  -0.00318  -0.00201   0.00064
  39        5PZ         0.00018  -0.00006   0.00215  -0.00082   0.00069
  40        6D 0        0.00001   0.00002   0.00005   0.00002   0.00001
  41        6D+1        0.00003  -0.00000  -0.00000   0.00008   0.00002
  42        6D-1        0.00001  -0.00003  -0.00003   0.00004  -0.00000
  43        6D+2        0.00000  -0.00000  -0.00009  -0.00007  -0.00001
  44        6D-2        0.00003  -0.00001   0.00015  -0.00012   0.00004
  45 3   C  1S          0.00000  -0.00000   0.00001  -0.00000   0.00000
  46        2S         -0.00002   0.00001  -0.00003   0.00001  -0.00000
  47        2PX        -0.00002   0.00002   0.00022  -0.00002   0.00001
  48        2PY        -0.00001   0.00002   0.00021   0.00001   0.00001
  49        2PZ        -0.00001  -0.00000  -0.00013   0.00000   0.00000
  50        3S          0.00011  -0.00016   0.00005  -0.00023  -0.00003
  51        3PX         0.00010  -0.00008  -0.00027   0.00012  -0.00001
  52        3PY         0.00010  -0.00012  -0.00056  -0.00010  -0.00001
  53        3PZ         0.00006   0.00003   0.00029  -0.00001   0.00002
  54        4S          0.00025   0.00072   0.00577   0.00251   0.00090
  55        4PX         0.00029  -0.00013   0.00091  -0.00125   0.00011
  56        4PY        -0.00024   0.00030   0.00201   0.00016   0.00011
  57        4PZ        -0.00016   0.00029  -0.00020   0.00029   0.00007
  58        5S         -0.00238   0.00268  -0.00982  -0.01204   0.00445
  59        5PX         0.00059  -0.00019   0.00001   0.00140   0.00040
  60        5PY        -0.00035   0.00048  -0.00278  -0.00174   0.00122
  61        5PZ        -0.00052   0.00030   0.00025   0.00015   0.00022
  62        6D 0       -0.00002   0.00004   0.00021   0.00002   0.00001
  63        6D+1        0.00000   0.00000   0.00029   0.00002  -0.00000
  64        6D-1        0.00000  -0.00002   0.00019   0.00002  -0.00002
  65        6D+2        0.00005  -0.00002  -0.00012   0.00001   0.00002
  66        6D-2        0.00002  -0.00002  -0.00034   0.00000  -0.00001
  67 4   H  1S          0.00004  -0.00003   0.00003   0.00005   0.00002
  68        2S         -0.00011   0.00022  -0.00004  -0.00025   0.00002
  69        3S         -0.00049  -0.00029  -0.00133  -0.00119  -0.00116
  70        4PX        -0.00004  -0.00001  -0.00009   0.00014  -0.00005
  71        4PY         0.00005  -0.00003   0.00005   0.00005   0.00004
  72        4PZ         0.00002  -0.00001   0.00015   0.00008   0.00002
  73 5   H  1S          0.00001   0.00000   0.00004   0.00003   0.00000
  74        2S         -0.00012  -0.00010  -0.00022  -0.00013  -0.00012
  75        3S         -0.00026  -0.00008  -0.00148  -0.00117  -0.00035
  76        4PX         0.00002  -0.00001  -0.00012   0.00009   0.00004
  77        4PY         0.00001   0.00000  -0.00001  -0.00003   0.00000
  78        4PZ        -0.00001  -0.00002  -0.00008  -0.00015  -0.00001
  79 6   N  1S          0.00000   0.00000   0.00022   0.55739  -0.00000
  80        2S         -0.00000   0.00000   0.00018   0.46575  -0.00000
  81        2PX        -0.00000  -0.00000  -0.00001   0.00034  -0.00000
  82        2PY        -0.00000   0.00000  -0.00001  -0.00050   0.00000
  83        2PZ        -0.00000  -0.00000   0.00001   0.00106  -0.00000
  84        3S          0.00001   0.00001   0.00007   0.01563   0.00002
  85        3PX         0.00001   0.00001   0.00004  -0.00036   0.00002
  86        3PY         0.00001  -0.00000   0.00002   0.00012  -0.00001
  87        3PZ         0.00001   0.00001  -0.00002   0.00080   0.00001
  88        4S          0.00006  -0.00018  -0.00024  -0.00907  -0.00002
  89        4PX        -0.00007  -0.00010  -0.00032  -0.00235  -0.00018
  90        4PY        -0.00014   0.00008  -0.00010   0.00100  -0.00008
  91        4PZ        -0.00009  -0.00006   0.00002   0.00100  -0.00011
  92        5S         -0.00019  -0.00055   0.00129   0.00684  -0.00066
  93        5PX        -0.00014  -0.00016  -0.00037   0.00204  -0.00026
  94        5PY        -0.00008  -0.00016  -0.00082   0.00007  -0.00022
  95        5PZ         0.00001   0.00003   0.00024  -0.00087   0.00014
  96        6D 0       -0.00000   0.00000   0.00001  -0.00016   0.00000
  97        6D+1       -0.00001   0.00000  -0.00000  -0.00028  -0.00001
  98        6D-1       -0.00001   0.00000  -0.00001   0.00037  -0.00001
  99        6D+2       -0.00000  -0.00000  -0.00001  -0.00010  -0.00000
 100        6D-2        0.00000  -0.00000   0.00000   0.00054   0.00000
 101 7   H  1S          0.00001  -0.00001   0.00006  -0.00000  -0.00000
 102        2S         -0.00009  -0.00002  -0.00060  -0.00105  -0.00006
 103        3S         -0.00018  -0.00005   0.00001  -0.00010  -0.00049
 104        4PX        -0.00000   0.00001  -0.00000   0.00023   0.00000
 105        4PY        -0.00001  -0.00000  -0.00002  -0.00023  -0.00001
 106        4PZ         0.00001  -0.00001   0.00010   0.00027   0.00000
 107 8   H  1S         -0.00000   0.00000   0.00003  -0.00002  -0.00001
 108        2S          0.00009  -0.00004  -0.00036  -0.00106   0.00009
 109        3S         -0.00002   0.00008   0.00026  -0.00029  -0.00001
 110        4PX        -0.00001  -0.00000  -0.00005  -0.00000  -0.00001
 111        4PY         0.00002  -0.00001  -0.00002  -0.00027   0.00002
 112        4PZ        -0.00000  -0.00001  -0.00004  -0.00015  -0.00001
 113 9   H  1S          0.00000   0.00000   0.00001  -0.00000  -0.00000
 114        2S          0.00006   0.00000   0.00007  -0.00166   0.00009
 115        3S          0.00012   0.00019   0.00006   0.00039   0.00014
 116        4PX        -0.00000   0.00000  -0.00000   0.00036   0.00001
 117        4PY        -0.00001  -0.00001   0.00000   0.00118  -0.00001
 118        4PZ        -0.00002  -0.00000  -0.00003   0.00104  -0.00002
 119 10  H  1S          0.00000  -0.00001  -0.00001  -0.00000   0.00000
 120        2S         -0.00006   0.00006   0.00003  -0.00190  -0.00006
 121        3S         -0.00002  -0.00007  -0.00063   0.00121  -0.00006
 122        4PX        -0.00000   0.00002   0.00003  -0.00115  -0.00000
 123        4PY        -0.00000  -0.00000  -0.00002  -0.00102  -0.00001
 124        4PZ         0.00002   0.00000   0.00000   0.00055   0.00002
 125 11  N  1S          0.00000  -0.00000   0.55738  -0.00022   0.00000
 126        2S         -0.00001   0.00000   0.46574  -0.00019  -0.00001
 127        2PX         0.00000  -0.00001  -0.00024   0.00001   0.00000
 128        2PY         0.00000  -0.00001  -0.00099  -0.00001   0.00001
 129        2PZ        -0.00000  -0.00000  -0.00069  -0.00000   0.00001
 130        3S          0.00012  -0.00000   0.01578   0.00006   0.00013
 131        3PX        -0.00003   0.00004   0.00036  -0.00004   0.00000
 132        3PY        -0.00000   0.00007  -0.00014   0.00002  -0.00002
 133        3PZ         0.00001   0.00003  -0.00069   0.00002   0.00000
 134        4S         -0.00027  -0.00028  -0.00975  -0.00032  -0.00074
 135        4PX        -0.00024  -0.00006   0.00216   0.00028  -0.00014
 136        4PY         0.00043  -0.00045   0.00055   0.00000  -0.00006
 137        4PZ        -0.00059   0.00041  -0.00187  -0.00010  -0.00006
 138        5S         -0.00029  -0.00140   0.01071   0.00183  -0.00135
 139        5PX         0.00060   0.00072  -0.00299   0.00016   0.00035
 140        5PY        -0.00025   0.00012   0.00058  -0.00076   0.00031
 141        5PZ         0.00050  -0.00027   0.00063  -0.00001  -0.00032
 142        6D 0        0.00004  -0.00004   0.00017  -0.00000  -0.00002
 143        6D+1        0.00003  -0.00003   0.00007   0.00001  -0.00001
 144        6D-1       -0.00004   0.00004  -0.00032   0.00001  -0.00001
 145        6D+2       -0.00002   0.00001   0.00026  -0.00001   0.00001
 146        6D-2        0.00001   0.00002  -0.00057  -0.00000   0.00001
 147 12  H  1S          0.00002   0.00000  -0.00001   0.00005   0.00002
 148        2S         -0.00003  -0.00003  -0.00087  -0.00054  -0.00010
 149        3S         -0.00022   0.00037  -0.00037   0.00001   0.00003
 150        4PX        -0.00002   0.00001  -0.00017   0.00001  -0.00001
 151        4PY         0.00002  -0.00000  -0.00034  -0.00005  -0.00000
 152        4PZ         0.00000  -0.00002  -0.00010  -0.00007  -0.00000
 153 13  H  1S          0.00001   0.00003   0.00004   0.00005   0.00002
 154        2S         -0.00004  -0.00024  -0.00148  -0.00052  -0.00015
 155        3S          0.00019  -0.00035   0.00020   0.00000  -0.00064
 156        4PX        -0.00002  -0.00000   0.00005   0.00006  -0.00001
 157        4PY         0.00001  -0.00008  -0.00019  -0.00001  -0.00006
 158        4PZ        -0.00000   0.00004   0.00029   0.00007   0.00003
 159 14  H  1S         -0.00003  -0.00001  -0.00001  -0.00001  -0.00002
 160        2S          0.00045   0.00004  -0.00177   0.00006   0.00033
 161        3S         -0.00041   0.00003   0.00087  -0.00058  -0.00011
 162        4PX        -0.00007   0.00002   0.00128  -0.00004  -0.00002
 163        4PY         0.00001   0.00005  -0.00096  -0.00002   0.00003
 164        4PZ         0.00009  -0.00006  -0.00003   0.00001  -0.00001
 165 15  H  1S          0.00005  -0.00004  -0.00002   0.00000  -0.00002
 166        2S         -0.00053   0.00058  -0.00160   0.00007   0.00029
 167        3S          0.00064   0.00030  -0.00100  -0.00036  -0.00017
 168        4PX        -0.00003   0.00005  -0.00051   0.00000   0.00002
 169        4PY        -0.00001   0.00002   0.00050   0.00001  -0.00001
 170        4PZ        -0.00010   0.00013  -0.00143   0.00001   0.00005
 171 16  C  1S         -0.00009  -0.00009   0.00000   0.00000   0.56287
 172        2S          0.00039   0.00041  -0.00001  -0.00000   0.46274
 173        2PX        -0.00003   0.00001  -0.00001  -0.00000  -0.00004
 174        2PY        -0.00006   0.00005  -0.00002   0.00000  -0.00007
 175        2PZ         0.00004  -0.00005  -0.00003  -0.00000  -0.00008
 176        3S         -0.00013  -0.00016   0.00001   0.00001   0.02089
 177        3PX        -0.00008   0.00009   0.00002   0.00001   0.00017
 178        3PY        -0.00037   0.00032   0.00004  -0.00002   0.00040
 179        3PZ         0.00037  -0.00038   0.00018   0.00000   0.00047
 180        4S         -0.00260  -0.00274   0.00203   0.00002  -0.00414
 181        4PX        -0.00276   0.00254  -0.00017  -0.00001  -0.00012
 182        4PY        -0.00942   0.00908  -0.00053   0.00012   0.00006
 183        4PZ         0.00923  -0.00922   0.00000  -0.00006  -0.00062
 184        5S         -0.00377  -0.00390   0.00170   0.00061  -0.00597
 185        5PX         0.00052   0.00051  -0.00025  -0.00026   0.00068
 186        5PY         0.00048   0.00058  -0.00057  -0.00018   0.00089
 187        5PZ         0.00048   0.00045  -0.00019   0.00005   0.00042
 188        6D 0       -0.00047  -0.00049   0.00003  -0.00001   0.00163
 189        6D+1        0.00051   0.00054  -0.00005  -0.00000  -0.00174
 190        6D-1        0.00179   0.00189  -0.00015  -0.00000  -0.00615
 191        6D+2        0.00081   0.00086  -0.00010   0.00000  -0.00284
 192        6D-2       -0.00050  -0.00053   0.00006   0.00001   0.00175
 193 17  O  1S          0.55118   0.01103  -0.00000  -0.00000  -0.00012
 194        2S          0.46955   0.00937  -0.00001  -0.00000   0.00013
 195        2PX         0.00026  -0.00002   0.00001   0.00000   0.00017
 196        2PY         0.00092  -0.00008   0.00002   0.00000   0.00058
 197        2PZ        -0.00094   0.00011   0.00000   0.00000  -0.00065
 198        3S          0.01467   0.00018   0.00012   0.00001  -0.00149
 199        3PX         0.00018   0.00017  -0.00006  -0.00002  -0.00081
 200        3PY         0.00069   0.00064  -0.00011  -0.00002  -0.00281
 201        3PZ        -0.00090  -0.00078   0.00001  -0.00001   0.00313
 202        4S         -0.01401   0.00730  -0.00089   0.00003  -0.00693
 203        4PX        -0.00046   0.00047   0.00005   0.00006  -0.00031
 204        4PY        -0.00181   0.00153  -0.00008   0.00005  -0.00135
 205        4PZ         0.00238  -0.00178   0.00058   0.00005   0.00186
 206        5S         -0.00212   0.01012  -0.00133  -0.00019   0.00700
 207        5PX        -0.00047   0.00041  -0.00006  -0.00003   0.00029
 208        5PY        -0.00123   0.00183  -0.00011  -0.00001   0.00132
 209        5PZ         0.00094  -0.00247   0.00027  -0.00012  -0.00189
 210        6D 0        0.00014   0.00018  -0.00004  -0.00000  -0.00059
 211        6D+1       -0.00009  -0.00010   0.00000  -0.00000   0.00041
 212        6D-1       -0.00035  -0.00037   0.00003  -0.00000   0.00145
 213        6D+2       -0.00014  -0.00013   0.00002   0.00000   0.00057
 214        6D-2        0.00009   0.00008  -0.00002  -0.00000  -0.00035
 215 18  O  1S         -0.01103   0.55118   0.00000   0.00000  -0.00012
 216        2S         -0.00942   0.46955   0.00000   0.00000   0.00013
 217        2PX         0.00005  -0.00026   0.00001  -0.00000  -0.00017
 218        2PY         0.00014  -0.00093   0.00000   0.00000  -0.00064
 219        2PZ        -0.00011   0.00091   0.00001  -0.00000   0.00058
 220        3S         -0.00040   0.01466  -0.00001  -0.00000  -0.00150
 221        3PX        -0.00024  -0.00028  -0.00002   0.00000   0.00085
 222        3PY        -0.00073  -0.00094   0.00000  -0.00001   0.00309
 223        3PZ         0.00060   0.00072  -0.00005   0.00000  -0.00280
 224        4S          0.00774  -0.01366  -0.00013   0.00000  -0.00704
 225        4PX        -0.00044   0.00071   0.00013  -0.00002   0.00068
 226        4PY        -0.00181   0.00230   0.00028   0.00002   0.00195
 227        4PZ         0.00157  -0.00174  -0.00010  -0.00002  -0.00136
 228        5S          0.00984  -0.00223  -0.00121  -0.00032   0.00539
 229        5PX        -0.00085   0.00011   0.00016   0.00021  -0.00062
 230        5PY        -0.00237   0.00094   0.00061   0.00006  -0.00152
 231        5PZ         0.00173  -0.00128   0.00016  -0.00008   0.00082
 232        6D 0        0.00001   0.00005  -0.00001   0.00000  -0.00018
 233        6D+1       -0.00010  -0.00010   0.00001  -0.00000   0.00041
 234        6D-1       -0.00034  -0.00036   0.00002   0.00000   0.00143
 235        6D+2       -0.00020  -0.00019   0.00003  -0.00000   0.00077
 236        6D-2        0.00012   0.00012  -0.00002   0.00000  -0.00048
                           6         7         8         9        10
                           O         O         O         O         O
     Eigenvalues --   -10.19236 -10.19220 -10.16421  -1.15726  -1.11816
   1 1   C  1S          0.56297   0.00792  -0.00227  -0.00002   0.00001
   2        2S          0.46324   0.00653  -0.00187  -0.00003   0.00002
   3        2PX        -0.00045   0.00004   0.00035   0.00001   0.00000
   4        2PY         0.00051   0.00005   0.00032  -0.00000  -0.00001
   5        2PZ        -0.00001  -0.00002  -0.00019  -0.00000   0.00001
   6        3S          0.01871   0.00027  -0.00012   0.00031   0.00007
   7        3PX         0.00064  -0.00025  -0.00069   0.00007  -0.00014
   8        3PY        -0.00208  -0.00026  -0.00095   0.00008  -0.00001
   9        3PZ         0.00029   0.00012   0.00045   0.00003  -0.00002
  10        4S         -0.01461  -0.00188   0.00612  -0.00225  -0.00261
  11        4PX        -0.00097   0.00035   0.00155  -0.00082   0.00031
  12        4PY        -0.00166  -0.00101   0.00160  -0.00092  -0.00059
  13        4PZ         0.00093   0.00006  -0.00094  -0.00078   0.00119
  14        5S         -0.03076  -0.01090  -0.00398  -0.00857  -0.00285
  15        5PX        -0.00279  -0.00152  -0.00169  -0.00171   0.00015
  16        5PY        -0.00357  -0.00179  -0.00018  -0.00123  -0.00024
  17        5PZ         0.00173   0.00135   0.00021   0.00069   0.00111
  18        6D 0        0.00066   0.00005   0.00025   0.00001   0.00002
  19        6D+1        0.00058   0.00011   0.00043  -0.00001  -0.00000
  20        6D-1        0.00019   0.00006   0.00032   0.00001  -0.00006
  21        6D+2       -0.00056  -0.00006  -0.00014  -0.00003   0.00001
  22        6D-2        0.00025  -0.00015  -0.00052  -0.00000  -0.00001
  23 2   C  1S          0.00222   0.00230   0.56295  -0.00012   0.00007
  24        2S          0.00183   0.00190   0.46324  -0.00018   0.00010
  25        2PX        -0.00037   0.00040   0.00003   0.00012  -0.00017
  26        2PY        -0.00032  -0.00034  -0.00022   0.00004  -0.00005
  27        2PZ         0.00021  -0.00002   0.00006   0.00007  -0.00008
  28        3S          0.00013   0.00012   0.01932   0.00029  -0.00028
  29        3PX         0.00084  -0.00089  -0.00013   0.00006   0.00053
  30        3PY         0.00095   0.00099   0.00173   0.00004   0.00027
  31        3PZ        -0.00054   0.00002  -0.00044  -0.00012   0.00015
  32        4S          0.00454   0.00477  -0.01794   0.00085   0.00337
  33        4PX        -0.00200   0.00145  -0.00065   0.00040  -0.00158
  34        4PY        -0.00108  -0.00109   0.00255  -0.00129  -0.00047
  35        4PZ         0.00079   0.00014  -0.00091   0.00178   0.00035
  36        5S          0.02995   0.03814  -0.00253   0.00263   0.02353
  37        5PX        -0.00340   0.00483  -0.00070  -0.00211   0.00140
  38        5PY        -0.00495  -0.00600  -0.00186  -0.00509  -0.00480
  39        5PZ         0.00265  -0.00015   0.00092   0.00039   0.00118
  40        6D 0        0.00025   0.00042   0.00058  -0.00011   0.00001
  41        6D+1        0.00040   0.00008   0.00048  -0.00005   0.00008
  42        6D-1        0.00034  -0.00001   0.00021   0.00008   0.00007
  43        6D+2       -0.00013  -0.00024  -0.00050   0.00003   0.00001
  44        6D-2       -0.00059   0.00069   0.00007  -0.00006   0.00014
  45 3   C  1S         -0.00793   0.56297  -0.00229  -0.00030   0.00017
  46        2S         -0.00650   0.46323  -0.00189  -0.00045   0.00021
  47        2PX        -0.00006   0.00034  -0.00041   0.00018  -0.00017
  48        2PY         0.00003   0.00051   0.00031   0.00018  -0.00017
  49        2PZ         0.00001  -0.00028   0.00003   0.00006  -0.00012
  50        3S         -0.00028   0.01882  -0.00013   0.00123   0.00018
  51        3PX         0.00032  -0.00017   0.00091   0.00029   0.00030
  52        3PY        -0.00015  -0.00195  -0.00090   0.00048   0.00045
  53        3PZ        -0.00004   0.00086   0.00004  -0.00010   0.00004
  54        4S         -0.00105  -0.01501   0.00632  -0.00282  -0.00048
  55        4PX        -0.00051   0.00058  -0.00221   0.00020   0.00087
  56        4PY        -0.00091  -0.00188   0.00167   0.00005  -0.00214
  57        4PZ         0.00066  -0.00006   0.00062  -0.00034  -0.00121
  58        5S         -0.00823  -0.04091   0.00359  -0.00275  -0.02444
  59        5PX         0.00068   0.00311  -0.00068   0.00028   0.00497
  60        5PY        -0.00198  -0.00655   0.00113   0.00016  -0.00490
  61        5PZ         0.00044   0.00056   0.00044   0.00006  -0.00314
  62        6D 0        0.00007   0.00064   0.00043  -0.00010  -0.00011
  63        6D+1        0.00001   0.00065   0.00013   0.00001  -0.00002
  64        6D-1       -0.00005   0.00025  -0.00006   0.00009   0.00001
  65        6D+2       -0.00006  -0.00053  -0.00022  -0.00010   0.00017
  66        6D-2        0.00016  -0.00010   0.00060   0.00018   0.00002
  67 4   H  1S         -0.00011  -0.00008   0.00011   0.00021   0.00001
  68        2S         -0.00060  -0.00082  -0.00263   0.00023  -0.00108
  69        3S         -0.00086  -0.00061   0.00410   0.00161  -0.00077
  70        4PX         0.00002   0.00010   0.00039   0.00028  -0.00018
  71        4PY         0.00020   0.00023   0.00155  -0.00000   0.00018
  72        4PZ         0.00022   0.00021   0.00136   0.00004   0.00002
  73 5   H  1S         -0.00010  -0.00014   0.00009   0.00002   0.00001
  74        2S         -0.00067  -0.00042  -0.00255   0.00048  -0.00024
  75        3S         -0.00075  -0.00123   0.00374   0.00120  -0.00102
  76        4PX        -0.00011  -0.00003  -0.00056  -0.00002   0.00006
  77        4PY         0.00006   0.00005   0.00055  -0.00001   0.00001
  78        4PZ        -0.00027  -0.00028  -0.00194   0.00006  -0.00002
  79 6   N  1S         -0.00003  -0.00000   0.00000  -0.00000   0.00000
  80        2S         -0.00005   0.00001   0.00000  -0.00000   0.00000
  81        2PX         0.00020   0.00003   0.00002   0.00001  -0.00001
  82        2PY        -0.00014  -0.00002  -0.00004   0.00000  -0.00001
  83        2PZ        -0.00000  -0.00001   0.00001   0.00001  -0.00000
  84        3S          0.00044  -0.00012   0.00014  -0.00005  -0.00000
  85        3PX        -0.00019  -0.00013  -0.00008  -0.00005   0.00002
  86        3PY         0.00012   0.00009   0.00014  -0.00001   0.00004
  87        3PZ        -0.00008   0.00003  -0.00003  -0.00004   0.00002
  88        4S          0.00010   0.00079  -0.00161   0.00041   0.00049
  89        4PX         0.00043   0.00071  -0.00052   0.00056  -0.00008
  90        4PY        -0.00025  -0.00029   0.00041   0.00012  -0.00070
  91        4PZ        -0.00019   0.00006   0.00012   0.00043  -0.00028
  92        5S          0.01199   0.00262   0.00088   0.00390  -0.00218
  93        5PX         0.00088   0.00031   0.00060   0.00114  -0.00031
  94        5PY        -0.00202   0.00020   0.00062   0.00090   0.00042
  95        5PZ         0.00093  -0.00020   0.00012   0.00001  -0.00055
  96        6D 0        0.00019  -0.00000   0.00004  -0.00000  -0.00001
  97        6D+1       -0.00000  -0.00001   0.00002   0.00001  -0.00002
  98        6D-1       -0.00006   0.00002  -0.00001   0.00001  -0.00002
  99        6D+2       -0.00007   0.00001  -0.00002   0.00001   0.00000
 100        6D-2        0.00031   0.00002   0.00009  -0.00000   0.00001
 101 7   H  1S          0.00009   0.00002  -0.00006   0.00000   0.00001
 102        2S         -0.00281  -0.00022  -0.00094   0.00040  -0.00023
 103        3S          0.00374  -0.00024   0.00071   0.00043  -0.00046
 104        4PX         0.00061  -0.00006   0.00017  -0.00003  -0.00001
 105        4PY        -0.00065   0.00001  -0.00007   0.00003  -0.00002
 106        4PZ         0.00192   0.00013   0.00025  -0.00001   0.00002
 107 8   H  1S          0.00005   0.00003  -0.00007   0.00001  -0.00002
 108        2S         -0.00284  -0.00030  -0.00101  -0.00006   0.00045
 109        3S          0.00396  -0.00025   0.00087  -0.00062   0.00013
 110        4PX        -0.00046  -0.00012   0.00001   0.00003  -0.00003
 111        4PY        -0.00157  -0.00005  -0.00021  -0.00001   0.00007
 112        4PZ        -0.00143  -0.00007  -0.00023   0.00002   0.00001
 113 9   H  1S         -0.00014   0.00001   0.00000  -0.00002   0.00001
 114        2S          0.00057  -0.00023   0.00006  -0.00009   0.00016
 115        3S         -0.00117   0.00001  -0.00088  -0.00142   0.00068
 116        4PX         0.00013  -0.00002  -0.00006  -0.00000  -0.00001
 117        4PY        -0.00017   0.00003   0.00001   0.00003  -0.00002
 118        4PZ        -0.00007   0.00003   0.00003   0.00004  -0.00004
 119 10  H  1S         -0.00013  -0.00001  -0.00005   0.00001   0.00002
 120        2S          0.00047  -0.00002   0.00040  -0.00001  -0.00038
 121        3S         -0.00308  -0.00006   0.00020   0.00004   0.00089
 122        4PX         0.00002  -0.00005   0.00013  -0.00004  -0.00003
 123        4PY        -0.00003   0.00002  -0.00001   0.00001  -0.00000
 124        4PZ         0.00001  -0.00002  -0.00004  -0.00004   0.00004
 125 11  N  1S          0.00000  -0.00003   0.00000  -0.00088   0.00013
 126        2S          0.00001  -0.00006   0.00000  -0.00135   0.00018
 127        2PX        -0.00002  -0.00018  -0.00002   0.00011   0.00007
 128        2PY        -0.00001  -0.00014  -0.00004   0.00033   0.00018
 129        2PZ         0.00001   0.00009   0.00001   0.00041  -0.00022
 130        3S         -0.00010   0.00052   0.00018   0.00317  -0.00023
 131        3PX         0.00011   0.00015   0.00006   0.00015  -0.00007
 132        3PY         0.00007   0.00014   0.00014   0.00063  -0.00002
 133        3PZ        -0.00007  -0.00003  -0.00004   0.00086  -0.00030
 134        4S          0.00058  -0.00031  -0.00182   0.00421  -0.00060
 135        4PX        -0.00064  -0.00044   0.00046   0.00078  -0.00035
 136        4PY        -0.00035  -0.00017   0.00032   0.00030   0.00281
 137        4PZ         0.00006   0.00038  -0.00044   0.00068  -0.00342
 138        5S          0.00491   0.01976   0.00277   0.00009   0.00617
 139        5PX        -0.00067  -0.00179  -0.00038  -0.00348  -0.00280
 140        5PY        -0.00008  -0.00280  -0.00022   0.00067  -0.00035
 141        5PZ        -0.00002  -0.00010   0.00019  -0.00064   0.00246
 142        6D 0        0.00001   0.00008   0.00001   0.00008   0.00003
 143        6D+1        0.00001   0.00014   0.00007   0.00005   0.00010
 144        6D-1       -0.00001   0.00018   0.00004   0.00014  -0.00016
 145        6D+2        0.00002  -0.00004  -0.00000  -0.00006  -0.00010
 146        6D-2       -0.00001  -0.00028  -0.00007   0.00002   0.00001
 147 12  H  1S          0.00001   0.00009  -0.00007   0.00002   0.00001
 148        2S         -0.00011  -0.00280  -0.00080   0.00038  -0.00024
 149        3S         -0.00085   0.00328   0.00021  -0.00001  -0.00231
 150        4PX         0.00008  -0.00040  -0.00012   0.00003  -0.00007
 151        4PY         0.00000  -0.00162  -0.00019   0.00001   0.00006
 152        4PZ        -0.00008  -0.00128  -0.00017   0.00004   0.00002
 153 13  H  1S          0.00003   0.00008  -0.00005   0.00013  -0.00018
 154        2S         -0.00029  -0.00297  -0.00116   0.00139  -0.00049
 155        3S         -0.00090   0.00472  -0.00038   0.00065   0.00218
 156        4PX         0.00012   0.00063   0.00002   0.00012  -0.00013
 157        4PY         0.00002  -0.00053  -0.00010   0.00037  -0.00004
 158        4PZ         0.00003   0.00202   0.00033  -0.00009  -0.00010
 159 14  H  1S         -0.00001  -0.00013  -0.00005   0.00052  -0.00012
 160        2S          0.00002   0.00053   0.00045  -0.00061   0.00078
 161        3S         -0.00056  -0.00384  -0.00084   0.00151   0.00003
 162        4PX         0.00004  -0.00003  -0.00013  -0.00003  -0.00015
 163        4PY         0.00003  -0.00003  -0.00002   0.00004  -0.00013
 164        4PZ         0.00000  -0.00001   0.00003   0.00005   0.00032
 165 15  H  1S          0.00001  -0.00014   0.00001   0.00038   0.00022
 166        2S         -0.00022   0.00066   0.00001   0.00008  -0.00295
 167        3S         -0.00063  -0.00277  -0.00103  -0.00176  -0.00015
 168        4PX         0.00001  -0.00009   0.00006   0.00000  -0.00018
 169        4PY         0.00002  -0.00015  -0.00000   0.00001  -0.00007
 170        4PZ        -0.00004   0.00014  -0.00003   0.00008  -0.00046
 171 16  C  1S          0.00000   0.00000  -0.00000  -0.08682  -0.00040
 172        2S          0.00000  -0.00000  -0.00000  -0.13163  -0.00061
 173        2PX        -0.00000  -0.00001   0.00003   0.00137   0.03310
 174        2PY         0.00000   0.00001   0.00001   0.00405   0.11657
 175        2PZ         0.00000  -0.00001   0.00000   0.00543  -0.11634
 176        3S         -0.00001   0.00005   0.00002   0.34820   0.00179
 177        3PX         0.00001  -0.00001  -0.00013   0.00190   0.03388
 178        3PY        -0.00003  -0.00016  -0.00009   0.00574   0.11923
 179        3PZ         0.00001   0.00013  -0.00000   0.00739  -0.11893
 180        4S          0.00061   0.00009   0.00055   0.10783  -0.00002
 181        4PX        -0.00008  -0.00020   0.00037   0.00009  -0.01376
 182        4PY        -0.00016  -0.00063   0.00011  -0.00013  -0.04852
 183        4PZ         0.00035   0.00112   0.00015   0.00257   0.04869
 184        5S          0.00087   0.00166   0.00022   0.03378   0.00184
 185        5PX        -0.00026  -0.00018  -0.00000  -0.00345   0.00157
 186        5PY        -0.00020  -0.00073   0.00031  -0.00303   0.00546
 187        5PZ        -0.00020  -0.00012  -0.00030  -0.00265  -0.00631
 188        6D 0       -0.00000  -0.00002  -0.00002   0.01226  -0.00249
 189        6D+1       -0.00001  -0.00001  -0.00003  -0.01358  -0.00009
 190        6D-1       -0.00002  -0.00002   0.00001  -0.04770  -0.00009
 191        6D+2        0.00000   0.00003  -0.00001  -0.02147  -0.00130
 192        6D-2       -0.00001  -0.00003  -0.00003   0.01325   0.00085
 193 17  O  1S          0.00000  -0.00000  -0.00000  -0.07408   0.08017
 194        2S          0.00000  -0.00001  -0.00000  -0.11782   0.12845
 195        2PX        -0.00001  -0.00000   0.00001   0.01143  -0.01140
 196        2PY        -0.00000   0.00000   0.00001   0.04058  -0.04058
 197        2PZ         0.00000  -0.00001   0.00001  -0.04325   0.04469
 198        3S          0.00000   0.00015   0.00003   0.33309  -0.36918
 199        3PX         0.00002   0.00001  -0.00002   0.01471  -0.01753
 200        3PY         0.00002  -0.00001  -0.00004   0.05180  -0.06233
 201        3PZ        -0.00001   0.00001  -0.00002  -0.05378   0.06874
 202        4S         -0.00012  -0.00087   0.00007   0.20281  -0.28279
 203        4PX        -0.00010  -0.00003   0.00002   0.00418  -0.00701
 204        4PY        -0.00013  -0.00014   0.00003   0.01599  -0.02537
 205        4PZ         0.00011   0.00028   0.00010  -0.01649   0.02884
 206        5S         -0.00110  -0.00088  -0.00089  -0.03990  -0.02776
 207        5PX         0.00024  -0.00015   0.00012  -0.00058  -0.00315
 208        5PY        -0.00008  -0.00023   0.00005  -0.00563  -0.01033
 209        5PZ         0.00030   0.00007   0.00051   0.00802   0.01108
 210        6D 0       -0.00000  -0.00000  -0.00001   0.00223  -0.00525
 211        6D+1        0.00000   0.00001  -0.00001  -0.00242   0.00404
 212        6D-1        0.00001   0.00001   0.00000  -0.00854   0.01439
 213        6D+2        0.00000   0.00002   0.00000  -0.00379   0.00578
 214        6D-2       -0.00000  -0.00001  -0.00001   0.00233  -0.00352
 215 18  O  1S          0.00000   0.00000   0.00000  -0.07339  -0.08081
 216        2S          0.00000   0.00001   0.00000  -0.11672  -0.12948
 217        2PX         0.00000   0.00000  -0.00000  -0.01221  -0.01283
 218        2PY         0.00000   0.00000   0.00001  -0.04276  -0.04489
 219        2PZ        -0.00000  -0.00000  -0.00000   0.04013   0.04078
 220        3S         -0.00003  -0.00016  -0.00005   0.32987   0.37221
 221        3PX        -0.00001  -0.00001   0.00000  -0.01505  -0.01973
 222        3PY        -0.00001  -0.00001  -0.00003  -0.05311  -0.06895
 223        3PZ         0.00001   0.00002   0.00002   0.05117   0.06250
 224        4S          0.00022   0.00111   0.00024   0.20177   0.28417
 225        4PX         0.00000  -0.00008  -0.00006  -0.00498  -0.00808
 226        4PY         0.00000  -0.00029   0.00001  -0.01649  -0.02854
 227        4PZ        -0.00003   0.00013  -0.00004   0.01634   0.02552
 228        5S         -0.00041  -0.00021  -0.00085  -0.03560   0.02729
 229        5PX         0.00010   0.00015  -0.00004   0.00309  -0.00328
 230        5PY         0.00016   0.00041   0.00017   0.00680  -0.01111
 231        5PZ         0.00005   0.00005  -0.00007  -0.00462   0.01005
 232        6D 0       -0.00000  -0.00000  -0.00000   0.00212   0.00224
 233        6D+1       -0.00000  -0.00001  -0.00000  -0.00241  -0.00411
 234        6D-1        0.00000  -0.00002  -0.00001  -0.00845  -0.01433
 235        6D+2        0.00000  -0.00001   0.00000  -0.00377  -0.00725
 236        6D-2       -0.00000   0.00000   0.00000   0.00232   0.00451
                          11        12        13        14        15
                           O         O         O         O         O
     Eigenvalues --    -0.89060  -0.88084  -0.75545  -0.64610  -0.59064
   1 1   C  1S         -0.03899  -0.04122  -0.04056   0.06823   0.04414
   2        2S         -0.06011  -0.06359  -0.06283   0.10637   0.06901
   3        2PX        -0.01415  -0.02795   0.04628  -0.00952   0.02217
   4        2PY         0.01570   0.01819   0.00200   0.01415   0.05774
   5        2PZ         0.00034   0.00405  -0.01621   0.00535  -0.01579
   6        3S          0.15717   0.16661   0.16649  -0.28921  -0.18988
   7        3PX        -0.02336  -0.04614   0.07132  -0.01208   0.03703
   8        3PY         0.02991   0.03350   0.00772   0.01457   0.08188
   9        3PZ        -0.00025   0.00624  -0.02641   0.00910  -0.02375
  10        4S          0.05824   0.06462   0.09896  -0.19507  -0.11214
  11        4PX        -0.00408  -0.00709   0.02010  -0.00259   0.01550
  12        4PY         0.00094   0.00303   0.00192   0.00904   0.05369
  13        4PZ         0.00283   0.00686  -0.00485  -0.00456  -0.01370
  14        5S          0.12322  -0.00945   0.08281  -0.10907  -0.00212
  15        5PX         0.01236  -0.00277   0.01206  -0.00407   0.00358
  16        5PY         0.01720  -0.00167   0.01057  -0.01510   0.00403
  17        5PZ        -0.01046   0.00331  -0.00089   0.00092   0.00056
  18        6D 0       -0.00633  -0.00721  -0.00003  -0.00186  -0.00356
  19        6D+1       -0.00366  -0.00283  -0.00293  -0.00287  -0.00567
  20        6D-1        0.00053   0.00157  -0.00399   0.00108  -0.00479
  21        6D+2        0.00450   0.00428   0.00026   0.00370  -0.00223
  22        6D-2       -0.00613  -0.01013   0.01061  -0.00297   0.00565
  23 2   C  1S         -0.03041  -0.00329  -0.08056   0.00054  -0.06063
  24        2S         -0.04678  -0.00507  -0.12462   0.00084  -0.09461
  25        2PX         0.00270  -0.01963   0.00164   0.06290  -0.00418
  26        2PY        -0.00739  -0.00074  -0.01693   0.00075   0.06156
  27        2PZ         0.00153   0.00646   0.00482  -0.01534  -0.01709
  28        3S          0.11883   0.01304   0.32698  -0.00217   0.25661
  29        3PX         0.00473  -0.03375   0.00293   0.09720  -0.00606
  30        3PY        -0.01649  -0.00176  -0.03245   0.00115   0.08745
  31        3PZ         0.00369   0.01086   0.00926  -0.02406  -0.02421
  32        4S          0.07639   0.00725   0.18695  -0.00291   0.15670
  33        4PX         0.00501  -0.01407   0.00265   0.03660  -0.00116
  34        4PY        -0.00954  -0.00235  -0.01169   0.00208   0.05495
  35        4PZ         0.00331   0.00070   0.00265  -0.00498  -0.01635
  36        5S         -0.17034   0.00807  -0.09241  -0.03807   0.03739
  37        5PX         0.00878  -0.03566   0.00656  -0.05489   0.00966
  38        5PY         0.03391  -0.00242   0.02393   0.00660   0.00638
  39        5PZ        -0.00960   0.00917  -0.01199   0.01953  -0.00847
  40        6D 0       -0.00363   0.00035  -0.00359  -0.00194   0.00707
  41        6D+1       -0.00333  -0.00167  -0.00188   0.00383   0.00314
  42        6D-1       -0.00069  -0.00154  -0.00196   0.00405   0.00366
  43        6D+2        0.00459   0.00003   0.00020   0.00137  -0.00166
  44        6D-2       -0.00076   0.00492  -0.00060  -0.01485   0.00055
  45 3   C  1S         -0.04638   0.03213  -0.04108  -0.06862   0.04336
  46        2S         -0.07150   0.04955  -0.06363  -0.10697   0.06780
  47        2PX         0.01650  -0.02234  -0.04656  -0.00636  -0.03234
  48        2PY         0.01885  -0.01437   0.00297  -0.01088   0.05373
  49        2PZ        -0.01136   0.01168   0.01444   0.01179  -0.01462
  50        3S          0.18697  -0.12967   0.16859   0.29043  -0.18630
  51        3PX         0.02601  -0.03620  -0.07250  -0.00862  -0.05156
  52        3PY         0.03507  -0.02571   0.00926  -0.00998   0.07595
  53        3PZ        -0.02031   0.02046   0.02126   0.01512  -0.01933
  54        4S          0.06731  -0.05157   0.09840   0.19954  -0.11339
  55        4PX         0.00626  -0.00604  -0.01939   0.00018  -0.02235
  56        4PY        -0.00122  -0.00013   0.00072  -0.00946   0.05024
  57        4PZ        -0.00728   0.00681   0.00368   0.00196  -0.01565
  58        5S          0.11674  -0.00284   0.03800   0.16274  -0.05727
  59        5PX        -0.00932  -0.00183  -0.00577  -0.01294   0.00327
  60        5PY         0.02050  -0.00147  -0.00041   0.02480  -0.00877
  61        5PZ        -0.00242  -0.00078  -0.00493  -0.00525  -0.00025
  62        6D 0       -0.00485   0.00281  -0.00331   0.00087  -0.00518
  63        6D+1       -0.00753   0.00586   0.00234   0.00408  -0.00188
  64        6D-1       -0.00512   0.00475   0.00278   0.00102  -0.00154
  65        6D+2        0.00448  -0.00227   0.00187  -0.00338  -0.00102
  66        6D-2        0.00644  -0.00742  -0.01045  -0.00205  -0.00850
  67 4   H  1S          0.01724   0.00202   0.05251   0.00130   0.07941
  68        2S          0.01932   0.00389   0.06111   0.00115   0.09954
  69        3S          0.00189   0.00117  -0.00017  -0.00118   0.01224
  70        4PX        -0.00084  -0.00149  -0.00183   0.00290  -0.00303
  71        4PY        -0.00375  -0.00060  -0.00971  -0.00016  -0.00793
  72        4PZ        -0.00282   0.00007  -0.00627  -0.00084  -0.00853
  73 5   H  1S          0.01717   0.00172   0.05230  -0.00236   0.07869
  74        2S          0.01967   0.00069   0.06097  -0.00308   0.09854
  75        3S          0.00380  -0.00153  -0.00314   0.00446   0.00822
  76        4PX         0.00156  -0.00119   0.00308   0.00276   0.00405
  77        4PY        -0.00164  -0.00003  -0.00464   0.00017  -0.00178
  78        4PZ         0.00423   0.00076   0.01029  -0.00113   0.01121
  79 6   N  1S         -0.05983  -0.07974   0.03909  -0.02957  -0.01127
  80        2S         -0.09394  -0.12525   0.06170  -0.04680  -0.01789
  81        2PX         0.01185   0.01263   0.02169  -0.05102  -0.01521
  82        2PY        -0.01111  -0.01412  -0.00251   0.02827   0.04650
  83        2PZ         0.01764   0.02486  -0.02370   0.03359   0.01618
  84        3S          0.25688   0.34367  -0.17279   0.13197   0.05114
  85        3PX         0.02041   0.02252   0.03161  -0.07579  -0.02295
  86        3PY        -0.01862  -0.02359  -0.00329   0.04214   0.06855
  87        3PZ         0.02667   0.03733  -0.03512   0.04945   0.02344
  88        4S          0.17971   0.23743  -0.12741   0.11084   0.03282
  89        4PX         0.01329   0.01227   0.01422  -0.03664  -0.01399
  90        4PY        -0.00793  -0.01116   0.00031   0.02225   0.04352
  91        4PZ         0.00871   0.01238  -0.01489   0.02453   0.00969
  92        5S         -0.02469  -0.01875  -0.04024   0.06606   0.00497
  93        5PX        -0.00832  -0.01559  -0.00078   0.00150  -0.00388
  94        5PY         0.00312  -0.00143   0.00025  -0.01088  -0.00228
  95        5PZ         0.00269   0.00590  -0.00806   0.01112   0.00271
  96        6D 0       -0.00322  -0.00387  -0.00100   0.00410   0.00310
  97        6D+1       -0.00116  -0.00153   0.00127  -0.00250  -0.00103
  98        6D-1        0.00192   0.00237  -0.00106   0.00248   0.00418
  99        6D+2        0.00119   0.00101   0.00234  -0.00243   0.00132
 100        6D-2       -0.00109  -0.00094  -0.00387   0.00896   0.00599
 101 7   H  1S          0.01960   0.02030   0.02864  -0.05726  -0.05855
 102        2S          0.02469   0.02430   0.03185  -0.06732  -0.07407
 103        3S         -0.00721  -0.00751  -0.00393   0.00030  -0.00621
 104        4PX        -0.00189  -0.00241   0.00044   0.00239   0.00328
 105        4PY         0.00260   0.00269   0.00228  -0.00312  -0.00110
 106        4PZ        -0.00509  -0.00508  -0.00580   0.00955   0.00835
 107 8   H  1S          0.01974   0.02040   0.02936  -0.06311  -0.06531
 108        2S          0.02584   0.02719   0.03388  -0.07714  -0.08106
 109        3S         -0.00584  -0.00339  -0.00215  -0.00471  -0.00493
 110        4PX         0.00075   0.00024   0.00332  -0.00305  -0.00168
 111        4PY         0.00492   0.00528   0.00485  -0.00844  -0.00571
 112        4PZ         0.00331   0.00360   0.00279  -0.00666  -0.00747
 113 9   H  1S          0.04614   0.06240  -0.04002   0.05062   0.04252
 114        2S          0.04249   0.05933  -0.04370   0.05814   0.05191
 115        3S         -0.00183  -0.00233   0.00921  -0.00443   0.00997
 116        4PX        -0.00068  -0.00114   0.00266  -0.00475  -0.00165
 117        4PY        -0.00855  -0.01166   0.00668  -0.00606  -0.00362
 118        4PZ        -0.00587  -0.00807   0.00442  -0.00446  -0.00444
 119 10  H  1S          0.04526   0.06208  -0.04585   0.04991   0.00480
 120        2S          0.04327   0.05970  -0.04776   0.05867   0.01040
 121        3S         -0.00269  -0.00995   0.00885  -0.01014  -0.00128
 122        4PX         0.00873   0.01183  -0.00639   0.00447  -0.00068
 123        4PY         0.00513   0.00699  -0.00564   0.00769   0.00417
 124        4PZ        -0.00274  -0.00359   0.00187  -0.00120   0.00078
 125 11  N  1S         -0.07494   0.06615   0.03893   0.02939  -0.01059
 126        2S         -0.11765   0.10391   0.06146   0.04654  -0.01680
 127        2PX        -0.01151   0.00761  -0.02219  -0.04778   0.00699
 128        2PY        -0.02403   0.02086   0.00553  -0.01672   0.03612
 129        2PZ        -0.01202   0.01198   0.02296   0.04618  -0.03778
 130        3S          0.32129  -0.28478  -0.17211  -0.13133   0.04792
 131        3PX        -0.02007   0.01392  -0.03245  -0.07097   0.01084
 132        3PY        -0.03871   0.03348   0.00864  -0.02524   0.05339
 133        3PZ        -0.01707   0.01700   0.03383   0.06815  -0.05544
[...]
 9182937,0.2960896,0.8804071,-2.9240068,-1.0361845,2.0603033,-2.0269524
 ,2.8297015,-1.3499778,2.01879,1.9842267,-3.9867643,8.6733176,11.199047
 6,-3.4490753,3.2581317,-2.4611541,1.268025,2.1925203,-5.2818961,2.8967
 206,-1.2332066,1.0410457,0.3771273,-0.5822264,-1.1763185,0.5494427,1.3
 870197,1.5045708,0.3892011,-0.3201819,-1.1208941,0.3996944,-0.4660066,
 -1.0784295,0.8164066,-1.6542074,0.5819036,0.6964866,2.6473533,0.507204
 6,-0.1621705,4.7464725,-1.5975715,0.2195341,-1.7828314,0.3334076,3.329
 6526,-9.9255289,-0.4219716,-1.3489285,-2.8652098,-0.5975556,-2.4509494
 ,-1.4066908,-1.0367239,-3.9774917,-7.711548,-2.8699376,-6.0194158,-3.4
 014612,-1.3117446,-3.0569834,-5.8989586,-3.3920834,-6.8265786,-7.35471
 55,-2.5015473,-2.9382323,-1.0329453,3.1650172,0.2023212,-0.9544253,-2.
 9322668,-1.3000688,-8.9923642,-0.0287457,3.3743337,-4.2793745,3.286112
 9,2.6446003,7.9039854,1.6773498,1.4563961,15.6901025,3.0558803,4.61355
 46,3.3858762,-2.3079467,1.3071867,1.9856821,3.5071447,5.0050758,17.449
 9352,2.0058093,1.1386761,6.3680011,-2.5320363,-0.6320172,-3.9511142,1.
 334476,4.1448638,-8.0390049\HyperPolar=37.4913112,-26.1996767,37.94993
 58,135.1156165,22.3614198,47.6337664,87.3926863,36.7005332,93.6166234,
 49.6813696\Quadrupole=1.7799658,-5.4403101,3.6603443,1.7402124,-5.8453
 78,2.3890093\PG=C01 [X(C4H10N2O2)]\NImag=0\\0.46426027,0.02056946,0.54
 433334,0.03262305,0.02939587,0.56334488,-0.12863590,-0.04189038,0.0291
 5590,0.47462051,-0.05262668,-0.12026739,0.02742422,0.00368719,0.537503
 24,0.03015566,0.02439688,-0.09547565,0.03229000,0.01310277,0.57082788,
 -0.02463846,0.00958171,0.00351463,-0.14619088,0.05895002,0.00085558,0.
 46954905,-0.01208919,0.01352328,-0.00147966,0.04888582,-0.11930489,-0.
 00124860,-0.00912197,0.52586176,0.01013020,-0.00761665,-0.00318834,0.0
 0628166,-0.00428129,-0.07943727,0.04278214,0.00222066,0.58122099,-0.00
 687629,-0.02128687,-0.01534869,-0.05402030,-0.03468087,-0.02660711,0.0
 0283338,0.02431185,0.01792107,0.06260785,-0.00385793,-0.01608117,-0.01
 098628,-0.03353513,-0.20123860,-0.11479038,-0.00236623,-0.01735352,-0.
 01127685,0.03815118,0.22323370,0.00331476,0.01137344,0.00753831,-0.025
 89645,-0.11624176,-0.13709029,-0.00059696,-0.00217889,-0.00206593,0.02
 698524,0.12775854,0.14464059,0.00489726,-0.00928890,0.02456125,-0.0645
 9347,0.02235638,-0.06193287,-0.01030597,0.01001204,-0.02646270,-0.0018
 0865,0.00172440,-0.00473069,0.07356223,0.00419665,-0.00841111,0.018422
 04,0.02174197,-0.07540403,0.07196799,0.00582585,-0.00753720,0.01730408
 ,-0.00666479,0.00888805,-0.02281734,-0.02507986,0.08191799,-0.00337302
 ,0.00520260,-0.01301277,-0.06062396,0.07319514,-0.25225472,0.00154678,
 -0.00114645,0.00242974,-0.00485232,0.00583935,-0.01739275,0.06598926,-
 0.08377083,0.27381359,-0.16569079,0.05180460,-0.01580326,-0.03571868,0
 .02050319,0.00487994,-0.00154947,-0.00557002,0.00120044,0.00192296,0.0
 0103319,-0.00109165,0.00181563,0.00082446,-0.00061260,0.53515451,0.045
 42266,-0.13304323,0.00284060,-0.01520184,0.01222726,-0.00013831,-0.001
 90558,-0.00294808,0.00132202,-0.00015056,0.00144161,0.00035637,0.00012
 249,0.00113497,-0.00107411,0.12444805,0.55396379,0.02135659,-0.0223642
 8,-0.06593425,0.01179540,-0.00851362,-0.00004423,0.00099292,0.00160150
 ,-0.00055386,-0.00072376,0.00026921,0.00068698,-0.00058812,-0.00143181
 ,0.00106848,-0.09621670,0.14148167,0.33258998,-0.06203753,0.01807970,-
 0.05364729,0.00512113,-0.00890937,0.02335009,0.00127199,-0.00065824,0.
 00073448,0.00094878,0.00049690,-0.00073262,-0.00361537,-0.00283226,0.0
 0231551,-0.02016323,0.02023627,-0.02364652,0.07728916,0.01725838,-0.08
 009999,0.07023850,0.00272146,-0.00678207,0.01860084,0.00087866,0.00006
 504,0.00012305,0.00094961,0.00048393,-0.00032749,-0.00254137,-0.001378
 51,0.00183762,0.01572050,-0.01055286,0.01577930,-0.02696356,0.08701365
 ,-0.05203004,0.07094590,-0.24067322,-0.00268809,0.00446821,-0.01315667
 ,-0.00101852,0.00049715,-0.00010794,0.00012565,0.00014970,0.00114273,0
 .00234259,0.00180843,0.00026513,-0.00122386,0.00010541,0.00910294,0.05
 925116,-0.08382897,0.25858936,-0.06019209,-0.04572223,-0.03697642,-0.0
 0642513,-0.01964715,-0.01575765,0.00090991,-0.00118182,-0.00092775,-0.
 00356051,-0.00241051,0.00255126,0.00108947,0.00084658,0.00022174,0.002
 21003,0.02947321,0.01911215,-0.00082245,-0.00627262,-0.00474026,0.0708
 3450,-0.03928182,-0.19260987,-0.11389194,-0.00563556,-0.01484516,-0.01
 053758,0.00101462,-0.00002887,-0.00039260,-0.00264044,-0.00113663,0.00
 156065,0.00066368,0.00049389,0.00004133,0.00029702,-0.01860144,-0.0118
 1814,0.00176853,0.00964857,0.00615655,0.04059393,0.21611715,-0.0342803
 2,-0.11781295,-0.14582504,0.00294815,0.01106786,0.00817241,-0.00024796
 ,0.00001547,0.00042787,0.00241566,0.00168650,0.00030166,-0.00059881,-0
 .00014677,0.00116571,0.00209450,-0.00255711,0.00006533,-0.00739235,-0.
 02153015,-0.01853667,0.03409925,0.12880924,0.15301181,0.00343499,0.027
 82097,0.02305099,0.00190826,0.00120406,0.00078261,-0.00028144,0.000081
 81,-0.00022797,-0.00049847,-0.00086986,-0.00043286,-0.00008687,-0.0000
 8269,-0.00011673,-0.06813477,-0.05311319,-0.03117814,0.00100049,-0.000
 32464,-0.00020612,-0.00485501,0.00362482,0.00089204,0.07170160,-0.0016
 5061,-0.01793640,-0.01556892,-0.00030993,0.00147285,0.00053096,-0.0001
 1543,0.00005449,0.00017693,0.00045337,0.00031330,-0.00038618,-0.000022
 56,-0.00003481,0.00010136,-0.04211339,-0.22946062,-0.17194420,-0.00160
 523,0.00067061,0.00046628,0.00386380,-0.00073829,0.00062635,0.04466521
 ,0.26271187,-0.00468022,0.00273713,-0.00399157,-0.00009400,-0.00029284
 ,-0.00020912,0.00026411,0.00018071,0.00021633,0.00057675,0.00026103,-0
 .00002235,0.00007538,-0.00003037,-0.00009889,-0.03194862,-0.22043065,-
 0.20012065,0.00051328,0.00074652,0.00167637,0.00144135,-0.00038363,0.0
 0123820,0.03073611,0.20238588,0.19498113,-0.02351988,-0.01847279,0.012
 16590,-0.00402101,0.00568594,-0.00031274,-0.00007105,-0.00171410,0.000
 74148,0.00035892,0.00016657,-0.00023832,0.00026031,0.00007789,0.000073
 04,-0.24689292,-0.14739543,0.09770966,0.00118409,-0.00095756,-0.000885
 87,0.00118346,-0.00006406,0.00029526,-0.00436354,-0.00306470,0.0032885
 7,0.27673309,0.02205880,0.01230003,-0.00728530,0.00256795,-0.00236358,
 0.00002920,0.00057573,0.00098599,-0.00033329,0.00020875,0.00020658,0.0
 0021557,-0.00004334,-0.00007248,-0.00017216,-0.16813321,-0.17529595,0.
 05710964,0.00007619,0.00035092,-0.00010512,-0.00057303,0.00057862,-0.0
 0021160,-0.02259773,-0.01700813,0.01466300,0.16537568,0.18045564,-0.00
 387140,0.00501247,-0.00435848,0.00202396,-0.00189898,0.00000858,0.0001
 5960,0.00082095,0.00044400,0.00000356,0.00024200,0.00007452,-0.0003600
 8,-0.00027610,0.00037013,0.13763904,0.07761072,-0.07732524,-0.00019065
 ,-0.00083308,0.00086193,0.00015750,-0.00009937,-0.00005851,-0.02310376
 ,-0.01651948,0.00635060,-0.11295159,-0.06378365,0.07373105,-0.00268375
 ,0.00551591,-0.00183725,-0.03433877,-0.02237907,0.01722021,-0.15083996
 ,-0.05614542,0.01172904,0.00226787,-0.00098912,-0.00023100,0.00209244,
 -0.00126798,-0.00037302,-0.00235495,-0.00140651,0.00092352,0.00001926,
 -0.00015443,0.00047272,-0.00014567,0.00004146,-0.00004895,0.00005270,0
 .00001101,-0.00000015,-0.00074828,0.00049846,0.00036931,0.57484949,0.0
 0232219,-0.00248531,0.00022709,0.01207709,0.01231111,-0.00579045,-0.03
 476084,-0.12181287,0.02514858,-0.00046097,0.00191116,0.00026390,0.0000
 2274,0.00070024,-0.00061076,0.00122315,0.00077086,-0.00030362,-0.00002
 817,0.00009886,-0.00027430,0.00036810,0.00035753,0.00014762,-0.0001343
 4,0.00000745,0.00000677,0.00035714,-0.00020138,-0.00015526,-0.13642199
 ,0.35251313,-0.00000995,-0.00003309,0.00000814,0.00372364,0.00187711,-
 0.00161679,0.03785612,0.05384544,-0.09280415,-0.00055058,0.00056076,0.
 00009022,-0.00074769,-0.00044590,0.00117866,0.00016840,0.00014199,0.00
 036509,-0.00001469,-0.00035216,0.00040708,0.00025572,0.00022914,-0.000
 02732,-0.00006452,0.00004332,0.00000524,0.00000568,-0.00003588,0.00001
 919,-0.00517852,-0.16639810,0.50957696,0.00132023,0.00110818,0.0002249
 3,0.00287629,0.02289471,0.01744334,-0.05347395,-0.02601815,-0.02283404
 ,-0.00461723,0.00331332,0.00077868,0.00119299,-0.00074802,-0.00045878,
 -0.00001795,-0.00007367,-0.00008597,-0.00004830,-0.00011889,0.00005256
 ,-0.00027588,-0.00038449,-0.00017824,0.00009232,-0.00012963,-0.0001762
 4,-0.00001149,-0.00007638,-0.00002925,-0.01334151,-0.02897475,-0.00914
 679,0.06510474,-0.00103084,-0.00023063,0.00008177,-0.00092312,-0.01560
 374,-0.01259767,-0.02479536,-0.19597327,-0.10799355,0.00301819,-0.0014
 5977,-0.00012045,-0.00064592,0.00051180,0.00055008,0.00034710,0.000476
 18,0.00031002,0.00012210,0.00002432,-0.00001000,0.00050614,0.00071659,
 0.00005113,-0.00029618,0.00003358,0.00012284,0.00010324,0.00001078,-0.
 00004897,-0.01421936,-0.01921236,-0.00427139,0.03539249,0.22057109,-0.
 00040679,-0.00047503,0.00021334,-0.00091797,-0.00183657,-0.00180034,-0
 .02195939,-0.10861909,-0.13460018,0.00080746,-0.00010460,0.00133730,0.
 00058074,0.00020834,0.00089763,0.00030049,0.00026684,0.00003422,-0.000
 02167,-0.00001090,0.00000011,0.00042378,0.00020053,0.00009132,-0.00011
 422,0.00003228,0.00001836,0.00007299,-0.00003626,-0.00006976,0.0058073
 9,0.01488206,0.01084780,0.02119275,0.11889176,0.13809855,0.00086005,0.
 00064433,-0.00152829,-0.00980595,0.00869895,-0.02606957,-0.07086639,0.
 02481279,-0.07280258,0.00127792,-0.00050956,0.00051602,-0.00439632,0.0
 0298116,0.00113620,-0.00004476,-0.00021984,0.00050499,-0.00019565,-0.0
 0036899,0.00071768,-0.00004085,-0.00001592,0.00009446,0.00001418,0.000
 04474,-0.00001982,0.00000772,-0.00004416,0.00010927,0.00536768,-0.0138
 4539,0.02775423,-0.00058921,0.00158712,-0.00412090,0.08128730,-0.00091
 161,0.00024461,0.00028783,0.00694291,-0.00653288,0.01671034,0.02033367
 ,-0.07130990,0.06267229,-0.00071521,0.00043545,0.00035373,0.00305674,-
 0.00121248,-0.00004568,-0.00011139,0.00002561,-0.00022971,0.00010300,0
 .00041862,-0.00031346,0.00003796,0.00003696,-0.00004750,0.00000990,-0.
 00007658,0.00003352,-0.00002151,0.00004289,-0.00010997,0.00316900,-0.0
 0968170,0.02092001,-0.00761709,0.00832596,-0.02338222,-0.02146493,0.07
 971823,0.00029546,0.00009751,0.00020748,0.00004151,-0.00097587,0.00331
 560,-0.06795505,0.06777118,-0.25666197,-0.00025579,0.00033425,0.000843
 26,0.00097966,-0.00025354,0.00123752,0.00006304,-0.00021741,0.00019838
 ,-0.00025793,-0.00028965,0.00039590,0.00007018,0.00004603,0.00001166,0
 .00001032,0.00004415,-0.00004786,-0.00010628,0.00002837,0.00001693,0.0
 0059423,0.00844286,-0.01249567,-0.00674144,0.00395522,-0.01728397,0.07
 059771,-0.07885573,0.28003394,-0.00023856,0.00169190,-0.00024624,-0.00
 288067,-0.00529518,0.00266818,-0.02240665,0.01683119,0.00294275,0.0002
 7534,0.00000462,0.00005637,0.00041925,-0.00018810,-0.00010761,-0.00063
 608,-0.00036886,0.00019189,-0.00000509,-0.00005783,0.00010942,-0.00000
 168,-0.00005272,-0.00009581,0.00002607,-0.00000856,0.00000317,-0.00014
 731,0.00013208,0.00007669,-0.29600849,0.16299791,0.02695040,0.00123502
 ,0.00050726,-0.00134229,0.00088455,0.00021422,0.00020240,0.32729240,-0
 .00058874,0.00089248,0.00020768,-0.00172466,-0.00215510,0.00113460,-0.
 02564140,0.00924114,0.00122549,-0.00015400,0.00023416,0.00029176,-0.00
 009753,-0.00008720,-0.00015973,-0.00036053,-0.00017329,0.00012796,0.00
 004215,0.00002256,-0.00000241,0.00008797,0.00007499,-0.00008979,0.0000
 1029,-0.00001069,0.00001226,-0.00011105,0.00003608,0.00004536,0.200803
 15,-0.15647548,0.00535530,-0.00008748,0.00106363,-0.00013110,0.0007103
 4,0.00062995,-0.00007385,-0.18238543,0.15639843,0.00054949,-0.00084860
 ,0.00083162,0.00236369,0.00289111,-0.00153249,0.00985430,-0.01222846,-
 0.00202242,-0.00042603,0.00032432,0.00008497,0.00016003,-0.00014372,0.
 00032247,0.00051905,0.00028399,-0.00014484,-0.00006998,-0.00002854,-0.
 00007778,0.00007647,0.00010096,-0.00001930,-0.00003038,0.00000244,0.00
 001959,0.00013766,-0.00008433,-0.00008145,0.05487797,-0.00911128,-0.04
 733921,-0.00026685,0.00084043,0.00045315,-0.00016832,-0.00023507,-0.00
 004283,-0.03425340,-0.00205488,0.04759160,-0.00028255,-0.00024138,-0.0
 0009910,0.00210753,-0.00047697,0.00143386,0.00640662,-0.01123829,0.029
 25556,-0.00010069,0.00003925,-0.00009395,-0.00054396,0.00036648,-0.000
 80846,0.00004936,0.00010429,-0.00012822,0.00003284,0.00020963,-0.00025
 915,0.00003177,0.00002532,0.00001427,-0.00000713,-0.00001361,0.0000108
 0,0.00003342,-0.00002024,-0.00002421,-0.08324417,0.03679801,-0.0809463
 3,0.00059555,0.00019830,-0.00032383,-0.00372418,-0.00320130,0.00266626
 ,-0.00791649,0.00928376,-0.03356679,0.08651743,0.00017630,-0.00010611,
 -0.00011176,0.00043886,0.00098572,-0.00102042,0.00241528,-0.01110795,0
 .02255034,0.00003333,-0.00006032,-0.00016443,-0.00025639,0.00039340,0.
 00011041,0.00000183,0.00000369,-0.00004405,0.00005643,0.00000480,-0.00
 003986,-0.00003135,-0.00010601,0.00000637,0.00001522,0.00000470,-0.000
 01951,0.00001324,-0.00001374,0.00000665,0.02464431,-0.05327534,0.08860
 508,0.00144014,0.00050814,0.00008159,-0.00311510,-0.00128057,0.0003791
 7,0.00592755,-0.00904413,0.02074445,-0.03207471,0.07191322,0.00016934,
 0.00002316,0.00030406,-0.00038272,-0.00048991,0.00047204,-0.00580965,-
 0.00004225,-0.01386334,0.00008771,0.00001163,-0.00011394,0.00077877,-0
 .00031851,0.00006435,-0.00000856,-0.00000172,0.00002935,-0.00019631,-0
 .00013378,0.00011625,-0.00000332,-0.00001260,-0.00001767,-0.00000001,0
 .00001065,-0.00001300,-0.00000396,0.00000722,0.00002160,-0.08304352,0.
 13477807,-0.36207818,-0.00028738,-0.00009507,0.00176328,0.00308593,0.0
 0193547,0.00038162,0.00263059,-0.00567147,0.00207694,0.08291538,-0.130
 40404,0.37146006,-0.00028270,0.00003988,0.00055704,0.00003883,-0.00074
 195,-0.00098776,-0.00081256,-0.00146046,-0.00067822,-0.00123791,0.0003
 7106,0.00010450,0.00015328,0.00021249,0.00031703,0.00028136,0.00006089
 ,-0.00005493,0.00001653,-0.00000191,-0.00006274,0.00018078,0.00016656,
 -0.00003839,-0.00006869,-0.00000550,0.00002820,0.00005156,-0.00002625,
 -0.00005588,-0.00325363,0.00066731,0.00226517,0.00023275,0.00033128,0.
 00029507,0.00005673,-0.00034266,0.00004537,0.00064297,0.00104686,0.000
 95876,0.00005225,0.00075775,0.00032244,0.21280911,-0.00035887,-0.00032
 103,0.00058558,-0.00012457,0.00014322,-0.00067721,-0.00263999,-0.00206
 993,-0.00023399,-0.00095484,0.00069118,-0.00006761,0.00028290,0.000205
 30,0.00047275,0.00058689,0.00007137,-0.00007759,0.00001552,-0.00004318
 ,-0.00002803,0.00017435,0.00014261,-0.00001405,-0.00008283,0.00003222,
 -0.00000481,0.00010484,-0.00006469,-0.00010695,0.00130790,-0.00234963,
 0.00764437,0.00125934,0.00083299,0.00049218,0.00015566,-0.00117503,0.0
 0026031,0.00039738,-0.00052256,-0.00052551,0.00083253,0.00382488,0.001
 85532,0.22966173,0.95827985,0.00012818,-0.00030768,0.00008186,-0.00000
 061,0.00099626,-0.00047560,-0.00202832,0.00018642,0.00444690,0.0004601
 7,-0.00060821,0.00021434,-0.00025875,-0.00018481,-0.00024032,0.0001210
 8,0.00009925,-0.00012814,0.00002753,0.00008678,-0.00007878,-0.00007072
 ,-0.00005339,-0.00000588,0.00003394,-0.00003604,0.00003374,0.00005220,
 -0.00002146,-0.00000630,0.00211145,0.00631415,-0.00054564,0.00178127,0
 .00140387,-0.00097902,0.00034603,0.00131599,-0.00080173,0.00060078,0.0
 0042143,0.00059325,-0.00006508,0.00022030,-0.00092907,-0.23976766,-0.8
 4156789,0.95262140,0.00021917,-0.00001960,-0.00027547,-0.00010609,0.00
 074162,0.00035146,0.00006566,0.00034841,0.00052005,0.00015480,-0.00071
 918,-0.00027775,-0.00012000,-0.00021396,-0.00023221,-0.00013098,-0.000
 01162,0.00001600,0.00000675,0.00002268,0.00002988,-0.00010266,-0.00009
 480,0.00002907,0.00004700,-0.00000189,-0.00001054,-0.00001905,0.000011
 45,0.00003005,0.00117652,-0.00047482,-0.00147943,0.00004829,-0.0000025
 5,-0.00024401,-0.00004803,0.00043670,-0.00021318,-0.00015719,-0.000261
 26,-0.00032285,0.00005742,-0.00022492,-0.00020745,-0.10192838,-0.10719
 655,0.11688962,0.07136044,0.00021625,0.00008086,-0.00017883,0.00010305
 ,0.00005679,0.00003741,0.00061790,0.00044945,0.00080138,0.00031840,-0.
 00034606,0.00000556,-0.00017072,-0.00005666,-0.00018383,-0.00020191,-0
 .00001203,0.00000719,0.00000576,0.00003119,-0.00000326,-0.00007210,-0.
 00005906,0.00000500,0.00003382,-0.00001657,0.00000432,-0.00002947,0.00
 001986,0.00004069,-0.00108031,0.00069444,-0.00508755,-0.00005361,0.000
 04402,-0.00044913,0.00009262,0.00094789,-0.00053018,0.00005624,0.00028
 611,0.00038480,-0.00034620,-0.00126936,-0.00086234,-0.10722734,-0.4521
 4299,0.41319285,0.12689739,0.48357764,0.00000928,0.00021087,-0.0001041
 1,0.00003047,-0.00025080,0.00025927,0.00131517,0.00021456,-0.00202449,
 -0.00031596,0.00010014,-0.00017308,0.00009393,0.00003567,0.00005929,-0
 .00011789,-0.00006480,0.00007741,-0.00001347,-0.00003967,0.00004445,0.
 00002164,0.00000998,0.00000291,-0.00001067,0.00001713,-0.00002250,-0.0
 0003939,0.00001749,0.00001226,-0.00161738,-0.00217119,-0.00681343,-0.0
 0078258,-0.00062526,0.00053034,-0.00014851,-0.00043284,0.00032613,-0.0
 0033348,-0.00041989,-0.00052699,-0.00015689,-0.00184017,-0.00033895,0.
 11922388,0.42092755,-0.50570519,-0.13340550,-0.47374197,0.54697107,0.0
 0008653,0.00006550,-0.00009168,0.00006430,0.00003518,0.00023677,0.0004
 0017,-0.00008627,-0.00030561,0.00007222,-0.00004295,0.00001541,-0.0000
 1226,0.00000412,-0.00004084,-0.00009929,-0.00002075,0.00001925,-0.0000
 0339,0.00000088,0.00001299,-0.00001801,-0.00002612,-0.00000183,0.00001
 835,0.00000289,-0.00000814,-0.00001804,0.00000924,0.00001784,0.0011332
 2,-0.00173236,-0.00084087,-0.00032266,-0.00019988,-0.00002959,-0.00004
 478,0.00008160,-0.00003645,-0.00037737,-0.00057244,-0.00039281,-0.0000
 6502,-0.00021778,-0.00004728,-0.10693229,-0.12342139,0.11963888,0.0294
 7634,-0.01915977,0.01624735,0.07664199,0.00017561,0.00021765,-0.000208
 49,0.00017890,-0.00020276,0.00028964,0.00115337,-0.00073467,-0.0014166
 0,0.00026388,-0.00016303,0.00012464,-0.00009478,-0.00005115,-0.0001870
 8,-0.00029954,-0.00002782,0.00004052,-0.00000572,0.00002353,0.00000777
 ,-0.00004123,-0.00004157,-0.00000561,0.00003535,-0.00001898,0.00000785
 ,-0.00005388,0.00003258,0.00005298,-0.00192700,-0.00387072,-0.00259845
 ,-0.00112602,-0.00063933,-0.00001070,-0.00014384,0.00044297,-0.0001628
 3,-0.00040368,-0.00041108,-0.00031211,-0.00024486,-0.00137503,-0.00058
 983,-0.12350974,-0.50553457,0.41854217,-0.01923711,-0.03228550,0.05805
 320,0.14528030,0.54463948,-0.00008027,0.00006243,0.00003374,-0.0000505
 7,-0.00024105,0.00003738,0.00047450,-0.00041063,-0.00185594,-0.0003030
 2,0.00022890,-0.00009654,0.00011811,0.00007317,0.00012676,0.00003716,-
 0.00002475,0.00003307,-0.00000856,-0.00003823,0.00002882,0.00004507,0.
 00003485,0.00000148,-0.00002063,0.00001710,-0.00001362,-0.00000431,-0.
 00000143,-0.00001103,-0.00177606,-0.00539614,0.00122200,-0.00048598,-0
 .00044476,0.00044787,-0.00000453,-0.00057702,0.00036562,-0.00005381,-0
 .00021873,-0.00018629,0.00017588,0.00093989,0.00066463,0.11752811,0.41
 106557,-0.44809581,0.01880228,0.06655790,-0.03257437,-0.13439337,-0.47
 162707,0.47987223\\0.00000172,-0.00000291,0.00000012,0.00000101,-0.000
 00263,-0.00000047,0.00000258,-0.00000063,0.00000363,-0.00000059,-0.000
 00020,-0.00000109,0.00000068,-0.00000242,-0.00000079,0.00000010,-0.000
 00523,-0.00000418,0.00000041,0.00000010,0.00000079,0.00000163,-0.00000
 216,0.00000090,-0.00000089,-0.00000105,-0.00000230,0.00000013,-0.00000
 215,-0.00000131,0.00000208,-0.00000037,0.00000305,0.00000205,-0.000001
 16,0.00000240,0.00000077,0.00000107,0.00000211,0.00000123,0.00000037,0
 .00000230,0.00000110,-0.00000137,0.00000065,-0.00000412,0.00000624,-0.
 00000192,-0.00000501,0.00000821,0.00000151,-0.00000486,0.00000630,-0.0
 0000541\\\@
 The archive entry for this job was punched.


 TWO ROADS DIVERGED IN A WOOD, AND I--
 I TOOK THE ONE LESS TRAVELED BY,
 AND THAT HAS MADE ALL THE DIFFERENCE.

                       -- ROBERT FROST
 Job cpu time:       0 days  0 hours 37 minutes 36.2 seconds.
 Elapsed time:       0 days  0 hours 19 minutes 52.4 seconds.
 File lengths (MBytes):  RWF=    174 Int=      0 D2E=      0 Chk=     20 Scr=      1
 Normal termination of Gaussian 16 at Fri Jun  2 16:25:15 2023.
