 Entering Gaussian System, Link 0=g16
 Input=EG-isolated-freq.gjf
 Output=EG-isolated-freq.log
 Initial command:
 /software/commercial/gaussian/g16/AVX/g16/l1.exe "/scratch1/svicchi/G09-659907.pbs02/Gau-4016571.inp" -scrdir="/scratch1/svicchi/G09-659907.pbs02/"
 Entering Link 1 = /software/commercial/gaussian/g16/AVX/g16/l1.exe PID=   4016572.
  
 Copyright (c) 1988-2019, Gaussian, Inc.  All Rights Reserved.
  
 This is part of the Gaussian(R) 16 program.  It is based on
 the Gaussian(R) 09 system (copyright 2009, Gaussian, Inc.),
 the Gaussian(R) 03 system (copyright 2003, Gaussian, Inc.),
 the Gaussian(R) 98 system (copyright 1998, Gaussian, Inc.),
 the Gaussian(R) 94 system (copyright 1995, Gaussian, Inc.),
 the Gaussian 92(TM) system (copyright 1992, Gaussian, Inc.),
 the Gaussian 90(TM) system (copyright 1990, Gaussian, Inc.),
 the Gaussian 88(TM) system (copyright 1988, Gaussian, Inc.),
 the Gaussian 86(TM) system (copyright 1986, Carnegie Mellon
 University), and the Gaussian 82(TM) system (copyright 1983,
 Carnegie Mellon University). Gaussian is a federally registered
 trademark of Gaussian, Inc.
  
 This software contains proprietary and confidential information,
 including trade secrets, belonging to Gaussian, Inc.
  
 This software is provided under written license and may be
 used, copied, transmitted, or stored only in accord with that
 written license.
  
 The following legend is applicable only to US Government
 contracts under FAR:
  
                    RESTRICTED RIGHTS LEGEND
  
 Use, reproduction and disclosure by the US Government is
 subject to restrictions as set forth in subparagraphs (a)
 and (c) of the Commercial Computer Software - Restricted
 Rights clause in FAR 52.227-19.
  
 Gaussian, Inc.
 340 Quinnipiac St., Bldg. 40, Wallingford CT 06492
  
  
 ---------------------------------------------------------------
 Warning -- This program may not be used in any manner that
 competes with the business of Gaussian, Inc. or will provide
 assistance to any competitor of Gaussian, Inc.  The licensee
 of this program is prohibited from giving any competitor of
 Gaussian, Inc. access to this program.  By using this program,
 the user acknowledges that Gaussian, Inc. is engaged in the
 business of creating and licensing software in the field of
 computational chemistry and represents and warrants to the
 licensee that it is not a competitor of Gaussian, Inc. and that
 it will not use this program in any manner prohibited above.
 ---------------------------------------------------------------
  

 Cite this work as:
 Gaussian 16, Revision C.01,
 M. J. Frisch, G. W. Trucks, H. B. Schlegel, G. E. Scuseria, 
 M. A. Robb, J. R. Cheeseman, G. Scalmani, V. Barone, 
 G. A. Petersson, H. Nakatsuji, X. Li, M. Caricato, A. V. Marenich, 
 J. Bloino, B. G. Janesko, R. Gomperts, B. Mennucci, H. P. Hratchian, 
 J. V. Ortiz, A. F. Izmaylov, J. L. Sonnenberg, D. Williams-Young, 
 F. Ding, F. Lipparini, F. Egidi, J. Goings, B. Peng, A. Petrone, 
 T. Henderson, D. Ranasinghe, V. G. Zakrzewski, J. Gao, N. Rega, 
 G. Zheng, W. Liang, M. Hada, M. Ehara, K. Toyota, R. Fukuda, 
 J. Hasegawa, M. Ishida, T. Nakajima, Y. Honda, O. Kitao, H. Nakai, 
 T. Vreven, K. Throssell, J. A. Montgomery, Jr., J. E. Peralta, 
 F. Ogliaro, M. J. Bearpark, J. J. Heyd, E. N. Brothers, K. N. Kudin, 
 V. N. Staroverov, T. A. Keith, R. Kobayashi, J. Normand, 
 K. Raghavachari, A. P. Rendell, J. C. Burant, S. S. Iyengar, 
 J. Tomasi, M. Cossi, J. M. Millam, M. Klene, C. Adamo, R. Cammi, 
 J. W. Ochterski, R. L. Martin, K. Morokuma, O. Farkas, 
 J. B. Foresman, and D. J. Fox, Gaussian, Inc., Wallingford CT, 2019.
 
 ******************************************
 Gaussian 16:  ES64L-G16RevC.01  3-Jul-2019
                 2-Jun-2023 
 ******************************************
 %NProcShared=2
 Will use up to    2 processors via shared memory.
 %mem=55gb
 %chk=/scratch1/svicchi/G09-659907.pbs02/02-freq/EG-isolated-freq.chk
 ----------------------------------------------------------------------
 #p freq=raman scale=0.967 pop=(nbo,full,hirshfeld) guess=read geom=all
 check b3lyp/6-311+G(d,p) int=grid=ultrafine EmpiricalDispersion=GD3BJ 
 SCRF=(Solvent=ethanol) scf=(xqc,intrep,maxconventionalcycle=350) nosym
 m
 ----------------------------------------------------------------------
 1/10=4,29=7,30=1,38=1,114=967000/1,3;
 2/12=2,15=1,40=1/2;
 3/5=4,6=6,7=111,11=2,14=-4,25=1,30=1,70=2201,71=2,72=4,74=-5,75=-5,116=-2,124=41,140=1/1,2,3;
 4/5=1/1;
 5/5=2,8=3,13=1,17=20,38=6,53=4,85=350,98=1/2,8;
 8/6=4,10=90,11=11/1;
 10/13=10,15=4,31=1/2;
 11/6=3,8=1,9=11,15=111,16=1,31=1/1,2,10;
 10/6=1,31=1/2;
 6/7=3,28=1,40=1,79=1/1,7;
 7/8=1,10=1,25=1,30=1/1,2,3,16;
 1/10=4,30=1/3;
 99//99;
 Leave Link    1 at Fri Jun  2 11:11:41 2023, MaxMem=  7381975040 cpu:               2.5 elap:               2.6
 (Enter /software/commercial/gaussian/g16/AVX/g16/l101.exe)
 Structure from the checkpoint file:  "/scratch1/svicchi/G09-659907.pbs02/02-freq/EG-isolated-freq.chk"
 ---------------
 EG-isolated.gjf
 ---------------
 Charge =  0 Multiplicity = 1
 No Z-Matrix found in chk file; cartesian coordinates used.
  O                                                 2.160545738179     -0.790394765306      0.126852470331
  C                                                 3.122744345000      0.266114863483      0.062312871046
  C                                                 4.492045483428     -0.379704381490     -0.040460979985
  H                                                 3.077875568605      0.892485870200      0.960435448124
  H                                                 2.948982777672      0.901399955399     -0.813583801267
  O                                                 5.454223700519      0.676806173481     -0.105293023300
  H                                                 4.536836550952     -1.006238729456     -0.938476715397
  H                                                 4.665899153523     -1.014827490848      0.835532094768
  H                                                 1.282471957599     -0.400991141774      0.187717166645
  H                                                 6.332363724522      0.287397646311     -0.165235530964
 Recover connectivity data from disk.
 ITRead=  0  0  0  0  0  0  0  0  0  0
 MicOpt= -1 -1 -1 -1 -1 -1 -1 -1 -1 -1
 NAtoms=     10 NQM=       10 NQMF=       0 NMMI=      0 NMMIF=      0
                NMic=       0 NMicF=      0.
                    Isotopes and Nuclear Properties:
 (Nuclear quadrupole moments (NQMom) in fm**2, nuclear magnetic moments (NMagM)
  in nuclear magnetons)

  Atom         1           2           3           4           5           6           7           8           9          10
 IAtWgt=          16          12          12           1           1          16           1           1           1           1
 AtmWgt=  15.9949146  12.0000000  12.0000000   1.0078250   1.0078250  15.9949146   1.0078250   1.0078250   1.0078250   1.0078250
 NucSpn=           0           0           0           1           1           0           1           1           1           1
 AtZEff=   5.6000000   3.6000000   3.6000000   1.0000000   1.0000000   5.6000000   1.0000000   1.0000000   1.0000000   1.0000000
 NQMom=    0.0000000   0.0000000   0.0000000   0.0000000   0.0000000   0.0000000   0.0000000   0.0000000   0.0000000   0.0000000
 NMagM=    0.0000000   0.0000000   0.0000000   2.7928460   2.7928460   0.0000000   2.7928460   2.7928460   2.7928460   2.7928460
 AtZNuc=   8.0000000   6.0000000   6.0000000   1.0000000   1.0000000   8.0000000   1.0000000   1.0000000   1.0000000   1.0000000
 Leave Link  101 at Fri Jun  2 11:11:44 2023, MaxMem=  7381975040 cpu:               0.4 elap:               1.5
 (Enter /software/commercial/gaussian/g16/AVX/g16/l103.exe)

 GradGradGradGradGradGradGradGradGradGradGradGradGradGradGradGradGradGrad
 Berny optimization.
 Initialization pass.
 Trust Radius=3.00D-01 FncErr=1.00D-07 GrdErr=1.00D-07 EigMax=2.50D+02 EigMin=1.00D-04
 Number of steps in this run=      2 maximum allowed number of steps=      2.
 GradGradGradGradGradGradGradGradGradGradGradGradGradGradGradGradGradGrad

 Leave Link  103 at Fri Jun  2 11:11:46 2023, MaxMem=  7381975040 cpu:               0.1 elap:               1.2
 (Enter /software/commercial/gaussian/g16/AVX/g16/l202.exe)
                          Input orientation:                          
 ---------------------------------------------------------------------
 Center     Atomic      Atomic             Coordinates (Angstroms)
 Number     Number       Type             X           Y           Z
 ---------------------------------------------------------------------
      1          8           0        2.160546   -0.790395    0.126852
      2          6           0        3.122744    0.266115    0.062313
      3          6           0        4.492045   -0.379704   -0.040461
      4          1           0        3.077876    0.892486    0.960435
      5          1           0        2.948983    0.901400   -0.813584
      6          8           0        5.454224    0.676806   -0.105293
      7          1           0        4.536837   -1.006239   -0.938477
      8          1           0        4.665899   -1.014827    0.835532
      9          1           0        1.282472   -0.400991    0.187717
     10          1           0        6.332364    0.287398   -0.165236
 ---------------------------------------------------------------------
                    Distance matrix (angstroms):
                    1          2          3          4          5
     1  O    0.000000
     2  C    1.430456   0.000000
     3  C    2.373300   1.517442   0.000000
     4  H    2.090082   1.095891   2.149451   0.000000
     5  H    2.090029   1.095890   2.149416   1.778718   0.000000
     6  O    3.613154   2.373300   1.430456   2.613298   2.613111
     7  H    2.613096   2.149446   1.095894   3.056074   2.485149
     8  H    2.613311   2.149420   1.095888   2.485008   3.056029
     9  H    0.962472   1.961469   3.217745   2.343854   2.340104
    10  H    4.318682   3.217746   1.961470   3.496421   3.499231
                    6          7          8          9         10
     6  O    0.000000
     7  H    2.090080   0.000000
     8  H    2.090032   1.778718   0.000000
     9  H    4.318682   3.496502   3.499148   0.000000
    10  H    0.962477   2.344209   2.339750   5.108802   0.000000
 Symmetry turned off by external request.
 Stoichiometry    C2H6O2
 Framework group  C1[X(C2H6O2)]
 Deg. of freedom    24
 Full point group                 C1      NOp   1
 Rotational constants (GHZ):          30.5179698           3.9664060           3.6728766
 Leave Link  202 at Fri Jun  2 11:11:48 2023, MaxMem=  7381975040 cpu:               0.0 elap:               0.7
 (Enter /software/commercial/gaussian/g16/AVX/g16/l301.exe)
 Standard basis: 6-311+G(d,p) (5D, 7F)
 Ernie: Thresh=  0.10000D-02 Tol=  0.10000D-05 Strict=F.
   124 basis functions,   192 primitive gaussians,   128 cartesian basis functions
    17 alpha electrons       17 beta electrons
       nuclear repulsion energy       129.8744958641 Hartrees.
 IExCor=  402 DFT=T Ex+Corr=B3LYP ExCW=0 ScaHFX=  0.200000
 ScaDFX=  0.800000  0.720000  1.000000  0.810000 ScalE2=  1.000000  1.000000
 IRadAn=      5 IRanWt=     -1 IRanGd=            0 ICorTp=0 IEmpDi=141
 NAtoms=   10 NActive=   10 NUniq=   10 SFac= 1.00D+00 NAtFMM=   60 NAOKFM=F Big=F
 Integral buffers will be    131072 words long.
 Raffenetti 2 integral format.
 Two-electron integral symmetry is turned off.
 R6Disp:  Grimme-D3(BJ) Dispersion energy=       -0.0085898433 Hartrees.
 Nuclear repulsion after empirical dispersion term =      129.8659060208 Hartrees.
 Force inversion solution in PCM.
 ------------------------------------------------------------------------------
 Polarizable Continuum Model (PCM)
 =================================
 Model                : PCM.
 Atomic radii         : UFF (Universal Force Field).
 Polarization charges : Total charges.
 Charge compensation  : None.
 Solution method      : Matrix inversion.
 Cavity type          : Scaled VdW (van der Waals Surface) (Alpha=1.100).
 Cavity algorithm     : GePol (No added spheres)
                        Default sphere list used, NSphG=   10.
                        Lebedev-Laikov grids with approx.  5.0 points / Ang**2.
                        Smoothing algorithm: York/Karplus (Gamma=1.0000).
                        Polarization charges: spherical gaussians, with
                                              point-specific exponents (IZeta= 3).
                        Self-potential: point-specific (ISelfS= 7).
                        Self-field    : sphere-specific E.n sum rule (ISelfD= 2).
 1st derivatives      : Analytical E(r).r(x)/FMM algorithm (CHGder, D1EAlg=3).
                        Cavity 1st derivative terms included.
 2nd derivatives      : Analytical E(r).r(xy)/FMM algorithm (CHGder, D2EAlg=3).
                        Cavity 2nd derivative terms included.
 Solvent              : Ethanol, Eps=  24.852000 Eps(inf)=   1.852593
 ------------------------------------------------------------------------------
 Spheres list:
 ISph  on   Nord     Re0    Alpha      Xe            Ye            Ze
    1   O      1    1.7500  1.100      2.160546     -0.790395      0.126852
    2   C      2    1.9255  1.100      3.122744      0.266115      0.062313
    3   C      3    1.9255  1.100      4.492045     -0.379704     -0.040461
    4   H      4    1.4430  1.100      3.077876      0.892486      0.960435
    5   H      5    1.4430  1.100      2.948983      0.901400     -0.813584
    6   O      6    1.7500  1.100      5.454224      0.676806     -0.105293
    7   H      7    1.4430  1.100      4.536837     -1.006239     -0.938477
    8   H      8    1.4430  1.100      4.665899     -1.014827      0.835532
    9   H      9    1.4430  1.100      1.282472     -0.400991      0.187717
   10   H     10    1.4430  1.100      6.332364      0.287398     -0.165236
 ------------------------------------------------------------------------------
 GePol: Number of generator spheres                  =      10
 GePol: Total number of spheres                      =      10
 GePol: Number of exposed spheres                    =      10 (100.00%)
 GePol: Number of points                             =     924
 GePol: Average weight of points                     =       0.13
 GePol: Minimum weight of points                     =   0.36D-07
 GePol: Maximum weight of points                     =    0.20577
 GePol: Number of points with low weight             =      57
 GePol: Fraction of low-weight points (<1% of avg)   =       6.17%
 GePol: Cavity surface area                          =    121.545 Ang**2
 GePol: Cavity volume                                =    103.886 Ang**3
 Leave Link  301 at Fri Jun  2 11:11:51 2023, MaxMem=  7381975040 cpu:               1.1 elap:               2.1
 (Enter /software/commercial/gaussian/g16/AVX/g16/l302.exe)
 NPDir=0 NMtPBC=     1 NCelOv=     1 NCel=       1 NClECP=     1 NCelD=      1
         NCelK=      1 NCelE2=     1 NClLst=     1 CellRange=     0.0.
 One-electron integrals computed using PRISM.
 NBasis=   124 RedAO= T EigKep=  9.08D-05  NBF=   124
 NBsUse=   124 1.00D-06 EigRej= -1.00D+00 NBFU=   124
 Precomputing XC quadrature grid using
 IXCGrd= 4 IRadAn=           5 IRanWt=          -1 IRanGd=           0 AccXCQ= 0.00D+00.
 Generated NRdTot=       0 NPtTot=           0 NUsed=           0 NTot=          32
 NSgBfM=   128   128   128   128   128 MxSgAt=    10 MxSgA2=    10.
 Leave Link  302 at Fri Jun  2 11:11:54 2023, MaxMem=  7381975040 cpu:               1.0 elap:               2.3
 (Enter /software/commercial/gaussian/g16/AVX/g16/l303.exe)
 DipDrv:  MaxL=1.
 Leave Link  303 at Fri Jun  2 11:11:57 2023, MaxMem=  7381975040 cpu:               0.1 elap:               1.8
 (Enter /software/commercial/gaussian/g16/AVX/g16/l401.exe)
 Initial guess from the checkpoint file:  "/scratch1/svicchi/G09-659907.pbs02/02-freq/EG-isolated-freq.chk"
 B after Tr=     0.000000    0.000000    0.000000
         Rot=    1.000000    0.000000    0.000000    0.000000 Ang=   0.00 deg.
 Guess basis will be translated and rotated to current coordinates.
 JPrj=2 DoOrth=T DoCkMO=T.
 Leave Link  401 at Fri Jun  2 11:12:01 2023, MaxMem=  7381975040 cpu:               1.3 elap:               2.1
 (Enter /software/commercial/gaussian/g16/AVX/g16/l502.exe)
 Keep R1 ints in memory in canonical form, NReq=31947375.
 FoFCou: FMM=F IPFlag=           0 FMFlag=           0 FMFlg1=           0
         NFxFlg=           0 DoJE=F BraDBF=F KetDBF=F FulRan=T
         wScrn=  0.000000 ICntrl=       600 IOpCl=  0 I1Cent=           0 NGrid=           0
         NMat0=    1 NMatS0=   7750 NMatT0=    0 NMatD0=    1 NMtDS0=    0 NMtDT0=    0
 Symmetry not used in FoFCou.
 Two-electron integral symmetry not used.
 Closed shell SCF:
 Using DIIS extrapolation, IDIIS=  1040.
 NGot=  7381975040 LenX=  7351905033 LenY=  7351888208
 Requested convergence on RMS density matrix=1.00D-08 within 350 cycles.
 Requested convergence on MAX density matrix=1.00D-06.
 Requested convergence on             energy=1.00D-06.
 No special actions if energy rises.

 Cycle   1  Pass 1  IDiag  1:
 Inv3:  Mode=1 IEnd=     2561328.
 Iteration    1 A*A^-1 deviation from unit magnitude is 2.66D-15 for    910.
 Iteration    1 A*A^-1 deviation from orthogonality  is 1.07D-15 for    855    708.
 Iteration    1 A^-1*A deviation from unit magnitude is 2.66D-15 for    910.
 Iteration    1 A^-1*A deviation from orthogonality  is 1.93D-15 for    921    764.
 E= -230.349122577810    
 DIIS: error= 1.29D-08 at cycle   1 NSaved=   1.
 NSaved= 1 IEnMin= 1 EnMin= -230.349122577810     IErMin= 1 ErrMin= 1.29D-08
 ErrMax= 1.29D-08  0.00D+00 EMaxC= 1.00D-01 BMatC= 2.29D-14 BMatP= 2.29D-14
 IDIUse=1 WtCom= 1.00D+00 WtEn= 0.00D+00
 Coeff-Com:  0.100D+01
 Coeff:      0.100D+01
 Gap=     0.292 Goal=   None    Shift=    0.000
 RMSDP=1.79D-09 MaxDP=4.48D-08              OVMax= 6.54D-08

 Error on total polarization charges =  0.00974
 SCF Done:  E(RB3LYP) =  -230.349122578     A.U. after    1 cycles
            NFock=  1  Conv=0.18D-08     -V/T= 2.0038
 KE= 2.294747409924D+02 PE=-8.008023338443D+02 EE= 2.111125642533D+02
 Leave Link  502 at Fri Jun  2 11:12:11 2023, MaxMem=  7381975040 cpu:               9.9 elap:               8.2
 (Enter /software/commercial/gaussian/g16/AVX/g16/l508.exe)
 QCSCF skips out because SCF is already converged.
 Leave Link  508 at Fri Jun  2 11:12:14 2023, MaxMem=  7381975040 cpu:               0.0 elap:               1.6
 (Enter /software/commercial/gaussian/g16/AVX/g16/l801.exe)
 DoSCS=F DFT=T ScalE2(SS,OS)=  1.000000  1.000000
 Range of M.O.s used for correlation:     1   124
 NBasis=   124 NAE=    17 NBE=    17 NFC=     0 NFV=     0
 NROrb=    124 NOA=    17 NOB=    17 NVA=   107 NVB=   107

 **** Warning!!: The largest alpha MO coefficient is  0.37845303D+02

 Leave Link  801 at Fri Jun  2 11:12:16 2023, MaxMem=  7381975040 cpu:               0.3 elap:               1.5
 (Enter /software/commercial/gaussian/g16/AVX/g16/l1002.exe)
 Minotr:  Closed shell wavefunction.
 NEqPCM:  Using equilibrium solvation (IEInf=0, Eps=  24.8520, EpsInf=   1.8526)
          Direct CPHF calculation.
          Differentiating once with respect to electric field.
                with respect to dipole field.
          Electric field/nuclear overlap derivatives assumed to be zero.
          Requested convergence is 1.0D-08 RMS, and 1.0D-07 maximum.
          Secondary convergence is 1.0D-12 RMS, and 1.0D-12 maximum.
          NewPWx=F KeepS1=T KeepF1=T KeepIn=T MapXYZ=F SortEE=F KeepMc=T.
         3051 words used for storage of precomputed grid.
 Keep R1 ints in memory in canonical form, NReq=33457537.
 FoFCou: FMM=F IPFlag=           0 FMFlag=           0 FMFlg1=           0
         NFxFlg=           0 DoJE=F BraDBF=F KetDBF=F FulRan=T
         wScrn=  0.000000 ICntrl=       600 IOpCl=  0 I1Cent=           0 NGrid=           0
         NMat0=    1 NMatS0=   7750 NMatT0=    0 NMatD0=    1 NMtDS0=    0 NMtDT0=    0
 Symmetry not used in FoFCou.
 Two-electron integral symmetry not used.
          MDV=    7381975040 using IRadAn=       1.
          Solving linear equations simultaneously, MaxMat=       0.
          There are     3 degrees of freedom in the 1st order CPHF.  IDoFFX=0 NUNeed=     3.
      3 vectors produced by pass  0 Test12= 6.06D-14 3.33D-08 XBig12= 1.96D+01 1.67D+00.
 AX will form     3 AO Fock derivatives at one time.
      3 vectors produced by pass  1 Test12= 6.06D-14 3.33D-08 XBig12= 2.98D+00 5.54D-01.
      3 vectors produced by pass  2 Test12= 6.06D-14 3.33D-08 XBig12= 4.33D-01 1.57D-01.
      3 vectors produced by pass  3 Test12= 6.06D-14 3.33D-08 XBig12= 1.65D-02 3.62D-02.
      3 vectors produced by pass  4 Test12= 6.06D-14 3.33D-08 XBig12= 4.39D-04 7.17D-03.
      3 vectors produced by pass  5 Test12= 6.06D-14 3.33D-08 XBig12= 1.08D-05 9.73D-04.
      3 vectors produced by pass  6 Test12= 6.06D-14 3.33D-08 XBig12= 1.51D-07 9.96D-05.
      3 vectors produced by pass  7 Test12= 6.06D-14 3.33D-08 XBig12= 5.71D-09 2.18D-05.
      3 vectors produced by pass  8 Test12= 6.06D-14 3.33D-08 XBig12= 2.34D-11 1.58D-06.
      2 vectors produced by pass  9 Test12= 6.06D-14 3.33D-08 XBig12= 2.38D-13 1.21D-07.
 InvSVY:  IOpt=1 It=  1 EMax= 3.55D-15
 Solved reduced A of dimension    29 with     3 vectors.
 End of Minotr F.D. properties file   721 does not exist.
 End of Minotr F.D. properties file   722 does not exist.
 End of Minotr F.D. properties file   788 does not exist.
 Leave Link 1002 at Fri Jun  2 11:12:47 2023, MaxMem=  7381975040 cpu:              43.0 elap:              28.6
 (Enter /software/commercial/gaussian/g16/AVX/g16/l1101.exe)
 Using compressed storage, NAtomX=    10.
 Will process     11 centers per pass.
 R6Disp: Adding Grimme-D3(BJ) dispersion energy 1st derivatives to the gradient.
 Leave Link 1101 at Fri Jun  2 11:12:49 2023, MaxMem=  7381975040 cpu:               0.5 elap:               1.1
 (Enter /software/commercial/gaussian/g16/AVX/g16/l1102.exe)
 Symmetrizing basis deriv contribution to polar:
 IMax=3 JMax=2 DiffMx= 0.00D+00
 Leave Link 1102 at Fri Jun  2 11:12:51 2023, MaxMem=  7381975040 cpu:               0.5 elap:               1.3
 (Enter /software/commercial/gaussian/g16/AVX/g16/l1110.exe)
 Forming Gx(P) for the SCF density, NAtomX=    10.
 Integral derivatives from FoFJK, PRISM(SPDF).
 Do as many integral derivatives as possible in FoFJK.
 G2DrvN: MDV=    7381973874.
 G2DrvN: will do    11 centers at a time, making    1 passes.
 PxScal for G2LodP:  IOpCl= 0 ISclPx=1 IMOff=     1 NMtTot=     4 NTT=    7750 ScalPx= 3.26D+00
 Calling FoFCou, ICntrl=  3107 FMM=F I1Cent=   0 AccDes= 0.00D+00.
 FoFJK:  IHMeth= 1 ICntrl=    3107 DoSepK=F KAlg= 0 I1Cent=           0 FoldK=F
 IRaf=         0 NMat=       1 IRICut=       1 DoRegI=T DoRafI=F ISym2E= 0 IDoP0=0 IntGTp=1.
 FoFCou: FMM=F IPFlag=           0 FMFlag=      100000 FMFlg1=           0
         NFxFlg=           0 DoJE=F BraDBF=F KetDBF=F FulRan=T
         wScrn=  0.000000 ICntrl=      3107 IOpCl=  0 I1Cent=           0 NGrid=           0
         NMat0=    1 NMatS0=      1 NMatT0=    0 NMatD0=    4 NMtDS0=    3 NMtDT0=    0
 Symmetry not used in FoFCou.
 PxScal for G2LodP:  IOpCl= 0 ISclPx=0 IMOff=     1 NMtTot=     4 NTT=    7750 ScalPx= 1.00D+00
 NEqPCM:  Using equilibrium solvation (IEInf=0, Eps=  24.8520, EpsInf=   1.8526)
 G2PCM: DoFxE=T DoFxN=T DoGrad=T DoDP/DQ/DG/TGxP=TFFF NFrqRd=   0 IEInf=0 SqF1=F DoCFld=F IF1Alg=4.
 GePol: Maximum number of non-zero 1st derivatives   =     198
 End of G2Drv F.D. properties file   721 does not exist.
 End of G2Drv F.D. properties file   722 does not exist.
 End of G2Drv F.D. properties file   788 does not exist.
 Leave Link 1110 at Fri Jun  2 11:13:55 2023, MaxMem=  7381975040 cpu:             118.1 elap:              62.8
 (Enter /software/commercial/gaussian/g16/AVX/g16/l1002.exe)
 Minotr:  Closed shell wavefunction.
          IDoAtm=1111111111
 NEqPCM:  Using equilibrium solvation (IEInf=0, Eps=  24.8520, EpsInf=   1.8526)
          Direct CPHF calculation.
          Differentiating once with respect to electric field.
                with respect to dipole field.
          Differentiating once with respect to nuclear coordinates.
          Requested convergence is 1.0D-08 RMS, and 1.0D-07 maximum.
          Secondary convergence is 1.0D-12 RMS, and 1.0D-12 maximum.
          NewPWx=T KeepS1=F KeepF1=F KeepIn=T MapXYZ=F SortEE=F KeepMc=T.
         3051 words used for storage of precomputed grid.
 Keep R1 ints in memory in canonical form, NReq=33457767.
 FoFCou: FMM=F IPFlag=           0 FMFlag=           0 FMFlg1=           0
         NFxFlg=           0 DoJE=F BraDBF=F KetDBF=F FulRan=T
         wScrn=  0.000000 ICntrl=       600 IOpCl=  0 I1Cent=           0 NGrid=           0
         NMat0=    1 NMatS0=   7750 NMatT0=    0 NMatD0=    1 NMtDS0=    0 NMtDT0=    0
 Symmetry not used in FoFCou.
 Two-electron integral symmetry not used.
          MDV=    7381975040 using IRadAn=       1.
          Solving linear equations simultaneously, MaxMat=       0.
          There are    33 degrees of freedom in the 1st order CPHF.  IDoFFX=5 NUNeed=    33.
 Will reuse    3 saved solutions.
     27 vectors produced by pass  0 Test12= 5.51D-15 3.03D-09 XBig12= 8.80D-02 7.35D-02.
 AX will form    27 AO Fock derivatives at one time.
     27 vectors produced by pass  1 Test12= 5.51D-15 3.03D-09 XBig12= 9.91D-03 2.17D-02.
     27 vectors produced by pass  2 Test12= 5.51D-15 3.03D-09 XBig12= 2.07D-04 3.02D-03.
     27 vectors produced by pass  3 Test12= 5.51D-15 3.03D-09 XBig12= 1.06D-06 1.91D-04.
     27 vectors produced by pass  4 Test12= 5.51D-15 3.03D-09 XBig12= 1.85D-09 9.11D-06.
     19 vectors produced by pass  5 Test12= 5.51D-15 3.03D-09 XBig12= 1.92D-12 2.68D-07.
      4 vectors produced by pass  6 Test12= 5.51D-15 3.03D-09 XBig12= 1.64D-15 6.31D-09.
 InvSVY:  IOpt=1 It=  1 EMax= 2.00D-15
 Solved reduced A of dimension   158 with    27 vectors.
 FullF1:  Do perturbations      1 to       3.
 Isotropic polarizability for W=    0.000000       41.83 Bohr**3.
 FullF1:  Do perturbations      1 to       6.
 End of Minotr F.D. properties file   721 does not exist.
 End of Minotr F.D. properties file   722 does not exist.
 End of Minotr F.D. properties file   788 does not exist.
 Leave Link 1002 at Fri Jun  2 11:15:19 2023, MaxMem=  7381975040 cpu:             132.8 elap:              82.4
 (Enter /software/commercial/gaussian/g16/AVX/g16/l601.exe)
 Copying SCF densities to generalized density rwf, IOpCl= 0 IROHF=0.

 **********************************************************************

            Population analysis using the SCF Density.

 **********************************************************************

 Alpha  occ. eigenvalues --  -19.13447 -19.13447 -10.22143 -10.22119  -1.03843
 Alpha  occ. eigenvalues --   -1.02800  -0.74967  -0.61679  -0.54796  -0.49285
 Alpha  occ. eigenvalues --   -0.49185  -0.42828  -0.40790  -0.37401  -0.34049
 Alpha  occ. eigenvalues --   -0.29084  -0.29037
 Alpha virt. eigenvalues --    0.00165   0.00699   0.03314   0.04201   0.06007
 Alpha virt. eigenvalues --    0.07358   0.07868   0.12713   0.13329   0.15332
 Alpha virt. eigenvalues --    0.15438   0.16123   0.17732   0.17750   0.19402
 Alpha virt. eigenvalues --    0.22306   0.22850   0.22900   0.24827   0.25083
 Alpha virt. eigenvalues --    0.25733   0.30963   0.31144   0.32643   0.35960
 Alpha virt. eigenvalues --    0.41283   0.42464   0.50888   0.50995   0.55472
 Alpha virt. eigenvalues --    0.56454   0.58700   0.62354   0.65304   0.65909
 Alpha virt. eigenvalues --    0.65961   0.68833   0.87307   0.92353   0.96327
 Alpha virt. eigenvalues --    0.98402   1.02658   1.06632   1.07353   1.12956
 Alpha virt. eigenvalues --    1.13387   1.24849   1.26709   1.34133   1.37831
 Alpha virt. eigenvalues --    1.40635   1.45594   1.46049   1.52732   1.54312
 Alpha virt. eigenvalues --    1.55230   1.63179   1.63949   1.64606   1.65713
 Alpha virt. eigenvalues --    1.72266   1.78059   1.81484   1.81845   2.01865
 Alpha virt. eigenvalues --    2.02025   2.07716   2.09113   2.12237   2.23797
 Alpha virt. eigenvalues --    2.31924   2.40834   2.42682   2.45441   2.51573
 Alpha virt. eigenvalues --    2.53356   2.57774   2.60253   2.61399   2.77938
 Alpha virt. eigenvalues --    2.84592   2.87022   2.91702   3.05989   3.11559
 Alpha virt. eigenvalues --    3.15024   3.21344   3.22348   3.22931   3.35980
 Alpha virt. eigenvalues --    3.79280   3.79981   3.81930   3.90288   3.96031
 Alpha virt. eigenvalues --    3.96577   4.22947   4.97389   4.99998   5.30331
 Alpha virt. eigenvalues --    5.38069   5.62549   5.66530  23.82023  23.82362
 Alpha virt. eigenvalues --   49.87550  49.90282
     Molecular Orbital Coefficients:
                           1         2         3         4         5
                           O         O         O         O         O
     Eigenvalues --   -19.13447 -19.13447 -10.22143 -10.22119  -1.03843
   1 1   O  1S         -0.35514   0.42172  -0.00002   0.00002  -0.07766
   2        2S         -0.30257   0.35931  -0.00005   0.00005  -0.12425
   3        2PX         0.00018  -0.00019   0.00005  -0.00005  -0.00418
   4        2PY        -0.00079   0.00095   0.00010  -0.00006   0.03282
   5        2PZ        -0.00001   0.00001  -0.00000   0.00000   0.00033
   6        3S         -0.00879   0.01024   0.00048  -0.00032   0.35964
   7        3PX         0.00002  -0.00014   0.00009  -0.00008  -0.00482
   8        3PY        -0.00004   0.00002  -0.00009  -0.00007   0.05273
   9        3PZ        -0.00000   0.00001  -0.00001   0.00001   0.00040
  10        4S          0.00638  -0.00658  -0.00120  -0.00039   0.25976
  11        4PX         0.00100  -0.00082   0.00030  -0.00047   0.00454
  12        4PY         0.00086  -0.00064  -0.00038  -0.00018   0.02240
  13        4PZ        -0.00007   0.00006  -0.00002   0.00003  -0.00028
  14        5S         -0.00475   0.00517   0.00436  -0.00686  -0.03151
  15        5PX         0.00062   0.00027   0.00101   0.00069  -0.00557
  16        5PY        -0.00049   0.00062   0.00105  -0.00195  -0.00717
  17        5PZ        -0.00004  -0.00002  -0.00007  -0.00005   0.00038
  18        6D 0        0.00007  -0.00009   0.00015  -0.00008  -0.00643
  19        6D+1        0.00002  -0.00002   0.00002  -0.00001  -0.00087
  20        6D-1       -0.00001   0.00001   0.00001  -0.00000  -0.00006
  21        6D+2       -0.00011   0.00014   0.00002   0.00002   0.00141
  22        6D-2        0.00011  -0.00014  -0.00012   0.00006   0.00110
  23 2   C  1S         -0.00001   0.00001   0.39817  -0.39810  -0.03415
  24        2S          0.00004  -0.00005   0.32764  -0.32757  -0.05257
  25        2PX         0.00006  -0.00004  -0.00009   0.00075  -0.01465
  26        2PY         0.00009  -0.00014  -0.00085   0.00045  -0.02246
  27        2PZ        -0.00000   0.00000   0.00000  -0.00005   0.00094
  28        3S          0.00006   0.00016   0.01322  -0.01309   0.13519
  29        3PX         0.00003  -0.00035  -0.00052  -0.00106  -0.02163
  30        3PY        -0.00003   0.00026   0.00232  -0.00105  -0.04333
  31        3PZ        -0.00000   0.00003   0.00005   0.00007   0.00133
  32        4S         -0.00504   0.00189  -0.00691   0.01292   0.04674
  33        4PX        -0.00056  -0.00044   0.00048   0.00138  -0.00200
  34        4PY         0.00178  -0.00075   0.00051  -0.00169  -0.00156
  35        4PZ         0.00005   0.00003  -0.00003  -0.00011   0.00010
  36        5S          0.01774  -0.00302  -0.00293   0.02025   0.01840
  37        5PX         0.00354   0.00009  -0.00037   0.00385  -0.00603
  38        5PY        -0.00257   0.00141  -0.00058  -0.00195  -0.00893
  39        5PZ        -0.00027  -0.00000   0.00002  -0.00029   0.00039
  40        6D 0       -0.00007   0.00014   0.00104  -0.00032  -0.01111
  41        6D+1       -0.00000   0.00002   0.00018  -0.00003  -0.00159
  42        6D-1       -0.00001   0.00000  -0.00001  -0.00006  -0.00080
  43        6D+2       -0.00010  -0.00004  -0.00065  -0.00002   0.00355
  44        6D-2        0.00015  -0.00007   0.00008   0.00083   0.01214
  45 3   C  1S          0.00001   0.00001   0.39808   0.39819  -0.03415
  46        2S         -0.00005  -0.00004   0.32757   0.32764  -0.05256
  47        2PX         0.00007   0.00003   0.00009   0.00075   0.01464
  48        2PY         0.00011   0.00013   0.00085   0.00045   0.02245
  49        2PZ        -0.00000  -0.00000  -0.00000  -0.00005  -0.00094
  50        3S         -0.00003   0.00017   0.01322   0.01309   0.13519
  51        3PX         0.00009   0.00034   0.00052  -0.00106   0.02162
  52        3PY        -0.00007  -0.00025  -0.00232  -0.00105   0.04332
  53        3PZ        -0.00001  -0.00003  -0.00005   0.00007  -0.00133
  54        4S          0.00529   0.00101  -0.00691  -0.01292   0.04674
  55        4PX        -0.00048   0.00053  -0.00048   0.00138   0.00200
  56        4PY         0.00188   0.00043  -0.00051  -0.00169   0.00156
  57        4PZ         0.00004  -0.00004   0.00003  -0.00011  -0.00010
  58        5S         -0.01800   0.00004  -0.00293  -0.02025   0.01839
  59        5PX         0.00347  -0.00069   0.00037   0.00385   0.00604
  60        5PY        -0.00277  -0.00096   0.00058  -0.00195   0.00893
  61        5PZ        -0.00027   0.00005  -0.00002  -0.00029  -0.00039
  62        6D 0        0.00010   0.00012   0.00104   0.00032  -0.01111
  63        6D+1        0.00000   0.00002   0.00018   0.00004  -0.00159
  64        6D-1        0.00001   0.00000  -0.00001   0.00006  -0.00081
  65        6D+2        0.00009  -0.00006  -0.00065   0.00002   0.00355
  66        6D-2       -0.00016  -0.00005   0.00008  -0.00083   0.01214
  67 4   H  1S          0.00000   0.00006  -0.00002  -0.00011   0.01353
  68        2S          0.00063  -0.00085  -0.00264   0.00153   0.02057
  69        3S         -0.00065  -0.00011   0.00282  -0.00256  -0.00476
  70        4PX        -0.00014  -0.00001  -0.00002   0.00011   0.00038
  71        4PY        -0.00019   0.00022   0.00089  -0.00069  -0.00401
  72        4PZ        -0.00003   0.00018   0.00153  -0.00113  -0.00497
  73 5   H  1S          0.00000   0.00006  -0.00002  -0.00011   0.01354
  74        2S          0.00063  -0.00085  -0.00264   0.00152   0.02056
  75        3S         -0.00065  -0.00011   0.00282  -0.00256  -0.00478
  76        4PX        -0.00014  -0.00004  -0.00024   0.00027   0.00110
  77        4PY        -0.00019   0.00022   0.00091  -0.00070  -0.00405
  78        4PZ         0.00005  -0.00018  -0.00151   0.00110   0.00482
  79 6   O  1S          0.42171   0.35514  -0.00002  -0.00002  -0.07766
  80        2S          0.35930   0.30260  -0.00005  -0.00005  -0.12424
  81        2PX         0.00021   0.00016  -0.00005  -0.00005   0.00419
  82        2PY        -0.00094  -0.00080  -0.00010  -0.00006  -0.03282
  83        2PZ        -0.00002  -0.00001   0.00000   0.00000  -0.00030
  84        3S          0.01040   0.00859   0.00048   0.00032   0.35961
  85        3PX         0.00004   0.00013  -0.00009  -0.00008   0.00482
  86        3PY        -0.00005  -0.00001   0.00009  -0.00007  -0.05273
  87        3PZ        -0.00000  -0.00001   0.00001   0.00001  -0.00035
  88        4S         -0.00741  -0.00540  -0.00120   0.00039   0.25974
  89        4PX         0.00113   0.00064  -0.00030  -0.00047  -0.00454
  90        4PY         0.00096   0.00048   0.00038  -0.00018  -0.02240
  91        4PZ        -0.00008  -0.00004   0.00002   0.00003   0.00030
  92        5S          0.00556   0.00429   0.00436   0.00686  -0.03151
  93        5PX         0.00057  -0.00037  -0.00101   0.00069   0.00557
  94        5PY        -0.00059  -0.00053  -0.00105  -0.00195   0.00717
  95        5PZ        -0.00004   0.00003   0.00007  -0.00005  -0.00038
  96        6D 0       -0.00008  -0.00008   0.00015   0.00008  -0.00643
  97        6D+1       -0.00002  -0.00002   0.00002   0.00001  -0.00086
  98        6D-1        0.00001   0.00001   0.00001   0.00000  -0.00007
  99        6D+2        0.00013   0.00012   0.00002  -0.00002   0.00141
 100        6D-2       -0.00013  -0.00012  -0.00012  -0.00006   0.00110
 101 7   H  1S          0.00001   0.00005  -0.00002   0.00011   0.01353
 102        2S         -0.00077  -0.00073  -0.00264  -0.00153   0.02057
 103        3S          0.00062  -0.00022   0.00282   0.00256  -0.00476
 104        4PX        -0.00014   0.00004   0.00002   0.00011  -0.00038
 105        4PY        -0.00022  -0.00019  -0.00089  -0.00069   0.00401
 106        4PZ        -0.00006  -0.00018  -0.00153  -0.00113   0.00497
 107 8   H  1S          0.00001   0.00005  -0.00002   0.00011   0.01354
 108        2S         -0.00076  -0.00073  -0.00264  -0.00152   0.02056
 109        3S          0.00062  -0.00022   0.00282   0.00256  -0.00478
 110        4PX        -0.00013   0.00006   0.00024   0.00027  -0.00110
 111        4PY        -0.00022  -0.00019  -0.00091  -0.00070   0.00405
 112        4PZ         0.00008   0.00017   0.00151   0.00110  -0.00482
 113 9   H  1S          0.00002  -0.00000  -0.00003   0.00000   0.06274
 114        2S         -0.00013  -0.00014   0.00073  -0.00011   0.05153
 115        3S          0.00173  -0.00110  -0.00064   0.00294   0.00158
 116        4PX         0.00041  -0.00059   0.00031  -0.00008   0.01619
 117        4PY        -0.00032   0.00032  -0.00002  -0.00000  -0.00445
 118        4PZ        -0.00003   0.00004  -0.00002   0.00001  -0.00112
 119 10  H  1S         -0.00002  -0.00000  -0.00003  -0.00000   0.06273
 120        2S          0.00010  -0.00016   0.00073   0.00011   0.05153
 121        3S         -0.00189  -0.00079  -0.00064  -0.00294   0.00158
 122        4PX         0.00050   0.00052  -0.00031  -0.00008  -0.01619
 123        4PY        -0.00037  -0.00026   0.00002  -0.00000   0.00445
 124        4PZ        -0.00003  -0.00004   0.00002   0.00001   0.00110
                           6         7         8         9        10
                           O         O         O         O         O
     Eigenvalues --    -1.02800  -0.74967  -0.61679  -0.54796  -0.49285
   1 1   O  1S          0.08069   0.02912  -0.01907  -0.00841   0.02232
   2        2S          0.12912   0.04695  -0.03084  -0.01376   0.03640
   3        2PX         0.00745   0.06498  -0.07106   0.14639  -0.13924
   4        2PY        -0.03345   0.00832  -0.04547  -0.00612   0.03726
   5        2PZ        -0.00056  -0.00450   0.00470  -0.01004   0.01152
   6        3S         -0.37380  -0.14044   0.09309   0.04309  -0.11232
   7        3PX         0.01040   0.09563  -0.10414   0.21175  -0.20067
   8        3PY        -0.05326   0.01224  -0.06652  -0.00684   0.05197
   9        3PZ        -0.00079  -0.00661   0.00688  -0.01451   0.01666
  10        4S         -0.27603  -0.11908   0.08058   0.05325  -0.14584
  11        4PX        -0.00349   0.04922  -0.05629   0.13992  -0.14016
  12        4PY        -0.02471   0.00643  -0.04943  -0.01031   0.03799
  13        4PZ         0.00021  -0.00342   0.00367  -0.00960   0.01194
  14        5S          0.03222  -0.01590   0.02864  -0.00807  -0.04037
  15        5PX         0.00154  -0.01192  -0.01286  -0.00165   0.00260
  16        5PY         0.00562   0.00111   0.00608  -0.00253  -0.00229
  17        5PZ        -0.00010   0.00086   0.00091   0.00010  -0.00019
  18        6D 0        0.00647   0.00041   0.00099   0.00124  -0.00274
  19        6D+1        0.00087   0.00020  -0.00041   0.00026  -0.00020
  20        6D-1        0.00001  -0.00054   0.00053  -0.00085   0.00099
  21        6D+2       -0.00136  -0.00208   0.00734  -0.00140  -0.00082
  22        6D-2       -0.00037   0.00781  -0.00812   0.01249  -0.01124
  23 2   C  1S          0.02302  -0.07299   0.06659   0.00539  -0.01587
  24        2S          0.03541  -0.11354   0.10444   0.00804  -0.02465
  25        2PX         0.02904   0.04526   0.04033  -0.02791  -0.00555
  26        2PY         0.02259  -0.00414  -0.03896  -0.09624   0.09163
  27        2PZ        -0.00198  -0.00330  -0.00318   0.00196   0.00425
  28        3S         -0.09301   0.30642  -0.28946  -0.01912   0.06399
  29        3PX         0.04975   0.06668   0.06763  -0.04348  -0.00589
  30        3PY         0.03871  -0.01846  -0.04793  -0.14705   0.13927
  31        3PZ        -0.00339  -0.00492  -0.00522   0.00305   0.00613
  32        4S          0.00605   0.18033  -0.17923  -0.01914   0.08916
  33        4PX         0.01826   0.01869   0.03300  -0.01144  -0.02927
  34        4PY        -0.00594  -0.00234  -0.03997  -0.07439   0.06183
  35        4PZ        -0.00135  -0.00137  -0.00262   0.00080   0.00524
  36        5S         -0.14527   0.01172  -0.11237  -0.00422   0.00962
  37        5PX        -0.02603   0.00957  -0.02550  -0.00128  -0.01746
  38        5PY         0.02068   0.01053   0.00699  -0.00449  -0.00854
  39        5PZ         0.00200  -0.00065   0.00189   0.00011   0.00142
  40        6D 0        0.00810  -0.00404  -0.00467  -0.01142   0.01483
  41        6D+1        0.00079  -0.00065  -0.00107  -0.00037   0.00140
  42        6D-1        0.00106   0.00067   0.00082  -0.00054   0.00106
  43        6D+2        0.00197   0.00113   0.00581  -0.01426   0.00686
  44        6D-2       -0.01578  -0.00898  -0.01094   0.00965  -0.01600
  45 3   C  1S         -0.02302  -0.07299  -0.06659  -0.00539  -0.01587
  46        2S         -0.03541  -0.11354  -0.10444  -0.00804  -0.02465
  47        2PX         0.02904  -0.04527   0.04033  -0.02791   0.00610
  48        2PY         0.02260   0.00414  -0.03896  -0.09624  -0.09164
  49        2PZ        -0.00199   0.00329  -0.00318   0.00200   0.00311
  50        3S          0.09302   0.30642   0.28946   0.01912   0.06399
  51        3PX         0.04975  -0.06669   0.06763  -0.04347   0.00670
  52        3PY         0.03871   0.01846  -0.04793  -0.14705  -0.13929
  53        3PZ        -0.00340   0.00492  -0.00523   0.00310   0.00476
  54        4S         -0.00605   0.18033   0.17923   0.01914   0.08917
  55        4PX         0.01826  -0.01869   0.03300  -0.01144   0.02975
  56        4PY        -0.00593   0.00234  -0.03997  -0.07438  -0.06184
  57        4PZ        -0.00134   0.00137  -0.00261   0.00083   0.00131
  58        5S          0.14527   0.01172   0.11237   0.00422   0.00976
  59        5PX        -0.02603  -0.00957  -0.02550  -0.00128   0.01746
  60        5PY         0.02068  -0.01052   0.00699  -0.00449   0.00856
  61        5PZ         0.00200   0.00064   0.00188   0.00011  -0.00087
  62        6D 0       -0.00810  -0.00404   0.00467   0.01141   0.01483
  63        6D+1       -0.00079  -0.00065   0.00107   0.00038   0.00137
  64        6D-1       -0.00107   0.00067  -0.00082   0.00055   0.00094
  65        6D+2       -0.00197   0.00113  -0.00581   0.01426   0.00685
  66        6D-2        0.01578  -0.00898   0.01094  -0.00965  -0.01601
  67 4   H  1S         -0.00798   0.04993  -0.07408  -0.04157   0.05849
  68        2S         -0.01579   0.05914  -0.09282  -0.05001   0.07119
  69        3S          0.00855  -0.00735  -0.00154  -0.00767   0.02231
  70        4PX         0.00098   0.00285   0.00086  -0.00223  -0.00075
  71        4PY         0.00326  -0.00631   0.00580  -0.00128   0.00023
  72        4PZ         0.00289  -0.00906   0.01118   0.00526  -0.00615
  73 5   H  1S         -0.00798   0.04992  -0.07403  -0.04204   0.05444
  74        2S         -0.01580   0.05913  -0.09277  -0.05061   0.06595
  75        3S          0.00855  -0.00733  -0.00156  -0.00775   0.02114
  76        4PX         0.00056   0.00413  -0.00076  -0.00298   0.00001
  77        4PY         0.00328  -0.00640   0.00591  -0.00118   0.00055
  78        4PZ        -0.00297   0.00848  -0.01113  -0.00492   0.00602
  79 6   O  1S         -0.08070   0.02912   0.01907   0.00841   0.02233
  80        2S         -0.12912   0.04695   0.03084   0.01376   0.03640
  81        2PX         0.00745  -0.06498  -0.07106   0.14640   0.13949
  82        2PY        -0.03345  -0.00832  -0.04547  -0.00612  -0.03728
  83        2PZ        -0.00053   0.00447   0.00467  -0.00996  -0.00756
  84        3S          0.37383  -0.14044  -0.09309  -0.04309  -0.11233
  85        3PX         0.01040  -0.09563  -0.10415   0.21175   0.20104
  86        3PY        -0.05327  -0.01224  -0.06652  -0.00684  -0.05201
  87        3PZ        -0.00074   0.00657   0.00684  -0.01440  -0.01083
  88        4S          0.27605  -0.11908  -0.08058  -0.05325  -0.14586
  89        4PX        -0.00349  -0.04922  -0.05629   0.13992   0.14046
  90        4PY        -0.02471  -0.00643  -0.04943  -0.01031  -0.03802
  91        4PZ         0.00023   0.00340   0.00365  -0.00953  -0.00730
  92        5S         -0.03222  -0.01590  -0.02864   0.00807  -0.04042
  93        5PX         0.00154   0.01192  -0.01286  -0.00165  -0.00262
  94        5PY         0.00562  -0.00111   0.00608  -0.00253   0.00229
  95        5PZ        -0.00011  -0.00086   0.00090   0.00011   0.00025
  96        6D 0       -0.00647   0.00041  -0.00099  -0.00124  -0.00272
  97        6D+1       -0.00086   0.00019   0.00040  -0.00025  -0.00036
  98        6D-1       -0.00002  -0.00054  -0.00053   0.00084   0.00056
  99        6D+2        0.00136  -0.00208  -0.00734   0.00140  -0.00084
 100        6D-2        0.00037   0.00781   0.00812  -0.01249  -0.01126
 101 7   H  1S          0.00797   0.04993   0.07408   0.04156   0.05406
 102        2S          0.01580   0.05914   0.09282   0.05000   0.06559
 103        3S         -0.00855  -0.00735   0.00154   0.00767   0.02115
 104        4PX         0.00099  -0.00285   0.00086  -0.00223   0.00086
 105        4PY         0.00326   0.00631   0.00580  -0.00128  -0.00063
 106        4PZ         0.00289   0.00906   0.01118   0.00526   0.00594
 107 8   H  1S          0.00799   0.04992   0.07403   0.04205   0.05885
 108        2S          0.01580   0.05913   0.09276   0.05061   0.07153
 109        3S         -0.00855  -0.00733   0.00156   0.00774   0.02230
 110        4PX         0.00056  -0.00413  -0.00076  -0.00298  -0.00014
 111        4PY         0.00328   0.00640   0.00590  -0.00118  -0.00015
 112        4PZ        -0.00297  -0.00849  -0.01113  -0.00492  -0.00621
 113 9   H  1S         -0.06717  -0.06099   0.05271  -0.09736   0.09355
 114        2S         -0.05303  -0.06034   0.06703  -0.11894   0.12757
 115        3S         -0.00448  -0.01169  -0.00618  -0.03515   0.04559
 116        4PX        -0.01650  -0.01029   0.00684  -0.01321   0.01347
 117        4PY         0.00500   0.00663  -0.01017   0.00698  -0.00360
 118        4PZ         0.00114   0.00071  -0.00049   0.00092  -0.00075
 119 10  H  1S          0.06717  -0.06099  -0.05271   0.09736   0.09354
 120        2S          0.05303  -0.06034  -0.06702   0.11894   0.12755
 121        3S          0.00448  -0.01169   0.00618   0.03515   0.04562
 122        4PX        -0.01650   0.01029   0.00684  -0.01322  -0.01345
 123        4PY         0.00500  -0.00663  -0.01017   0.00698   0.00359
 124        4PZ         0.00113  -0.00070  -0.00048   0.00091   0.00111
                          11        12        13        14        15
                           O         O         O         O         O
     Eigenvalues --    -0.49185  -0.42828  -0.40790  -0.37401  -0.34049
   1 1   O  1S         -0.00065   0.01042  -0.00008   0.02512   0.01792
   2        2S         -0.00105   0.01684  -0.00012   0.04095   0.02914
   3        2PX         0.00835   0.06977   0.00776  -0.02867  -0.04966
   4        2PY        -0.00150   0.13510  -0.00120   0.17955   0.11889
   5        2PZ         0.07345  -0.00374   0.11845   0.00243   0.00378
   6        3S          0.00325  -0.04799   0.00034  -0.12343  -0.08555
   7        3PX         0.01219   0.10194   0.01140  -0.04020  -0.06830
   8        3PY        -0.00213   0.19784  -0.00175   0.25813   0.17081
   9        3PZ         0.10817  -0.00546   0.17401   0.00343   0.00522
  10        4S          0.00413  -0.07079   0.00066  -0.17437  -0.15406
  11        4PX         0.00935   0.06524   0.00961  -0.02972  -0.05775
  12        4PY        -0.00159   0.15311  -0.00134   0.21842   0.13898
  13        4PZ         0.08664  -0.00319   0.14575   0.00261   0.00445
  14        5S          0.00182  -0.07249   0.00072  -0.06052  -0.08114
  15        5PX        -0.00031   0.04126   0.00071   0.00314  -0.00667
  16        5PY         0.00021   0.00231   0.00001   0.03954   0.02801
  17        5PZ         0.00125  -0.00279   0.01502  -0.00012   0.00051
  18        6D 0       -0.00030  -0.00350  -0.00013  -0.00690  -0.00526
  19        6D+1        0.00335   0.00055   0.00161  -0.00034  -0.00075
  20        6D-1        0.00785  -0.00026   0.01046   0.00029   0.00025
  21        6D+2        0.00032  -0.01362   0.00021  -0.00705   0.00151
  22        6D-2        0.00080   0.00526   0.00069  -0.00348  -0.00327
  23 2   C  1S          0.00044   0.00315  -0.00001   0.00589  -0.01329
  24        2S          0.00068   0.00434  -0.00002   0.00904  -0.02153
  25        2PX         0.01045  -0.14658   0.00938  -0.04193   0.09129
  26        2PY        -0.00271   0.00170  -0.00000  -0.06664  -0.11179
  27        2PZ         0.13916   0.01109   0.12577   0.00297  -0.00641
  28        3S         -0.00175  -0.01108  -0.00000  -0.02192   0.07093
  29        3PX         0.01545  -0.21926   0.01370  -0.07184   0.13384
  30        3PY        -0.00409  -0.00322   0.00005  -0.10143  -0.16524
  31        3PZ         0.20610   0.01654   0.18370   0.00506  -0.00946
  32        4S         -0.00267   0.00428   0.00009  -0.08183   0.06007
  33        4PX         0.00983  -0.14493   0.01201  -0.06350   0.06807
  34        4PY        -0.00192  -0.00089  -0.00004  -0.03253  -0.13109
  35        4PZ         0.12419   0.01089   0.15928   0.00470  -0.00493
  36        5S         -0.00302   0.00297   0.00025  -0.12793  -0.00941
  37        5PX         0.00050  -0.02500   0.00232  -0.03146  -0.01049
  38        5PY         0.00054  -0.01223  -0.00002   0.01522  -0.01725
  39        5PZ         0.01027   0.00186   0.02922   0.00238   0.00074
  40        6D 0       -0.00042  -0.00465   0.00285  -0.01176  -0.01479
  41        6D+1        0.00070  -0.00078  -0.02083  -0.00233  -0.00362
  42        6D-1        0.00250  -0.00185   0.01133  -0.00046   0.00029
  43        6D+2       -0.00006   0.00345  -0.00151   0.01309   0.02308
  44        6D-2        0.00056   0.02595   0.00077   0.00748  -0.00141
  45 3   C  1S          0.00040   0.00315  -0.00001  -0.00589  -0.01329
  46        2S          0.00062   0.00434  -0.00001  -0.00904  -0.02153
  47        2PX         0.01012   0.14658  -0.00944  -0.04191  -0.09130
  48        2PY         0.00217  -0.00170  -0.00011  -0.06664   0.11179
  49        2PZ         0.13919  -0.01106  -0.12577   0.00315   0.00631
  50        3S         -0.00161  -0.01108  -0.00001   0.02192   0.07094
  51        3PX         0.01507   0.21926  -0.01381  -0.07182  -0.13385
  52        3PY         0.00334   0.00322  -0.00023  -0.10143   0.16524
  53        3PZ         0.20614  -0.01650  -0.18369   0.00531   0.00931
  54        4S         -0.00203   0.00428   0.00006   0.08183   0.06007
  55        4PX         0.00827   0.14493  -0.01206  -0.06349  -0.06808
  56        4PY         0.00141   0.00089  -0.00005  -0.03253   0.13109
  57        4PZ         0.12429  -0.01085  -0.15928   0.00487   0.00483
  58        5S          0.00250   0.00296  -0.00017   0.12793  -0.00941
  59        5PX        -0.00041   0.02500  -0.00221  -0.03146   0.01049
  60        5PY         0.00010   0.01223  -0.00004   0.01522   0.01725
  61        5PZ         0.01033  -0.00186  -0.02923   0.00240  -0.00075
  62        6D 0       -0.00036  -0.00465   0.00286   0.01176  -0.01480
  63        6D+1       -0.00077  -0.00078  -0.02083   0.00235  -0.00360
  64        6D-1       -0.00255  -0.00186   0.01133   0.00044   0.00031
  65        6D+2       -0.00030   0.00345  -0.00151  -0.01309   0.02308
  66        6D-2        0.00029   0.02595   0.00076  -0.00748  -0.00141
  67 4   H  1S          0.08253   0.00753   0.08594  -0.03745  -0.05768
  68        2S          0.10460   0.01201   0.10664  -0.05290  -0.08679
  69        3S          0.02163   0.00356   0.03749  -0.02583  -0.04457
  70        4PX         0.00204  -0.00659   0.00022  -0.00048   0.00490
  71        4PY        -0.00764  -0.00066  -0.00556  -0.00149  -0.00298
  72        4PZ        -0.00380  -0.00219  -0.00258   0.00386   0.00510
  73 5   H  1S         -0.08524   0.00698  -0.08530  -0.03782  -0.05895
  74        2S         -0.10785   0.01126  -0.10591  -0.05345  -0.08881
  75        3S         -0.02269   0.00326  -0.03724  -0.02600  -0.04583
  76        4PX        -0.00254  -0.00621  -0.00057  -0.00104   0.00408
  77        4PY         0.00768  -0.00063   0.00561  -0.00141  -0.00283
  78        4PZ        -0.00368   0.00309  -0.00243  -0.00378  -0.00583
  79 6   O  1S         -0.00053   0.01042  -0.00012  -0.02512   0.01792
  80        2S         -0.00086   0.01684  -0.00019  -0.04095   0.02914
  81        2PX         0.00098  -0.06977  -0.00772  -0.02867   0.04967
  82        2PY         0.00050  -0.13510   0.00134   0.17955  -0.11889
  83        2PZ         0.07395   0.00374  -0.11845   0.00244  -0.00355
  84        3S          0.00265  -0.04799   0.00054   0.12343  -0.08555
  85        3PX         0.00157  -0.10194  -0.01134  -0.04019   0.06832
  86        3PY         0.00066  -0.19784   0.00195   0.25813  -0.17081
  87        3PZ         0.10889   0.00547  -0.17401   0.00345  -0.00489
  88        4S          0.00353  -0.07079   0.00094   0.17437  -0.15406
  89        4PX         0.00192  -0.06524  -0.00956  -0.02972   0.05777
  90        4PY         0.00046  -0.15311   0.00149   0.21842  -0.13898
  91        4PZ         0.08715   0.00320  -0.14576   0.00264  -0.00417
  92        5S          0.00025  -0.07249   0.00091   0.06052  -0.08114
  93        5PX        -0.00022  -0.04126  -0.00065   0.00314   0.00667
  94        5PY         0.00012  -0.00232  -0.00001   0.03954  -0.02801
  95        5PZ         0.00124   0.00276  -0.01502  -0.00012  -0.00045
  96        6D 0        0.00045  -0.00350  -0.00013   0.00690  -0.00526
  97        6D+1       -0.00333   0.00055   0.00161   0.00034  -0.00074
  98        6D-1       -0.00789  -0.00027   0.01046  -0.00028   0.00024
  99        6D+2       -0.00027  -0.01362   0.00021   0.00705   0.00151
 100        6D-2       -0.00021   0.00526   0.00069   0.00348  -0.00327
 101 7   H  1S         -0.08551   0.00750   0.08598   0.03733  -0.05761
 102        2S         -0.10822   0.01198   0.10670   0.05272  -0.08669
 103        3S         -0.02278   0.00355   0.03751   0.02574  -0.04452
 104        4PX         0.00200   0.00659  -0.00022  -0.00047  -0.00490
 105        4PY        -0.00762   0.00066   0.00555  -0.00149   0.00299
 106        4PZ        -0.00412   0.00219   0.00258   0.00385  -0.00510
 107 8   H  1S          0.08224   0.00700  -0.08527   0.03794  -0.05902
 108        2S          0.10421   0.01129  -0.10585   0.05363  -0.08891
 109        3S          0.02154   0.00327  -0.03722   0.02609  -0.04589
 110        4PX        -0.00253   0.00621   0.00057  -0.00105  -0.00408
 111        4PY         0.00770   0.00063  -0.00561  -0.00140   0.00283
 112        4PZ        -0.00336  -0.00310   0.00243  -0.00378   0.00583
 113 9   H  1S         -0.00225  -0.02498   0.00005   0.05700   0.06382
 114        2S         -0.00303  -0.03782  -0.00001   0.08511   0.10520
 115        3S         -0.00170   0.02324  -0.00031   0.04518   0.05551
 116        4PX         0.00014   0.00396   0.00082   0.01422   0.01257
 117        4PY         0.00001   0.01682  -0.00013   0.01230   0.00321
 118        4PZ         0.00708  -0.00016   0.01293  -0.00093  -0.00082
 119 10  H  1S         -0.00266  -0.02498  -0.00002  -0.05700   0.06382
 120        2S         -0.00368  -0.03782  -0.00012  -0.08511   0.10520
 121        3S         -0.00064   0.02324  -0.00044  -0.04518   0.05551
 122        4PX         0.00084  -0.00396  -0.00079   0.01422  -0.01257
 123        4PY        -0.00018  -0.01682   0.00014   0.01230  -0.00321
 124        4PZ         0.00703   0.00017  -0.01293  -0.00091   0.00083
                          16        17        18        19        20
                           O         O         V         V         V
     Eigenvalues --    -0.29084  -0.29037   0.00165   0.00699   0.03314
   1 1   O  1S         -0.00004  -0.00003  -0.02724   0.01500   0.01105
   2        2S         -0.00007  -0.00004  -0.04517   0.02513   0.01851
   3        2PX         0.01401  -0.01167  -0.02076   0.04026  -0.01977
   4        2PY        -0.00041   0.00029   0.04120   0.00419   0.00573
   5        2PZ         0.20119  -0.17208   0.00150  -0.00277   0.00147
   6        3S          0.00021   0.00012   0.15119  -0.09004  -0.06581
   7        3PX         0.02027  -0.01692  -0.03018   0.05782  -0.03043
   8        3PY        -0.00059   0.00042   0.06245   0.00244   0.01290
   9        3PZ         0.29126  -0.24913   0.00218  -0.00399   0.00229
  10        4S          0.00033   0.00037   0.29178  -0.11285  -0.07362
  11        4PX         0.01979  -0.01628  -0.04418   0.07251  -0.03171
  12        4PY        -0.00055   0.00048   0.10497  -0.00066  -0.02829
  13        4PZ         0.28381  -0.23984   0.00325  -0.00492   0.00219
  14        5S          0.00141   0.00060   0.89353  -1.05724  -0.54615
  15        5PX         0.00562  -0.00551   0.14967  -0.08753  -0.31853
  16        5PY         0.00011   0.00029   0.20494  -0.21263   0.02435
  17        5PZ         0.08796  -0.07807  -0.01004   0.00560   0.02279
  18        6D 0        0.00049  -0.00035   0.00060   0.00143  -0.00065
  19        6D+1       -0.00385   0.00294   0.00028   0.00005   0.00009
  20        6D-1        0.00826  -0.00540   0.00008   0.00001  -0.00007
  21        6D+2       -0.00027   0.00018  -0.00290   0.00180  -0.00232
  22        6D-2        0.00058  -0.00037  -0.00120  -0.00033   0.00126
  23 2   C  1S          0.00009   0.00009  -0.00042   0.01686  -0.02374
  24        2S          0.00014   0.00014  -0.00131   0.02862  -0.03896
  25        2PX        -0.00452   0.00525   0.03642   0.00489  -0.01229
  26        2PY         0.00032   0.00002   0.03800  -0.05380   0.02213
  27        2PZ        -0.06015   0.08081  -0.00255  -0.00057   0.00100
  28        3S         -0.00034  -0.00042   0.02304  -0.10995   0.11904
  29        3PX        -0.00623   0.00703   0.04170   0.01378  -0.01824
  30        3PY         0.00045   0.00005   0.05020  -0.07518   0.04711
  31        3PZ        -0.08264   0.10931  -0.00293  -0.00126   0.00154
  32        4S         -0.00136  -0.00070  -0.13533  -0.04375   0.37351
  33        4PX        -0.00578   0.00320   0.21253  -0.06271  -0.10263
  34        4PY         0.00060   0.00038   0.18673  -0.18936  -0.01278
  35        4PZ        -0.07204   0.05097  -0.01487   0.00367   0.00749
  36        5S         -0.00759  -0.00010   1.50034   1.48609   2.70571
  37        5PX        -0.00248  -0.00004   1.15855  -0.49970   0.82254
  38        5PY         0.00102   0.00022  -0.08140  -0.27762  -1.20689
  39        5PZ        -0.00781  -0.00207  -0.08398   0.03355  -0.06574
  40        6D 0        0.00190  -0.00026  -0.00388   0.00322   0.01055
  41        6D+1       -0.01678   0.00457  -0.00070   0.00040   0.00105
  42        6D-1       -0.02083   0.03083  -0.00169  -0.00014  -0.00022
  43        6D+2       -0.00123   0.00033   0.00440   0.00006   0.00403
  44        6D-2       -0.00140   0.00228   0.02368   0.00147   0.00154
  45 3   C  1S         -0.00007   0.00007   0.00042   0.01686   0.02374
  46        2S         -0.00011   0.00012   0.00131   0.02862   0.03896
  47        2PX        -0.00439  -0.00527   0.03642  -0.00490  -0.01229
  48        2PY         0.00021  -0.00003   0.03801   0.05380   0.02213
  49        2PZ        -0.06015  -0.08081  -0.00257   0.00053   0.00100
  50        3S          0.00026  -0.00037  -0.02305  -0.10995  -0.11904
  51        3PX        -0.00605  -0.00707   0.04170  -0.01379  -0.01824
  52        3PY         0.00030  -0.00008   0.05021   0.07517   0.04711
  53        3PZ        -0.08265  -0.10931  -0.00297   0.00121   0.00154
  54        4S          0.00127  -0.00057   0.13533  -0.04376  -0.37351
  55        4PX        -0.00564  -0.00328   0.21252   0.06269  -0.10263
  56        4PY         0.00049  -0.00035   0.18674   0.18935  -0.01278
  57        4PZ        -0.07205  -0.05097  -0.01498  -0.00377   0.00755
  58        5S          0.00760   0.00017  -1.50024   1.48623  -2.70571
  59        5PX        -0.00246  -0.00003   1.15860   0.49962   0.82254
  60        5PY         0.00102  -0.00018  -0.08137   0.27763  -1.20689
  61        5PZ        -0.00781   0.00208  -0.08383  -0.03339  -0.06566
  62        6D 0       -0.00190  -0.00027   0.00388   0.00321  -0.01055
  63        6D+1        0.01678   0.00457   0.00070   0.00040  -0.00105
  64        6D-1        0.02083   0.03083   0.00169  -0.00015   0.00022
  65        6D+2        0.00119   0.00031  -0.00440   0.00006  -0.00403
  66        6D-2        0.00142   0.00228  -0.02368   0.00147  -0.00154
  67 4   H  1S         -0.05304   0.07784  -0.00304  -0.01219   0.00475
  68        2S         -0.08012   0.14041  -0.01850   0.03708  -0.05498
  69        3S         -0.05401   0.10971  -0.03803  -0.22878   0.16272
  70        4PX         0.00011   0.00243   0.01041  -0.00019   0.00126
  71        4PY         0.00344  -0.00554   0.00028   0.00268  -0.00829
  72        4PZ         0.00154  -0.00281  -0.00512   0.01161  -0.00324
  73 5   H  1S          0.05282  -0.07738  -0.00310  -0.01221   0.00475
  74        2S          0.07998  -0.13959  -0.01892   0.03717  -0.05491
  75        3S          0.05389  -0.10933  -0.03805  -0.22920   0.16272
  76        4PX         0.00013  -0.00285   0.01108  -0.00187   0.00171
  77        4PY        -0.00346   0.00559   0.00024   0.00280  -0.00833
  78        4PZ         0.00151  -0.00231   0.00357  -0.01144   0.00294
  79 6   O  1S          0.00004  -0.00002   0.02724   0.01499  -0.01105
  80        2S          0.00006  -0.00004   0.04517   0.02513  -0.01851
  81        2PX         0.01385   0.01158  -0.02077  -0.04026  -0.01977
  82        2PY        -0.00024  -0.00016   0.04120  -0.00419   0.00573
  83        2PZ         0.20119   0.17210   0.00145   0.00274   0.00148
  84        3S         -0.00019   0.00010  -0.15119  -0.09003   0.06581
  85        3PX         0.02004   0.01679  -0.03019  -0.05782  -0.03043
  86        3PY        -0.00034  -0.00023   0.06245  -0.00245   0.01290
  87        3PZ         0.29126   0.24916   0.00211   0.00395   0.00231
  88        4S         -0.00029   0.00035  -0.29179  -0.11283   0.07362
  89        4PX         0.01957   0.01616  -0.04420  -0.07251  -0.03171
  90        4PY        -0.00031  -0.00030   0.10497   0.00066  -0.02829
  91        4PZ         0.28381   0.23987   0.00313   0.00486   0.00220
  92        5S         -0.00148   0.00063  -0.89360  -1.05719   0.54615
  93        5PX         0.00550   0.00548   0.14966   0.08750  -0.31852
  94        5PY         0.00023  -0.00025   0.20496   0.21261   0.02435
  95        5PZ         0.08796   0.07808  -0.01015  -0.00572   0.02279
  96        6D 0       -0.00047  -0.00034  -0.00060   0.00143   0.00064
  97        6D+1        0.00385   0.00294  -0.00028   0.00005  -0.00009
  98        6D-1       -0.00826  -0.00540  -0.00007   0.00001   0.00007
  99        6D+2        0.00028   0.00018   0.00290   0.00180   0.00232
 100        6D-2       -0.00057  -0.00036   0.00120  -0.00033  -0.00126
 101 7   H  1S          0.05308   0.07786   0.00304  -0.01219  -0.00475
 102        2S          0.08020   0.14044   0.01850   0.03703   0.05499
 103        3S          0.05408   0.10974   0.03808  -0.22875  -0.16271
 104        4PX         0.00012  -0.00243   0.01041   0.00019   0.00126
 105        4PY         0.00344   0.00554   0.00028  -0.00268  -0.00829
 106        4PZ         0.00155   0.00281  -0.00512  -0.01161  -0.00324
 107 8   H  1S         -0.05277  -0.07737   0.00309  -0.01220  -0.00474
 108        2S         -0.07987  -0.13958   0.01893   0.03722   0.05490
 109        3S         -0.05381  -0.10932   0.03798  -0.22924  -0.16273
 110        4PX         0.00014   0.00285   0.01108   0.00188   0.00171
 111        4PY        -0.00346  -0.00559   0.00024  -0.00280  -0.00833
 112        4PZ         0.00150   0.00231   0.00357   0.01145   0.00294
 113 9   H  1S         -0.00017  -0.00011  -0.02383   0.01311   0.00301
 114        2S         -0.00020  -0.00030  -0.11163   0.07984   0.01234
 115        3S         -0.00118  -0.00045  -0.24638   0.21859  -0.11940
 116        4PX         0.00147  -0.00124   0.01662  -0.01348  -0.00029
 117        4PY        -0.00002   0.00003  -0.00627   0.00924  -0.00242
 118        4PZ         0.02167  -0.01760  -0.00116   0.00092   0.00001
 119 10  H  1S          0.00015  -0.00009   0.02383   0.01311  -0.00301
 120        2S          0.00016  -0.00028   0.11164   0.07983  -0.01234
 121        3S          0.00125  -0.00048   0.24640   0.21859   0.11940
 122        4PX         0.00146   0.00123   0.01662   0.01348  -0.00029
 123        4PY        -0.00000  -0.00001  -0.00627  -0.00924  -0.00242
 124        4PZ         0.02167   0.01760  -0.00115  -0.00090   0.00001
                          21        22        23        24        25
                           V         V         V         V         V
     Eigenvalues --     0.04201   0.06007   0.07358   0.07868   0.12713
   1 1   O  1S          0.00003   0.00979   0.00739  -0.00001   0.00610
   2        2S          0.00004   0.01618   0.01257  -0.00002   0.01068
   3        2PX        -0.00146   0.04619  -0.01171   0.00075  -0.02830
   4        2PY         0.00008  -0.05324  -0.00283   0.00014   0.01601
   5        2PZ        -0.01944  -0.00346   0.00079   0.01157   0.00209
   6        3S         -0.00011  -0.05363  -0.05018   0.00011  -0.04937
   7        3PX        -0.00263   0.06926  -0.01688   0.00173  -0.03724
   8        3PY         0.00014  -0.08304   0.00019   0.00020   0.02313
   9        3PZ        -0.03528  -0.00521   0.00115   0.02588   0.00276
  10        4S         -0.00061  -0.11632  -0.01847  -0.00012   0.06056
  11        4PX         0.00009   0.05906  -0.05060  -0.00130  -0.11855
  12        4PY        -0.00013  -0.08076  -0.02612   0.00011   0.03277
  13        4PZ        -0.00137  -0.00447   0.00348  -0.01913   0.00848
  14        5S          0.00690  -0.87981  -0.82425  -0.00012  -2.08124
  15        5PX        -0.01311   0.66689  -0.42296   0.01500  -0.15763
  16        5PY         0.00251  -0.50884   0.01072   0.00066  -0.43632
  17        5PZ        -0.12843  -0.04799   0.02917   0.24058   0.01006
  18        6D 0        0.00028  -0.00266   0.00270  -0.00042   0.00165
  19        6D+1       -0.00237  -0.00043   0.00047   0.00356   0.00009
  20        6D-1       -0.00370  -0.00022  -0.00030   0.00170  -0.00019
  21        6D+2       -0.00021   0.00193  -0.00179   0.00026   0.00188
  22        6D-2       -0.00024   0.00335   0.00387   0.00009   0.00218
  23 2   C  1S          0.00001  -0.01853  -0.00184   0.00009   0.01095
  24        2S          0.00001  -0.03022  -0.00310   0.00015   0.01863
  25        2PX        -0.00524  -0.02535  -0.03638   0.00434  -0.00692
  26        2PY         0.00033   0.01569  -0.00283  -0.00031  -0.05736
  27        2PZ        -0.07116   0.00221   0.00245   0.06018   0.00022
  28        3S          0.00005   0.08757   0.00741  -0.00040  -0.06658
  29        3PX        -0.00930  -0.03837  -0.05582   0.00844   0.00292
  30        3PY         0.00063   0.02868   0.00662  -0.00060  -0.08454
  31        3PZ        -0.12628   0.00351   0.00374   0.11587  -0.00060
  32        4S         -0.00127   0.43124   0.00538  -0.00253   0.05323
  33        4PX        -0.01588  -0.11056  -0.13456   0.00844  -0.07395
  34        4PY         0.00087   0.02524  -0.17339  -0.00124  -0.31890
  35        4PZ        -0.20856   0.00834   0.00879   0.12136   0.00368
  36        5S         -0.04192  -0.59744   0.48278   0.00005  35.84510
  37        5PX         0.04437  -1.69728   0.16297  -0.17163   9.07431
  38        5PY         0.00089  -0.94241  -2.03982   0.01175  -4.68846
  39        5PZ         0.78738   0.10933  -0.01580  -2.50448  -0.68324
  40        6D 0        0.00016  -0.00461   0.02111   0.00077   0.00594
  41        6D+1       -0.00142  -0.00034   0.00248  -0.00527   0.00112
  42        6D-1       -0.00248   0.00067  -0.00029   0.00459   0.00015
  43        6D+2       -0.00010  -0.00438   0.00300  -0.00037  -0.00524
  44        6D-2       -0.00019  -0.00824   0.00127   0.00044  -0.00262
  45 3   C  1S         -0.00002  -0.01853  -0.00184   0.00009  -0.01095
  46        2S         -0.00002  -0.03022  -0.00310   0.00015  -0.01863
  47        2PX        -0.00524   0.02535   0.03638  -0.00437  -0.00692
  48        2PY         0.00029  -0.01569   0.00283   0.00029  -0.05736
  49        2PZ        -0.07116  -0.00218  -0.00247  -0.06017   0.00021
  50        3S         -0.00000   0.08757   0.00741  -0.00040   0.06658
  51        3PX        -0.00930   0.03837   0.05581  -0.00848   0.00292
  52        3PY         0.00057  -0.02868  -0.00662   0.00057  -0.08454
  53        3PZ        -0.12628  -0.00346  -0.00377  -0.11587  -0.00060
  54        4S          0.00144   0.43124   0.00539  -0.00246  -0.05322
  55        4PX        -0.01574   0.11057   0.13455  -0.00862  -0.07395
  56        4PY         0.00088  -0.02524   0.17339   0.00112  -0.31890
  57        4PZ        -0.20857  -0.00822  -0.00891  -0.12135   0.00369
  58        5S          0.04106  -0.59768   0.48288   0.00237 -35.84509
  59        5PX         0.04505   1.69731  -0.16301   0.17065   9.07430
  60        5PY         0.00142   0.94238   2.03983  -0.01142  -4.68845
  61        5PZ         0.78734  -0.10971   0.01571   2.50455  -0.68345
  62        6D 0       -0.00017  -0.00461   0.02111   0.00076  -0.00594
  63        6D+1        0.00142  -0.00033   0.00248  -0.00527  -0.00112
  64        6D-1        0.00248   0.00066  -0.00028   0.00459  -0.00016
  65        6D+2        0.00009  -0.00438   0.00300  -0.00037   0.00524
  66        6D-2        0.00019  -0.00824   0.00127   0.00044   0.00262
  67 4   H  1S         -0.00455  -0.00222   0.01340   0.01473   0.00731
  68        2S          0.09520  -0.08039   0.02396  -0.05890   0.11955
  69        3S         -0.20910   0.38098   0.11132   0.37577  -0.53473
  70        4PX        -0.00126  -0.00746   0.00261   0.00442   0.00009
  71        4PY         0.00160  -0.00367  -0.00966  -0.00379   0.00167
  72        4PZ         0.00532  -0.00673   0.00731  -0.00489   0.01000
  73 5   H  1S          0.00454  -0.00237   0.01347  -0.01458   0.00732
  74        2S         -0.09500  -0.07981   0.02365   0.05984   0.11950
  75        3S          0.20979   0.37670   0.11350  -0.37721  -0.53448
  76        4PX         0.00199  -0.00646   0.00155  -0.00496  -0.00136
  77        4PY        -0.00165  -0.00370  -0.00962   0.00384   0.00177
  78        4PZ         0.00509   0.00765  -0.00768  -0.00424  -0.00990
  79 6   O  1S         -0.00003   0.00979   0.00739  -0.00002  -0.00610
  80        2S         -0.00005   0.01618   0.01257  -0.00003  -0.01068
  81        2PX        -0.00148  -0.04619   0.01171  -0.00079  -0.02830
  82        2PY         0.00010   0.05324   0.00283  -0.00013   0.01601
  83        2PZ        -0.01944   0.00344  -0.00078  -0.01157   0.00212
  84        3S          0.00013  -0.05363  -0.05018   0.00014   0.04937
  85        3PX        -0.00267  -0.06926   0.01688  -0.00179  -0.03723
  86        3PY         0.00017   0.08304  -0.00019  -0.00020   0.02312
  87        3PZ        -0.03527   0.00517  -0.00113  -0.02588   0.00280
  88        4S          0.00057  -0.11632  -0.01847  -0.00013  -0.06056
  89        4PX         0.00011  -0.05906   0.05061   0.00118  -0.11854
  90        4PY        -0.00006   0.08076   0.02612  -0.00009   0.03277
  91        4PZ        -0.00138   0.00440  -0.00344   0.01914   0.00854
  92        5S         -0.00777  -0.87976  -0.82426  -0.00054   2.08121
  93        5PX        -0.01399  -0.66691   0.42297  -0.01556  -0.15764
  94        5PY         0.00290   0.50883  -0.01072  -0.00058  -0.43631
  95        5PZ        -0.12837   0.04754  -0.02902  -0.24054   0.01007
  96        6D 0       -0.00029  -0.00266   0.00270  -0.00042  -0.00165
  97        6D+1        0.00237  -0.00043   0.00047   0.00356  -0.00009
  98        6D-1        0.00370  -0.00022  -0.00030   0.00170   0.00019
  99        6D+2        0.00021   0.00193  -0.00179   0.00027  -0.00188
 100        6D-2        0.00024   0.00335   0.00387   0.00009  -0.00218
 101 7   H  1S          0.00456  -0.00223   0.01340   0.01473  -0.00732
 102        2S         -0.09523  -0.08036   0.02393  -0.05893  -0.11952
 103        3S          0.20943   0.38082   0.11135   0.37577   0.53445
 104        4PX        -0.00126   0.00746  -0.00261  -0.00442   0.00009
 105        4PY         0.00160   0.00368   0.00966   0.00379   0.00167
 106        4PZ         0.00533   0.00672  -0.00731   0.00489   0.01001
 107 8   H  1S         -0.00453  -0.00236   0.01347  -0.01458  -0.00731
 108        2S          0.09497  -0.07984   0.02368   0.05981  -0.11952
 109        3S         -0.20946   0.37687   0.11346  -0.37721   0.53476
 110        4PX         0.00199   0.00646  -0.00155   0.00496  -0.00136
 111        4PY        -0.00165   0.00370   0.00962  -0.00384   0.00176
 112        4PZ         0.00508  -0.00765   0.00768   0.00424  -0.00990
 113 9   H  1S         -0.00007   0.00978  -0.01287   0.00010  -0.01011
 114        2S          0.00046   0.02098  -0.03019   0.00053  -0.07386
 115        3S         -0.00789   1.08422  -0.33562  -0.00187   0.16931
 116        4PX         0.00022  -0.02133  -0.00628  -0.00053  -0.00356
 117        4PY        -0.00004   0.00530  -0.00497   0.00002  -0.00710
 118        4PZ         0.00241   0.00145   0.00036  -0.00858   0.00010
 119 10  H  1S          0.00008   0.00978  -0.01287   0.00013   0.01011
 120        2S         -0.00048   0.02098  -0.03019   0.00062   0.07386
 121        3S          0.00929   1.08419  -0.33561  -0.00072  -0.16929
 122        4PX         0.00023   0.02133   0.00628   0.00053  -0.00356
 123        4PY        -0.00004  -0.00530   0.00497  -0.00002  -0.00710
 124        4PZ         0.00241  -0.00144  -0.00034   0.00858   0.00008
                          26        27        28        29        30
                           V         V         V         V         V
     Eigenvalues --     0.13329   0.15332   0.15438   0.16123   0.17732
   1 1   O  1S          0.01347   0.02647  -0.00750  -0.00002   0.00035
   2        2S          0.02217   0.04310  -0.01232  -0.00003   0.00057
   3        2PX         0.01134  -0.00750   0.09690  -0.00699   0.00489
   4        2PY         0.04062  -0.08811   0.03551   0.00064   0.00029
   5        2PZ        -0.00055   0.00039  -0.00661  -0.09864   0.03324
   6        3S         -0.06846  -0.12264   0.03831   0.00004  -0.00179
   7        3PX         0.00299  -0.01342   0.12599  -0.00788   0.00617
   8        3PY         0.03750  -0.13005   0.05544   0.00077   0.00025
   9        3PZ         0.00007   0.00075  -0.00859  -0.11137   0.04066
  10        4S         -0.18075  -0.55537   0.15005   0.00078  -0.00557
  11        4PX         0.12566   0.01166   0.25927  -0.02442   0.01666
  12        4PY         0.14922  -0.20559   0.05038   0.00198   0.00223
  13        4PZ        -0.00809  -0.00124  -0.01770  -0.34053   0.11039
  14        5S         -0.30537  -0.10022  -1.26670  -0.00982  -0.01250
  15        5PX        -0.52208   0.60666  -0.74586   0.06050   0.03597
  16        5PY        -0.86231  -0.13914  -0.31479  -0.00756  -0.00567
  17        5PZ         0.03378  -0.04322   0.05159   0.78856   0.13676
  18        6D 0       -0.00550  -0.00631  -0.00016  -0.00059   0.00061
  19        6D+1       -0.00031  -0.00148  -0.00038   0.00444  -0.00608
  20        6D-1       -0.00030  -0.00021  -0.00035  -0.00412  -0.00080
  21        6D+2       -0.00511   0.01079   0.00542   0.00031  -0.00015
  22        6D-2        0.00508   0.00289   0.00433  -0.00035  -0.00035
  23 2   C  1S         -0.01836  -0.01797  -0.01055   0.00002   0.00077
  24        2S         -0.02821  -0.03042  -0.01567   0.00004   0.00123
  25        2PX        -0.03161  -0.05435   0.09440   0.00527  -0.00804
  26        2PY         0.01429  -0.06377  -0.00305  -0.00024   0.00070
  27        2PZ         0.00234   0.00395  -0.00688   0.07108  -0.11614
  28        3S          0.03908   0.12457  -0.00270  -0.00026  -0.00280
  29        3PX        -0.02173  -0.08463   0.15457   0.00617  -0.00759
  30        3PY         0.02070  -0.12038   0.02683  -0.00014   0.00088
  31        3PZ         0.00162   0.00581  -0.01115   0.08102  -0.12140
  32        4S          1.10194  -0.16597   1.19529   0.00220  -0.03206
  33        4PX        -0.17750  -0.25947   0.60914   0.02003  -0.05643
  34        4PY         0.28713  -0.17024  -0.36617  -0.00159   0.00937
  35        4PZ         0.01447   0.02112  -0.04562   0.27889  -0.85408
  36        5S          0.23281   4.17268   5.04965  -0.00431  -0.09445
  37        5PX         0.93396   2.33092   1.31857   0.00474  -0.04303
  38        5PY         0.74740  -0.33077  -0.68648  -0.00446   0.01431
  39        5PZ        -0.06238  -0.16644  -0.09798   0.15012  -0.93111
  40        6D 0       -0.00958   0.01003  -0.00532   0.00072   0.00377
  41        6D+1       -0.00110   0.00282   0.00006  -0.00735  -0.02708
  42        6D-1       -0.00024   0.00180  -0.00290  -0.02120   0.04035
  43        6D+2       -0.00106  -0.02128  -0.00684  -0.00069  -0.00250
  44        6D-2        0.00459  -0.02773   0.04049  -0.00143   0.00333
  45 3   C  1S         -0.01836   0.01797   0.01055   0.00001   0.00109
  46        2S         -0.02821   0.03042   0.01567   0.00002   0.00176
  47        2PX         0.03162  -0.05436   0.09440  -0.00507  -0.00971
  48        2PY        -0.01429  -0.06377  -0.00305   0.00029  -0.00036
  49        2PZ        -0.00230   0.00392  -0.00680  -0.07110  -0.11603
  50        3S          0.03908  -0.12457   0.00270  -0.00017  -0.00462
  51        3PX         0.02173  -0.08463   0.15458  -0.00589  -0.01129
  52        3PY        -0.02070  -0.12037   0.02683   0.00029  -0.00103
  53        3PZ        -0.00159   0.00578  -0.01109  -0.08104  -0.12114
  54        4S          1.10194   0.16600  -1.19527   0.00099  -0.03547
  55        4PX         0.17751  -0.25946   0.60918  -0.01841  -0.07300
  56        4PY        -0.28713  -0.17023  -0.36618   0.00126  -0.00427
  57        4PZ        -0.01428   0.02106  -0.04500  -0.27901  -0.85306
  58        5S          0.23286  -4.17262  -5.04963   0.00752   0.00536
  59        5PX        -0.93396   2.33107   1.31869  -0.00865  -0.10671
  60        5PY        -0.74740  -0.33074  -0.68649   0.00552   0.01336
  61        5PZ         0.06260  -0.16517  -0.09663  -0.14983  -0.92755
  62        6D 0       -0.00958  -0.01003   0.00532   0.00074  -0.00386
  63        6D+1       -0.00111  -0.00282  -0.00005  -0.00735   0.02716
  64        6D-1       -0.00023  -0.00180   0.00294  -0.02120  -0.04041
  65        6D+2       -0.00106   0.02129   0.00684  -0.00069   0.00121
  66        6D-2        0.00459   0.02773  -0.04049  -0.00151  -0.00260
  67 4   H  1S         -0.01830   0.01296  -0.00745  -0.00867   0.06153
  68        2S         -0.08872   0.07307   0.00708   0.06727   0.12183
  69        3S         -0.44756   0.15595  -0.15429  -0.79109   1.86194
  70        4PX         0.00283  -0.00685   0.01650  -0.00430  -0.01048
  71        4PY         0.00445  -0.00878   0.00794  -0.01746   0.01795
  72        4PZ        -0.00484  -0.00057  -0.00186  -0.01182   0.01141
[...]
 Berny optimization.
 Search for a local minimum.
 Step number   1 out of a maximum of    2
 All quantities printed in internal units (Hartrees-Bohrs-Radians)
 Second derivative matrix not updated -- analytic derivatives used.
 ITU=  0
     Eigenvalues ---    0.00158   0.00203   0.00205   0.01183   0.03175
     Eigenvalues ---    0.04137   0.06066   0.06763   0.07749   0.08347
     Eigenvalues ---    0.11501   0.11974   0.14731   0.16449   0.23830
     Eigenvalues ---    0.30756   0.41839   0.62991   0.66293   0.74903
     Eigenvalues ---    0.82015   0.84528   1.02630   1.05081
 Angle between quadratic step and forces=  78.32 degrees.
 Linear search not attempted -- first point.
 B after Tr=     0.000009    0.000026   -0.000237
         Rot=    1.000000   -0.000023    0.000024    0.000002 Ang=  -0.00 deg.
 Variable       Old X    -DE/DX   Delta X   Delta X   Delta X     New X
                                 (Linear)    (Quad)   (Total)
    X1        4.08284  -0.00000   0.00000  -0.00001  -0.00001   4.08283
    Y1       -1.49363  -0.00000   0.00000   0.00000   0.00000  -1.49363
    Z1        0.23972  -0.00001   0.00000  -0.00006  -0.00017   0.23955
    X2        5.90113  -0.00000   0.00000  -0.00001  -0.00001   5.90113
    Y2        0.50288  -0.00000   0.00000  -0.00000  -0.00000   0.50288
    Z2        0.11775  -0.00000   0.00000  -0.00013  -0.00007   0.11769
    X3        8.48874   0.00000   0.00000   0.00001   0.00002   8.48876
    Y3       -0.71754   0.00000   0.00000   0.00000  -0.00000  -0.71754
    Z3       -0.07646   0.00000   0.00000   0.00013   0.00027  -0.07619
    X4        5.81634  -0.00000   0.00000  -0.00011  -0.00018   5.81616
    Y4        1.68655  -0.00000   0.00000   0.00015   0.00007   1.68662
    Z4        1.81496   0.00000   0.00000  -0.00024  -0.00012   1.81484
    X5        5.57277  -0.00000   0.00000   0.00007   0.00016   5.57293
    Y5        1.70340  -0.00000   0.00000  -0.00015  -0.00007   1.70333
    Z5       -1.53745   0.00000   0.00000  -0.00025  -0.00015  -1.53760
    X6       10.30699   0.00000   0.00000   0.00004   0.00007  10.30706
    Y6        1.27898   0.00000   0.00000  -0.00000  -0.00000   1.27897
    Z6       -0.19897   0.00001   0.00000   0.00061   0.00092  -0.19805
    X7        8.57338   0.00000   0.00000   0.00026   0.00034   8.57372
    Y7       -1.90152   0.00000   0.00000   0.00016   0.00024  -1.90128
    Z7       -1.77346  -0.00000   0.00000   0.00004   0.00012  -1.77334
    X8        8.81727   0.00000   0.00000  -0.00024  -0.00032   8.81696
    Y8       -1.91775   0.00000   0.00000  -0.00016  -0.00024  -1.91798
    Z8        1.57893  -0.00000   0.00000   0.00007   0.00017   1.57909
    X9        2.42352   0.00000   0.00000   0.00003   0.00002   2.42354
    Y9       -0.75776  -0.00000   0.00000   0.00000   0.00000  -0.75776
    Z9        0.35473  -0.00000   0.00000   0.00033   0.00017   0.35491
   X10       11.96643  -0.00001   0.00000  -0.00011  -0.00009  11.96635
   Y10        0.54310   0.00001   0.00000   0.00000   0.00000   0.54311
   Z10       -0.31225   0.00000   0.00000  -0.00151  -0.00116  -0.31341
         Item               Value     Threshold  Converged?
 Maximum Force            0.000009     0.000450     YES
 RMS     Force            0.000003     0.000300     YES
 Maximum Displacement     0.001156     0.001800     YES
 RMS     Displacement     0.000306     0.001200     YES
 Predicted change in Energy=-7.580478D-09
 Optimization completed.
    -- Stationary point found.
 GradGradGradGradGradGradGradGradGradGradGradGradGradGradGradGradGradGrad

 Leave Link  103 at Fri Jun  2 11:17:02 2023, MaxMem=  7381975040 cpu:               1.7 elap:               2.3
 (Enter /software/commercial/gaussian/g16/AVX/g16/l9999.exe)

 ----------------------------------------------------------------------

 Electric dipole moment (input orientation):
 (Debye = 10**-18 statcoulomb cm , SI units = C m)
                  (au)            (Debye)         (10**-30 SI)
   Tot        0.896298D-03      0.227816D-02      0.759913D-02
   x          0.624081D-04      0.158625D-03      0.529118D-03
   y          0.000000D+00      0.000000D+00      0.000000D+00
   z          0.894123D-03      0.227263D-02      0.758069D-02

 Dipole polarizability, Alpha (input orientation).
 (esu units = cm**3 , SI units = C**2 m**2 J**-1)
 Alpha(0;0):
               (au)            (10**-24 esu)      (10**-40 SI)
   iso        0.418335D+02      0.619908D+01      0.689741D+01
   aniso      0.672204D+01      0.996104D+00      0.110832D+01
   xx         0.448059D+02      0.663955D+01      0.738749D+01
   yx         0.207681D+01      0.307752D+00      0.342420D+00
   yy         0.423247D+02      0.627188D+01      0.697841D+01
   zx        -0.444217D+00     -0.658262D-01     -0.732415D-01
   zy        -0.121958D+00     -0.180723D-01     -0.201082D-01
   zz         0.383699D+02      0.568583D+01      0.632633D+01

 First dipole hyperpolarizability, Beta (input orientation).
 ||, _|_  parallel and perpendicular components, (z) with respect to z axis,
 vector components x,y,z.  Values do not include the 1/n! factor of 1/2.
 (esu units = statvolt**-1 cm**4 , SI units = C**3 m**3 J**-2)
 Beta(0;0,0):
               (au)            (10**-30 esu)      (10**-50 SI)
   || (z)     0.196675D-01      0.169912D-03      0.630610D-04
   _|_(z)     0.655583D-02      0.566372D-04      0.210203D-04
   x          0.867330D-02      0.749305D-04      0.278097D-04
   y          0.109518D-02      0.946146D-05      0.351153D-05
   z          0.983374D-01      0.849558D-03      0.315305D-03
   ||         0.197450D-01      0.170582D-03      0.633097D-04
   xxx        0.428461D-02      0.370157D-04      0.137380D-04
   xxy       -0.113917D-02     -0.984152D-05     -0.365258D-05
   yxy       -0.112104D-03     -0.968490D-06     -0.359445D-06
   yyy        0.350852D-03      0.303108D-05      0.112496D-05
   xxz        0.162325D-01      0.140236D-03      0.520472D-04
   yxz       -0.869215D-02     -0.750934D-04     -0.278702D-04
   yyz        0.990807D-03      0.855980D-05      0.317688D-05
   zxz       -0.128141D-02     -0.110704D-04     -0.410866D-05
   zyz        0.115337D-02      0.996425D-05      0.369813D-05
   zzz        0.155558D-01      0.134390D-03      0.498776D-04

 ----------------------------------------------------------------------

 Dipole orientation:
     8          4.05604033         -1.49215592          0.52913249
     6          5.87867766          0.50411897          0.52642709
     6          8.47336160         -0.71669186          0.51752845
     1          5.67607839          1.69426706          2.20906531
     1          5.66652192          1.69824354         -1.15220830
     8         10.29599896          1.27958266          0.51426906
     1          8.67580027         -1.90714786         -1.16491740
     1          8.68567832         -1.91050961          2.19635652
     1          2.39283828         -0.75607618          0.52551721
     1         11.95920456          0.54350035          0.51963154

 Electric dipole moment (dipole orientation):
 (Debye = 10**-18 statcoulomb cm , SI units = C m)
                  (au)            (Debye)         (10**-30 SI)
   Tot        0.896305D-03      0.227818D-02      0.759919D-02
   x          0.000000D+00      0.000000D+00      0.000000D+00
   y          0.000000D+00      0.000000D+00      0.000000D+00
   z          0.896305D-03      0.227818D-02      0.759919D-02

 Dipole polarizability, Alpha (dipole orientation).
 (esu units = cm**3 , SI units = C**2 m**2 J**-1)
 Alpha(0;0):
               (au)            (10**-24 esu)      (10**-40 SI)
   iso        0.418335D+02      0.619908D+01      0.689741D+01
   aniso      0.672204D+01      0.996104D+00      0.110832D+01
   xx         0.448369D+02      0.664415D+01      0.739261D+01
   yx         0.207994D+01      0.308215D+00      0.342936D+00
   yy         0.423243D+02      0.627181D+01      0.697833D+01
   zx        -0.829646D-03     -0.122941D-03     -0.136790D-03
   zy         0.768331D-02      0.113855D-02      0.126681D-02
   zz         0.383392D+02      0.568129D+01      0.632129D+01

 First dipole hyperpolarizability, Beta (dipole orientation).
 ||, _|_  parallel and perpendicular components, (z) with respect to z axis,
 vector components x,y,z.  Values do not include the 1/n! factor of 1/2.
 (esu units = statvolt**-1 cm**4 , SI units = C**3 m**3 J**-2)
 Beta(0;0,0):
               (au)            (10**-30 esu)      (10**-50 SI)
   || (z)     0.197395D-01      0.170534D-03      0.632921D-04
   _|_(z)     0.657985D-02      0.568448D-04      0.210974D-04
   x          0.180534D-02      0.155967D-04      0.578857D-05
   y          0.147285D-02      0.127243D-04      0.472249D-05
   z          0.986977D-01      0.852671D-03      0.316461D-03
   ||         0.197450D-01      0.170582D-03      0.633097D-04
   xxx        0.855403D-03      0.739002D-05      0.274273D-05
   xxy        0.142477D-03      0.123089D-05      0.456832D-06
   yxy       -0.247945D-03     -0.214205D-05     -0.795001D-06
   yyy        0.362205D-03      0.312917D-05      0.116136D-05
   xxz        0.165041D-01      0.142582D-03      0.529180D-04
   yxz       -0.876850D-02     -0.757530D-04     -0.281150D-04
   yyz        0.981269D-03      0.847740D-05      0.314630D-05
   zxz        0.000000D+00      0.000000D+00      0.000000D+00
   zyz       -0.137319D-04     -0.118633D-06     -0.440294D-07
   zzz        0.154139D-01      0.133164D-03      0.494225D-04

 ----------------------------------------------------------------------
 Unable to Open any file for archive entry.
 1\1\GINC-NODE1704\Freq\RB3LYP\6-311+G(d,p)\C2H6O2\SVICCHI\02-Jun-2023\
 0\\#p freq=raman scale=0.967 pop=(nbo,full,hirshfeld) guess=read geom=
 allcheck b3lyp/6-311+G(d,p) int=grid=ultrafine EmpiricalDispersion=GD3
 BJ SCRF=(Solvent=ethanol) scf=(xqc,intrep,maxconventionalcycle=350) no
 symm\\EG-isolated.gjf\\0,1\O,2.1605457382,-0.7903947653,0.1268524703\C
 ,3.122744345,0.2661148635,0.062312871\C,4.4920454834,-0.3797043815,-0.
 04046098\H,3.0778755686,0.8924858702,0.9604354481\H,2.9489827777,0.901
 3999554,-0.8135838013\O,5.4542237005,0.6768061735,-0.1052930233\H,4.53
 6836551,-1.0062387295,-0.9384767154\H,4.6658991535,-1.0148274908,0.835
 5320948\H,1.2824719576,-0.4009911418,0.1877171666\H,6.3323637245,0.287
 3976463,-0.165235531\\Version=ES64L-G16RevC.01\HF=-230.3491226\RMSD=1.
 787e-09\RMSF=3.162e-06\ZeroPoint=0.0816022\Thermal=0.0873299\ETot=-230
 .2617927\HTot=-230.2608485\GTot=-230.2957265\Dipole=0.0000624,-0.00000
 34,0.0008941\DipoleDeriv=-0.9314657,-0.3965055,0.0175161,-0.3644624,-0
 .6895526,0.0246574,0.0179679,0.0275067,-0.6721952,0.6718185,0.3843003,
 -0.0125162,0.3638923,0.6315529,-0.0241039,-0.0124,-0.0256419,0.4848228
 ,0.6718154,0.3843024,-0.0125424,0.3638995,0.6315512,-0.0240088,-0.0123
 774,-0.0255816,0.4848148,-0.0107129,-0.0233739,0.0148506,-0.0385662,-0
 .0868567,-0.1071164,0.0099506,-0.1616045,-0.1252039,-0.0165237,-0.0000
 975,-0.030079,-0.0229475,-0.0890362,0.1111746,-0.0256218,0.16265,-0.11
 50179,-0.9314323,-0.3965154,0.0177123,-0.3644841,-0.6895504,0.0243851,
 0.0181899,0.0273069,-0.6722174,-0.0107106,-0.0233895,0.0148366,-0.0385
 734,-0.0869323,-0.107141,0.0099257,-0.1616277,-0.1251765,-0.016529,-0.
 0000845,-0.0300929,-0.022944,-0.088958,0.1111484,-0.0256448,0.1626239,
 -0.115034,0.2868789,0.0356767,0.0102125,0.0620834,0.2338926,-0.0046059
 ,0.0100797,-0.0029076,0.4275962,0.2868615,0.0356869,0.0101024,0.062102
 4,0.2338896,-0.0043895,0.0099302,-0.0027242,0.4276111\Polar=44.8058864
 ,2.0768123,42.3247387,-0.4442173,-0.1219583,38.3698571\PolarDeriv=2.88
 21014,-4.8321002,0.9300364,-0.2847259,0.2711448,0.253914,-6.5177399,-2
 .5978435,-5.3639241,0.4491925,0.1827682,-0.2031504,-0.3720281,0.279029
 4,-0.0503102,-1.3939161,-0.8359597,0.2037944,-1.4101013,3.3468461,0.09
 76029,0.2875117,-1.060037,0.3950787,4.1499724,3.0138889,-5.0308878,-0.
 8554404,-0.1415582,-7.5734657,0.4242268,-1.0235829,0.0855968,1.5883145
 ,-10.5274773,-0.339346,1.4104375,-3.3466419,-0.0974805,-0.2874914,1.06
 08886,-0.3952218,-4.1499022,-3.0136129,5.030692,0.8570531,0.1448996,7.
 5731844,-0.4201333,1.024887,-0.0819717,-1.5887236,10.5273744,0.3368491
 ,0.3561174,1.2729594,0.3377781,1.9084103,0.6230825,-0.2161803,0.159686
 9,-0.5345368,5.5438155,-0.0147172,3.7172509,3.3832867,2.0781725,-0.036
 1558,4.0535856,-0.7022423,5.3740358,7.3910683,-0.5551284,1.3036684,-0.
 2328018,-2.1068274,-0.0339775,-0.6743261,0.2656588,-1.0859482,5.663177
 5,0.4812702,-3.6289246,3.2814355,-2.3595986,0.6490045,-4.1078608,-1.15
 8661,5.3606025,-6.9796497,-2.8843488,4.8322767,-0.9303624,0.2775478,-0
 .2698673,-0.2533099,6.5178969,2.5975644,5.3639895,-0.4483056,-0.186222
 8,0.202984,0.3553488,-0.2779408,0.0454234,1.395098,0.8357855,-0.208026
 7,-0.3579911,-1.273091,-0.3384721,-1.9077762,-0.6231842,0.2158023,-0.1
 606368,0.5339273,-5.5465777,0.0145054,-3.7179518,-3.3834231,-2.0785402
 ,0.0358545,-4.054739,0.7019311,-5.3743139,-7.3892771,0.557136,-1.30361
 21,0.2334476,2.1073926,0.0338533,0.6748483,-0.2647578,1.0864477,-5.660
 3241,-0.4815768,3.6280975,-3.2811612,2.3591642,-0.6493141,4.1067521,1.
 1592684,-5.3603056,6.9813274,-10.9380168,0.93595,-1.6186493,0.6583909,
 -0.0940668,-0.4601142,3.0165671,-1.5347997,0.8787876,-0.1843291,0.1071
 033,0.3803884,0.5822045,-0.0936968,0.1034926,-1.0431685,-0.4317958,0.1
 514058,10.9397939,-0.9362555,1.618901,-0.6524323,0.0921635,0.4595089,-
 3.0167453,1.5349129,-0.8787483,0.1823479,-0.1054621,-0.3800787,-0.5688
 166,0.091915,-0.0999688,1.0420996,0.432054,-0.1481453\HyperPolar=0.004
 2846,-0.0011392,-0.0001121,0.0003509,0.0162325,-0.0086921,0.0009908,-0
 .0012814,0.0011534,0.0155558\Quadrupole=5.4974545,-4.1947915,-1.302663
 1,-4.5183593,-0.4660226,0.3172476\PG=C01 [X(C2H6O2)]\NImag=0\\0.618896
 20,-0.07848787,0.32951529,-0.03971250,0.00569908,0.04536453,-0.1394847
 5,-0.03577910,0.00525136,0.47962114,-0.07639887,-0.16437467,0.00515374
 ,-0.04219917,0.52451448,0.00533209,0.00241971,-0.06139871,0.00821705,0
 .00255849,0.59372745,-0.02761046,0.00113506,0.00211983,-0.16633405,0.0
 6911298,0.00649372,0.47962955,-0.03730746,0.00861421,0.00268592,0.0691
 1298,-0.11227594,-0.00514225,-0.04220027,0.52451472,0.00196108,-0.0000
 6702,0.00156967,0.00649480,-0.00514026,-0.08248728,0.00827146,0.002549
 80,0.59371923,-0.00623845,-0.02548114,-0.01988364,-0.05156687,0.013301
 69,0.01412878,-0.00278527,0.01806909,0.02710438,0.05774808,-0.01166985
 ,-0.02395250,-0.01920648,0.01158195,-0.11982612,-0.10689831,0.00264402
 ,-0.00909663,-0.01385444,-0.00463652,0.14016478,-0.00384160,0.00072737
 ,0.00955097,0.01475172,-0.11087382,-0.22933153,-0.00091379,-0.00100920
 ,-0.00195761,-0.01325135,0.12447303,0.23940977,-0.00256388,-0.02557631
 ,0.02143710,-0.05944566,0.02956129,-0.03859764,-0.00649162,0.01831991,
 -0.02627446,0.00293818,-0.00019016,0.00250277,0.06542787,-0.00881380,-
 0.02415831,0.02038635,0.02723559,-0.12208139,0.10513902,0.00459616,-0.
 00923548,0.01323263,-0.00215340,0.01135764,-0.01356365,-0.02287045,0.1
 4275591,0.00548927,0.00262114,0.00604975,-0.03922685,0.10886853,-0.219
 36354,0.00160461,-0.00171643,0.00188908,-0.00606394,0.01405823,-0.0213
 9393,0.03833625,-0.12347422,0.22937604,-0.01503726,0.00334539,0.001111
 79,-0.02761028,-0.03730787,0.00196556,-0.13948593,-0.07639679,0.005347
 57,0.00209498,-0.00044991,0.00058471,0.00207900,-0.00056992,-0.0008138
 0,0.61894411,0.00334535,0.00074787,-0.00022679,0.00113485,0.00861422,-
 0.00006917,-0.03577468,-0.16437477,0.00248736,-0.00037486,0.00124510,0
 .00059564,-0.00050052,0.00124708,-0.00051851,-0.07850209,0.32951527,0.
 00110700,-0.00022626,0.00043916,0.00211787,0.00267903,0.00156936,0.005
 21613,0.00518618,-0.06139718,-0.00091894,0.00067795,0.00032312,0.00071
 153,-0.00058537,0.00031810,-0.03925502,0.00540188,0.04530535,0.0020954
 1,-0.00037537,-0.00091893,-0.00278445,0.01807152,0.02710226,-0.0515638
 6,0.01329849,0.01410999,-0.00575536,0.00214549,0.00031214,0.00166931,-
 0.00060000,-0.00049611,-0.00623725,-0.02548450,-0.01987630,0.05774604,
 -0.00045018,0.00124511,0.00067775,0.00264351,-0.00909826,-0.01385595,0
 .01158206,-0.11986016,-0.10691617,0.00214534,-0.00073478,-0.00020680,-
 0.00061317,0.00044161,0.00003146,-0.01167675,-0.02395739,-0.01919737,-
 0.00462910,0.14020682,0.00058423,0.00059533,0.00032301,-0.00091291,-0.
 00101076,-0.00195877,0.01473515,-0.11088680,-0.22928936,0.00031241,-0.
 00020730,0.00151001,0.00042034,0.00005988,0.00123295,-0.00384031,0.000
 73276,0.00955942,-0.01323548,0.12448822,0.23936280,0.00207834,-0.00050
 003,0.00071168,-0.00649261,0.01831725,-0.02627615,-0.05945441,0.029562
 80,-0.03862088,0.00166962,-0.00061338,0.00042029,-0.00568752,0.0021417
 1,0.00076991,-0.00256401,-0.02557201,0.02144332,0.00293786,-0.00018831
 ,0.00250061,0.06543582,-0.00056982,0.00124701,-0.00058562,0.00459648,-
 0.00923387,0.01323112,0.02723297,-0.12204688,0.10512173,-0.00060014,0.
 00044152,0.00006023,0.00214194,-0.00072577,-0.00013053,-0.00880555,-0.
 02415343,0.02039451,-0.00215603,0.01135771,-0.01356899,-0.02287562,0.1
 4271380,-0.00081397,-0.00051893,0.00031871,0.00160573,-0.00171763,0.00
 189036,-0.03924787,0.10885562,-0.21939966,-0.00049602,0.00003116,0.001
 23355,0.00077022,-0.00013100,0.00146029,0.00548933,0.00262614,0.006040
 29,-0.00606612,0.01405257,-0.02139358,0.03835718,-0.12345907,0.2294173
 7,-0.43095745,0.16073153,0.02976232,-0.02469568,0.01303569,0.00162916,
 -0.00120709,-0.00549483,0.00000406,0.00148045,0.00124425,-0.00060706,0
 .00163184,0.00113329,0.00048780,-0.00117801,0.00098783,0.00011975,0.00
 041519,-0.00005616,0.00004210,0.00044196,-0.00009885,-0.00008717,0.454
 27204,0.21259521,-0.12943287,-0.01474494,-0.03720795,0.00856746,0.0025
 6385,-0.00111914,-0.00480593,0.00005310,-0.00025432,0.00030150,-0.0004
 8113,-0.00021514,0.00029104,0.00053728,-0.00224282,0.00054887,0.000160
 15,-0.00001543,0.00009970,0.00027866,-0.00005767,0.00010747,-0.0002765
 6,-0.17109321,0.12464351,0.02976177,-0.01117711,-0.00270526,0.00166114
 ,-0.00091539,-0.00175404,0.00003684,0.00039285,-0.00089308,-0.00069753
 ,0.00063097,0.00049426,0.00049918,-0.00077389,0.00029276,0.00012894,-0
 .00007341,0.00048855,-0.00023388,0.00029580,0.00016160,0.00019503,-0.0
 0028920,0.00013823,-0.03138491,0.01188022,0.00353762,-0.00117769,0.000
 98784,0.00012098,-0.00120679,-0.00549449,0.00000519,-0.02469687,0.0130
 3608,0.00160200,0.00041464,-0.00005591,0.00004218,0.00044249,-0.000099
 19,-0.00008713,-0.43100535,0.16074062,0.02933467,0.00147711,0.00124277
 ,-0.00060613,0.00163495,0.00113461,0.00048870,-0.00020325,-0.00038954,
 0.00003342,0.45432075,-0.00224272,0.00054887,0.00016099,-0.00111913,-0
 .00480591,0.00005348,-0.03720915,0.00856687,0.00253326,-0.00001573,0.0
 0009950,0.00027834,-0.00005740,0.00010766,-0.00027694,0.21260630,-0.12
 943281,-0.01449070,-0.00025508,0.00029964,-0.00048101,-0.00021474,0.00
 029246,0.00053770,-0.00038955,-0.00032074,0.00002917,-0.17110280,0.124
 64446,0.00013263,-0.00007331,0.00048817,0.00004010,0.00039806,-0.00089
 330,0.00168393,-0.00091570,-0.00175382,-0.00023415,0.00029520,0.000161
 38,0.00019472,-0.00028975,0.00013849,0.02928124,-0.01095590,-0.0026461
 8,-0.00069756,0.00063050,0.00049192,0.00049900,-0.00077417,0.00029443,
 0.00003397,0.00002938,0.00023936,-0.03093388,0.01165570,0.00347955\\0.
 00000020,0.00000419,0.00000716,0.00000103,0.00000239,0.00000104,-0.000
 00081,-0.00000231,-0.00000144,0.00000198,0.00000133,-0.00000040,0.0000
 0037,0.00000037,-0.00000015,-0.00000454,-0.00000204,-0.00000905,-0.000
 00203,-0.00000103,0.00000068,-0.00000030,-0.00000080,0.00000058,-0.000
 00226,0.00000362,0.00000204,0.00000635,-0.00000572,-0.00000046\\\@
 The archive entry for this job was punched.


 DESK:  A WASTEBASKET WITH DRAWERS.
 Job cpu time:       0 days  0 hours  7 minutes 49.4 seconds.
 Elapsed time:       0 days  0 hours  4 minutes 58.5 seconds.
 File lengths (MBytes):  RWF=     72 Int=      0 D2E=      0 Chk=      8 Scr=      1
 Normal termination of Gaussian 16 at Fri Jun  2 11:17:08 2023.
