 Entering Gaussian System, Link 0=g16
 Input=PDA-CO2_binding-site_index-5-freq.gjf
 Output=PDA-CO2_binding-site_index-5-freq.log
 Initial command:
 /software/commercial/gaussian/g16/AVX/g16/l1.exe "/scratch1/svicchi/G09-659893.pbs02/Gau-3321482.inp" -scrdir="/scratch1/svicchi/G09-659893.pbs02/"
 Entering Link 1 = /software/commercial/gaussian/g16/AVX/g16/l1.exe PID=   3321483.
  
 Copyright (c) 1988-2019, Gaussian, Inc.  All Rights Reserved.
  
 This is part of the Gaussian(R) 16 program.  It is based on
 the Gaussian(R) 09 system (copyright 2009, Gaussian, Inc.),
 the Gaussian(R) 03 system (copyright 2003, Gaussian, Inc.),
 the Gaussian(R) 98 system (copyright 1998, Gaussian, Inc.),
 the Gaussian(R) 94 system (copyright 1995, Gaussian, Inc.),
 the Gaussian 92(TM) system (copyright 1992, Gaussian, Inc.),
 the Gaussian 90(TM) system (copyright 1990, Gaussian, Inc.),
 the Gaussian 88(TM) system (copyright 1988, Gaussian, Inc.),
 the Gaussian 86(TM) system (copyright 1986, Carnegie Mellon
 University), and the Gaussian 82(TM) system (copyright 1983,
 Carnegie Mellon University). Gaussian is a federally registered
 trademark of Gaussian, Inc.
  
 This software contains proprietary and confidential information,
 including trade secrets, belonging to Gaussian, Inc.
  
 This software is provided under written license and may be
 used, copied, transmitted, or stored only in accord with that
 written license.
  
 The following legend is applicable only to US Government
 contracts under FAR:
  
                    RESTRICTED RIGHTS LEGEND
  
 Use, reproduction and disclosure by the US Government is
 subject to restrictions as set forth in subparagraphs (a)
 and (c) of the Commercial Computer Software - Restricted
 Rights clause in FAR 52.227-19.
  
 Gaussian, Inc.
 340 Quinnipiac St., Bldg. 40, Wallingford CT 06492
  
  
 ---------------------------------------------------------------
 Warning -- This program may not be used in any manner that
 competes with the business of Gaussian, Inc. or will provide
 assistance to any competitor of Gaussian, Inc.  The licensee
 of this program is prohibited from giving any competitor of
 Gaussian, Inc. access to this program.  By using this program,
 the user acknowledges that Gaussian, Inc. is engaged in the
 business of creating and licensing software in the field of
 computational chemistry and represents and warrants to the
 licensee that it is not a competitor of Gaussian, Inc. and that
 it will not use this program in any manner prohibited above.
 ---------------------------------------------------------------
  

 Cite this work as:
 Gaussian 16, Revision C.01,
 M. J. Frisch, G. W. Trucks, H. B. Schlegel, G. E. Scuseria, 
 M. A. Robb, J. R. Cheeseman, G. Scalmani, V. Barone, 
 G. A. Petersson, H. Nakatsuji, X. Li, M. Caricato, A. V. Marenich, 
 J. Bloino, B. G. Janesko, R. Gomperts, B. Mennucci, H. P. Hratchian, 
 J. V. Ortiz, A. F. Izmaylov, J. L. Sonnenberg, D. Williams-Young, 
 F. Ding, F. Lipparini, F. Egidi, J. Goings, B. Peng, A. Petrone, 
 T. Henderson, D. Ranasinghe, V. G. Zakrzewski, J. Gao, N. Rega, 
 G. Zheng, W. Liang, M. Hada, M. Ehara, K. Toyota, R. Fukuda, 
 J. Hasegawa, M. Ishida, T. Nakajima, Y. Honda, O. Kitao, H. Nakai, 
 T. Vreven, K. Throssell, J. A. Montgomery, Jr., J. E. Peralta, 
 F. Ogliaro, M. J. Bearpark, J. J. Heyd, E. N. Brothers, K. N. Kudin, 
 V. N. Staroverov, T. A. Keith, R. Kobayashi, J. Normand, 
 K. Raghavachari, A. P. Rendell, J. C. Burant, S. S. Iyengar, 
 J. Tomasi, M. Cossi, J. M. Millam, M. Klene, C. Adamo, R. Cammi, 
 J. W. Ochterski, R. L. Martin, K. Morokuma, O. Farkas, 
 J. B. Foresman, and D. J. Fox, Gaussian, Inc., Wallingford CT, 2019.
 
 ******************************************
 Gaussian 16:  ES64L-G16RevC.01  3-Jul-2019
                 2-Jun-2023 
 ******************************************
 %NProcShared=2
 Will use up to    2 processors via shared memory.
 %mem=55gb
 %chk=/scratch1/svicchi/G09-659893.pbs02/02-freq/PDA-CO2_binding-site_index-5-fre
 q.chk
 ----------------------------------------------------------------------
 #p freq=raman scale=0.967 pop=(nbo,full,hirshfeld) guess=read geom=all
 check b3lyp/6-311+G(d,p) int=grid=ultrafine EmpiricalDispersion=GD3BJ 
 SCRF=(Solvent=ethanol) scf=(xqc,intrep,maxconventionalcycle=350) nosym
 m
 ----------------------------------------------------------------------
 1/10=4,29=7,30=1,38=1,114=967000/1,3;
 2/12=2,15=1,40=1/2;
 3/5=4,6=6,7=111,11=2,14=-4,25=1,30=1,70=2201,71=2,72=4,74=-5,75=-5,116=-2,124=41,140=1/1,2,3;
 4/5=1/1;
 5/5=2,8=3,13=1,17=20,38=6,53=4,85=350,98=1/2,8;
 8/6=4,10=90,11=11/1;
 10/13=10,15=4,31=1/2;
 11/6=3,8=1,9=11,15=111,16=1,31=1/1,2,10;
 10/6=1,31=1/2;
 6/7=3,28=1,40=1,79=1/1,7;
 7/8=1,10=1,25=1,30=1/1,2,3,16;
 1/10=4,30=1/3;
 99//99;
 Leave Link    1 at Fri Jun  2 18:17:46 2023, MaxMem=  7381975040 cpu:               1.0 elap:               1.2
 (Enter /software/commercial/gaussian/g16/AVX/g16/l101.exe)
 Structure from the checkpoint file:  "/scratch1/svicchi/G09-659893.pbs02/02-freq/PDA-CO2_binding-site_index-5-freq.chk"
 --------------------------------
 PDA-CO2_binding-site_index-5.gjf
 --------------------------------
 Charge = -1 Multiplicity = 1
 No Z-Matrix found in chk file; cartesian coordinates used.
  C                                                -3.370093134344      1.009706520050      0.043921985058
  C                                                -2.018516121207      1.710460932863      0.227334003846
  C                                                -0.832701462365      0.817863876058     -0.143142962008
  H                                                -1.922522829153      2.035274066057      1.270984813531
  H                                                -2.006338309160      2.616462731344     -0.388281486299
  N                                                -4.525838788111      1.836573469231      0.358764556578
  H                                                -3.404912558298      0.114568603175      0.675369691085
  H                                                -3.474123112901      0.680934322127     -0.991454413144
  H                                                -4.608898341743      2.108174272257      1.328750841621
  C                                                 0.522411358784      1.500447706506      0.054416040744
  H                                                -0.932464641626      0.502713016574     -1.189339423488
  H                                                -0.865950786722     -0.099828779980      0.458123964718
  C                                                 1.700707051088      0.610948184758     -0.331835587024
  N                                                 2.981870192590      1.305123007890     -0.116256239822
  H                                                 1.569911933429      0.275546907358     -1.371978626338
  H                                                 1.698421964887     -0.287923063542      0.293274095880
  H                                                 0.635598885037      1.806401096962      1.100618248412
  H                                                 0.555859360321      2.419237816719     -0.545207145891
  H                                                 3.046191814248      2.106785242287     -0.738278934519
  H                                                 3.755646527046      0.694846671014     -0.362306406605
  C                                                -4.980663274382      2.842462855987     -0.527087774777
  O                                                -4.656836985357      2.737550718597     -1.741675318611
  O                                                -5.709943742061      3.739116825708     -0.009352922946
 Recover connectivity data from disk.
 ITRead=  0  0  0  0  0  0  0  0  0  0  0  0  0  0  0  0  0  0  0  0
 ITRead=  0  0  0
 MicOpt= -1 -1 -1 -1 -1 -1 -1 -1 -1 -1 -1 -1 -1 -1 -1 -1 -1 -1 -1 -1
 MicOpt= -1 -1 -1
 NAtoms=     23 NQM=       23 NQMF=       0 NMMI=      0 NMMIF=      0
                NMic=       0 NMicF=      0.
                    Isotopes and Nuclear Properties:
 (Nuclear quadrupole moments (NQMom) in fm**2, nuclear magnetic moments (NMagM)
  in nuclear magnetons)

  Atom         1           2           3           4           5           6           7           8           9          10
 IAtWgt=          12          12          12           1           1          14           1           1           1          12
 AtmWgt=  12.0000000  12.0000000  12.0000000   1.0078250   1.0078250  14.0030740   1.0078250   1.0078250   1.0078250  12.0000000
 NucSpn=           0           0           0           1           1           2           1           1           1           0
 AtZEff=   3.6000000   3.6000000   3.6000000   1.0000000   1.0000000   4.5500000   1.0000000   1.0000000   1.0000000   3.6000000
 NQMom=    0.0000000   0.0000000   0.0000000   0.0000000   0.0000000   2.0440000   0.0000000   0.0000000   0.0000000   0.0000000
 NMagM=    0.0000000   0.0000000   0.0000000   2.7928460   2.7928460   0.4037610   2.7928460   2.7928460   2.7928460   0.0000000
 AtZNuc=   6.0000000   6.0000000   6.0000000   1.0000000   1.0000000   7.0000000   1.0000000   1.0000000   1.0000000   6.0000000

  Atom        11          12          13          14          15          16          17          18          19          20
 IAtWgt=           1           1          12          14           1           1           1           1           1           1
 AtmWgt=   1.0078250   1.0078250  12.0000000  14.0030740   1.0078250   1.0078250   1.0078250   1.0078250   1.0078250   1.0078250
 NucSpn=           1           1           0           2           1           1           1           1           1           1
 AtZEff=   1.0000000   1.0000000   3.6000000   4.5500000   1.0000000   1.0000000   1.0000000   1.0000000   1.0000000   1.0000000
 NQMom=    0.0000000   0.0000000   0.0000000   2.0440000   0.0000000   0.0000000   0.0000000   0.0000000   0.0000000   0.0000000
 NMagM=    2.7928460   2.7928460   0.0000000   0.4037610   2.7928460   2.7928460   2.7928460   2.7928460   2.7928460   2.7928460
 AtZNuc=   1.0000000   1.0000000   6.0000000   7.0000000   1.0000000   1.0000000   1.0000000   1.0000000   1.0000000   1.0000000

  Atom        21          22          23
 IAtWgt=          12          16          16
 AtmWgt=  12.0000000  15.9949146  15.9949146
 NucSpn=           0           0           0
 AtZEff=   3.6000000   5.6000000   5.6000000
 NQMom=    0.0000000   0.0000000   0.0000000
 NMagM=    0.0000000   0.0000000   0.0000000
 AtZNuc=   6.0000000   8.0000000   8.0000000
 Leave Link  101 at Fri Jun  2 18:17:48 2023, MaxMem=  7381975040 cpu:               0.3 elap:               0.9
 (Enter /software/commercial/gaussian/g16/AVX/g16/l103.exe)

 GradGradGradGradGradGradGradGradGradGradGradGradGradGradGradGradGradGrad
 Berny optimization.
 Initialization pass.
 Trust Radius=3.00D-01 FncErr=1.00D-07 GrdErr=1.00D-07 EigMax=2.50D+02 EigMin=1.00D-04
 Number of steps in this run=      2 maximum allowed number of steps=      2.
 GradGradGradGradGradGradGradGradGradGradGradGradGradGradGradGradGradGrad

 Leave Link  103 at Fri Jun  2 18:17:50 2023, MaxMem=  7381975040 cpu:               0.1 elap:               0.7
 (Enter /software/commercial/gaussian/g16/AVX/g16/l202.exe)
                          Input orientation:                          
 ---------------------------------------------------------------------
 Center     Atomic      Atomic             Coordinates (Angstroms)
 Number     Number       Type             X           Y           Z
 ---------------------------------------------------------------------
      1          6           0       -3.370093    1.009707    0.043922
      2          6           0       -2.018516    1.710461    0.227334
      3          6           0       -0.832701    0.817864   -0.143143
      4          1           0       -1.922523    2.035274    1.270985
      5          1           0       -2.006338    2.616463   -0.388281
      6          7           0       -4.525839    1.836573    0.358765
      7          1           0       -3.404913    0.114569    0.675370
      8          1           0       -3.474123    0.680934   -0.991454
      9          1           0       -4.608898    2.108174    1.328751
     10          6           0        0.522411    1.500448    0.054416
     11          1           0       -0.932465    0.502713   -1.189339
     12          1           0       -0.865951   -0.099829    0.458124
     13          6           0        1.700707    0.610948   -0.331836
     14          7           0        2.981870    1.305123   -0.116256
     15          1           0        1.569912    0.275547   -1.371979
     16          1           0        1.698422   -0.287923    0.293274
     17          1           0        0.635599    1.806401    1.100618
     18          1           0        0.555859    2.419238   -0.545207
     19          1           0        3.046192    2.106785   -0.738279
     20          1           0        3.755647    0.694847   -0.362306
     21          6           0       -4.980663    2.842463   -0.527088
     22          8           0       -4.656837    2.737551   -1.741675
     23          8           0       -5.709944    3.739117   -0.009353
 ---------------------------------------------------------------------
                    Distance matrix (angstroms):
                    1          2          3          4          5
     1  C    0.000000
     2  C    1.533446   0.000000
     3  C    2.551500   1.529751   0.000000
     4  H    2.157066   1.097235   2.160915   0.000000
     5  H    2.151347   1.095431   2.161591   1.760105   0.000000
     6  N    1.455535   2.513930   3.863799   2.765661   2.741202
     7  H    1.095997   2.160950   2.789419   2.498269   3.057260
     8  H    1.091292   2.159667   2.777677   3.059466   2.502894
     9  H    2.095723   2.842776   4.253356   2.687985   3.159094
    10  C    3.923331   2.555449   1.530125   2.782765   2.799294
    11  H    2.778490   2.155256   1.097178   3.063030   2.502566
    12  H    2.770083   2.158430   1.097628   2.517092   3.065147
    13  C    5.100315   3.918446   2.548839   4.210170   4.215147
    14  N    6.360846   5.028540   3.845660   5.148847   5.164865
    15  H    5.191090   4.182535   2.752580   4.720063   4.386013
    16  H    5.237926   4.220606   2.796392   4.411848   4.756598
    17  H    4.218637   2.795739   2.163343   2.573984   3.138926
    18  H    4.212713   2.779675   2.157349   3.096508   2.574564
    19  H    6.556229   5.171146   4.130535   5.360073   5.090219
    20  H    7.144251   5.892377   4.595226   6.058547   6.074023
    21  C    2.505790   3.259585   4.631631   3.638247   2.986127
    22  O    2.798127   3.448572   4.567769   4.128654   2.978503
    23  O    3.595472   4.218780   5.686749   4.345906   3.888526
                    6          7          8          9         10
     6  N    0.000000
     7  H    2.078946   0.000000
     8  H    2.065115   1.761778   0.000000
     9  H    1.010712   2.418874   2.950946   0.000000
    10  C    5.068574   4.210715   4.211619   5.321992   0.000000
    11  H    4.133781   3.121025   2.555572   4.736502   2.158487
    12  H    4.141776   2.557242   3.084385   4.432034   2.156714
    13  C    6.383491   5.227639   5.217170   6.694054   1.526034
    14  N    7.541471   6.544852   6.544878   7.768700   2.473099
    15  H    6.526136   5.382047   5.074586   6.987858   2.152264
    16  H    6.577172   5.133422   5.417050   6.826110   2.153677
    17  H    5.214566   4.401007   4.746921   5.258123   1.095882
    18  H    5.194258   4.742259   4.411530   5.503017   1.097653
    19  H    7.655858   6.898121   6.679196   7.929251   2.713941
    20  H    8.390857   7.258588   7.257106   8.650016   3.358044
    21  C    1.415420   3.371988   2.675351   2.030154   5.694118
    22  O    2.289272   3.780140   2.488235   3.134634   5.619696
    23  O    2.270966   4.349639   3.913553   2.379663   6.622534
                   11         12         13         14         15
    11  H    0.000000
    12  H    1.755453   0.000000
    13  C    2.771393   2.777944   0.000000
    14  N    4.137316   4.136367   1.473001   0.000000
    15  H    2.519296   3.069790   1.100681   2.151858   0.000000
    16  H    3.121668   2.576541   1.094868   2.086325   1.762691
    17  H    3.066322   2.510212   2.148368   2.690177   3.054536
    18  H    2.510594   3.061685   2.150841   2.703845   2.511427
    19  H    4.313492   4.648159   2.052573   1.016716   2.436065
    20  H    4.764377   4.760649   2.056877   1.015730   2.443908
    21  C    4.722385   5.153502   7.046878   8.119984   7.086108
    22  O    4.378416   5.221174   6.850434   7.940005   6.706008
    23  O    5.889905   6.198412   8.050291   9.026815   8.176146
                   16         17         18         19         20
    16  H    0.000000
    17  H    2.483464   0.000000
    18  H    3.055687   1.758030   0.000000
    19  H    2.935168   3.046758   2.517272   0.000000
    20  H    2.372297   3.620829   3.639453   1.624270   0.000000
    21  C    7.421758   5.938455   5.552705   8.063264   8.997917
    22  O    7.326925   6.079108   5.357711   7.793672   8.766138
    23  O    8.437566   6.725573   6.425691   8.936764   9.949350
                   21         22         23
    21  C    0.000000
    22  O    1.261385   0.000000
    23  O    1.266447   2.261219   0.000000
 Symmetry turned off by external request.
 Stoichiometry    C6H13N2O2(1-)
 Framework group  C1[X(C6H13N2O2)]
 Deg. of freedom    63
 Full point group                 C1      NOp   1
 Rotational constants (GHZ):           4.0254032           0.3614852           0.3548409
 Leave Link  202 at Fri Jun  2 18:17:51 2023, MaxMem=  7381975040 cpu:               0.1 elap:               0.9
 (Enter /software/commercial/gaussian/g16/AVX/g16/l301.exe)
 Standard basis: 6-311+G(d,p) (5D, 7F)
 Ernie: Thresh=  0.10000D-02 Tol=  0.10000D-05 Strict=F.
   298 basis functions,   464 primitive gaussians,   308 cartesian basis functions
    40 alpha electrons       40 beta electrons
       nuclear repulsion energy       515.9359636978 Hartrees.
 IExCor=  402 DFT=T Ex+Corr=B3LYP ExCW=0 ScaHFX=  0.200000
 ScaDFX=  0.800000  0.720000  1.000000  0.810000 ScalE2=  1.000000  1.000000
 IRadAn=      5 IRanWt=     -1 IRanGd=            0 ICorTp=0 IEmpDi=141
 NAtoms=   23 NActive=   23 NUniq=   23 SFac= 1.00D+00 NAtFMM=   60 NAOKFM=F Big=F
 Integral buffers will be    131072 words long.
 Raffenetti 2 integral format.
 Two-electron integral symmetry is turned off.
 R6Disp:  Grimme-D3(BJ) Dispersion energy=       -0.0321053527 Hartrees.
 Nuclear repulsion after empirical dispersion term =      515.9038583451 Hartrees.
 Force inversion solution in PCM.
 ------------------------------------------------------------------------------
 Polarizable Continuum Model (PCM)
 =================================
 Model                : PCM.
 Atomic radii         : UFF (Universal Force Field).
 Polarization charges : Total charges.
 Charge compensation  : None.
 Solution method      : Matrix inversion.
 Cavity type          : Scaled VdW (van der Waals Surface) (Alpha=1.100).
 Cavity algorithm     : GePol (No added spheres)
                        Default sphere list used, NSphG=   23.
                        Lebedev-Laikov grids with approx.  5.0 points / Ang**2.
                        Smoothing algorithm: York/Karplus (Gamma=1.0000).
                        Polarization charges: spherical gaussians, with
                                              point-specific exponents (IZeta= 3).
                        Self-potential: point-specific (ISelfS= 7).
                        Self-field    : sphere-specific E.n sum rule (ISelfD= 2).
 1st derivatives      : Analytical E(r).r(x)/FMM algorithm (CHGder, D1EAlg=3).
                        Cavity 1st derivative terms included.
 2nd derivatives      : Analytical E(r).r(xy)/FMM algorithm (CHGder, D2EAlg=3).
                        Cavity 2nd derivative terms included.
 Solvent              : Ethanol, Eps=  24.852000 Eps(inf)=   1.852593
 ------------------------------------------------------------------------------
 GePol: Number of generator spheres                  =      23
 GePol: Total number of spheres                      =      23
 GePol: Number of exposed spheres                    =      23 (100.00%)
 GePol: Number of points                             =    1779
 GePol: Average weight of points                     =       0.13
 GePol: Minimum weight of points                     =   0.18D-10
 GePol: Maximum weight of points                     =    0.20577
 GePol: Number of points with low weight             =     120
 GePol: Fraction of low-weight points (<1% of avg)   =       6.75%
 GePol: Cavity surface area                          =    239.482 Ang**2
 GePol: Cavity volume                                =    231.461 Ang**3
 Leave Link  301 at Fri Jun  2 18:17:53 2023, MaxMem=  7381975040 cpu:               0.4 elap:               0.8
 (Enter /software/commercial/gaussian/g16/AVX/g16/l302.exe)
 NPDir=0 NMtPBC=     1 NCelOv=     1 NCel=       1 NClECP=     1 NCelD=      1
         NCelK=      1 NCelE2=     1 NClLst=     1 CellRange=     0.0.
 One-electron integrals computed using PRISM.
 NBasis=   298 RedAO= T EigKep=  7.48D-06  NBF=   298
 NBsUse=   298 1.00D-06 EigRej= -1.00D+00 NBFU=   298
 Precomputing XC quadrature grid using
 IXCGrd= 4 IRadAn=           5 IRanWt=          -1 IRanGd=           0 AccXCQ= 0.00D+00.
 Generated NRdTot=       0 NPtTot=           0 NUsed=           0 NTot=          32
 NSgBfM=   308   308   308   308   308 MxSgAt=    23 MxSgA2=    23.
 Leave Link  302 at Fri Jun  2 18:17:55 2023, MaxMem=  7381975040 cpu:               1.3 elap:               1.3
 (Enter /software/commercial/gaussian/g16/AVX/g16/l303.exe)
 DipDrv:  MaxL=1.
 Leave Link  303 at Fri Jun  2 18:17:57 2023, MaxMem=  7381975040 cpu:               0.2 elap:               0.8
 (Enter /software/commercial/gaussian/g16/AVX/g16/l401.exe)
 Initial guess from the checkpoint file:  "/scratch1/svicchi/G09-659893.pbs02/02-freq/PDA-CO2_binding-site_index-5-freq.chk"
 B after Tr=     0.000000    0.000000    0.000000
         Rot=    1.000000    0.000000    0.000000    0.000000 Ang=   0.00 deg.
 Guess basis will be translated and rotated to current coordinates.
 JPrj=2 DoOrth=T DoCkMO=T.
 Leave Link  401 at Fri Jun  2 18:18:00 2023, MaxMem=  7381975040 cpu:               0.9 elap:               1.2
 (Enter /software/commercial/gaussian/g16/AVX/g16/l502.exe)
 Keep R1 ints in memory in canonical form, NReq=1007171342.
 FoFCou: FMM=F IPFlag=           0 FMFlag=           0 FMFlg1=           0
         NFxFlg=           0 DoJE=F BraDBF=F KetDBF=F FulRan=T
         wScrn=  0.000000 ICntrl=       600 IOpCl=  0 I1Cent=           0 NGrid=           0
         NMat0=    1 NMatS0=  44551 NMatT0=    0 NMatD0=    1 NMtDS0=    0 NMtDT0=    0
 Symmetry not used in FoFCou.
 Two-electron integral symmetry not used.
 Closed shell SCF:
 Using DIIS extrapolation, IDIIS=  1040.
 NGot=  7381975040 LenX=  6389362440 LenY=  6389267135
 Requested convergence on RMS density matrix=1.00D-08 within 350 cycles.
 Requested convergence on MAX density matrix=1.00D-06.
 Requested convergence on             energy=1.00D-06.
 No special actions if energy rises.

 Cycle   1  Pass 1  IDiag  1:
 Inv3:  Mode=1 IEnd=     9494523.
 Iteration    1 A*A^-1 deviation from unit magnitude is 5.11D-15 for   1770.
 Iteration    1 A*A^-1 deviation from orthogonality  is 2.25D-15 for   1743    897.
 Iteration    1 A^-1*A deviation from unit magnitude is 4.88D-15 for   1770.
 Iteration    1 A^-1*A deviation from orthogonality  is 1.35D-15 for   1755    845.
 E= -496.783342962236    
 DIIS: error= 7.44D-08 at cycle   1 NSaved=   1.
 NSaved= 1 IEnMin= 1 EnMin= -496.783342962236     IErMin= 1 ErrMin= 7.44D-08
 ErrMax= 7.44D-08  0.00D+00 EMaxC= 1.00D-01 BMatC= 7.02D-13 BMatP= 7.02D-13
 IDIUse=1 WtCom= 1.00D+00 WtEn= 0.00D+00
 Coeff-Com:  0.100D+01
 Coeff:      0.100D+01
 Gap=     0.225 Goal=   None    Shift=    0.000
 RMSDP=1.03D-08 MaxDP=4.65D-07              OVMax= 8.51D-07

 Cycle   2  Pass 1  IDiag  1:
 E= -496.783342962231     Delta-E=        0.000000000005 Rises=F Damp=F
 DIIS: error= 1.63D-07 at cycle   2 NSaved=   2.
 NSaved= 2 IEnMin= 1 EnMin= -496.783342962236     IErMin= 1 ErrMin= 7.44D-08
 ErrMax= 1.63D-07  0.00D+00 EMaxC= 1.00D-01 BMatC= 3.42D-12 BMatP= 7.02D-13
 IDIUse=1 WtCom= 1.00D+00 WtEn= 0.00D+00
 Coeff-Com:  0.688D+00 0.312D+00
 Coeff:      0.688D+00 0.312D+00
 Gap=     0.225 Goal=   None    Shift=    0.000
 RMSDP=6.71D-09 MaxDP=2.69D-07 DE= 5.12D-12 OVMax= 5.88D-07

 Error on total polarization charges =  0.02284
 SCF Done:  E(RB3LYP) =  -496.783342962     A.U. after    2 cycles
            NFock=  2  Conv=0.67D-08     -V/T= 2.0043
 KE= 4.946496651939D+02 PE=-2.204978208501D+03 EE= 6.976413419996D+02
 Leave Link  502 at Fri Jun  2 18:19:01 2023, MaxMem=  7381975040 cpu:             100.9 elap:              59.6
 (Enter /software/commercial/gaussian/g16/AVX/g16/l508.exe)
 QCSCF skips out because SCF is already converged.
 Leave Link  508 at Fri Jun  2 18:19:03 2023, MaxMem=  7381975040 cpu:               0.0 elap:               0.9
 (Enter /software/commercial/gaussian/g16/AVX/g16/l801.exe)
 DoSCS=F DFT=T ScalE2(SS,OS)=  1.000000  1.000000
 Range of M.O.s used for correlation:     1   298
 NBasis=   298 NAE=    40 NBE=    40 NFC=     0 NFV=     0
 NROrb=    298 NOA=    40 NOB=    40 NVA=   258 NVB=   258

 **** Warning!!: The largest alpha MO coefficient is  0.87690918D+02

 Leave Link  801 at Fri Jun  2 18:19:05 2023, MaxMem=  7381975040 cpu:               0.1 elap:               0.5
 (Enter /software/commercial/gaussian/g16/AVX/g16/l1002.exe)
 Minotr:  Closed shell wavefunction.
 NEqPCM:  Using equilibrium solvation (IEInf=0, Eps=  24.8520, EpsInf=   1.8526)
          Direct CPHF calculation.
          Differentiating once with respect to electric field.
                with respect to dipole field.
          Electric field/nuclear overlap derivatives assumed to be zero.
          Requested convergence is 1.0D-08 RMS, and 1.0D-07 maximum.
          Secondary convergence is 1.0D-12 RMS, and 1.0D-12 maximum.
          NewPWx=F KeepS1=T KeepF1=T KeepIn=T MapXYZ=F SortEE=F KeepMc=T.
         7121 words used for storage of precomputed grid.
 Keep R1 ints in memory in canonical form, NReq=1007180964.
 FoFCou: FMM=F IPFlag=           0 FMFlag=           0 FMFlg1=           0
         NFxFlg=           0 DoJE=F BraDBF=F KetDBF=F FulRan=T
         wScrn=  0.000000 ICntrl=       600 IOpCl=  0 I1Cent=           0 NGrid=           0
         NMat0=    1 NMatS0=  44551 NMatT0=    0 NMatD0=    1 NMtDS0=    0 NMtDT0=    0
 Symmetry not used in FoFCou.
 Two-electron integral symmetry not used.
          MDV=    7381975040 using IRadAn=       1.
          Solving linear equations simultaneously, MaxMat=       0.
          There are     3 degrees of freedom in the 1st order CPHF.  IDoFFX=0 NUNeed=     3.
      3 vectors produced by pass  0 Test12= 3.44D-13 3.33D-08 XBig12= 7.20D+01 1.97D+00.
 AX will form     3 AO Fock derivatives at one time.
      3 vectors produced by pass  1 Test12= 3.44D-13 3.33D-08 XBig12= 1.35D+01 9.13D-01.
      3 vectors produced by pass  2 Test12= 3.44D-13 3.33D-08 XBig12= 5.00D+00 3.64D-01.
      3 vectors produced by pass  3 Test12= 3.44D-13 3.33D-08 XBig12= 4.60D-01 1.18D-01.
      3 vectors produced by pass  4 Test12= 3.44D-13 3.33D-08 XBig12= 1.21D-01 6.40D-02.
      3 vectors produced by pass  5 Test12= 3.44D-13 3.33D-08 XBig12= 1.17D-02 1.67D-02.
      3 vectors produced by pass  6 Test12= 3.44D-13 3.33D-08 XBig12= 1.33D-03 5.47D-03.
      3 vectors produced by pass  7 Test12= 3.44D-13 3.33D-08 XBig12= 2.43D-04 2.29D-03.
      3 vectors produced by pass  8 Test12= 3.44D-13 3.33D-08 XBig12= 1.33D-05 7.38D-04.
      3 vectors produced by pass  9 Test12= 3.44D-13 3.33D-08 XBig12= 2.69D-06 1.71D-04.
      3 vectors produced by pass 10 Test12= 3.44D-13 3.33D-08 XBig12= 1.78D-07 4.41D-05.
      3 vectors produced by pass 11 Test12= 3.44D-13 3.33D-08 XBig12= 7.20D-09 9.27D-06.
      3 vectors produced by pass 12 Test12= 3.44D-13 3.33D-08 XBig12= 1.91D-10 1.85D-06.
      3 vectors produced by pass 13 Test12= 3.44D-13 3.33D-08 XBig12= 7.25D-12 4.91D-07.
      1 vectors produced by pass 14 Test12= 3.44D-13 3.33D-08 XBig12= 2.23D-13 6.24D-08.
 InvSVY:  IOpt=1 It=  1 EMax= 2.17D-15
 Solved reduced A of dimension    43 with     3 vectors.
 End of Minotr F.D. properties file   721 does not exist.
 End of Minotr F.D. properties file   722 does not exist.
 End of Minotr F.D. properties file   788 does not exist.
 Leave Link 1002 at Fri Jun  2 18:22:28 2023, MaxMem=  7381975040 cpu:             385.7 elap:             202.5
 (Enter /software/commercial/gaussian/g16/AVX/g16/l1101.exe)
 Using compressed storage, NAtomX=    23.
 Will process     24 centers per pass.
 R6Disp: Adding Grimme-D3(BJ) dispersion energy 1st derivatives to the gradient.
 Leave Link 1101 at Fri Jun  2 18:22:31 2023, MaxMem=  7381975040 cpu:               1.5 elap:               2.0
 (Enter /software/commercial/gaussian/g16/AVX/g16/l1102.exe)
 Symmetrizing basis deriv contribution to polar:
 IMax=3 JMax=2 DiffMx= 0.00D+00
 Leave Link 1102 at Fri Jun  2 18:22:33 2023, MaxMem=  7381975040 cpu:               0.2 elap:               0.6
 (Enter /software/commercial/gaussian/g16/AVX/g16/l1110.exe)
 Forming Gx(P) for the SCF density, NAtomX=    23.
 Integral derivatives from FoFJK, PRISM(SPDF).
 Do as many integral derivatives as possible in FoFJK.
 G2DrvN: MDV=    7381972535.
 G2DrvN: will do    24 centers at a time, making    1 passes.
 PxScal for G2LodP:  IOpCl= 0 ISclPx=1 IMOff=     1 NMtTot=     4 NTT=   44551 ScalPx= 2.71D+01
 Calling FoFCou, ICntrl=  3107 FMM=F I1Cent=   0 AccDes= 0.00D+00.
 FoFJK:  IHMeth= 1 ICntrl=    3107 DoSepK=F KAlg= 0 I1Cent=           0 FoldK=F
 IRaf=         0 NMat=       1 IRICut=       1 DoRegI=T DoRafI=F ISym2E= 0 IDoP0=0 IntGTp=1.
 FoFCou: FMM=F IPFlag=           0 FMFlag=      100000 FMFlg1=           0
         NFxFlg=           0 DoJE=F BraDBF=F KetDBF=F FulRan=T
         wScrn=  0.000000 ICntrl=      3107 IOpCl=  0 I1Cent=           0 NGrid=           0
         NMat0=    1 NMatS0=      1 NMatT0=    0 NMatD0=    4 NMtDS0=    3 NMtDT0=    0
 Symmetry not used in FoFCou.
 PxScal for G2LodP:  IOpCl= 0 ISclPx=0 IMOff=     1 NMtTot=     4 NTT=   44551 ScalPx= 1.00D+00
 NEqPCM:  Using equilibrium solvation (IEInf=0, Eps=  24.8520, EpsInf=   1.8526)
 G2PCM: DoFxE=T DoFxN=T DoGrad=T DoDP/DQ/DG/TGxP=TFFF NFrqRd=   0 IEInf=0 SqF1=F DoCFld=F IF1Alg=4.
 GePol: Maximum number of non-zero 1st derivatives   =     222
 End of G2Drv F.D. properties file   721 does not exist.
 End of G2Drv F.D. properties file   722 does not exist.
 End of G2Drv F.D. properties file   788 does not exist.
 Leave Link 1110 at Fri Jun  2 18:32:04 2023, MaxMem=  7381975040 cpu:            1127.9 elap:             569.7
 (Enter /software/commercial/gaussian/g16/AVX/g16/l1002.exe)
 Minotr:  Closed shell wavefunction.
          IDoAtm=11111111111111111111111
 NEqPCM:  Using equilibrium solvation (IEInf=0, Eps=  24.8520, EpsInf=   1.8526)
          Direct CPHF calculation.
          Differentiating once with respect to electric field.
                with respect to dipole field.
          Differentiating once with respect to nuclear coordinates.
          Requested convergence is 1.0D-08 RMS, and 1.0D-07 maximum.
          Secondary convergence is 1.0D-12 RMS, and 1.0D-12 maximum.
          NewPWx=T KeepS1=F KeepF1=F KeepIn=T MapXYZ=F SortEE=F KeepMc=T.
         7121 words used for storage of precomputed grid.
 Keep R1 ints in memory in canonical form, NReq=1007181493.
 FoFCou: FMM=F IPFlag=           0 FMFlag=           0 FMFlg1=           0
         NFxFlg=           0 DoJE=F BraDBF=F KetDBF=F FulRan=T
         wScrn=  0.000000 ICntrl=       600 IOpCl=  0 I1Cent=           0 NGrid=           0
         NMat0=    1 NMatS0=  44551 NMatT0=    0 NMatD0=    1 NMtDS0=    0 NMtDT0=    0
 Symmetry not used in FoFCou.
 Two-electron integral symmetry not used.
          MDV=    7381975040 using IRadAn=       1.
          Solving linear equations simultaneously, MaxMat=       0.
          There are    72 degrees of freedom in the 1st order CPHF.  IDoFFX=5 NUNeed=    72.
 Will reuse    3 saved solutions.
     66 vectors produced by pass  0 Test12= 1.43D-14 1.39D-09 XBig12= 1.53D-01 6.61D-02.
 AX will form    66 AO Fock derivatives at one time.
     66 vectors produced by pass  1 Test12= 1.43D-14 1.39D-09 XBig12= 6.56D-03 1.30D-02.
     66 vectors produced by pass  2 Test12= 1.43D-14 1.39D-09 XBig12= 1.17D-04 1.67D-03.
     66 vectors produced by pass  3 Test12= 1.43D-14 1.39D-09 XBig12= 5.31D-07 7.89D-05.
     66 vectors produced by pass  4 Test12= 1.43D-14 1.39D-09 XBig12= 1.24D-09 4.02D-06.
     53 vectors produced by pass  5 Test12= 1.43D-14 1.39D-09 XBig12= 1.74D-12 1.30D-07.
     12 vectors produced by pass  6 Test12= 1.43D-14 1.39D-09 XBig12= 2.45D-15 5.24D-09.
 InvSVY:  IOpt=1 It=  1 EMax= 3.89D-16
 Solved reduced A of dimension   395 with    72 vectors.
 FullF1:  Do perturbations      1 to       3.
 Isotropic polarizability for W=    0.000000      132.45 Bohr**3.
 FullF1:  Do perturbations      1 to       6.
 End of Minotr F.D. properties file   721 does not exist.
 End of Minotr F.D. properties file   722 does not exist.
 End of Minotr F.D. properties file   788 does not exist.
 Leave Link 1002 at Fri Jun  2 18:42:10 2023, MaxMem=  7381975040 cpu:            1178.7 elap:             605.5
 (Enter /software/commercial/gaussian/g16/AVX/g16/l601.exe)
 Copying SCF densities to generalized density rwf, IOpCl= 0 IROHF=0.

 **********************************************************************

            Population analysis using the SCF Density.

 **********************************************************************

 Alpha  occ. eigenvalues --  -19.04215 -19.04078 -14.29312 -14.29111 -10.25748
 Alpha  occ. eigenvalues --  -10.18691 -10.18073 -10.15891 -10.15849 -10.15319
 Alpha  occ. eigenvalues --   -1.01651  -0.91903  -0.88096  -0.87448  -0.78841
 Alpha  occ. eigenvalues --   -0.72420  -0.65191  -0.59464  -0.57698  -0.53564
 Alpha  occ. eigenvalues --   -0.48923  -0.47517  -0.45274  -0.45003  -0.43010
 Alpha  occ. eigenvalues --   -0.42572  -0.40570  -0.38733  -0.37957  -0.37225
 Alpha  occ. eigenvalues --   -0.35633  -0.33723  -0.33532  -0.32829  -0.32025
 Alpha  occ. eigenvalues --   -0.25141  -0.24713  -0.23798  -0.22130  -0.21750
 Alpha virt. eigenvalues --    0.00783   0.01615   0.02332   0.03127   0.03304
 Alpha virt. eigenvalues --    0.04422   0.05053   0.06221   0.06394   0.07032
 Alpha virt. eigenvalues --    0.07584   0.07772   0.08964   0.09460   0.09705
 Alpha virt. eigenvalues --    0.10004   0.10978   0.12009   0.12929   0.13620
 Alpha virt. eigenvalues --    0.14856   0.15324   0.16504   0.16574   0.16883
 Alpha virt. eigenvalues --    0.18094   0.18160   0.18755   0.19334   0.19653
 Alpha virt. eigenvalues --    0.20403   0.20738   0.21069   0.21336   0.21933
 Alpha virt. eigenvalues --    0.22458   0.23617   0.24014   0.24468   0.24750
 Alpha virt. eigenvalues --    0.25445   0.25681   0.26349   0.26815   0.27618
 Alpha virt. eigenvalues --    0.28166   0.28594   0.28763   0.29898   0.30450
 Alpha virt. eigenvalues --    0.31123   0.31625   0.32102   0.32454   0.33091
 Alpha virt. eigenvalues --    0.34237   0.34541   0.35125   0.36179   0.38532
 Alpha virt. eigenvalues --    0.40020   0.42431   0.43527   0.44262   0.47383
 Alpha virt. eigenvalues --    0.49275   0.50100   0.50896   0.52305   0.54307
 Alpha virt. eigenvalues --    0.56971   0.57866   0.59444   0.61744   0.62761
 Alpha virt. eigenvalues --    0.63663   0.64533   0.65244   0.66411   0.66690
 Alpha virt. eigenvalues --    0.67368   0.67486   0.68325   0.69917   0.70755
 Alpha virt. eigenvalues --    0.71699   0.72486   0.73799   0.74382   0.75224
 Alpha virt. eigenvalues --    0.77046   0.77313   0.79593   0.80527   0.82578
 Alpha virt. eigenvalues --    0.85291   0.87261   0.88511   0.90289   0.91635
 Alpha virt. eigenvalues --    0.93148   0.96169   0.99525   1.00153   1.02248
 Alpha virt. eigenvalues --    1.05148   1.08375   1.10639   1.12232   1.14761
 Alpha virt. eigenvalues --    1.18113   1.19290   1.19944   1.20449   1.21836
 Alpha virt. eigenvalues --    1.22801   1.23767   1.26732   1.27680   1.28701
 Alpha virt. eigenvalues --    1.29675   1.34719   1.36842   1.39505   1.43429
 Alpha virt. eigenvalues --    1.44331   1.47844   1.51409   1.54150   1.54522
 Alpha virt. eigenvalues --    1.56692   1.57805   1.59187   1.60121   1.62042
 Alpha virt. eigenvalues --    1.62935   1.64866   1.65932   1.67210   1.68211
 Alpha virt. eigenvalues --    1.68787   1.69421   1.70607   1.72268   1.73245
 Alpha virt. eigenvalues --    1.74769   1.75590   1.77483   1.78447   1.80095
 Alpha virt. eigenvalues --    1.82347   1.82891   1.84203   1.87215   1.89355
 Alpha virt. eigenvalues --    1.89755   1.92811   1.94286   1.99432   2.00323
 Alpha virt. eigenvalues --    2.03334   2.07708   2.10935   2.11272   2.12334
 Alpha virt. eigenvalues --    2.15492   2.19281   2.20302   2.23975   2.26478
 Alpha virt. eigenvalues --    2.29515   2.31674   2.35368   2.37521   2.39553
 Alpha virt. eigenvalues --    2.42364   2.47623   2.49573   2.49851   2.51514
 Alpha virt. eigenvalues --    2.53071   2.54266   2.55439   2.57550   2.58468
 Alpha virt. eigenvalues --    2.59985   2.61667   2.63652   2.64435   2.67144
 Alpha virt. eigenvalues --    2.68291   2.70421   2.71737   2.73563   2.73800
 Alpha virt. eigenvalues --    2.75891   2.78090   2.78992   2.80846   2.83614
 Alpha virt. eigenvalues --    2.84332   2.85012   2.88080   2.89791   2.91023
 Alpha virt. eigenvalues --    2.93148   2.95585   2.96656   2.98042   3.00688
 Alpha virt. eigenvalues --    3.02120   3.03642   3.10142   3.12897   3.15468
 Alpha virt. eigenvalues --    3.24660   3.28661   3.33487   3.35823   3.40838
 Alpha virt. eigenvalues --    3.43041   3.47260   3.54814   3.61405   3.69340
 Alpha virt. eigenvalues --    3.78221   3.80546   3.83470   3.85203   3.87166
 Alpha virt. eigenvalues --    3.89623   4.04986   4.07517   4.10086   4.12527
 Alpha virt. eigenvalues --    4.15805   4.26827   4.37615   4.72434   4.82038
 Alpha virt. eigenvalues --    4.84456   4.93293   5.08711   5.11706   5.16130
 Alpha virt. eigenvalues --    5.23231   5.68524   5.90749  23.83391  23.85589
 Alpha virt. eigenvalues --   23.89593  23.89999  23.91994  23.92892  35.59014
 Alpha virt. eigenvalues --   35.60132  49.97292  50.06827
     Molecular Orbital Coefficients:
                           1         2         3         4         5
                           O         O         O         O         O
     Eigenvalues --   -19.04215 -19.04078 -14.29312 -14.29111 -10.25748
   1 1   C  1S          0.00000  -0.00001  -0.00000   0.00001  -0.00004
   2        2S         -0.00001   0.00004   0.00000  -0.00002   0.00000
   3        2PX        -0.00001  -0.00004   0.00001  -0.00028   0.00000
   4        2PY         0.00001   0.00004   0.00000   0.00021  -0.00001
   5        2PZ        -0.00001   0.00000  -0.00000   0.00012   0.00001
   6        3S          0.00006  -0.00041  -0.00005   0.00005  -0.00052
   7        3PX        -0.00003   0.00021  -0.00005   0.00041   0.00003
   8        3PY         0.00000  -0.00028  -0.00003  -0.00050  -0.00007
   9        3PZ        -0.00001  -0.00005   0.00000  -0.00037  -0.00004
  10        4S          0.00304   0.00074  -0.00005   0.00662   0.00338
  11        4PX        -0.00105   0.00022   0.00065  -0.00179   0.00085
  12        4PY         0.00061   0.00128  -0.00025   0.00239   0.00151
  13        4PZ        -0.00017  -0.00109  -0.00006  -0.00043  -0.00154
  14        5S         -0.02273  -0.01581  -0.00724   0.00115   0.02806
  15        5PX        -0.00569  -0.00222  -0.00012   0.00233   0.00200
  16        5PY        -0.00342  -0.00190  -0.00128  -0.00140   0.00448
  17        5PZ        -0.00069  -0.00048  -0.00043   0.00001   0.00040
  18        6D 0        0.00001   0.00011   0.00001   0.00023   0.00005
  19        6D+1        0.00000  -0.00001   0.00001   0.00027   0.00008
  20        6D-1        0.00005   0.00004  -0.00001  -0.00010   0.00001
  21        6D+2        0.00006  -0.00003   0.00000  -0.00015   0.00003
  22        6D-2        0.00003   0.00002   0.00002   0.00043  -0.00002
  23 2   C  1S          0.00000  -0.00000   0.00000   0.00000   0.00001
  24        2S         -0.00001   0.00001  -0.00000  -0.00001  -0.00001
  25        2PX         0.00004  -0.00004   0.00000  -0.00007  -0.00001
  26        2PY        -0.00001   0.00001  -0.00001  -0.00003   0.00001
  27        2PZ         0.00003  -0.00001  -0.00000  -0.00000  -0.00000
  28        3S          0.00011   0.00005   0.00006   0.00026   0.00037
  29        3PX        -0.00018   0.00020   0.00000   0.00033   0.00001
  30        3PY         0.00007  -0.00006   0.00002   0.00016  -0.00004
  31        3PZ        -0.00012   0.00005   0.00001   0.00004   0.00000
  32        4S         -0.00021  -0.00153  -0.00053  -0.00313  -0.00356
  33        4PX         0.00117  -0.00069  -0.00027   0.00062   0.00145
  34        4PY        -0.00011   0.00023   0.00012   0.00090   0.00029
  35        4PZ         0.00094   0.00121  -0.00009   0.00155   0.00175
  36        5S          0.01862  -0.01044  -0.00118   0.01026  -0.00788
  37        5PX        -0.00826  -0.01246  -0.00806   0.00911   0.01707
  38        5PY        -0.00131   0.00316  -0.00099  -0.00079   0.00120
  39        5PZ        -0.00070   0.00177  -0.00036  -0.00043   0.00062
  40        6D 0        0.00003   0.00004   0.00001   0.00011   0.00006
  41        6D+1       -0.00000  -0.00002  -0.00000  -0.00003  -0.00003
  42        6D-1        0.00002   0.00004   0.00000   0.00004   0.00004
  43        6D+2       -0.00003  -0.00001  -0.00001  -0.00017  -0.00005
  44        6D-2       -0.00007   0.00003   0.00001  -0.00012  -0.00001
  45 3   C  1S         -0.00000  -0.00000  -0.00000  -0.00000  -0.00000
  46        2S          0.00000   0.00001   0.00001   0.00001   0.00000
  47        2PX        -0.00001   0.00000   0.00002  -0.00003   0.00000
  48        2PY         0.00000  -0.00000   0.00001   0.00001  -0.00000
  49        2PZ         0.00000   0.00001   0.00000   0.00001  -0.00000
  50        3S         -0.00001  -0.00012  -0.00027  -0.00021  -0.00015
  51        3PX         0.00007  -0.00000  -0.00012   0.00016  -0.00001
  52        3PY        -0.00001   0.00001  -0.00009  -0.00010  -0.00001
  53        3PZ        -0.00002  -0.00004  -0.00002  -0.00006  -0.00000
  54        4S         -0.00028   0.00154   0.00274   0.00195   0.00140
  55        4PX        -0.00042  -0.00045   0.00146  -0.00159  -0.00033
  56        4PY         0.00008   0.00054   0.00019   0.00051   0.00079
  57        4PZ        -0.00084  -0.00029   0.00026  -0.00076  -0.00100
  58        5S          0.00045   0.02065  -0.00517  -0.00527  -0.00680
  59        5PX        -0.00270  -0.00627  -0.00012   0.00266   0.00061
  60        5PY        -0.00013   0.00347  -0.00022   0.00007  -0.00088
  61        5PZ         0.00019   0.00151   0.00022  -0.00082  -0.00100
  62        6D 0        0.00002  -0.00000   0.00002   0.00004   0.00000
  63        6D+1        0.00001   0.00001   0.00001   0.00002   0.00002
  64        6D-1        0.00002   0.00000  -0.00003  -0.00000   0.00001
  65        6D+2        0.00002   0.00001   0.00000   0.00000   0.00003
  66        6D-2       -0.00000  -0.00001   0.00000  -0.00001  -0.00002
  67 4   H  1S          0.00000   0.00004   0.00000   0.00007   0.00000
  68        2S         -0.00011  -0.00036   0.00005  -0.00048  -0.00007
  69        3S         -0.00112   0.00018   0.00026  -0.00131  -0.00135
  70        4PX        -0.00006   0.00003   0.00000   0.00007  -0.00004
  71        4PY         0.00003   0.00002   0.00000   0.00003   0.00003
  72        4PZ         0.00001   0.00003  -0.00000   0.00014   0.00003
  73 5   H  1S         -0.00000  -0.00003   0.00001  -0.00000  -0.00002
  74        2S          0.00030   0.00033  -0.00000   0.00030   0.00067
  75        3S         -0.00075   0.00126   0.00005  -0.00110  -0.00063
  76        4PX         0.00002  -0.00001   0.00001   0.00010   0.00008
  77        4PY         0.00003  -0.00009   0.00001   0.00002  -0.00008
  78        4PZ        -0.00002   0.00000   0.00000  -0.00012   0.00001
  79 6   N  1S         -0.00000  -0.00000  -0.00013   0.55737  -0.00004
  80        2S          0.00002   0.00004  -0.00010   0.46571  -0.00006
  81        2PX        -0.00003  -0.00004  -0.00000   0.00056  -0.00011
  82        2PY         0.00009   0.00007  -0.00000   0.00030   0.00024
  83        2PZ        -0.00008  -0.00007  -0.00000   0.00007  -0.00020
  84        3S         -0.00004  -0.00015  -0.00004   0.01612   0.00074
  85        3PX         0.00017   0.00014  -0.00000  -0.00000   0.00022
  86        3PY        -0.00043  -0.00029   0.00002   0.00051  -0.00042
  87        3PZ         0.00032   0.00031   0.00000   0.00048   0.00026
  88        4S         -0.00046  -0.00071   0.00033  -0.01337  -0.00260
  89        4PX        -0.00154   0.00073   0.00017  -0.00188  -0.00025
  90        4PY         0.00194  -0.00103  -0.00022   0.00031  -0.00062
  91        4PZ         0.00173  -0.00126  -0.00016   0.00306   0.00074
  92        5S          0.00372  -0.00428  -0.00008   0.00652   0.01025
  93        5PX        -0.00031  -0.00020  -0.00042   0.00172   0.00103
  94        5PY         0.00080  -0.00343  -0.00035  -0.00013   0.00395
  95        5PZ         0.00046  -0.00008   0.00002  -0.00047   0.00014
  96        6D 0       -0.00003   0.00007  -0.00001   0.00060  -0.00011
  97        6D+1       -0.00006  -0.00011  -0.00000   0.00001  -0.00016
  98        6D-1        0.00021   0.00011  -0.00000   0.00015   0.00048
  99        6D+2       -0.00001   0.00009   0.00000  -0.00014   0.00027
 100        6D-2       -0.00002   0.00007  -0.00001  -0.00028   0.00035
 101 7   H  1S          0.00003  -0.00005   0.00002  -0.00005  -0.00004
 102        2S         -0.00027   0.00038  -0.00014  -0.00058   0.00032
 103        3S          0.00058   0.00084   0.00011  -0.00044  -0.00022
 104        4PX         0.00004   0.00002  -0.00002   0.00009  -0.00002
 105        4PY        -0.00000   0.00000   0.00000  -0.00024  -0.00001
 106        4PZ         0.00003   0.00001   0.00002   0.00014  -0.00000
 107 8   H  1S          0.00009   0.00004   0.00001   0.00001   0.00004
 108        2S         -0.00083  -0.00065  -0.00012  -0.00155  -0.00097
 109        3S          0.00097   0.00081   0.00014  -0.00017  -0.00211
 110        4PX         0.00011  -0.00005  -0.00003   0.00003   0.00001
 111        4PY        -0.00009  -0.00008   0.00002  -0.00017  -0.00023
 112        4PZ        -0.00004  -0.00008  -0.00002  -0.00031  -0.00007
 113 9   H  1S         -0.00002  -0.00003  -0.00001   0.00002  -0.00013
 114        2S         -0.00095   0.00046   0.00012  -0.00226   0.00058
 115        3S         -0.00053   0.00254  -0.00003   0.00055  -0.00396
 116        4PX         0.00005   0.00005  -0.00001  -0.00003  -0.00008
 117        4PY         0.00009  -0.00008   0.00001   0.00051   0.00012
 118        4PZ         0.00015  -0.00003  -0.00002   0.00166  -0.00015
 119 10  C  1S         -0.00000   0.00000   0.00000   0.00000   0.00000
 120        2S          0.00000  -0.00000  -0.00000  -0.00000  -0.00000
 121        2PX         0.00001  -0.00001   0.00005   0.00000   0.00000
 122        2PY        -0.00000   0.00000  -0.00003  -0.00001   0.00000
 123        2PZ        -0.00000  -0.00001  -0.00002  -0.00000  -0.00000
 124        3S          0.00000   0.00004   0.00022   0.00002   0.00008
 125        3PX        -0.00006   0.00004  -0.00029  -0.00004  -0.00004
 126        3PY         0.00000  -0.00001   0.00016   0.00003  -0.00002
 127        3PZ         0.00003   0.00003   0.00008   0.00003   0.00002
 128        4S          0.00038  -0.00061  -0.00350   0.00020  -0.00056
 129        4PX         0.00041  -0.00007   0.00035   0.00041   0.00079
 130        4PY        -0.00057   0.00017   0.00165  -0.00046  -0.00033
 131        4PZ         0.00041   0.00030   0.00026   0.00045   0.00067
 132        5S          0.00292  -0.00025   0.00505  -0.00365   0.00099
 133        5PX        -0.00183  -0.00256  -0.01060   0.00747   0.00802
 134        5PY         0.00031   0.00143   0.00173  -0.00185  -0.00328
 135        5PZ         0.00028   0.00051   0.00109  -0.00068  -0.00155
 136        6D 0        0.00001   0.00001   0.00004   0.00001   0.00002
 137        6D+1       -0.00001  -0.00001   0.00005  -0.00001  -0.00002
 138        6D-1        0.00002   0.00001  -0.00001   0.00001   0.00002
 139        6D+2        0.00001  -0.00000  -0.00007  -0.00001  -0.00001
 140        6D-2        0.00000   0.00000   0.00014  -0.00000  -0.00000
 141 11  H  1S          0.00003   0.00001   0.00003   0.00006   0.00002
 142        2S         -0.00035  -0.00019  -0.00037  -0.00069  -0.00042
 143        3S         -0.00018  -0.00042   0.00016  -0.00034  -0.00045
 144        4PX         0.00001   0.00000  -0.00006   0.00006  -0.00001
 145        4PY        -0.00002  -0.00002   0.00000  -0.00003  -0.00004
 146        4PZ        -0.00003  -0.00003  -0.00005  -0.00010  -0.00003
 147 12  H  1S         -0.00002  -0.00002   0.00004   0.00002  -0.00002
 148        2S          0.00023   0.00008  -0.00049  -0.00021   0.00018
 149        3S          0.00002  -0.00021  -0.00008   0.00054   0.00052
 150        4PX         0.00004   0.00001  -0.00006   0.00008   0.00003
 151        4PY         0.00004   0.00001  -0.00006  -0.00001   0.00003
 152        4PZ         0.00001   0.00000   0.00005   0.00005   0.00001
 153 13  C  1S          0.00000  -0.00000   0.00001   0.00000   0.00000
 154        2S         -0.00000   0.00000  -0.00002  -0.00000  -0.00000
 155        2PX        -0.00000  -0.00000   0.00029  -0.00001  -0.00000
 156        2PY        -0.00000  -0.00000   0.00019   0.00000  -0.00000
 157        2PZ         0.00000   0.00000   0.00007   0.00001   0.00001
 158        3S          0.00003  -0.00005  -0.00001   0.00000   0.00003
 159        3PX         0.00002   0.00000  -0.00046   0.00007   0.00003
 160        3PY         0.00000  -0.00000  -0.00054  -0.00002   0.00001
 161        3PZ        -0.00002  -0.00002  -0.00021  -0.00003  -0.00003
 162        4S         -0.00066   0.00043   0.00587  -0.00048  -0.00042
 163        4PX        -0.00009  -0.00035   0.00140  -0.00053  -0.00023
 164        4PY        -0.00010   0.00004   0.00149  -0.00016  -0.00007
 165        4PZ        -0.00039  -0.00008   0.00089  -0.00035  -0.00036
 166        5S          0.00233   0.00503   0.00527  -0.00740  -0.01032
 167        5PX        -0.00043  -0.00128  -0.00169   0.00019   0.00098
 168        5PY         0.00026   0.00020   0.00019  -0.00121  -0.00160
 169        5PZ         0.00002   0.00015  -0.00007  -0.00037  -0.00037
 170        6D 0        0.00000   0.00000   0.00031   0.00001   0.00000
 171        6D+1        0.00001   0.00000  -0.00009   0.00001   0.00001
 172        6D-1        0.00001  -0.00000  -0.00007   0.00000  -0.00000
 173        6D+2       -0.00000   0.00000  -0.00024  -0.00000   0.00000
 174        6D-2       -0.00001  -0.00001  -0.00034  -0.00001  -0.00001
 175 14  N  1S         -0.00000  -0.00000   0.55739   0.00013   0.00000
 176        2S          0.00000   0.00000   0.46575   0.00011   0.00000
 177        2PX        -0.00000  -0.00000  -0.00014   0.00000   0.00000
 178        2PY        -0.00000  -0.00000  -0.00039  -0.00000   0.00000
 179        2PZ         0.00000  -0.00000  -0.00115   0.00000  -0.00000
 180        3S         -0.00003  -0.00001   0.01565  -0.00005  -0.00001
 181        3PX         0.00001   0.00001   0.00053   0.00000  -0.00001
 182        3PY        -0.00000   0.00001   0.00013   0.00000  -0.00001
 183        3PZ        -0.00000   0.00000  -0.00069  -0.00001   0.00000
 184        4S          0.00026   0.00006  -0.00928   0.00050   0.00022
 185        4PX        -0.00009  -0.00006   0.00260  -0.00007   0.00005
 186        4PY        -0.00015  -0.00006   0.00089  -0.00020  -0.00016
 187        4PZ         0.00005   0.00000  -0.00044   0.00002   0.00005
 188        5S         -0.00033   0.00031   0.00652   0.00025   0.00026
 189        5PX         0.00006   0.00010  -0.00250   0.00024   0.00017
 190        5PY         0.00007  -0.00004   0.00051  -0.00033  -0.00015
 191        5PZ         0.00010   0.00003   0.00065  -0.00027  -0.00029
 192        6D 0       -0.00001  -0.00000  -0.00030  -0.00001  -0.00001
 193        6D+1       -0.00001   0.00000  -0.00029  -0.00001  -0.00001
 194        6D-1        0.00000  -0.00000  -0.00040   0.00000   0.00001
 195        6D+2        0.00000   0.00000  -0.00017   0.00000   0.00000
 196        6D-2       -0.00000   0.00000  -0.00042  -0.00000  -0.00000
 197 15  H  1S          0.00001   0.00001  -0.00002   0.00002   0.00001
 198        2S         -0.00009  -0.00011  -0.00095  -0.00019  -0.00014
 199        3S          0.00000  -0.00007  -0.00039   0.00006   0.00006
 200        4PX         0.00001   0.00001  -0.00018   0.00002   0.00000
 201        4PY        -0.00000  -0.00000  -0.00019   0.00001  -0.00000
 202        4PZ        -0.00001  -0.00002  -0.00032  -0.00002  -0.00001
 203 16  H  1S         -0.00001   0.00000  -0.00002   0.00001  -0.00000
 204        2S          0.00012  -0.00004  -0.00107  -0.00001   0.00007
 205        3S          0.00018  -0.00001  -0.00055   0.00019   0.00015
 206        4PX         0.00001   0.00001  -0.00006   0.00003   0.00002
 207        4PY         0.00002   0.00000  -0.00029   0.00002   0.00002
 208        4PZ         0.00000   0.00001   0.00012   0.00002   0.00000
 209 17  H  1S          0.00001   0.00001   0.00002   0.00002   0.00001
 210        2S         -0.00012  -0.00010  -0.00001  -0.00016  -0.00010
 211        3S         -0.00004   0.00005  -0.00120   0.00005  -0.00025
 212        4PX        -0.00003   0.00001  -0.00012  -0.00002  -0.00002
 213        4PY         0.00004   0.00000  -0.00004   0.00004   0.00003
 214        4PZ         0.00001   0.00001   0.00011   0.00002   0.00002
 215 18  H  1S         -0.00002  -0.00001   0.00004  -0.00001  -0.00002
 216        2S          0.00026   0.00012  -0.00020   0.00015   0.00032
 217        3S          0.00015  -0.00008  -0.00126   0.00046   0.00021
 218        4PX        -0.00002   0.00001  -0.00012  -0.00001  -0.00002
 219        4PY        -0.00003  -0.00002   0.00006  -0.00001  -0.00004
 220        4PZ         0.00002  -0.00000  -0.00009   0.00001   0.00002
 221 19  H  1S         -0.00001   0.00000   0.00000  -0.00001  -0.00001
 222        2S          0.00005   0.00000  -0.00168   0.00005   0.00012
 223        3S          0.00012   0.00008   0.00042  -0.00009  -0.00027
 224        4PX        -0.00000   0.00000  -0.00004  -0.00000  -0.00000
 225        4PY        -0.00000   0.00000   0.00127   0.00001  -0.00000
 226        4PZ         0.00001   0.00000  -0.00099   0.00001   0.00002
 227 20  H  1S          0.00000  -0.00000  -0.00000   0.00001   0.00001
 228        2S         -0.00008   0.00002  -0.00187  -0.00013  -0.00010
 229        3S          0.00014  -0.00007   0.00142  -0.00009  -0.00009
 230        4PX         0.00002  -0.00000   0.00114   0.00002   0.00001
 231        4PY        -0.00000  -0.00000  -0.00109  -0.00002  -0.00001
 232        4PZ        -0.00001  -0.00000  -0.00038  -0.00001  -0.00001
 233 21  C  1S         -0.00001  -0.00001  -0.00000   0.00001   0.56309
 234        2S          0.00005   0.00006   0.00000   0.00001   0.46339
 235        2PX         0.00010  -0.00022   0.00000   0.00010   0.00000
 236        2PY        -0.00002   0.00028   0.00000  -0.00028  -0.00020
 237        2PZ        -0.00035   0.00013  -0.00000   0.00032   0.00016
 238        3S          0.00041   0.00023  -0.00001   0.00025   0.01768
 239        3PX        -0.00018   0.00044  -0.00001  -0.00012  -0.00005
 240        3PY         0.00002  -0.00059  -0.00000   0.00056   0.00046
 241        3PZ         0.00065  -0.00021   0.00001  -0.00081  -0.00059
 242        4S          0.00111   0.00349   0.00000   0.00254  -0.01081
 243        4PX         0.00252  -0.00321  -0.00003   0.00149  -0.00124
 244        4PY        -0.00185   0.00361   0.00007  -0.00275   0.00087
 245        4PZ        -0.00637   0.00462   0.00022   0.00112   0.00018
 246        5S         -0.00699  -0.00327  -0.00011   0.00149  -0.00723
 247        5PX        -0.00190  -0.00032  -0.00003   0.00037  -0.00106
 248        5PY         0.00126  -0.00047  -0.00003  -0.00060   0.00162
 249        5PZ        -0.00038  -0.00078   0.00002   0.00046  -0.00104
 250        6D 0       -0.00067   0.00035   0.00000   0.00004   0.00091
 251        6D+1        0.00033   0.00033   0.00000  -0.00041  -0.00089
 252        6D-1       -0.00021  -0.00056  -0.00000   0.00076   0.00041
 253        6D+2       -0.00019  -0.00001   0.00000   0.00018  -0.00030
 254        6D-2       -0.00021   0.00033   0.00000   0.00001  -0.00109
 255 22  O  1S          0.55131   0.00421   0.00000   0.00000  -0.00006
 256        2S          0.46971   0.00362   0.00000   0.00003  -0.00006
 257        2PX        -0.00028  -0.00004   0.00000  -0.00003  -0.00013
 258        2PY         0.00009   0.00002  -0.00000  -0.00000   0.00003
 259        2PZ         0.00100   0.00007   0.00000   0.00008   0.00043
 260        3S          0.01380  -0.00021  -0.00002  -0.00009   0.00055
 261        3PX        -0.00007   0.00012  -0.00000   0.00014   0.00037
 262        3PY        -0.00003  -0.00005   0.00000  -0.00001  -0.00009
 263        3PZ         0.00058  -0.00028  -0.00001  -0.00037  -0.00118
 264        4S         -0.01150   0.00152   0.00013  -0.00078  -0.00306
 265        4PX         0.00021   0.00019  -0.00000  -0.00038   0.00016
 266        4PY         0.00024  -0.00061  -0.00001   0.00046  -0.00002
 267        4PZ        -0.00215   0.00078   0.00006  -0.00024  -0.00149
 268        5S          0.00319   0.00378   0.00018  -0.00037   0.00474
 269        5PX         0.00070   0.00011  -0.00011  -0.00005  -0.00014
 270        5PY        -0.00062  -0.00018  -0.00001   0.00040   0.00001
 271        5PZ        -0.00012   0.00088   0.00004  -0.00049   0.00253
 272        6D 0        0.00019   0.00000   0.00000  -0.00015  -0.00083
 273        6D+1       -0.00010   0.00011  -0.00000   0.00000   0.00035
 274        6D-1        0.00005  -0.00015  -0.00000   0.00006  -0.00006
 275        6D+2        0.00002  -0.00002  -0.00000  -0.00003  -0.00003
 276        6D-2       -0.00000   0.00004  -0.00000  -0.00005   0.00008
 277 23  O  1S         -0.00420   0.55131   0.00000   0.00000  -0.00006
 278        2S         -0.00354   0.46971   0.00000   0.00004  -0.00005
 279        2PX         0.00002   0.00059   0.00000   0.00004   0.00025
 280        2PY        -0.00003  -0.00073  -0.00000  -0.00005  -0.00030
 281        2PZ        -0.00004  -0.00041   0.00000  -0.00002  -0.00015
 282        3S         -0.00041   0.01375  -0.00001  -0.00025   0.00049
 283        3PX        -0.00014   0.00034  -0.00000  -0.00022  -0.00065
 284        3PY         0.00019  -0.00041   0.00001   0.00026   0.00080
 285        3PZ         0.00014  -0.00017  -0.00000   0.00012   0.00038
 286        4S          0.00178  -0.01149  -0.00003   0.00029  -0.00302
 287        4PX         0.00039  -0.00134  -0.00001   0.00009  -0.00091
 288        4PY        -0.00085   0.00164  -0.00001   0.00000   0.00121
 289        4PZ         0.00046   0.00047  -0.00000  -0.00042   0.00064
 290        5S          0.00319   0.00415  -0.00005   0.00068   0.00167
 291        5PX         0.00088   0.00047  -0.00003   0.00006   0.00078
 292        5PY        -0.00061  -0.00031   0.00004   0.00019  -0.00112
 293        5PZ        -0.00011   0.00073   0.00002  -0.00044  -0.00034
 294        6D 0       -0.00010  -0.00004   0.00000   0.00010   0.00023
 295        6D+1        0.00012  -0.00009  -0.00000   0.00001   0.00031
 296        6D-1       -0.00013   0.00012  -0.00000  -0.00004  -0.00037
 297        6D+2       -0.00004  -0.00003  -0.00000   0.00002   0.00015
 298        6D-2       -0.00001  -0.00014  -0.00000   0.00008   0.00066
                           6         7         8         9        10
                           O         O         O         O         O
     Eigenvalues --   -10.18691 -10.18073 -10.15891 -10.15849 -10.15319
   1 1   C  1S         -0.00001   0.56302   0.00001   0.00004  -0.00221
   2        2S         -0.00001   0.46324   0.00002   0.00005  -0.00182
   3        2PX         0.00001  -0.00039   0.00008   0.00001   0.00041
   4        2PY         0.00000   0.00050   0.00003   0.00001   0.00028
   5        2PZ        -0.00000   0.00029   0.00001  -0.00000   0.00006
   6        3S          0.00001   0.01925   0.00004  -0.00030  -0.00021
   7        3PX        -0.00007  -0.00002  -0.00039  -0.00006  -0.00086
   8        3PY        -0.00002  -0.00187  -0.00015  -0.00006  -0.00085
   9        3PZ         0.00000  -0.00089  -0.00006  -0.00001  -0.00023
  10        4S          0.00004  -0.01538  -0.00132   0.00214   0.00728
  11        4PX         0.00022  -0.00219   0.00016   0.00173   0.00266
  12        4PY         0.00006  -0.00241  -0.00074   0.00002   0.00208
  13        4PZ        -0.00009   0.00004  -0.00013  -0.00002  -0.00008
  14        5S          0.01353  -0.05108  -0.00120   0.01334   0.00556
  15        5PX         0.00095  -0.00617   0.00264   0.00349   0.00029
  16        5PY         0.00269  -0.00718  -0.00294   0.00117   0.00158
  17        5PZ         0.00064  -0.00106  -0.00055   0.00017   0.00014
  18        6D 0        0.00001   0.00082   0.00007   0.00001   0.00042
  19        6D+1        0.00001   0.00016  -0.00004   0.00001  -0.00014
  20        6D-1        0.00001  -0.00029   0.00001  -0.00002  -0.00006
  21        6D+2       -0.00002  -0.00057  -0.00009   0.00004  -0.00027
  22        6D-2       -0.00000   0.00017  -0.00016   0.00005  -0.00052
  23 2   C  1S         -0.00002   0.00219   0.01037  -0.00342   0.56286
  24        2S         -0.00000   0.00180   0.00854  -0.00281   0.46316
  25        2PX         0.00003  -0.00039   0.00036  -0.00006   0.00006
  26        2PY        -0.00002  -0.00028  -0.00035   0.00005  -0.00019
  27        2PZ        -0.00001  -0.00007  -0.00014   0.00002  -0.00004
  28        3S         -0.00021  -0.00005   0.00027   0.00004   0.01945
  29        3PX        -0.00014   0.00081  -0.00078  -0.00003   0.00006
  30        3PY         0.00011   0.00084   0.00106  -0.00008   0.00169
  31        3PZ         0.00005   0.00021   0.00040  -0.00003   0.00052
  32        4S          0.00182   0.00680   0.00559  -0.00415  -0.01980
  33        4PX         0.00148  -0.00222   0.00224  -0.00073   0.00087
  34        4PY        -0.00039  -0.00121  -0.00178   0.00150   0.00287
  35        4PZ        -0.00014  -0.00074  -0.00086   0.00055   0.00146
  36        5S          0.01576   0.06146   0.00080  -0.02894  -0.00982
  37        5PX         0.01630  -0.00316   0.00354  -0.00033   0.00303
  38        5PY        -0.00135  -0.01022  -0.00015   0.00652  -0.00144
  39        5PZ        -0.00076  -0.00311   0.00049   0.00231  -0.00030
  40        6D 0        0.00001   0.00036   0.00034  -0.00004   0.00072
  41        6D+1        0.00000  -0.00014   0.00025   0.00000   0.00009
  42        6D-1       -0.00001  -0.00013  -0.00025   0.00004  -0.00027
  43        6D+2        0.00001  -0.00029  -0.00012  -0.00002  -0.00063
  44        6D-2        0.00000  -0.00059   0.00059   0.00001   0.00003
  45 3   C  1S         -0.00005  -0.00004   0.54166  -0.15309  -0.01093
  46        2S         -0.00002  -0.00003   0.44570  -0.12596  -0.00899
  47        2PX         0.00007  -0.00006   0.00015   0.00040  -0.00035
  48        2PY         0.00004   0.00005   0.00026   0.00021   0.00034
  49        2PZ         0.00001   0.00001   0.00009   0.00006   0.00014
  50        3S          0.00002   0.00012   0.01852  -0.00536  -0.00050
  51        3PX        -0.00039   0.00032  -0.00044  -0.00085   0.00072
  52        3PY        -0.00020  -0.00025  -0.00185  -0.00033  -0.00094
  53        3PZ        -0.00004  -0.00008  -0.00066  -0.00009  -0.00037
  54        4S         -0.00161  -0.00257  -0.01614   0.01182   0.00731
  55        4PX         0.00083  -0.00062   0.00050   0.00263  -0.00209
  56        4PY        -0.00098  -0.00113  -0.00246   0.00245   0.00232
  57        4PZ        -0.00050  -0.00024  -0.00081   0.00080   0.00069
  58        5S         -0.03245  -0.03942   0.00341   0.03806   0.00532
  59        5PX        -0.00016   0.00163   0.00300   0.00151   0.00006
  60        5PY        -0.00612  -0.00705   0.00433   0.00597   0.00155
  61        5PZ        -0.00236  -0.00324   0.00088   0.00223   0.00050
  62        6D 0        0.00007   0.00006   0.00079   0.00017   0.00031
  63        6D+1       -0.00005   0.00006   0.00007  -0.00018   0.00024
  64        6D-1       -0.00000  -0.00003  -0.00029  -0.00004  -0.00022
  65        6D+2       -0.00010  -0.00005  -0.00068  -0.00013  -0.00008
  66        6D-2       -0.00015   0.00017  -0.00006  -0.00054   0.00058
  67 4   H  1S          0.00001  -0.00011  -0.00009   0.00004   0.00010
  68        2S         -0.00021  -0.00054  -0.00075   0.00016  -0.00252
  69        3S         -0.00054  -0.00127   0.00038  -0.00016   0.00397
  70        4PX        -0.00004   0.00001   0.00005  -0.00008   0.00016
  71        4PY         0.00001   0.00005   0.00006  -0.00003   0.00044
  72        4PZ         0.00005   0.00028   0.00031  -0.00002   0.00201
  73 5   H  1S          0.00001  -0.00009  -0.00007   0.00004   0.00009
  74        2S         -0.00019  -0.00083  -0.00093   0.00016  -0.00248
  75        3S         -0.00053  -0.00093   0.00077  -0.00019   0.00446
  76        4PX        -0.00004  -0.00005   0.00002  -0.00007   0.00002
  77        4PY         0.00004   0.00026   0.00026  -0.00004   0.00161
  78        4PZ        -0.00003  -0.00021  -0.00021   0.00000  -0.00133
  79 6   N  1S          0.00000  -0.00003   0.00000  -0.00000   0.00000
  80        2S          0.00000  -0.00006   0.00001  -0.00000  -0.00000
  81        2PX         0.00000   0.00019   0.00003  -0.00000   0.00003
  82        2PY        -0.00000  -0.00015  -0.00000  -0.00000  -0.00002
  83        2PZ         0.00000  -0.00006  -0.00001  -0.00000  -0.00002
  84        3S         -0.00001   0.00047  -0.00013   0.00005   0.00016
  85        3PX        -0.00002  -0.00015  -0.00012   0.00002  -0.00012
  86        3PY         0.00001   0.00010   0.00002   0.00002   0.00009
  87        3PZ         0.00001   0.00004   0.00005  -0.00000   0.00010
  88        4S          0.00009   0.00035   0.00075  -0.00010  -0.00128
  89        4PX         0.00001  -0.00020   0.00044  -0.00003  -0.00107
  90        4PY         0.00008   0.00109   0.00023  -0.00032   0.00058
  91        4PZ         0.00014   0.00133   0.00002  -0.00033   0.00009
  92        5S          0.00159   0.00854   0.00631  -0.00001   0.00242
  93        5PX         0.00090   0.00424   0.00160  -0.00002   0.00153
  94        5PY         0.00095  -0.00287  -0.00000  -0.00064  -0.00018
  95        5PZ        -0.00021   0.00167   0.00104  -0.00005  -0.00094
  96        6D 0        0.00001   0.00023   0.00004  -0.00002   0.00003
  97        6D+1        0.00000   0.00015   0.00001   0.00000   0.00006
  98        6D-1        0.00001  -0.00009  -0.00000  -0.00001  -0.00001
  99        6D+2        0.00000  -0.00010  -0.00000  -0.00001  -0.00007
 100        6D-2       -0.00000   0.00036   0.00001   0.00000   0.00011
 101 7   H  1S          0.00001   0.00010   0.00000   0.00002  -0.00009
 102        2S         -0.00005  -0.00293  -0.00007  -0.00032  -0.00071
 103        3S         -0.00007   0.00334  -0.00092  -0.00008   0.00033
 104        4PX        -0.00001   0.00001  -0.00008  -0.00003   0.00006
 105        4PY        -0.00001  -0.00163  -0.00003  -0.00002  -0.00019
 106        4PZ         0.00000   0.00137   0.00006   0.00005   0.00017
 107 8   H  1S          0.00001   0.00008   0.00002   0.00002  -0.00004
 108        2S         -0.00009  -0.00296  -0.00018  -0.00032  -0.00129
 109        3S         -0.00034   0.00571  -0.00002  -0.00010  -0.00009
 110        4PX        -0.00001  -0.00016  -0.00009  -0.00003   0.00004
 111        4PY        -0.00001  -0.00044   0.00002   0.00000  -0.00012
 112        4PZ        -0.00001  -0.00213  -0.00007  -0.00005  -0.00033
 113 9   H  1S          0.00001  -0.00006   0.00000  -0.00002   0.00004
 114        2S         -0.00019  -0.00080  -0.00024   0.00031  -0.00018
 115        3S         -0.00040  -0.00086  -0.00140   0.00004  -0.00035
 116        4PX        -0.00002   0.00008  -0.00005   0.00001  -0.00005
 117        4PY         0.00000  -0.00002  -0.00000   0.00001   0.00001
 118        4PZ         0.00003   0.00011   0.00006  -0.00005   0.00005
 119 10  C  1S          0.00222  -0.00004   0.15310   0.54175   0.00047
 120        2S          0.00184  -0.00001   0.12599   0.44579   0.00040
 121        2PX         0.00036  -0.00002  -0.00041   0.00008  -0.00005
 122        2PY        -0.00035  -0.00001  -0.00032  -0.00011  -0.00003
 123        2PZ        -0.00015  -0.00000  -0.00011  -0.00008  -0.00001
 124        3S          0.00008  -0.00030   0.00511   0.01860   0.00015
 125        3PX        -0.00079   0.00012   0.00094  -0.00001   0.00027
 126        3PY         0.00100   0.00009   0.00128   0.00136   0.00013
 127        3PZ         0.00043   0.00002   0.00044   0.00054   0.00005
 128        4S          0.00489   0.00252   0.00166  -0.01967  -0.00260
 129        4PX         0.00177  -0.00137  -0.00225   0.00121   0.00057
 130        4PY        -0.00116  -0.00015  -0.00080   0.00320   0.00084
 131        4PZ        -0.00043  -0.00008  -0.00027   0.00116   0.00041
 132        5S          0.04546   0.01641  -0.00949  -0.02291  -0.00748
 133        5PX         0.01342  -0.00433   0.00694   0.00539   0.00186
 134        5PY        -0.01073  -0.00152  -0.00066   0.00067   0.00168
 135        5PZ        -0.00482  -0.00047  -0.00063  -0.00008   0.00049
 136        6D 0        0.00036   0.00001   0.00057   0.00058   0.00006
 137        6D+1        0.00029   0.00000  -0.00011   0.00016  -0.00005
 138        6D-1       -0.00025  -0.00001  -0.00019  -0.00021   0.00001
 139        6D+2       -0.00011   0.00001  -0.00046  -0.00050  -0.00011
 140        6D-2        0.00067  -0.00001  -0.00050   0.00021  -0.00014
 141 11  H  1S          0.00002   0.00003   0.00007  -0.00011  -0.00008
 142        2S         -0.00028  -0.00018  -0.00270  -0.00003  -0.00081
 143        3S         -0.00008   0.00006   0.00429  -0.00103   0.00048
 144        4PX        -0.00011   0.00011  -0.00017   0.00005  -0.00006
 145        4PY         0.00003   0.00003  -0.00040   0.00006  -0.00005
 146        4PZ        -0.00008  -0.00009  -0.00204   0.00030  -0.00023
 147 12  H  1S          0.00003   0.00004   0.00008  -0.00012  -0.00009
 148        2S         -0.00026  -0.00035  -0.00278   0.00000  -0.00070
 149        3S          0.00009   0.00040   0.00440  -0.00118   0.00065
 150        4PX        -0.00010   0.00009  -0.00004   0.00004  -0.00004
 151        4PY        -0.00003  -0.00004  -0.00163   0.00024  -0.00017
 152        4PZ         0.00010   0.00007   0.00130  -0.00019   0.00015
 153 13  C  1S          0.56303   0.00001  -0.00057  -0.00217   0.00002
 154        2S          0.46328   0.00001  -0.00045  -0.00179   0.00003
 155        2PX         0.00052  -0.00001  -0.00015  -0.00033  -0.00003
 156        2PY         0.00044   0.00001   0.00014   0.00032   0.00002
 157        2PZ         0.00014   0.00000   0.00005   0.00013   0.00001
 158        3S          0.01875   0.00003   0.00002  -0.00021  -0.00024
 159        3PX        -0.00078   0.00004   0.00045   0.00061   0.00014
 160        3PY        -0.00198  -0.00006  -0.00048  -0.00091  -0.00010
 161        3PZ        -0.00056  -0.00002  -0.00016  -0.00033  -0.00005
 162        4S         -0.01474  -0.00023  -0.00015   0.00717   0.00175
 163        4PX         0.00104   0.00002  -0.00032  -0.00174  -0.00135
 164        4PY        -0.00165   0.00005  -0.00020   0.00205   0.00004
 165        4PZ        -0.00079   0.00007   0.00004   0.00087   0.00006
 166        5S         -0.04985  -0.00131  -0.00500  -0.00140   0.00266
 167        5PX         0.00493   0.00099  -0.00129   0.00100  -0.00169
 168        5PY        -0.00651   0.00032  -0.00189   0.00007  -0.00000
 169        5PZ        -0.00239   0.00033  -0.00038   0.00008   0.00013
 170        6D 0        0.00077   0.00001   0.00013   0.00032   0.00002
 171        6D+1        0.00014   0.00001   0.00015   0.00026   0.00001
 172        6D-1       -0.00030  -0.00000  -0.00009  -0.00024  -0.00002
 173        6D+2       -0.00069  -0.00002  -0.00008  -0.00010   0.00001
 174        6D-2       -0.00010   0.00001   0.00032   0.00052   0.00000
 175 14  N  1S         -0.00003   0.00000   0.00000   0.00000   0.00000
 176        2S         -0.00005   0.00000   0.00001  -0.00000  -0.00000
 177        2PX        -0.00020  -0.00001  -0.00003  -0.00001   0.00000
 178        2PY        -0.00012   0.00000  -0.00001  -0.00003  -0.00000
 179        2PZ        -0.00005   0.00000   0.00000  -0.00001  -0.00000
 180        3S          0.00040  -0.00003  -0.00009   0.00021   0.00002
 181        3PX         0.00015   0.00003   0.00014   0.00003  -0.00001
 182        3PY         0.00009  -0.00000   0.00006   0.00012   0.00002
 183        3PZ         0.00011  -0.00001  -0.00001   0.00005   0.00001
 184        4S          0.00032   0.00009   0.00022  -0.00188   0.00009
 185        4PX        -0.00042  -0.00018  -0.00050   0.00089   0.00014
 186        4PY        -0.00021   0.00006   0.00018   0.00037  -0.00011
 187        4PZ         0.00009  -0.00001  -0.00009   0.00009  -0.00005
 188        5S          0.01215  -0.00041   0.00301   0.00011   0.00112
 189        5PX        -0.00015  -0.00023   0.00015  -0.00036   0.00013
 190        5PY        -0.00245   0.00042  -0.00055   0.00024  -0.00055
 191        5PZ        -0.00156   0.00001  -0.00046  -0.00017  -0.00031
 192        6D 0        0.00017  -0.00000   0.00001   0.00005   0.00001
 193        6D+1       -0.00011   0.00000  -0.00000  -0.00001  -0.00000
 194        6D-1       -0.00001  -0.00001  -0.00004  -0.00000   0.00000
 195        6D+2       -0.00011   0.00000  -0.00001  -0.00004  -0.00001
 196        6D-2       -0.00029   0.00000  -0.00003  -0.00008  -0.00001
 197 15  H  1S          0.00010   0.00001  -0.00003  -0.00006   0.00003
 198        2S         -0.00286  -0.00005  -0.00016  -0.00094  -0.00038
 199        3S          0.00420   0.00030  -0.00039   0.00092  -0.00019
 200        4PX        -0.00024   0.00000   0.00004  -0.00014   0.00003
 201        4PY        -0.00048  -0.00001  -0.00000  -0.00004   0.00001
 202        4PZ        -0.00203  -0.00000  -0.00012  -0.00026  -0.00007
 203 16  H  1S          0.00006   0.00001  -0.00002  -0.00007   0.00003
 204        2S         -0.00287  -0.00006  -0.00025  -0.00100  -0.00036
 205        3S          0.00427   0.00022  -0.00035   0.00101  -0.00018
 206        4PX         0.00000   0.00000   0.00005  -0.00010   0.00004
 207        4PY        -0.00167  -0.00001  -0.00009  -0.00021  -0.00003
 208        4PZ         0.00137   0.00000   0.00010   0.00019   0.00006
 209 17  H  1S         -0.00010   0.00001  -0.00005   0.00012   0.00001
 210        2S         -0.00075  -0.00029  -0.00156  -0.00235  -0.00002
 211        3S         -0.00045  -0.00015   0.00202   0.00424  -0.00038
 212        4PX         0.00005   0.00004   0.00004   0.00018   0.00006
 213        4PY         0.00004  -0.00001   0.00016   0.00037  -0.00002
 214        4PZ         0.00031   0.00005   0.00084   0.00191   0.00006
 215 18  H  1S         -0.00011   0.00002  -0.00004   0.00013   0.00000
 216        2S         -0.00063  -0.00032  -0.00158  -0.00229   0.00004
 217        3S         -0.00058  -0.00034   0.00192   0.00419  -0.00032
 218        4PX         0.00004   0.00004  -0.00003   0.00004   0.00006
 219        4PY         0.00021   0.00004   0.00066   0.00151   0.00001
 220        4PZ        -0.00021  -0.00005  -0.00052  -0.00120  -0.00006
 221 19  H  1S         -0.00015  -0.00000   0.00000   0.00001  -0.00000
 222        2S          0.00056  -0.00005  -0.00021   0.00011   0.00004
 223        3S         -0.00118  -0.00012  -0.00031  -0.00058  -0.00020
 224        4PX        -0.00016   0.00001   0.00004   0.00005  -0.00001
 225        4PY        -0.00015   0.00001   0.00003  -0.00001   0.00002
 226        4PZ         0.00003  -0.00001  -0.00003  -0.00000   0.00001
 227 20  H  1S         -0.00014   0.00000  -0.00004  -0.00005  -0.00000
 228        2S          0.00048   0.00002   0.00026   0.00038  -0.00004
 229        3S         -0.00357   0.00044  -0.00076   0.00004  -0.00039
 230        4PX        -0.00001  -0.00000   0.00000  -0.00015  -0.00002
 231        4PY        -0.00004   0.00001   0.00002  -0.00001  -0.00002
 232        4PZ        -0.00002   0.00001   0.00003  -0.00000  -0.00001
 233 21  C  1S         -0.00000   0.00003   0.00000  -0.00000  -0.00000
 234        2S         -0.00000   0.00007   0.00001  -0.00001  -0.00002
 235        2PX         0.00000   0.00001   0.00001  -0.00001   0.00000
 236        2PY        -0.00000  -0.00005  -0.00001   0.00000   0.00001
 237        2PZ         0.00000   0.00001   0.00001  -0.00000   0.00001
 238        3S          0.00004  -0.00039  -0.00001   0.00004   0.00022
 239        3PX        -0.00000  -0.00010  -0.00004   0.00004   0.00006
 240        3PY        -0.00000   0.00024   0.00004  -0.00003  -0.00006
 241        3PZ        -0.00000  -0.00013  -0.00004   0.00002  -0.00005
 242        4S         -0.00018  -0.00039  -0.00046  -0.00041  -0.00070
 243        4PX        -0.00005   0.00270  -0.00009  -0.00023  -0.00015
 244        4PY         0.00001  -0.00347  -0.00008   0.00025   0.00031
 245        4PZ        -0.00039  -0.00324  -0.00055   0.00067  -0.00088
 246        5S          0.00070   0.00556   0.00362  -0.00109   0.00120
 247        5PX         0.00016   0.00078   0.00084  -0.00051   0.00004
 248        5PY        -0.00001  -0.00159  -0.00075  -0.00007   0.00051
 249        5PZ         0.00034   0.00076   0.00028  -0.00040   0.00086
 250        6D 0        0.00000   0.00007   0.00000   0.00000   0.00002
 251        6D+1       -0.00001  -0.00007  -0.00004   0.00002  -0.00000
 252        6D-1       -0.00000  -0.00003  -0.00000   0.00000   0.00003
 253        6D+2       -0.00000   0.00003  -0.00000   0.00001  -0.00002
 254        6D-2        0.00001  -0.00004   0.00002  -0.00000   0.00005
 255 22  O  1S         -0.00000   0.00000   0.00000  -0.00000  -0.00000
 256        2S         -0.00000  -0.00001   0.00000   0.00000  -0.00001
 257        2PX         0.00000   0.00003   0.00001  -0.00001  -0.00002
 258        2PY        -0.00000  -0.00002   0.00000  -0.00000   0.00001
 259        2PZ        -0.00000   0.00003   0.00000   0.00000  -0.00000
 260        3S          0.00001   0.00016   0.00000  -0.00001   0.00009
 261        3PX        -0.00001  -0.00011  -0.00002   0.00004   0.00007
 262        3PY         0.00000   0.00006  -0.00000   0.00001  -0.00006
 263        3PZ         0.00001  -0.00012  -0.00001  -0.00001   0.00002
 264        4S         -0.00010  -0.00201  -0.00015   0.00021  -0.00023
 265        4PX         0.00003   0.00012   0.00007  -0.00017  -0.00012
 266        4PY        -0.00002   0.00023   0.00001  -0.00002   0.00014
 267        4PZ        -0.00008  -0.00047  -0.00005   0.00016  -0.00021
 268        5S         -0.00087  -0.00133  -0.00043   0.00110  -0.00178
[...]
 ,-0.00000550,0.00000220,0.00001433,-0.00001007,-0.00001574,0.00001301,
 0.01803512,0.01166642,0.00447606,0.00015542,0.00001985,0.00025657,0.00
 015477,0.00039978,-0.00023169,-0.03992889,-0.12467331,-0.01371934,-0.0
 8701101,0.59291677,0.00001050,-0.00008615,-0.00004476,0.00029677,0.000
 08466,0.00051982,0.00090883,-0.00071071,-0.00008914,-0.00011589,0.0000
 5604,-0.00000591,0.00004583,-0.00002650,-0.00001962,0.00007213,-0.0000
 0609,0.00001009,0.00000103,0.00000188,-0.00000453,0.00000051,-0.000000
 33,0.00000288,0.00000219,-0.00000122,0.00000138,0.00528448,0.00435901,
 0.00239679,0.00044952,0.00020220,0.00032667,-0.00017900,-0.00028501,0.
 00005599,-0.00136442,0.00632806,-0.06929450,-0.06818185,-0.13537619,0.
 27776842,0.00001835,-0.00002010,-0.00007798,-0.00003659,0.00005341,0.0
 0001851,0.00145765,0.00051529,0.00093279,-0.00005302,-0.00007473,-0.00
 016986,0.00001780,-0.00000016,-0.00000438,-0.00000138,0.00001226,-0.00
 000260,0.00000151,-0.00000335,0.00000178,-0.00002429,-0.00001679,-0.00
 000403,0.00000115,0.00000307,0.00000011,0.00066836,0.00728682,0.025013
 04,-0.00028694,-0.00012887,-0.00044024,-0.00004947,-0.00008750,-0.0000
 0311,-0.04835214,-0.00408910,-0.01800176,-0.01639224,-0.01698118,-0.03
 131783,0.06222444,0.00000767,0.00000399,0.00006804,0.00007740,-0.00001
 400,0.00027932,-0.00101528,0.00024046,-0.00010177,-0.00011457,0.000065
 49,0.00009646,0.00000181,-0.00002892,-0.00001344,0.00001392,-0.0000135
 7,-0.00000027,0.00000136,0.00000265,-0.00000274,0.00001908,0.00001187,
 -0.00000252,0.00000074,-0.00000233,0.00000014,0.00055901,-0.00609379,-
 0.02098328,0.00027182,0.00036751,0.00041254,0.00009181,0.00002648,0.00
 003869,-0.00334159,-0.06984018,-0.05777218,-0.01090365,-0.00637693,-0.
 01684609,0.00895074,0.07397644,0.00002009,-0.00007981,-0.00002184,0.00
 029187,0.00025981,0.00049555,-0.00065877,-0.00010429,0.00004145,-0.000
 20749,0.00010089,0.00003503,-0.00000982,-0.00000660,-0.00001938,0.0000
 8295,-0.00001920,0.00002197,0.00000234,0.00000871,-0.00000464,0.000013
 56,0.00000406,0.00000242,-0.00000119,-0.00000408,0.00000187,-0.0003547
 4,-0.00241445,-0.00991706,0.00060019,0.00030609,0.00047593,0.00001127,
 -0.00000784,0.00000975,-0.01621837,-0.05872899,-0.26353484,-0.00730273
 ,-0.00450212,0.00110225,0.02415159,0.07141672,0.28605481,0.00000831,-0
 .00006431,0.00004280,-0.00003830,0.00003289,0.00009042,0.00149571,0.00
 076879,-0.00058573,0.00001443,0.00000019,0.00000227,0.00000240,-0.0001
 7880,0.00006791,0.00001669,0.00000408,0.00000028,-0.00002611,-0.000017
 10,-0.00000010,0.00000320,0.00000081,-0.00000003,0.00000097,0.00000246
 ,-0.00000041,-0.00147192,0.02157756,-0.01547992,-0.00006210,-0.0000282
 2,0.00000184,-0.00027897,-0.00044681,0.00032188,-0.04708614,0.00670961
 ,-0.00485162,-0.00523402,-0.03179516,0.01706963,0.00105240,0.00229147,
 -0.00081077,0.05913728,-0.00000232,0.00000081,-0.00004778,0.00009548,0
 .00034219,-0.00030167,-0.00109152,0.00035197,0.00005354,0.00000420,-0.
 00003851,-0.00000975,-0.00019045,0.00009978,0.00001567,0.00004989,-0.0
 0001965,0.00001680,0.00002039,0.00001048,-0.00000058,0.00000011,0.0000
 0261,0.00000240,-0.00000337,-0.00000668,0.00000305,0.00200395,-0.01744
 864,0.01161386,0.00006681,0.00004141,-0.00004148,0.00054188,0.00064677
 ,-0.00008203,0.00124091,-0.21090911,0.11633330,-0.00409836,-0.01593449
 ,0.00820015,0.00042475,0.00801548,-0.00428484,0.00173171,0.23533737,-0
 .00000349,0.00010489,-0.00000828,-0.00016360,-0.00029591,0.00003591,-0
 .00035566,0.00007798,0.00030176,-0.00000188,-0.00000231,-0.00001011,0.
 00006743,0.00002186,-0.00006014,-0.00007071,0.00000522,-0.00001207,0.0
 0000470,-0.00000090,0.00000819,0.00000034,-0.00000206,-0.00000341,0.00
 000354,0.00000367,-0.00000261,0.00033290,-0.00801285,0.00504251,0.0000
 6603,0.00003851,-0.00000285,-0.00026136,0.00000515,0.00003488,-0.00203
 460,0.12114758,-0.13878847,0.00094232,-0.00543124,0.00495024,-0.001160
 87,0.02459203,-0.01904283,0.00211706,-0.12959445,0.14400732,-0.0000390
 5,-0.00014623,0.00007012,0.00169760,-0.00042172,-0.00117320,-0.0052581
 2,-0.00779839,-0.02891298,-0.00023934,0.00027527,0.00060926,-0.0000663
 2,0.00005109,0.00003148,0.00001287,0.00000498,0.00010227,0.00000797,-0
 .00000062,-0.00000924,0.00006423,0.00012535,0.00018551,-0.00002827,0.0
 0001870,-0.00000127,-0.04825883,-0.00673584,-0.02462164,-0.00499565,-0
 .00274651,-0.00067791,0.00128339,0.00043505,0.00062877,0.00025589,0.00
 765581,0.02594929,0.00193798,-0.00031699,-0.00027667,-0.00379966,0.002
 95903,0.00145000,0.00101261,-0.00065871,-0.00063514,0.05653578,0.00007
 447,-0.00004922,0.00014515,0.00085607,0.00021283,0.00023640,-0.0026028
 6,-0.00491619,-0.01485015,-0.00012873,0.00033707,0.00027103,-0.0000322
 1,0.00003915,0.00005661,-0.00004372,0.00001853,0.00002541,-0.00000926,
 -0.00003424,-0.00000925,0.00009550,0.00002018,0.00003400,-0.00000572,0
 .00001018,-0.00000718,-0.00605176,-0.06543568,-0.06057751,-0.00262824,
 -0.00073353,-0.00079858,0.00073699,0.00033307,-0.00015827,-0.00100954,
 -0.00749977,-0.02125667,-0.00106520,0.00123728,0.00124213,0.00326566,-
 0.00177042,-0.00156276,-0.00094844,0.00064180,0.00001176,0.00691231,0.
 07033291,0.00001034,0.00022530,0.00043137,0.00045735,0.00000526,0.0003
 7496,-0.00076056,-0.00109249,-0.00387137,-0.00048432,0.00034498,0.0003
 3213,0.00000216,-0.00001473,-0.00000049,-0.00019044,0.00001415,-0.0000
 6142,-0.00000155,-0.00001159,-0.00000930,0.00017755,0.00004126,-0.0000
 3882,-0.00000459,-0.00000108,-0.00001071,-0.02364570,-0.06195625,-0.27
 809336,-0.00050315,-0.00071624,0.00129322,-0.00025746,-0.00036220,0.00
 080233,-0.00100375,-0.00307509,-0.00951521,-0.00030916,0.00114968,0.00
 095341,0.00141246,-0.00156753,0.00088808,0.00013986,-0.00024381,0.0010
 6587,0.02656414,0.07124791,0.30274002,-0.00001699,-0.00011804,-0.00010
 098,0.00177373,-0.00105040,0.00054121,-0.00342050,-0.02550988,0.017361
 07,-0.00006110,0.00007762,0.00002240,-0.00024767,0.00057021,-0.0002853
 1,-0.00000848,0.00008690,-0.00009695,0.00004111,0.00022030,-0.00008239
 ,0.00001783,-0.00001548,0.00001274,0.00000276,-0.00000110,-0.00000172,
 -0.04636138,-0.00512648,0.00355363,0.00125787,0.00074225,-0.00025431,-
 0.00517141,-0.00283327,-0.00082023,-0.00196396,0.02314002,-0.01510873,
 0.00215879,0.00023642,-0.00040279,0.00096504,-0.00104436,0.00002258,-0
 .00389129,0.00307791,0.00145476,-0.00036234,0.00266463,-0.00158796,0.0
 5546676,0.00002497,0.00032716,-0.00026095,0.00110568,0.00044006,-0.000
 27807,-0.00196284,-0.01382070,0.00863001,-0.00005817,0.00003988,0.0000
 0036,-0.00044536,0.00063711,0.00003592,-0.00017440,0.00003225,-0.00007
 277,0.00019226,0.00005058,0.00000474,-0.00000205,-0.00003682,0.0000057
 7,0.00000597,0.00000835,-0.00000669,-0.00509419,-0.21490907,0.11251723
 ,0.00037732,0.00031746,-0.00032590,-0.00273743,-0.00078115,-0.00072889
 ,0.00029632,-0.01913341,0.01198051,-0.00089891,0.00155115,-0.00035486,
 -0.00047590,0.00066754,-0.00033217,0.00307716,-0.00158014,-0.00145826,
 0.00035192,0.00738075,-0.00403438,0.00550084,0.23829464,0.00005514,-0.
 00030355,0.00004563,0.00004028,0.00012281,0.00017283,-0.00047794,-0.00
 399957,0.00210319,-0.00001204,0.00004186,-0.00002127,0.00029496,-0.000
 10127,0.00002060,0.00013369,0.00000827,0.00001311,-0.00008025,0.000001
 76,-0.00003944,-0.00001446,-0.00000963,-0.00001101,0.00000269,-0.00000
 061,0.00000245,0.00409281,0.11365119,-0.12674482,0.00061527,-0.0001351
 1,0.00082453,-0.00070925,-0.00065268,0.00136026,0.00048183,-0.00809347
 ,0.00460036,-0.00085245,-0.00021376,0.00032645,-0.00077286,0.00015026,
 0.00103748,0.00158686,-0.00125664,0.00104278,0.00098339,0.02564091,-0.
 01755914,-0.00467341,-0.12503892,0.13291088,-0.00000819,-0.00003591,-0
 .00001866,0.00003343,0.00015959,-0.00004349,-0.00020570,0.00009700,-0.
 00040618,0.00000503,-0.00000653,-0.00000918,-0.00003721,0.00001378,0.0
 0000830,0.00004466,-0.00001037,0.00001556,0.00000272,0.00000313,-0.000
 00193,-0.00000150,0.00000039,0.00000231,-0.00000303,-0.00000371,0.0000
 0201,0.00161337,-0.00133960,0.00104961,0.00001570,-0.00000241,0.000031
 96,0.00019446,0.00027594,-0.00006684,-0.00302733,-0.02977036,0.0226088
 3,-0.06100957,-0.00922653,0.01276191,0.00111263,0.00045091,-0.00034468
 ,-0.00566633,-0.00315506,-0.00083732,-0.00007651,0.00008300,-0.0000905
 2,-0.00055984,0.00101873,-0.00048136,0.06556190,0.00000513,-0.00001055
 ,0.00000135,0.00001054,0.00004887,-0.00004355,0.00020152,0.00006267,-0
 .00018462,0.00000824,-0.00000244,-0.00000352,-0.00000888,-0.00000795,0
 .00001183,0.00000169,-0.00000186,0.00000133,-0.00000383,-0.00000196,-0
 .00000065,-0.00000135,-0.00000133,-0.00000052,0.00000030,0.00000084,0.
 ,0.00037461,0.00163640,-0.00041491,-0.00004191,-0.00006659,-0.00004674
 ,0.00014645,-0.00002174,-0.00000048,-0.00247247,-0.01580636,0.01232159
 ,-0.01018038,-0.26163687,0.17190067,0.00155509,0.00053107,-0.00019427,
 -0.00318744,-0.00000944,-0.00152731,0.00003595,-0.00004010,-0.00008542
 ,-0.00045346,0.00026746,0.00038726,0.01616679,0.29464417,0.00000778,-0
 .00000063,0.00000337,0.00003119,0.00000834,-0.00001197,0.00015541,-0.0
 0019992,0.00014840,0.00000184,0.00000020,-0.00000659,0.00000246,0.0000
 0163,0.00000924,-0.00000438,0.,-0.00000297,-0.00000050,-0.00000064,0.0
 0000083,-0.00000185,-0.00000167,-0.00000085,0.00000115,0.00000189,-0.0
 0000066,0.00033861,0.00014106,0.00005817,-0.00002439,-0.00004216,-0.00
 004835,-0.00012634,-0.00004136,-0.00003478,-0.00478661,-0.00914536,0.0
 0031201,0.01601696,0.22128688,-0.17424486,0.00039260,-0.00077926,0.001
 60229,-0.00013190,-0.00045343,0.00131228,0.00009696,0.00003901,-0.0001
 3188,0.00036974,-0.00007115,-0.00005271,-0.01332911,-0.19915777,0.1686
 2305,0.00004698,0.00027371,0.00008532,-0.00053005,-0.00067774,-0.00022
 424,-0.00065210,0.00192608,0.00083496,0.00001935,0.00000327,0.00004406
 ,0.00001497,0.00002845,-0.00002291,-0.00023089,0.00003889,-0.00006289,
 -0.00000149,-0.00001874,0.00001261,0.00000278,-0.00000689,-0.00000943,
 0.00000665,0.00000973,-0.00000941,-0.00467691,-0.00575793,-0.00177145,
 0.00002318,-0.00000882,-0.00012206,0.00000499,-0.00007558,0.00007728,-
 0.02447022,0.02181854,0.00997110,-0.25753300,0.16246271,0.06494010,0.0
 0147914,0.00072396,-0.00073799,0.00101552,-0.00006634,0.00053850,0.000
 31749,-0.00016234,0.00008338,0.00037881,-0.00009841,-0.00020632,0.0020
 0416,-0.00215703,0.00099210,0.28278373,0.00000712,0.00009236,0.0000296
 6,-0.00027927,-0.00026383,-0.00006688,-0.00084877,0.00081100,0.0001792
 0,0.00000783,-0.00000386,0.00001375,0.00001197,0.00000139,-0.00001210,
 -0.00009559,0.00001809,-0.00002198,-0.00000424,-0.00000856,0.00000578,
 -0.00000158,-0.00000207,-0.00000357,0.00000269,0.00000394,-0.00000388,
 -0.00211663,-0.00162157,-0.00063092,0.00005520,0.00002558,-0.00001022,
 0.00008600,0.00001102,0.00004054,-0.01903583,0.01219530,0.00312317,0.1
 7506846,-0.19686291,-0.03869586,-0.00018815,0.00022900,0.00012920,0.00
 046797,0.00044951,0.00032768,-0.00000947,-0.00007743,0.00015477,-0.000
 18407,0.00027186,-0.00021932,0.02527348,-0.01958314,-0.01158294,-0.178
 21634,0.20432983,-0.00001808,-0.00005932,-0.00001439,0.00005584,0.0001
 2684,0.00009198,-0.00000837,-0.00039726,0.00057537,0.00000343,-0.00001
 229,-0.00001472,0.00000059,-0.00000763,0.00000118,0.00006521,-0.000012
 95,0.00001006,0.00000324,0.00000999,-0.00000352,-0.00000493,-0.0000012
 2,-0.00000157,-0.00000068,-0.00000507,0.00000312,0.00091997,0.00035218
 ,0.00016358,0.00014520,0.00009312,0.00002972,-0.00004385,0.00003152,-0
 .00004221,-0.00974465,0.00097052,-0.00329879,0.10380806,-0.06645917,-0
 .04469721,0.00002427,0.00102130,0.00079017,0.00042261,0.00009181,0.000
 11289,-0.00036289,0.00025821,0.00036448,0.00004258,-0.00026813,0.00000
 235,-0.02083893,0.01703805,0.00246646,-0.07447292,0.04722050,0.0434802
 6,-0.01545392,0.02098714,-0.01342247,0.00001399,0.00124365,-0.00175521
 ,0.00017933,0.00048665,0.00067883,0.00011391,-0.00009935,0.00039322,-0
 .00104948,-0.00053382,0.00012872,-0.09036746,0.02921407,-0.00766615,0.
 00084030,-0.00155983,0.00126730,0.00087931,0.00029287,-0.00000284,0.00
 159677,-0.00432056,0.00345908,0.00010147,-0.00064602,-0.00018567,0.000
 00444,-0.00003847,-0.00010783,0.00018280,-0.00036509,0.00002335,-0.000
 01651,0.00024380,0.00012109,0.00025258,-0.00006977,-0.00000653,0.00001
 490,-0.00000649,-0.00001716,0.00000710,-0.00002073,0.00001449,0.000021
 11,0.00002486,0.00005456,-0.00001327,0.00003576,-0.00002498,-0.0000164
 0,-0.00000262,-0.00000122,0.00006181,0.00002426,-0.00002763,0.41161309
 ,0.00790067,-0.03144207,-0.00120636,-0.00498594,0.00759677,0.00217717,
 -0.00219564,-0.00278770,-0.00083074,0.00046349,0.00005683,-0.00049624,
 0.00056522,0.00009112,0.00022643,0.05642212,-0.11607171,0.05145035,0.0
 0033440,0.00157485,-0.00158145,-0.00056713,0.00022407,0.00189036,-0.01
 462988,0.00565914,-0.01279036,-0.00061344,0.00167485,0.00067314,-0.000
 01973,0.00012118,0.00024238,-0.00008187,0.00026109,-0.00013429,-0.0000
 7025,-0.00067065,-0.00027675,-0.00054254,0.00018821,0.00002775,-0.0000
 2093,0.00001370,0.00004283,0.00000191,0.00003299,-0.00003516,-0.000014
 93,-0.00003530,-0.00011395,-0.00001313,-0.00012279,0.00009005,0.000031
 87,0.00000557,0.00000313,-0.00014575,-0.00005509,0.00004709,-0.1946913
 8,0.48936889,-0.01042657,0.00878229,0.02033621,0.00341235,-0.00621119,
 -0.00249544,0.00225677,0.00262971,0.00056760,-0.00068409,0.00029598,-0
 .00017164,0.00072009,0.00138921,-0.00022688,-0.01775542,0.02030390,-0.
 14109375,0.00547678,-0.00587923,-0.00233430,0.00198092,-0.00354950,-0.
 00393386,-0.00432877,0.02738804,-0.02289969,0.00058204,-0.00134323,-0.
 00061062,0.00004202,-0.00018588,-0.00028647,-0.00021864,0.00003515,0.0
 0009103,0.00009467,0.00055095,0.00025636,0.00039780,-0.00017389,-0.000
 06297,0.00001875,-0.00003058,-0.00006643,-0.00000489,-0.00002157,0.000
 02386,-0.00001835,0.00002779,0.00005389,0.00006736,0.00012706,-0.00006
 253,-0.00001958,0.00000710,0.00001434,0.00012044,0.00004206,-0.0000236
 0,-0.13434688,0.06191275,0.71379138,-0.00022819,0.00196394,0.00132108,
 0.00038745,-0.00181455,0.00018622,0.00045129,0.00005371,-0.00034721,-0
 .00029525,0.00039635,-0.00049000,0.00004332,0.00123636,-0.00041770,0.0
 1677675,0.00096864,-0.00396644,0.00004935,-0.00024539,-0.00147691,-0.0
 0066290,-0.00092183,-0.00218803,0.00357218,0.00304999,-0.00164520,0.00
 006183,0.00013718,0.00005991,0.00003501,-0.00004104,0.00003385,-0.0001
 7107,0.00021866,0.00002310,0.00003768,-0.00007013,-0.00003860,-0.00008
 723,0.00002067,-0.00000234,-0.00000681,0.00000035,0.00000408,-0.000007
 69,0.00001135,-0.00000487,-0.00001426,-0.00000950,-0.00002463,0.000025
 35,-0.00000523,0.00000086,0.00000946,0.00000114,-0.00000009,-0.0000191
 2,-0.00000733,0.00001195,-0.11016631,0.01184770,0.08319457,0.09226093,
 -0.00134918,-0.00188747,0.00149331,-0.00023640,-0.00069719,0.00047990,
 0.00009570,0.00046022,-0.00001501,0.00025635,0.00015603,0.00000683,0.0
 0004747,0.00008985,-0.00024102,0.00109327,0.00753932,0.03887569,0.0002
 8128,0.00023351,0.00172641,-0.00038573,-0.00003748,0.00266123,0.004234
 33,-0.00264935,0.00521184,0.00006529,-0.00024684,-0.00006871,-0.000027
 72,-0.00001828,-0.00001712,-0.00002402,-0.00001450,0.00001743,-0.00000
 415,0.00010576,0.00004323,0.00009190,-0.00002631,-0.00000382,0.0000057
 4,-0.00000461,-0.00000589,-0.00000145,-0.00000443,0.00000383,0.0000110
 3,0.00000912,0.00001791,0.00001257,0.00002849,-0.00002174,-0.00000430,
 -0.00000171,-0.00000167,0.00002434,0.00000823,-0.00000764,0.01105923,-
 0.09663022,-0.02351902,-0.04429471,0.09096781,0.00613633,-0.00899400,-
 0.00460759,-0.00138684,0.00207725,0.00133561,-0.00085614,-0.00129294,-
 0.00019882,0.00039088,0.00005225,0.00008524,-0.00053465,-0.00033720,0.
 00010579,0.00670133,0.03167777,-0.07935175,-0.00115905,0.00112281,0.00
 071035,-0.00123359,0.00215536,0.00065329,-0.00438737,0.00647878,-0.002
 28699,-0.00026386,0.00066741,0.00028266,-0.00005468,0.00009849,0.00015
 396,0.00008695,0.00004852,-0.00005624,-0.00004580,-0.00026766,-0.00014
 210,-0.00019396,0.00008918,0.00003657,-0.00000994,0.00001820,0.0000385
 4,0.00000048,0.00001046,-0.00000977,0.00001306,-0.00001544,-0.00002146
 ,-0.00001966,-0.00006157,0.00002899,0.00000904,-0.00000563,-0.00000966
 ,-0.00005999,-0.00002076,0.00000991,0.07557007,-0.01265418,-0.41406802
 ,-0.13015089,0.02871290,0.55390281,0.00593966,0.00129991,-0.00419826,0
 .00015838,0.00086660,0.00034199,-0.00035159,-0.00078892,-0.00026968,-0
 .00011277,-0.00007617,-0.00025497,-0.00001014,-0.00022448,0.00011928,-
 0.01108889,0.05324752,-0.00015944,-0.00249841,0.00217567,0.00005274,-0
 .00024348,-0.00004762,0.00012356,-0.00360716,-0.00226155,0.00198586,-0
 .00013884,0.00046627,0.00021660,0.00001778,0.00003619,0.00007192,0.000
 01308,0.00008241,-0.00002254,0.00001271,-0.00019896,-0.00008726,-0.000
 18596,0.00005903,0.00000388,-0.00001083,0.00000487,0.00001316,-0.00000
 374,0.00001753,-0.00001257,-0.00000856,-0.00001595,-0.00003801,-0.0000
 0984,-0.00003405,0.00001754,0.00001407,0.00000191,-0.00000042,-0.00004
 578,-0.00001771,0.00001999,-0.19879957,0.14102516,0.06943865,-0.002051
 76,0.02904916,0.05144829,0.21301167,-0.00265909,0.00425200,0.00921729,
 0.00157290,-0.00378410,-0.00112037,0.00110553,0.00166790,0.00059482,0.
 00001095,0.00004714,0.00044132,-0.00016655,0.00015757,-0.00015552,0.05
 298459,-0.06476131,-0.00095295,0.00268169,-0.00246781,0.00033768,0.000
 05415,0.00029311,-0.00065882,0.00213551,0.00037461,-0.00140279,0.00032
 657,-0.00092528,-0.00039715,-0.00004111,-0.00004755,-0.00012105,-0.000
 02568,-0.00010372,0.00005741,0.00001506,0.00038435,0.00015561,0.000316
 44,-0.00010445,-0.00000974,0.00001394,-0.00000690,-0.00002103,0.000001
 13,-0.00002208,0.00002031,0.00001291,0.00001903,0.00007351,0.00001998,
 0.00006935,-0.00004809,-0.00001985,-0.00000499,-0.00000417,0.00008222,
 0.00003134,-0.00003045,0.13874186,-0.25905374,-0.08257792,0.02750368,0
 .00262003,-0.04956000,-0.22466686,0.32136550,0.00191494,0.00274075,-0.
 00025242,0.00013619,-0.00018410,-0.00002544,-0.00008655,-0.00005969,0.
 00004918,0.00004328,-0.00008306,0.00013764,-0.00028642,-0.00025822,-0.
 00003145,-0.01495193,0.01561028,0.01623525,-0.00058384,0.00053652,0.00
 074025,-0.00072152,0.00110823,0.00082011,0.00153312,-0.00149329,0.0039
 7307,-0.00001413,-0.00002891,-0.00000044,-0.00000367,0.00001663,0.0000
 1171,0.00006269,-0.00005627,-0.00000021,-0.00001071,0.00000572,-0.0000
 0652,0.00001719,0.00000428,0.00001254,-0.00000042,0.00000595,0.0000094
 3,0.00000148,-0.00000298,0.00000206,0.00000505,-0.00000052,0.00001341,
 -0.00001363,-0.00000889,-0.00000098,-0.00000172,-0.00000379,-0.0000051
 6,-0.00000022,0.00000212,-0.00000551,0.07585385,-0.08866395,-0.1467984
 6,0.05591729,-0.05534889,-0.05659132,-0.11881031,0.12616208,0.18171324
 \\-0.00000241,0.00000804,-0.00000334,-0.00000574,-0.00000249,0.0000021
 2,0.00000294,-0.00000038,-0.00000687,-0.00000032,-0.00000981,-0.000004
 74,0.00000313,-0.00000163,0.00000932,-0.00000366,-0.00004145,-0.000156
 10,0.00000166,-0.00000903,-0.00000841,-0.00000306,0.00001369,0.0000121
 3,-0.00001085,0.00001969,0.00012295,-0.00000377,0.00000180,0.00000275,
 0.00000292,0.00000425,-0.00000111,0.00000303,-0.00000059,-0.00000824,-
 0.00000509,0.00000572,-0.00000806,0.00000639,-0.00000567,0.00001561,-0
 .00000094,0.00000877,-0.00000290,0.00000150,-0.00000825,-0.00000099,-0
 .00000122,-0.00000618,-0.00000699,-0.00000230,-0.00000222,0.00000677,0
 .00000013,0.00001853,0.00000186,0.00000660,-0.00000500,0.00000135,0.00
 000918,-0.00002580,0.00008355,0.00004589,-0.00001486,-0.00013141,-0.00
 004400,0.00005287,0.00008077\\\@
 The archive entry for this job was punched.


 KEEP CLOSE TO NATURES HEART, YOURSELF;
 AND BREAK CLEAR AWAY, ONCE IN A WHILE, AND
 CLIMB A MOUNTAIN OR SPEND A WEEK IN THE
 WOODS.  WASH YOUR SPIRIT CLEAN...
                                         -- JOHN MUIR
 Job cpu time:       0 days  1 hours  5 minutes 57.4 seconds.
 Elapsed time:       0 days  0 hours 34 minutes  1.0 seconds.
 File lengths (MBytes):  RWF=    273 Int=      0 D2E=      0 Chk=     27 Scr=      1
 Normal termination of Gaussian 16 at Fri Jun  2 18:52:11 2023.
