 Entering Gaussian System, Link 0=g16
 Input=PyrF-CO2_binding-site_index-5-freq.gjf
 Output=PyrF-CO2_binding-site_index-5-freq.log
 Initial command:
 /software/commercial/gaussian/g16/AVX2/g16/l1.exe "/scratch1/svicchi/G09-1734030.pbs02/Gau-1103156.inp" -scrdir="/scratch1/svicchi/G09-1734030.pbs02/"
 Entering Link 1 = /software/commercial/gaussian/g16/AVX2/g16/l1.exe PID=   1103157.
  
 Copyright (c) 1988-2021, Gaussian, Inc.  All Rights Reserved.
  
 This is part of the Gaussian(R) 16 program.  It is based on
 the Gaussian(R) 09 system (copyright 2009, Gaussian, Inc.),
 the Gaussian(R) 03 system (copyright 2003, Gaussian, Inc.),
 the Gaussian(R) 98 system (copyright 1998, Gaussian, Inc.),
 the Gaussian(R) 94 system (copyright 1995, Gaussian, Inc.),
 the Gaussian 92(TM) system (copyright 1992, Gaussian, Inc.),
 the Gaussian 90(TM) system (copyright 1990, Gaussian, Inc.),
 the Gaussian 88(TM) system (copyright 1988, Gaussian, Inc.),
 the Gaussian 86(TM) system (copyright 1986, Carnegie Mellon
 University), and the Gaussian 82(TM) system (copyright 1983,
 Carnegie Mellon University). Gaussian is a federally registered
 trademark of Gaussian, Inc.
  
 This software contains proprietary and confidential information,
 including trade secrets, belonging to Gaussian, Inc.
  
 This software is provided under written license and may be
 used, copied, transmitted, or stored only in accord with that
 written license.
  
 The following legend is applicable only to US Government
 contracts under FAR:
  
                    RESTRICTED RIGHTS LEGEND
  
 Use, reproduction and disclosure by the US Government is
 subject to restrictions as set forth in subparagraphs (a)
 and (c) of the Commercial Computer Software - Restricted
 Rights clause in FAR 52.227-19.
  
 Gaussian, Inc.
 340 Quinnipiac St., Bldg. 40, Wallingford CT 06492
  
  
 ---------------------------------------------------------------
 Warning -- This program may not be used in any manner that
 competes with the business of Gaussian, Inc. or will provide
 assistance to any competitor of Gaussian, Inc.  The licensee
 of this program is prohibited from giving any competitor of
 Gaussian, Inc. access to this program.  By using this program,
 the user acknowledges that Gaussian, Inc. is engaged in the
 business of creating and licensing software in the field of
 computational chemistry and represents and warrants to the
 licensee that it is not a competitor of Gaussian, Inc. and that
 it will not use this program in any manner prohibited above.
 ---------------------------------------------------------------
  

 Cite this work as:
 Gaussian 16, Revision C.02,
 M. J. Frisch, G. W. Trucks, H. B. Schlegel, G. E. Scuseria, 
 M. A. Robb, J. R. Cheeseman, G. Scalmani, V. Barone, 
 G. A. Petersson, H. Nakatsuji, X. Li, M. Caricato, A. V. Marenich, 
 J. Bloino, B. G. Janesko, R. Gomperts, B. Mennucci, H. P. Hratchian, 
 J. V. Ortiz, A. F. Izmaylov, J. L. Sonnenberg, D. Williams-Young, 
 F. Ding, F. Lipparini, F. Egidi, J. Goings, B. Peng, A. Petrone, 
 T. Henderson, D. Ranasinghe, V. G. Zakrzewski, J. Gao, N. Rega, 
 G. Zheng, W. Liang, M. Hada, M. Ehara, K. Toyota, R. Fukuda, 
 J. Hasegawa, M. Ishida, T. Nakajima, Y. Honda, O. Kitao, H. Nakai, 
 T. Vreven, K. Throssell, J. A. Montgomery, Jr., J. E. Peralta, 
 F. Ogliaro, M. J. Bearpark, J. J. Heyd, E. N. Brothers, K. N. Kudin, 
 V. N. Staroverov, T. A. Keith, R. Kobayashi, J. Normand, 
 K. Raghavachari, A. P. Rendell, J. C. Burant, S. S. Iyengar, 
 J. Tomasi, M. Cossi, J. M. Millam, M. Klene, C. Adamo, R. Cammi, 
 J. W. Ochterski, R. L. Martin, K. Morokuma, O. Farkas, 
 J. B. Foresman, and D. J. Fox, Gaussian, Inc., Wallingford CT, 2019.
 
 ******************************************
 Gaussian 16:  ES64L-G16RevC.02  7-Dec-2021
                14-Dec-2023 
 ******************************************
 %NProcShared=12
 Will use up to   12 processors via shared memory.
 %mem=110gb
 %chk=/scratch1/svicchi/G09-1734030.pbs02/02-freq/PyrF-CO2_binding-site_index-5-f
 req.chk
 ----------------------------------------------------------------------
 #p freq=raman scale=0.967 guess=read geom=allcheck b3lyp/6-311+G(d,p) 
 int=grid=ultrafine EmpiricalDispersion=GD3BJ SCRF=(Solvent=ethanol) sc
 f=(xqc,intrep,maxconventionalcycle=350) nosymm
 ----------------------------------------------------------------------
 1/10=4,29=7,30=1,38=1,114=967000/1,3;
 2/12=2,15=1,40=1/2;
 3/5=4,6=6,7=111,11=2,14=-4,25=1,30=1,70=2201,71=2,72=4,74=-5,75=-5,116=-2,124=41,140=1/1,2,3;
 4/5=1/1;
 5/5=2,8=3,13=1,17=20,38=6,53=4,85=350,98=1/2,8;
 8/6=4,10=90,11=11/1;
 10/13=10,15=4,31=1/2;
 11/6=3,8=1,9=11,15=111,16=1,31=1/1,2,10;
 10/6=1,31=1/2;
 6/7=2,8=2,9=2,10=2,28=1/1;
 7/8=1,10=1,25=1,30=1/1,2,3,16;
 1/10=4,30=1/3;
 99//99;
 Leave Link    1 at Thu Dec 14 12:30:34 2023, MaxMem= 14763950080 cpu:               0.1 elap:               0.1
 (Enter /software/commercial/gaussian/g16/AVX2/g16/l101.exe)
 Structure from the checkpoint file:  "/scratch1/svicchi/G09-1734030.pbs02/02-freq/PyrF-CO2_binding-site_index-5-freq.chk"
 -----------------------------
 PyrF-CO2_binding-site_index-5
 -----------------------------
 Charge = -1 Multiplicity = 1
 No Z-Matrix found in chk file; cartesian coordinates used.
  C                                                -0.467451385716      0.750364483895      0.300596555316
  C                                                -1.239763970647     -0.210511911570     -0.301128003554
  C                                                -0.366225331694     -1.251920955665     -0.757817646288
  H                                                -2.313146236517     -0.183981655467     -0.410029782991
  C                                                 0.892895503561     -0.855611344531     -0.401640266175
  N                                                 0.865164066559      0.357657213559      0.243906906187
  H                                                -0.718625171779      1.683544175003      0.771866648734
  F                                                 2.041969979750     -1.507989863003     -0.625590058042
  H                                                -0.623073030951     -2.162145786927     -1.275703046133
  C                                                 1.992943436534      1.156505779272      0.817844486768
  O                                                 1.629327389878      2.227615924916      1.329669553669
  O                                                 3.115420251022      0.645015240519      0.702901352509
 Recover connectivity data from disk.
 ITRead=  0  0  0  0  0  0  0  0  0  0  0  0
 MicOpt= -1 -1 -1 -1 -1 -1 -1 -1 -1 -1 -1 -1
 NAtoms=     12 NQM=       12 NQMF=       0 NMMI=      0 NMMIF=      0
                NMic=       0 NMicF=      0.
                    Isotopes and Nuclear Properties:
 (Nuclear quadrupole moments (NQMom) in fm**2, nuclear magnetic moments (NMagM)
  in nuclear magnetons)

  Atom         1           2           3           4           5           6           7           8           9          10
 IAtWgt=          12          12          12           1          12          14           1          19           1          12
 AtmWgt=  12.0000000  12.0000000  12.0000000   1.0078250  12.0000000  14.0030740   1.0078250  18.9984032   1.0078250  12.0000000
 NucSpn=           0           0           0           1           0           2           1           1           1           0
 AtZEff=   3.6000000   3.6000000   3.6000000   1.0000000   3.6000000   4.5500000   1.0000000   6.7500000   1.0000000   3.6000000
 NQMom=    0.0000000   0.0000000   0.0000000   0.0000000   0.0000000   2.0440000   0.0000000   0.0000000   0.0000000   0.0000000
 NMagM=    0.0000000   0.0000000   0.0000000   2.7928460   0.0000000   0.4037610   2.7928460   2.6288670   2.7928460   0.0000000
 AtZNuc=   6.0000000   6.0000000   6.0000000   1.0000000   6.0000000   7.0000000   1.0000000   9.0000000   1.0000000   6.0000000

  Atom        11          12
 IAtWgt=          16          16
 AtmWgt=  15.9949146  15.9949146
 NucSpn=           0           0
 AtZEff=   5.6000000   5.6000000
 NQMom=    0.0000000   0.0000000
 NMagM=    0.0000000   0.0000000
 AtZNuc=   8.0000000   8.0000000
 Leave Link  101 at Thu Dec 14 12:30:34 2023, MaxMem= 14763950080 cpu:               0.1 elap:               0.1
 (Enter /software/commercial/gaussian/g16/AVX2/g16/l103.exe)

 GradGradGradGradGradGradGradGradGradGradGradGradGradGradGradGradGradGrad
 Berny optimization.
 Initialization pass.
 Trust Radius=3.00D-01 FncErr=1.00D-07 GrdErr=1.00D-07 EigMax=2.50D+02 EigMin=1.00D-04
 Number of steps in this run=      2 maximum allowed number of steps=      2.
 GradGradGradGradGradGradGradGradGradGradGradGradGradGradGradGradGradGrad

 Leave Link  103 at Thu Dec 14 12:30:34 2023, MaxMem= 14763950080 cpu:               0.1 elap:               0.0
 (Enter /software/commercial/gaussian/g16/AVX2/g16/l202.exe)
                          Input orientation:                          
 ---------------------------------------------------------------------
 Center     Atomic      Atomic             Coordinates (Angstroms)
 Number     Number       Type             X           Y           Z
 ---------------------------------------------------------------------
      1          6           0       -0.467451    0.750364    0.300597
      2          6           0       -1.239764   -0.210512   -0.301128
      3          6           0       -0.366225   -1.251921   -0.757818
      4          1           0       -2.313146   -0.183982   -0.410030
      5          6           0        0.892896   -0.855611   -0.401640
      6          7           0        0.865164    0.357657    0.243907
      7          1           0       -0.718625    1.683544    0.771867
      8          9           0        2.041970   -1.507990   -0.625590
      9          1           0       -0.623073   -2.162146   -1.275703
     10          6           0        1.992943    1.156506    0.817844
     11          8           0        1.629327    2.227616    1.329670
     12          8           0        3.115420    0.645015    0.702901
 ---------------------------------------------------------------------
                    Distance matrix (angstroms):
                    1          2          3          4          5
     1  C    0.000000
     2  C    1.371795   0.000000
     3  C    2.267076   1.433934   0.000000
     4  H    2.187369   1.079219   2.247655   0.000000
     5  C    2.218747   2.230357   1.367227   3.275647   0.000000
     6  N    1.390430   2.247354   2.260645   3.289781   1.374598
     7  H    1.075178   2.238381   3.328825   2.725258   3.228224
     8  F    3.500740   3.543798   2.425378   4.557028   1.340195
     9  H    3.315366   2.266932   1.078279   2.742056   2.183845
    10  C    2.546770   3.683916   3.721412   4.674076   2.597280
    11  O    2.763647   4.103127   4.521837   4.938163   3.611932
    12  O    3.606926   4.550564   4.225390   5.603141   2.900260
                    6          7          8          9         10
     6  N    0.000000
     7  H    2.131925   0.000000
     8  F    2.370978   4.445184   0.000000
     9  H    3.297495   4.357867   2.820110   0.000000
    10  C    1.496479   2.762696   3.030750   4.715923   0.000000
    11  O    2.293376   2.473871   4.236516   5.579541   1.241555
    12  O    2.314499   3.972808   2.748202   5.076550   1.238866
                   11         12
    11  O    0.000000
    12  O    2.259632   0.000000
 Symmetry turned off by external request.
 Stoichiometry    C5H3FNO2(1-)
 Framework group  C1[X(C5H3FNO2)]
 Deg. of freedom    30
 Full point group                 C1      NOp   1
 Rotational constants (GHZ):           2.7895225           1.6570140           1.0395983
 Leave Link  202 at Thu Dec 14 12:30:35 2023, MaxMem= 14763950080 cpu:               0.1 elap:               0.0
 (Enter /software/commercial/gaussian/g16/AVX2/g16/l301.exe)
 Standard basis: 6-311+G(d,p) (5D, 7F)
 Ernie: Thresh=  0.10000D-02 Tol=  0.10000D-05 Strict=F.
   216 basis functions,   348 primitive gaussians,   225 cartesian basis functions
    33 alpha electrons       33 beta electrons
       nuclear repulsion energy       427.8703644668 Hartrees.
 IExCor=  402 DFT=T Ex+Corr=B3LYP ExCW=0 ScaHFX=  0.200000
 ScaDFX=  0.800000  0.720000  1.000000  0.810000 ScalE2=  1.000000  1.000000
 IRadAn=      5 IRanWt=     -1 IRanGd=            0 ICorTp=0 IEmpDi=141
 NAtoms=   12 NActive=   12 NUniq=   12 SFac= 1.00D+00 NAtFMM=   60 NAOKFM=F Big=F
 Integral buffers will be    131072 words long.
 Raffenetti 2 integral format.
 Two-electron integral symmetry is turned off.
 R6Disp:  Grimme-D3(BJ) Dispersion energy=       -0.0196327058 Hartrees.
 Nuclear repulsion after empirical dispersion term =      427.8507317610 Hartrees.
 Force inversion solution in PCM.
 ------------------------------------------------------------------------------
 Polarizable Continuum Model (PCM)
 =================================
 Model                : PCM.
 Atomic radii         : UFF (Universal Force Field).
 Polarization charges : Total charges.
 Charge compensation  : None.
 Solution method      : Matrix inversion.
 Cavity type          : Scaled VdW (van der Waals Surface) (Alpha=1.100).
 Cavity algorithm     : GePol (No added spheres)
                        Default sphere list used, NSphG=   12.
                        Lebedev-Laikov grids with approx.  5.0 points / Ang**2.
                        Smoothing algorithm: York/Karplus (Gamma=1.0000).
                        Polarization charges: spherical gaussians, with
                                              point-specific exponents (IZeta= 3).
                        Self-potential: point-specific (ISelfS= 7).
                        Self-field    : sphere-specific E.n sum rule (ISelfD= 2).
 1st derivatives      : Analytical E(r).r(x)/FMM algorithm (CHGder, D1EAlg=3).
                        Cavity 1st derivative terms included.
 2nd derivatives      : Analytical E(r).r(xy)/FMM algorithm (CHGder, D2EAlg=3).
                        Cavity 2nd derivative terms included.
 Solvent              : Ethanol, Eps=  24.852000 Eps(inf)=   1.852593
 ------------------------------------------------------------------------------
 Spheres list:
 ISph  on   Nord     Re0    Alpha      Xe            Ye            Ze
    1   C      1    1.9255  1.100     -0.467451      0.750364      0.300597
    2   C      2    1.9255  1.100     -1.239764     -0.210512     -0.301128
    3   C      3    1.9255  1.100     -0.366225     -1.251921     -0.757818
    4   H      4    1.4430  1.100     -2.313146     -0.183982     -0.410030
    5   C      5    1.9255  1.100      0.892896     -0.855611     -0.401640
    6   N      6    1.8300  1.100      0.865164      0.357657      0.243907
    7   H      7    1.4430  1.100     -0.718625      1.683544      0.771867
    8   F      8    1.6820  1.100      2.041970     -1.507990     -0.625590
    9   H      9    1.4430  1.100     -0.623073     -2.162146     -1.275703
   10   C     10    1.9255  1.100      1.992943      1.156506      0.817844
   11   O     11    1.7500  1.100      1.629327      2.227616      1.329670
   12   O     12    1.7500  1.100      3.115420      0.645015      0.702901
 ------------------------------------------------------------------------------
 GePol: Number of generator spheres                  =      12
 GePol: Total number of spheres                      =      12
 GePol: Number of exposed spheres                    =      12 (100.00%)
 GePol: Number of points                             =    1235
 GePol: Average weight of points                     =       0.13
 GePol: Minimum weight of points                     =   0.61D-10
 GePol: Maximum weight of points                     =    0.20577
 GePol: Number of points with low weight             =      53
 GePol: Fraction of low-weight points (<1% of avg)   =       4.29%
 GePol: Cavity surface area                          =    163.579 Ang**2
 GePol: Cavity volume                                =    157.367 Ang**3
 Leave Link  301 at Thu Dec 14 12:30:35 2023, MaxMem= 14763950080 cpu:               0.1 elap:               0.1
 (Enter /software/commercial/gaussian/g16/AVX2/g16/l302.exe)
 NPDir=0 NMtPBC=     1 NCelOv=     1 NCel=       1 NClECP=     1 NCelD=      1
         NCelK=      1 NCelE2=     1 NClLst=     1 CellRange=     0.0.
 One-electron integrals computed using PRISM.
 NBasis=   216 RedAO= T EigKep=  7.76D-06  NBF=   216
 NBsUse=   216 1.00D-06 EigRej= -1.00D+00 NBFU=   216
 Precomputing XC quadrature grid using
 IXCGrd= 4 IRadAn=           5 IRanWt=          -1 IRanGd=           0 AccXCQ= 0.00D+00.
 Generated NRdTot=       0 NPtTot=           0 NUsed=           0 NTot=          32
 NSgBfM=   225   225   225   225   225 MxSgAt=    12 MxSgA2=    12.
 Leave Link  302 at Thu Dec 14 12:30:35 2023, MaxMem= 14763950080 cpu:               0.8 elap:               0.1
 (Enter /software/commercial/gaussian/g16/AVX2/g16/l303.exe)
 DipDrv:  MaxL=1.
 Leave Link  303 at Thu Dec 14 12:30:36 2023, MaxMem= 14763950080 cpu:               0.1 elap:               0.1
 (Enter /software/commercial/gaussian/g16/AVX2/g16/l401.exe)
 Initial guess from the checkpoint file:  "/scratch1/svicchi/G09-1734030.pbs02/02-freq/PyrF-CO2_binding-site_index-5-freq.chk"
 B after Tr=     0.000000    0.000000    0.000000
         Rot=    1.000000    0.000000    0.000000    0.000000 Ang=   0.00 deg.
 Guess basis will be translated and rotated to current coordinates.
 JPrj=2 DoOrth=T DoCkMO=T.
 Leave Link  401 at Thu Dec 14 12:30:36 2023, MaxMem= 14763950080 cpu:               0.5 elap:               0.1
 (Enter /software/commercial/gaussian/g16/AVX2/g16/l502.exe)
 Keep R1 ints in memory in canonical form, NReq=287296699.
 FoFCou: FMM=F IPFlag=           0 FMFlag=           0 FMFlg1=           0
         NFxFlg=           0 DoJE=F BraDBF=F KetDBF=F FulRan=T
         wScrn=  0.000000 ICntrl=       600 IOpCl=  0 I1Cent=           0 NGrid=           0
         NMat0=    1 NMatS0=  23436 NMatT0=    0 NMatD0=    1 NMtDS0=    0 NMtDT0=    0
 Symmetry not used in FoFCou.
 Two-electron integral symmetry not used.
 Closed shell SCF:
 Using DIIS extrapolation, IDIIS=  1040.
 NGot= 14763950080 LenX= 14489209449 LenY= 14489158383
 Requested convergence on RMS density matrix=1.00D-08 within 350 cycles.
 Requested convergence on MAX density matrix=1.00D-06.
 Requested convergence on             energy=1.00D-06.
 No special actions if energy rises.

 Cycle   1  Pass 1  IDiag  1:
 Inv3:  Mode=1 IEnd=     4575675.
 Iteration    1 A*A^-1 deviation from unit magnitude is 3.33D-15 for    395.
 Iteration    1 A*A^-1 deviation from orthogonality  is 2.11D-15 for   1023    748.
 Iteration    1 A^-1*A deviation from unit magnitude is 3.33D-15 for    395.
 Iteration    1 A^-1*A deviation from orthogonality  is 2.04D-15 for   1105     70.
 E= -497.697575456578    
 DIIS: error= 6.69D-08 at cycle   1 NSaved=   1.
 NSaved= 1 IEnMin= 1 EnMin= -497.697575456578     IErMin= 1 ErrMin= 6.69D-08
 ErrMax= 6.69D-08  0.00D+00 EMaxC= 1.00D-01 BMatC= 7.17D-13 BMatP= 7.17D-13
 IDIUse=1 WtCom= 1.00D+00 WtEn= 0.00D+00
 Coeff-Com:  0.100D+01
 Coeff:      0.100D+01
 Gap=     0.220 Goal=   None    Shift=    0.000
 RMSDP=9.74D-09 MaxDP=2.64D-07              OVMax= 5.58D-07

 Error on total polarization charges =  0.01748
 SCF Done:  E(RB3LYP) =  -497.697575457     A.U. after    1 cycles
            NFock=  1  Conv=0.97D-08     -V/T= 2.0036
 KE= 4.959032598435D+02 PE=-2.037518539149D+03 EE= 6.160669720881D+02
 Leave Link  502 at Thu Dec 14 12:30:39 2023, MaxMem= 14763950080 cpu:              19.4 elap:               2.2
 (Enter /software/commercial/gaussian/g16/AVX2/g16/l508.exe)
 QCSCF skips out because SCF is already converged.
 Leave Link  508 at Thu Dec 14 12:30:39 2023, MaxMem= 14763950080 cpu:               0.0 elap:               0.0
 (Enter /software/commercial/gaussian/g16/AVX2/g16/l801.exe)
 DoSCS=F DFT=T ScalE2(SS,OS)=  1.000000  1.000000
 Range of M.O.s used for correlation:     1   216
 NBasis=   216 NAE=    33 NBE=    33 NFC=     0 NFV=     0
 NROrb=    216 NOA=    33 NOB=    33 NVA=   183 NVB=   183

 **** Warning!!: The largest alpha MO coefficient is  0.79612507D+02

 Leave Link  801 at Thu Dec 14 12:30:39 2023, MaxMem= 14763950080 cpu:               0.1 elap:               0.1
 (Enter /software/commercial/gaussian/g16/AVX2/g16/l1002.exe)
 Minotr:  Closed shell wavefunction.
 NEqPCM:  Using equilibrium solvation (IEInf=0, Eps=  24.8520, EpsInf=   1.8526)
          Direct CPHF calculation.
          Differentiating once with respect to electric field.
                with respect to dipole field.
          Electric field/nuclear overlap derivatives assumed to be zero.
          Requested convergence is 1.0D-08 RMS, and 1.0D-07 maximum.
          Secondary convergence is 1.0D-12 RMS, and 1.0D-12 maximum.
          NewPWx=F KeepS1=T KeepF1=T KeepIn=T MapXYZ=F SortEE=F KeepMc=T.
         3696 words used for storage of precomputed grid.
 Keep R1 ints in memory in canonical form, NReq=287265565.
 FoFCou: FMM=F IPFlag=           0 FMFlag=           0 FMFlg1=           0
         NFxFlg=           0 DoJE=F BraDBF=F KetDBF=F FulRan=T
         wScrn=  0.000000 ICntrl=       600 IOpCl=  0 I1Cent=           0 NGrid=           0
         NMat0=    1 NMatS0=  23436 NMatT0=    0 NMatD0=    1 NMtDS0=    0 NMtDT0=    0
 Symmetry not used in FoFCou.
 Two-electron integral symmetry not used.
          MDV=   14763950080 using IRadAn=       1.
          Solving linear equations simultaneously, MaxMat=       0.
          There are     3 degrees of freedom in the 1st order CPHF.  IDoFFX=0 NUNeed=     3.
      3 vectors produced by pass  0 Test12= 2.01D-13 3.33D-08 XBig12= 8.66D+01 4.87D+00.
 AX will form     3 AO Fock derivatives at one time.
      3 vectors produced by pass  1 Test12= 2.01D-13 3.33D-08 XBig12= 3.56D+01 1.19D+00.
      3 vectors produced by pass  2 Test12= 2.01D-13 3.33D-08 XBig12= 6.10D+00 6.88D-01.
      3 vectors produced by pass  3 Test12= 2.01D-13 3.33D-08 XBig12= 2.95D+00 5.37D-01.
      3 vectors produced by pass  4 Test12= 2.01D-13 3.33D-08 XBig12= 3.49D-01 1.37D-01.
      3 vectors produced by pass  5 Test12= 2.01D-13 3.33D-08 XBig12= 8.37D-02 6.92D-02.
      3 vectors produced by pass  6 Test12= 2.01D-13 3.33D-08 XBig12= 1.32D-02 1.87D-02.
      3 vectors produced by pass  7 Test12= 2.01D-13 3.33D-08 XBig12= 3.75D-03 1.18D-02.
      3 vectors produced by pass  8 Test12= 2.01D-13 3.33D-08 XBig12= 1.21D-04 2.50D-03.
      3 vectors produced by pass  9 Test12= 2.01D-13 3.33D-08 XBig12= 4.21D-06 3.67D-04.
      3 vectors produced by pass 10 Test12= 2.01D-13 3.33D-08 XBig12= 1.26D-07 7.22D-05.
      3 vectors produced by pass 11 Test12= 2.01D-13 3.33D-08 XBig12= 3.76D-09 9.86D-06.
      2 vectors produced by pass 12 Test12= 2.01D-13 3.33D-08 XBig12= 9.62D-11 1.78D-06.
      2 vectors produced by pass 13 Test12= 2.01D-13 3.33D-08 XBig12= 2.13D-12 2.47D-07.
 InvSVY:  IOpt=1 It=  1 EMax= 1.78D-15
 Solved reduced A of dimension    40 with     3 vectors.
 End of Minotr F.D. properties file   721 does not exist.
 End of Minotr F.D. properties file   722 does not exist.
 End of Minotr F.D. properties file   788 does not exist.
 Leave Link 1002 at Thu Dec 14 12:30:53 2023, MaxMem= 14763950080 cpu:             153.0 elap:              13.3
 (Enter /software/commercial/gaussian/g16/AVX2/g16/l1101.exe)
 Using compressed storage, NAtomX=    12.
 Will process     13 centers per pass.
 R6Disp: Adding Grimme-D3(BJ) dispersion energy 1st derivatives to the gradient.
 Leave Link 1101 at Thu Dec 14 12:30:53 2023, MaxMem= 14763950080 cpu:               0.8 elap:               0.1
 (Enter /software/commercial/gaussian/g16/AVX2/g16/l1102.exe)
 Symmetrizing basis deriv contribution to polar:
 IMax=3 JMax=2 DiffMx= 0.00D+00
 Leave Link 1102 at Thu Dec 14 12:30:54 2023, MaxMem= 14763950080 cpu:               0.1 elap:               0.1
 (Enter /software/commercial/gaussian/g16/AVX2/g16/l1110.exe)
 Forming Gx(P) for the SCF density, NAtomX=    12.
 Integral derivatives from FoFJK, PRISM(SPDF).
 Do as many integral derivatives as possible in FoFJK.
 G2DrvN: MDV=   14763948732.
 G2DrvN: will do    13 centers at a time, making    1 passes.
 PxScal for G2LodP:  IOpCl= 0 ISclPx=1 IMOff=     1 NMtTot=     4 NTT=   23436 ScalPx= 2.95D+01
 Calling FoFCou, ICntrl=  3107 FMM=F I1Cent=   0 AccDes= 0.00D+00.
 FoFJK:  IHMeth= 1 ICntrl=    3107 DoSepK=F KAlg= 0 I1Cent=           0 FoldK=F
 IRaf=         0 NMat=       1 IRICut=       1 DoRegI=T DoRafI=F ISym2E= 0 IDoP0=0 IntGTp=1.
 FoFCou: FMM=F IPFlag=           0 FMFlag=      100000 FMFlg1=           0
         NFxFlg=           0 DoJE=F BraDBF=F KetDBF=F FulRan=T
         wScrn=  0.000000 ICntrl=      3107 IOpCl=  0 I1Cent=           0 NGrid=           0
         NMat0=    1 NMatS0=      1 NMatT0=    0 NMatD0=    4 NMtDS0=    3 NMtDT0=    0
 Symmetry not used in FoFCou.
 PxScal for G2LodP:  IOpCl= 0 ISclPx=0 IMOff=     1 NMtTot=     4 NTT=   23436 ScalPx= 1.00D+00
 NEqPCM:  Using equilibrium solvation (IEInf=0, Eps=  24.8520, EpsInf=   1.8526)
 G2PCM: DoFxE=T DoFxN=T DoGrad=T DoDP/DQ/DG/TGxP=TFFF NFrqRd=   0 IEInf=0 SqF1=F DoCFld=F IF1Alg=4.
 GePol: Maximum number of non-zero 1st derivatives   =     208
 End of G2Drv F.D. properties file   721 does not exist.
 End of G2Drv F.D. properties file   722 does not exist.
 End of G2Drv F.D. properties file   788 does not exist.
 Leave Link 1110 at Thu Dec 14 12:31:11 2023, MaxMem= 14763950080 cpu:             202.3 elap:              17.2
 (Enter /software/commercial/gaussian/g16/AVX2/g16/l1002.exe)
 Minotr:  Closed shell wavefunction.
          IDoAtm=111111111111
 NEqPCM:  Using equilibrium solvation (IEInf=0, Eps=  24.8520, EpsInf=   1.8526)
          Direct CPHF calculation.
          Differentiating once with respect to electric field.
                with respect to dipole field.
          Differentiating once with respect to nuclear coordinates.
          Requested convergence is 1.0D-08 RMS, and 1.0D-07 maximum.
          Secondary convergence is 1.0D-12 RMS, and 1.0D-12 maximum.
          NewPWx=T KeepS1=F KeepF1=F KeepIn=T MapXYZ=F SortEE=F KeepMc=T.
         3696 words used for storage of precomputed grid.
 Keep R1 ints in memory in canonical form, NReq=287267053.
 FoFCou: FMM=F IPFlag=           0 FMFlag=           0 FMFlg1=           0
         NFxFlg=           0 DoJE=F BraDBF=F KetDBF=F FulRan=T
         wScrn=  0.000000 ICntrl=       600 IOpCl=  0 I1Cent=           0 NGrid=           0
         NMat0=    1 NMatS0=  23436 NMatT0=    0 NMatD0=    1 NMtDS0=    0 NMtDT0=    0
 Symmetry not used in FoFCou.
 Two-electron integral symmetry not used.
          MDV=   14763950080 using IRadAn=       1.
          Solving linear equations simultaneously, MaxMat=       0.
          There are    39 degrees of freedom in the 1st order CPHF.  IDoFFX=5 NUNeed=    39.
 Will reuse    3 saved solutions.
     33 vectors produced by pass  0 Test12= 1.55D-14 2.56D-09 XBig12= 1.69D-01 9.10D-02.
 AX will form    33 AO Fock derivatives at one time.
     33 vectors produced by pass  1 Test12= 1.55D-14 2.56D-09 XBig12= 3.13D-02 6.08D-02.
     33 vectors produced by pass  2 Test12= 1.55D-14 2.56D-09 XBig12= 5.25D-04 4.28D-03.
     33 vectors produced by pass  3 Test12= 1.55D-14 2.56D-09 XBig12= 6.13D-06 4.30D-04.
     33 vectors produced by pass  4 Test12= 1.55D-14 2.56D-09 XBig12= 3.64D-08 3.21D-05.
     33 vectors produced by pass  5 Test12= 1.55D-14 2.56D-09 XBig12= 1.04D-10 1.60D-06.
     20 vectors produced by pass  6 Test12= 1.55D-14 2.56D-09 XBig12= 1.73D-13 6.25D-08.
 InvSVY:  IOpt=1 It=  1 EMax= 1.33D-15
 Solved reduced A of dimension   218 with    33 vectors.
 FullF1:  Do perturbations      1 to       3.
 Isotropic polarizability for W=    0.000000       98.30 Bohr**3.
 FullF1:  Do perturbations      1 to       6.
 End of Minotr F.D. properties file   721 does not exist.
 End of Minotr F.D. properties file   722 does not exist.
 End of Minotr F.D. properties file   788 does not exist.
 Leave Link 1002 at Thu Dec 14 12:31:28 2023, MaxMem= 14763950080 cpu:             190.5 elap:              16.9
 (Enter /software/commercial/gaussian/g16/AVX2/g16/l601.exe)
 Copying SCF densities to generalized density rwf, IOpCl= 0 IROHF=0.

 **********************************************************************

            Population analysis using the SCF Density.

 **********************************************************************

 Alpha  occ. eigenvalues --  -24.69542 -19.06801 -19.06745 -14.35474 -10.29066
 Alpha  occ. eigenvalues --  -10.27072 -10.18390 -10.15953 -10.15870  -1.23663
 Alpha  occ. eigenvalues --   -1.05131  -0.96582  -0.95766  -0.78026  -0.71717
 Alpha  occ. eigenvalues --   -0.60902  -0.58522  -0.57879  -0.48437  -0.48409
 Alpha  occ. eigenvalues --   -0.46451  -0.44682  -0.43542  -0.42812  -0.41553
 Alpha  occ. eigenvalues --   -0.39248  -0.37042  -0.36910  -0.27284  -0.26238
 Alpha  occ. eigenvalues --   -0.25058  -0.24490  -0.21140
 Alpha virt. eigenvalues --    0.00838   0.01336   0.02642   0.03326   0.04703
 Alpha virt. eigenvalues --    0.05265   0.05759   0.06155   0.06895   0.08797
 Alpha virt. eigenvalues --    0.09129   0.09257   0.10147   0.10353   0.11565
 Alpha virt. eigenvalues --    0.13356   0.13836   0.14240   0.15573   0.15751
 Alpha virt. eigenvalues --    0.16814   0.18552   0.20060   0.20562   0.21111
 Alpha virt. eigenvalues --    0.22368   0.22626   0.23167   0.23519   0.24527
 Alpha virt. eigenvalues --    0.25115   0.25564   0.26605   0.27246   0.28376
 Alpha virt. eigenvalues --    0.28595   0.29755   0.31514   0.31868   0.33704
 Alpha virt. eigenvalues --    0.34096   0.35380   0.37117   0.38201   0.40836
 Alpha virt. eigenvalues --    0.41176   0.42782   0.45116   0.47454   0.49644
 Alpha virt. eigenvalues --    0.51054   0.53180   0.56053   0.57075   0.58432
 Alpha virt. eigenvalues --    0.62305   0.63181   0.64916   0.66610   0.70100
 Alpha virt. eigenvalues --    0.72363   0.73638   0.74328   0.76088   0.79642
 Alpha virt. eigenvalues --    0.80935   0.82592   0.85234   0.86293   0.86595
 Alpha virt. eigenvalues --    0.89018   0.91115   0.93952   0.99151   1.00146
 Alpha virt. eigenvalues --    1.08039   1.09120   1.09953   1.12705   1.14604
 Alpha virt. eigenvalues --    1.16312   1.17898   1.18456   1.20225   1.22212
 Alpha virt. eigenvalues --    1.23778   1.24389   1.30569   1.31708   1.40521
 Alpha virt. eigenvalues --    1.41109   1.42655   1.44788   1.50412   1.52177
 Alpha virt. eigenvalues --    1.55563   1.55986   1.59853   1.61879   1.62570
 Alpha virt. eigenvalues --    1.66975   1.72678   1.76474   1.77141   1.77346
 Alpha virt. eigenvalues --    1.81803   1.83210   1.90672   1.93409   1.94135
 Alpha virt. eigenvalues --    1.95214   1.99024   2.00964   2.04114   2.06673
 Alpha virt. eigenvalues --    2.11200   2.12583   2.24055   2.36433   2.38641
 Alpha virt. eigenvalues --    2.41485   2.42428   2.48288   2.52265   2.62391
 Alpha virt. eigenvalues --    2.65526   2.67089   2.70019   2.72460   2.76744
 Alpha virt. eigenvalues --    2.78695   2.79349   2.79787   2.85779   2.88826
 Alpha virt. eigenvalues --    2.93232   2.96053   2.97213   2.98738   3.01516
 Alpha virt. eigenvalues --    3.18539   3.22569   3.28842   3.30665   3.32910
 Alpha virt. eigenvalues --    3.38275   3.44025   3.50771   3.52368   3.57872
 Alpha virt. eigenvalues --    3.65839   3.70661   3.77794   3.79520   3.87582
 Alpha virt. eigenvalues --    3.88085   3.94574   3.99954   4.08135   4.08168
 Alpha virt. eigenvalues --    4.11799   4.26892   4.83029   4.93101   5.05029
 Alpha virt. eigenvalues --    5.07652   5.11748   5.19214   5.20932   5.68602
 Alpha virt. eigenvalues --    5.90756   6.30878   6.44513   6.76002  23.68378
 Alpha virt. eigenvalues --   23.85776  23.87512  24.13286  24.19759  35.54436
 Alpha virt. eigenvalues --   49.96087  50.07411  66.80339
          Condensed to atoms (all electrons):
               1          2          3          4          5          6
     1  C    6.479554  -0.579189   0.960127  -0.034043  -1.291606   0.207401
     2  C   -0.579189   6.118329  -0.492599   0.396608   1.005597  -0.129549
     3  C    0.960127  -0.492599   7.454455  -0.009437  -1.715052  -0.288700
     4  H   -0.034043   0.396608  -0.009437   0.513576  -0.012593   0.016977
     5  C   -1.291606   1.005597  -1.715052  -0.012593   7.442272   0.365048
     6  N    0.207401  -0.129549  -0.288700   0.016977   0.365048   7.270386
     7  H    0.425259  -0.028455  -0.004261  -0.003661   0.012985  -0.040410
     8  F    0.034962  -0.013839  -0.151289  -0.000326   0.262141  -0.036292
     9  H   -0.007638  -0.006083   0.413714  -0.003852  -0.050856   0.014027
    10  C   -0.083355   0.019887  -0.189683   0.000736   0.021387   0.083982
    11  O   -0.049175   0.054156   0.006184   0.000189   0.027697  -0.182439
    12  O    0.042947  -0.010881   0.054733   0.000104  -0.069267  -0.152031
               7          8          9         10         11         12
     1  C    0.425259   0.034962  -0.007638  -0.083355  -0.049175   0.042947
     2  C   -0.028455  -0.013839  -0.006083   0.019887   0.054156  -0.010881
     3  C   -0.004261  -0.151289   0.413714  -0.189683   0.006184   0.054733
     4  H   -0.003661  -0.000326  -0.003852   0.000736   0.000189   0.000104
     5  C    0.012985   0.262141  -0.050856   0.021387   0.027697  -0.069267
     6  N   -0.040410  -0.036292   0.014027   0.083982  -0.182439  -0.152031
     7  H    0.490598  -0.000396  -0.000137  -0.004043  -0.000676   0.000182
     8  F   -0.000396   9.158985  -0.003668  -0.039814   0.000876  -0.015971
     9  H   -0.000137  -0.003668   0.509274  -0.000055   0.000100   0.000155
    10  C   -0.004043  -0.039814  -0.000055   4.873517   0.417304   0.437996
    11  O   -0.000676   0.000876   0.000100   0.417304   8.404147  -0.132570
    12  O    0.000182  -0.015971   0.000155   0.437996  -0.132570   8.385761
 Mulliken charges:
               1
     1  C   -0.105245
     2  C   -0.333982
     3  C   -0.038193
     4  H    0.135721
     5  C    0.002247
     6  N   -0.128400
     7  H    0.153015
     8  F   -0.195370
     9  H    0.135020
    10  C    0.462140
    11  O   -0.545794
    12  O   -0.541158
 Sum of Mulliken charges =  -1.00000
 Mulliken charges with hydrogens summed into heavy atoms:
               1
     1  C    0.047770
     2  C   -0.198261
     3  C    0.096826
     5  C    0.002247
     6  N   -0.128400
     8  F   -0.195370
    10  C    0.462140
    11  O   -0.545794
    12  O   -0.541158
 APT charges:
               1
     1  C    0.059242
     2  C   -0.134505
     3  C   -0.345887
     4  H    0.073528
     5  C    0.963450
     6  N   -0.958867
     7  H    0.135103
     8  F   -0.676396
     9  H    0.095771
    10  C    2.325345
    11  O   -1.272345
    12  O   -1.264439
 Sum of APT charges =  -1.00000
 APT charges with hydrogens summed into heavy atoms:
               1
     1  C    0.194345
     2  C   -0.060977
     3  C   -0.250115
     5  C    0.963450
     6  N   -0.958867
     8  F   -0.676396
    10  C    2.325345
    11  O   -1.272345
    12  O   -1.264439
 Electronic spatial extent (au):  <R**2>=           1297.1978
 Charge=             -1.0000 electrons
 Dipole moment (field-independent basis, Debye):
    X=            -11.4121    Y=             -5.1057    Z=             -3.9095  Tot=             13.0991
 Quadrupole moment (field-independent basis, Debye-Ang):
   XX=            -84.9648   YY=            -67.0701   ZZ=            -59.5817
   XY=            -10.4604   XZ=             -8.9426   YZ=             -7.6612
 Traceless Quadrupole moment (field-independent basis, Debye-Ang):
   XX=            -14.4259   YY=              3.4687   ZZ=             10.9572
   XY=            -10.4604   XZ=             -8.9426   YZ=             -7.6612
 Octapole moment (field-independent basis, Debye-Ang**2):
  XXX=           -247.3784  YYY=            -61.5270  ZZZ=            -30.3459  XYY=            -76.8435
  XXY=            -33.3399  XXZ=            -34.3119  XZZ=            -56.5891  YZZ=            -22.6199
  YYZ=            -30.0271  XYZ=            -21.0692
 Hexadecapole moment (field-independent basis, Debye-Ang**3):
 XXXX=          -1236.7990 YYYY=           -583.9341 ZZZZ=           -235.1501 XXXY=           -164.5015
 XXXZ=           -169.7495 YYYX=           -150.0802 YYYZ=           -171.1992 ZZZX=           -111.6250
 ZZZY=           -148.2091 XXYY=           -293.6318 XXZZ=           -218.9915 YYZZ=           -147.4997
 XXYZ=            -80.5058 YYXZ=            -66.3454 ZZXY=            -53.0228
 N-N= 4.278507317610D+02 E-N=-2.037518534135D+03  KE= 4.959032598435D+02
  Exact polarizability:     116.370       2.843     103.466       8.174      22.161      75.051
 Approx polarizability:     131.976      -3.353     118.898       6.010      26.335      82.964
 No NMR shielding tensors so no spin-rotation constants.
 Leave Link  601 at Thu Dec 14 12:31:28 2023, MaxMem= 14763950080 cpu:               0.6 elap:               0.1
 (Enter /software/commercial/gaussian/g16/AVX2/g16/l701.exe)
 ... and contract with generalized density number  0.
 Compute integral second derivatives.
 R6Disp: Adding Grimme-D3(BJ) dispersion energy 2nd derivatives to the Hessian.
 D2PCM: PCM CHGder 2nd derivatives, FixD1E=F FixD2E=F DoIter=F DoCFld=F I1PDM=0
 GePol: Maximum number of non-zero 2nd derivatives   =     208
 Leave Link  701 at Thu Dec 14 12:31:30 2023, MaxMem= 14763950080 cpu:              17.0 elap:               1.7
 (Enter /software/commercial/gaussian/g16/AVX2/g16/l702.exe)
 L702 exits ... SP integral derivatives will be done elsewhere.
 Leave Link  702 at Thu Dec 14 12:31:31 2023, MaxMem= 14763950080 cpu:               0.1 elap:               0.0
 (Enter /software/commercial/gaussian/g16/AVX2/g16/l703.exe)
 Integral derivatives from FoFJK, PRISM(SPDF).
 Compute integral second derivatives, UseDBF=F ICtDFT=           0.
 Calling FoFJK, ICntrl=    100127 FMM=F ISym2X=0 I1Cent= 0 IOpClX= 0 NMat=1 NMatS=1 NMatT=0.
 FoFJK:  IHMeth= 1 ICntrl=  100127 DoSepK=F KAlg= 0 I1Cent=           0 FoldK=F
 IRaf=         0 NMat=       1 IRICut=       1 DoRegI=T DoRafI=F ISym2E= 0 IDoP0=0 IntGTp=1.
 FoFCou: FMM=F IPFlag=           0 FMFlag=      100000 FMFlg1=         800
         NFxFlg=           0 DoJE=F BraDBF=F KetDBF=F FulRan=T
         wScrn=  0.000000 ICntrl=    100127 IOpCl=  0 I1Cent=           0 NGrid=           0
         NMat0=    1 NMatS0=      1 NMatT0=    0 NMatD0=    1 NMtDS0=    0 NMtDT0=    0
 Symmetry not used in FoFCou.
 Leave Link  703 at Thu Dec 14 12:31:53 2023, MaxMem= 14763950080 cpu:             264.2 elap:              22.2
 (Enter /software/commercial/gaussian/g16/AVX2/g16/l716.exe)
 Dipole        =-4.48984920D+00-2.00874593D+00-1.53811359D+00
 Polarizability= 1.16370359D+02 2.84294632D+00 1.03465524D+02
                 8.17412112D+00 2.21608784D+01 7.50510143D+01
 HyperPolar    =-1.63732343D+02 1.60548842D+02-7.95339274D+01
                 2.22223244D+01 1.15491003D+02 9.07363993D+01
                 1.21797055D+01-1.45862470D+02 2.65634057D+01
                -5.61026885D+01
 Full mass-weighted force constant matrix:
 Low frequencies ---   -9.2194    0.0007    0.0009    0.0010   10.7207   21.8333
 Low frequencies ---   71.0415  132.9309  214.4957
 Diagonal vibrational polarizability:
       36.4136083      25.7659103      20.6851929
 Diagonal vibrational hyperpolarizability:
      -92.8676586      45.7447787     123.1581506
 Harmonic frequencies (cm**-1), IR intensities (KM/Mole), Raman scattering
 activities (A**4/AMU), depolarization ratios for plane and unpolarized
 incident light, reduced masses (AMU), force constants (mDyne/A),
 and normal coordinates:
                      1                      2                      3
                      A                      A                      A
 Frequencies --     64.9930               132.8330               214.3750
 Red. masses --     13.4594                 5.9421                10.8040
 Frc consts  --      0.0335                 0.0618                 0.2925
 IR Inten    --      0.0241                 2.9605                 1.1016
 Raman Activ --      1.6019                 4.1532                 0.1564
 Depolar (P) --      0.7491                 0.7493                 0.5450
 Depolar (U) --      0.8565                 0.8567                 0.7055
  Atom  AN      X      Y      Z        X      Y      Z        X      Y      Z
     1   6    -0.01  -0.07   0.13    -0.04  -0.13   0.25    -0.23  -0.02  -0.04
     2   6    -0.02  -0.09   0.18     0.01   0.05  -0.11    -0.06  -0.15  -0.07
     3   6    -0.01  -0.02   0.03     0.03   0.14  -0.27     0.10  -0.05  -0.00
     4   1    -0.03  -0.16   0.30     0.02   0.12  -0.24    -0.06  -0.30  -0.13
     5   6     0.01   0.03  -0.07    -0.00  -0.01   0.02     0.01   0.14   0.06
     6   7     0.01   0.01  -0.02    -0.04  -0.17   0.33    -0.18   0.13   0.02
     7   1    -0.02  -0.11   0.21    -0.06  -0.21   0.39    -0.40  -0.04  -0.07
     8   9     0.03   0.14  -0.30    -0.01  -0.04   0.09     0.14   0.35   0.20
     9   1    -0.00   0.01  -0.02     0.06   0.27  -0.51     0.24  -0.10   0.01
    10   6    -0.00  -0.01   0.03     0.00   0.00  -0.01    -0.02  -0.09  -0.05
    11   8     0.05   0.23  -0.44     0.03   0.09  -0.18     0.31  -0.01   0.02
    12   8    -0.07  -0.27   0.56     0.01   0.04  -0.09    -0.16  -0.37  -0.20
                      4                      5                      6
                      A                      A                      A
 Frequencies --    296.1209               363.1085               413.3007
 Red. masses --      7.7768                 9.2678                11.5698
 Frc consts  --      0.4018                 0.7199                 1.1644
 IR Inten    --      0.0940                 1.5237                 6.9034
 Raman Activ --      4.5519                 3.1974                 5.7957
 Depolar (P) --      0.7500                 0.4272                 0.4124
 Depolar (U) --      0.8571                 0.5987                 0.5840
  Atom  AN      X      Y      Z        X      Y      Z        X      Y      Z
     1   6     0.02   0.09  -0.18    -0.17  -0.11  -0.08    -0.13  -0.13  -0.09
     2   6     0.02   0.12  -0.22    -0.04  -0.21  -0.12    -0.20  -0.12  -0.08
     3   6    -0.03  -0.12   0.23     0.09  -0.08  -0.03    -0.25  -0.15  -0.11
     4   1     0.06   0.26  -0.50    -0.04  -0.33  -0.18    -0.21  -0.06  -0.05
     5   6    -0.04  -0.19   0.36     0.02   0.04   0.03    -0.25  -0.06  -0.07
     6   7    -0.04  -0.15   0.27    -0.06   0.11   0.05    -0.07  -0.11  -0.08
     7   1     0.03   0.16  -0.31    -0.37  -0.14  -0.10    -0.19  -0.13  -0.10
     8   9     0.03   0.15  -0.26    -0.18  -0.27  -0.16    -0.07   0.26   0.14
     9   1    -0.01  -0.07   0.12     0.29  -0.14  -0.04    -0.26  -0.16  -0.10
    10   6    -0.01  -0.03   0.06     0.07   0.23   0.13     0.31  -0.01   0.03
    11   8     0.01   0.01  -0.02     0.33   0.28   0.20     0.14  -0.08  -0.02
    12   8     0.01   0.02  -0.05    -0.03   0.07   0.03     0.43   0.25   0.18
                      7                      8                      9
                      A                      A                      A
 Frequencies --    573.7410               609.4664               626.4357
 Red. masses --      6.4351                 2.9308                 3.4394
 Frc consts  --      1.2481                 0.6414                 0.7952
 IR Inten    --      1.0640                 7.8791                 1.0422
 Raman Activ --      3.0178                 9.6146                 2.2484
 Depolar (P) --      0.2374                 0.7499                 0.7500
 Depolar (U) --      0.3837                 0.8571                 0.8571
  Atom  AN      X      Y      Z        X      Y      Z        X      Y      Z
     1   6     0.16  -0.07  -0.01    -0.01  -0.03   0.06     0.03   0.13  -0.24
     2   6    -0.06   0.10   0.04     0.01   0.03  -0.06    -0.03  -0.13   0.25
     3   6    -0.24  -0.07  -0.06     0.01   0.03  -0.07     0.02   0.10  -0.18
     4   1    -0.07   0.30   0.15    -0.02  -0.12   0.22    -0.05  -0.24   0.46
     5   6    -0.06  -0.24  -0.13    -0.03  -0.15   0.28    -0.01  -0.06   0.11
     6   7     0.01  -0.17  -0.09     0.02   0.10  -0.19    -0.01  -0.04   0.08
     7   1     0.37  -0.03   0.03    -0.08  -0.36   0.66     0.04   0.18  -0.34
     8   9     0.22   0.03   0.04    -0.00   0.01  -0.01     0.00   0.00  -0.00
     9   1    -0.57   0.02  -0.06     0.05   0.21  -0.39     0.06   0.28  -0.52
    10   6    -0.08   0.13   0.05     0.01   0.03  -0.05    -0.00  -0.02   0.04
    11   8     0.15   0.20   0.12    -0.00  -0.01   0.01     0.00   0.00  -0.00
    12   8    -0.19   0.01  -0.02    -0.00  -0.00   0.01     0.00   0.01  -0.01
                     10                     11                     12
                      A                      A                      A
 Frequencies --    688.4018               709.7200               763.0639
 Red. masses --      9.6455                 1.2755                11.2694
 Frc consts  --      2.6931                 0.3785                 3.8661
 IR Inten    --     73.9088               156.5104               383.1443
 Raman Activ --     15.4737                 6.2610                10.1167
 Depolar (P) --      0.3999                 0.7474                 0.1099
 Depolar (U) --      0.5713                 0.8555                 0.1981
  Atom  AN      X      Y      Z        X      Y      Z        X      Y      Z
     1   6    -0.35   0.13   0.02     0.01   0.05  -0.09    -0.04  -0.08  -0.01
     2   6    -0.29   0.10   0.01     0.01   0.03  -0.06    -0.18  -0.01  -0.03
     3   6    -0.05   0.20   0.10     0.00   0.00  -0.01    -0.11   0.07  -0.05
     4   1    -0.29  -0.16  -0.06    -0.06  -0.30   0.57    -0.20   0.01   0.03
     5   6     0.14  -0.04  -0.00     0.00   0.02  -0.04    -0.00   0.02   0.06
     6   7    -0.19   0.06   0.01    -0.01  -0.03   0.06     0.03   0.04   0.03
     7   1    -0.34   0.10   0.10    -0.06  -0.28   0.52    -0.08   0.01  -0.21
     8   9     0.39  -0.24  -0.08    -0.00   0.00   0.00     0.13  -0.05  -0.02
     9   1    -0.24   0.24   0.12    -0.05  -0.22   0.41    -0.15  -0.11   0.28
    10   6    -0.03  -0.11  -0.05    -0.00  -0.01   0.01     0.46   0.35   0.17
    11   8     0.08  -0.11  -0.05    -0.00   0.00  -0.00    -0.38   0.14   0.04
    12   8     0.11   0.11   0.07    -0.00   0.00  -0.00     0.13  -0.37  -0.16
                     13                     14                     15
                      A                      A                      A
 Frequencies --    765.3307               797.0428               867.0382
 Red. masses --      1.8426                 5.5645                 1.2767
 Frc consts  --      0.6359                 2.0828                 0.5655
 IR Inten    --     10.7502                53.1568                 0.3930
 Raman Activ --     14.4215                 0.1537                 4.5438
 Depolar (P) --      0.7314                 0.7116                 0.7497
 Depolar (U) --      0.8449                 0.8315                 0.8570
  Atom  AN      X      Y      Z        X      Y      Z        X      Y      Z
     1   6    -0.01  -0.03   0.07    -0.00  -0.03   0.06    -0.01  -0.04   0.07
     2   6     0.01  -0.00   0.01    -0.00  -0.01   0.01     0.01   0.06  -0.11
     3   6     0.02   0.08  -0.15     0.01   0.06  -0.12    -0.00  -0.02   0.04
     4   1     0.00  -0.05   0.08     0.01   0.03  -0.05    -0.08  -0.36   0.66
     5   6    -0.01  -0.05   0.09    -0.01  -0.04   0.07     0.00   0.00  -0.00
     6   7    -0.00  -0.01   0.01     0.02   0.08  -0.14     0.00   0.00  -0.01
     7   1     0.06   0.23  -0.42     0.03   0.11  -0.21     0.06   0.26  -0.49
     8   9    -0.01   0.01  -0.02     0.00   0.01  -0.01    -0.00  -0.00   0.00
     9   1    -0.07  -0.39   0.73    -0.07  -0.35   0.65     0.04   0.14  -0.27
    10   6    -0.01   0.05  -0.14    -0.06  -0.25   0.48    -0.00  -0.01   0.02
    11   8     0.02  -0.03   0.04     0.01   0.07  -0.13     0.00   0.00  -0.00
    12   8    -0.01   0.00   0.05     0.02   0.07  -0.13     0.00   0.00  -0.00
                     16                     17                     18
                      A                      A                      A
 Frequencies --    904.0831              1022.0297              1051.2676
 Red. masses --      4.5595                 1.3848                 1.6216
 Frc consts  --      2.1957                 0.8523                 1.0559
 IR Inten    --      3.8170                22.8049               164.8142
 Raman Activ --     13.0217                 2.2970                13.2995
 Depolar (P) --      0.2853                 0.0679                 0.1855
 Depolar (U) --      0.4439                 0.1272                 0.3130
  Atom  AN      X      Y      Z        X      Y      Z        X      Y      Z
     1   6    -0.10   0.26   0.13     0.01  -0.01  -0.00    -0.02   0.11   0.06
     2   6     0.31   0.00   0.03    -0.05   0.06   0.03    -0.07   0.03   0.01
     3   6    -0.04  -0.22  -0.12    -0.00  -0.12  -0.06     0.08  -0.06  -0.02
     4   1     0.32  -0.16  -0.03    -0.07   0.68   0.36    -0.07  -0.20  -0.12
     5   6    -0.10  -0.09  -0.06    -0.03   0.02   0.01    -0.01  -0.02  -0.01
     6   7    -0.14   0.08   0.03     0.00   0.06   0.03    -0.09  -0.08  -0.05
     7   1    -0.43   0.22   0.05    -0.21  -0.04  -0.05     0.68   0.24   0.22
     8   9     0.04  -0.04  -0.01     0.04  -0.02  -0.01    -0.01   0.00   0.00
     9   1    -0.55  -0.08  -0.11     0.50  -0.26  -0.08     0.53  -0.19  -0.04
    10   6     0.05   0.02   0.02    -0.01  -0.01  -0.01     0.03   0.02   0.02
    11   8    -0.04   0.02   0.00     0.00  -0.01  -0.01    -0.00   0.02   0.01
    12   8     0.04  -0.03  -0.01     0.00   0.00   0.00     0.01  -0.01  -0.00
                     19                     20                     21
                      A                      A                      A
 Frequencies --   1157.5989              1193.4678              1242.7345
 Red. masses --      3.3880                 3.2636                 2.0933
 Frc consts  --      2.6749                 2.7388                 1.9048
 IR Inten    --     34.1271               589.2250               238.3552
 Raman Activ --      1.1167                70.2684                73.9411
 Depolar (P) --      0.1282                 0.1627                 0.2337
 Depolar (U) --      0.2273                 0.2798                 0.3788
  Atom  AN      X      Y      Z        X      Y      Z        X      Y      Z
     1   6     0.14  -0.01   0.01    -0.06   0.11   0.05     0.09   0.02   0.02
     2   6    -0.04  -0.12  -0.07    -0.12   0.04   0.01     0.08  -0.00   0.01
     3   6    -0.15  -0.09  -0.07    -0.06  -0.06  -0.04    -0.10   0.10   0.04
     4   1    -0.04  -0.30  -0.17    -0.12  -0.63  -0.35     0.10  -0.35  -0.17
     5   6    -0.10   0.18   0.09    -0.04  -0.09  -0.05    -0.11   0.02  -0.00
     6   7     0.03   0.19   0.10     0.31   0.04   0.06    -0.04  -0.06  -0.04
     7   1     0.76   0.10   0.14    -0.36   0.07  -0.00    -0.50  -0.09  -0.11
     8   9     0.08  -0.05  -0.02     0.01   0.02   0.01     0.05  -0.02  -0.00
     9   1    -0.23  -0.08  -0.07     0.33  -0.18  -0.06     0.68  -0.10   0.02
    10   6     0.01  -0.00  -0.00    -0.09  -0.07  -0.05     0.08   0.06   0.05
    11   8     0.02  -0.09  -0.04    -0.02   0.07   0.03     0.03  -0.08  -0.04
    12   8    -0.06   0.04   0.01     0.03  -0.03  -0.01    -0.09   0.04   0.01
                     22                     23                     24
                      A                      A                      A
 Frequencies --   1295.6275              1357.4118              1451.9591
 Red. masses --      6.6297                 5.1936                 4.7027
 Frc consts  --      6.5570                 5.6383                 5.8413
 IR Inten    --    410.5419                13.9042                84.7422
 Raman Activ --      9.4220                34.1326                 4.4149
 Depolar (P) --      0.6217                 0.7270                 0.6666
 Depolar (U) --      0.7667                 0.8419                 0.8000
  Atom  AN      X      Y      Z        X      Y      Z        X      Y      Z
     1   6     0.15  -0.11  -0.04     0.25  -0.10  -0.03     0.08  -0.07  -0.03
     2   6     0.13  -0.06  -0.02    -0.16   0.19   0.08    -0.05   0.22   0.11
     3   6    -0.13   0.16   0.07     0.19  -0.07  -0.02     0.09  -0.16  -0.07
     4   1     0.16  -0.17  -0.07    -0.15  -0.58  -0.33    -0.03  -0.46  -0.25
     5   6    -0.14  -0.04  -0.04     0.03  -0.22  -0.12    -0.08   0.32   0.16
     6   7    -0.20   0.11   0.03    -0.18   0.23   0.10    -0.04  -0.18  -0.10
     7   1     0.22  -0.12  -0.04    -0.29  -0.20  -0.14    -0.43  -0.18  -0.15
     8   9     0.05  -0.02  -0.01    -0.05   0.02   0.01     0.05  -0.04  -0.02
     9   1     0.66  -0.04   0.05    -0.18   0.02  -0.01    -0.39  -0.04  -0.07
    10   6    -0.23  -0.18  -0.13     0.04   0.05   0.03    -0.06  -0.06  -0.04
    11   8    -0.07   0.23   0.11     0.01  -0.07  -0.04    -0.01   0.08   0.04
    12   8     0.28  -0.10  -0.01    -0.01   0.01   0.01     0.06  -0.02  -0.00
                     25                     26                     27
                      A                      A                      A
 Frequencies --   1504.2013              1584.8808              1714.7103
 Red. masses --      5.3157                 6.3594                12.7293
 Frc consts  --      7.0864                 9.4115                22.0513
 IR Inten    --    107.8948                95.2451              1251.5620
 Raman Activ --    127.4946                15.5718                17.6728
 Depolar (P) --      0.1311                 0.1404                 0.7478
 Depolar (U) --      0.2319                 0.2463                 0.8557
  Atom  AN      X      Y      Z        X      Y      Z        X      Y      Z
     1   6     0.30   0.24   0.16    -0.10  -0.11  -0.07     0.00   0.03   0.02
     2   6    -0.18  -0.23  -0.14     0.12   0.18   0.11    -0.01  -0.03  -0.02
     3   6    -0.09  -0.02  -0.02    -0.37  -0.09  -0.09     0.06   0.01   0.01
     4   1    -0.25   0.19   0.07     0.16  -0.38  -0.18    -0.01   0.06   0.03
     5   6     0.25   0.04   0.05     0.47   0.02   0.07    -0.11   0.01  -0.01
     6   7    -0.10  -0.08  -0.05    -0.06   0.02   0.01     0.06  -0.05  -0.02
     7   1    -0.69   0.11  -0.03     0.17  -0.09  -0.03    -0.01   0.05   0.02
     8   9    -0.05   0.01   0.00    -0.08   0.03   0.01     0.02  -0.01  -0.00
     9   1    -0.15  -0.03  -0.03     0.37  -0.35  -0.14    -0.05   0.05   0.02
    10   6    -0.05  -0.02  -0.02    -0.05   0.06   0.03    -0.58   0.59   0.23
    11   8    -0.01   0.03   0.02     0.01  -0.04  -0.02     0.11  -0.27  -0.13
    12   8     0.04  -0.01  -0.00     0.04  -0.01  -0.00     0.30  -0.15  -0.04
                     28                     29                     30
                      A                      A                      A
 Frequencies --   3229.2218              3248.0046              3285.5722
 Red. masses --      1.0923                 1.0996                 1.0992
 Frc consts  --      6.7108                 6.8345                 6.9913
 IR Inten    --     10.2856                 1.7069                 5.2253
 Raman Activ --    172.1429               267.5010               150.7035
 Depolar (P) --      0.6122                 0.1945                 0.1844
 Depolar (U) --      0.7595                 0.3256                 0.3114
  Atom  AN      X      Y      Z        X      Y      Z        X      Y      Z
     1   6     0.00  -0.01  -0.00     0.00  -0.00  -0.00     0.02  -0.08  -0.04
     2   6    -0.08   0.00  -0.01    -0.03   0.00  -0.00     0.02   0.00   0.00
     3   6     0.01   0.03   0.01    -0.02  -0.07  -0.04    -0.00   0.00   0.00
     4   1     0.91  -0.02   0.09     0.35  -0.01   0.03    -0.16   0.00  -0.02
     5   6    -0.00   0.00  -0.00     0.01   0.00   0.00    -0.00   0.00   0.00
     6   7     0.00  -0.00  -0.00     0.00   0.00   0.00    -0.00   0.00   0.00
     7   1    -0.04   0.12   0.06    -0.02   0.08   0.04    -0.23   0.85   0.43
     8   9     0.00   0.00   0.00    -0.00   0.00  -0.00    -0.00   0.00   0.00
     9   1    -0.09  -0.30  -0.17     0.23   0.78   0.45    -0.01  -0.02  -0.01
    10   6     0.00  -0.00  -0.00     0.00  -0.00   0.00     0.00  -0.00  -0.00
    11   8    -0.00   0.00  -0.00    -0.00  -0.00  -0.00    -0.00   0.00   0.00
    12   8    -0.00   0.00   0.00    -0.00   0.00   0.00     0.00   0.00   0.00

 -------------------
 - Thermochemistry -
 -------------------
 Temperature   298.150 Kelvin.  Pressure   1.00000 Atm.
 Thermochemistry will use frequencies scaled by 0.9670.
 Atom     1 has atomic number  6 and mass  12.00000
 Atom     2 has atomic number  6 and mass  12.00000
 Atom     3 has atomic number  6 and mass  12.00000
 Atom     4 has atomic number  1 and mass   1.00783
 Atom     5 has atomic number  6 and mass  12.00000
 Atom     6 has atomic number  7 and mass  14.00307
 Atom     7 has atomic number  1 and mass   1.00783
 Atom     8 has atomic number  9 and mass  18.99840
 Atom     9 has atomic number  1 and mass   1.00783
 Atom    10 has atomic number  6 and mass  12.00000
 Atom    11 has atomic number  8 and mass  15.99491
 Atom    12 has atomic number  8 and mass  15.99491
 Molecular mass:   128.01478 amu.
 Principal axes and moments of inertia in atomic units:
                           1         2         3
     Eigenvalues --   646.971381089.152661735.99863
           X            0.67608   0.72916  -0.10609
           Y            0.61180  -0.63574  -0.47067
           Z            0.41063  -0.25331   0.87591
 This molecule is an asymmetric top.
 Rotational symmetry number  1.
 Warning -- assumption of classical behavior for rotation
           may cause significant error
 Rotational temperatures (Kelvin)      0.13388     0.07952     0.04989
 Rotational constants (GHZ):           2.78952     1.65701     1.03960
 Zero-point vibrational energy     191609.0 (Joules/Mol)
                                   45.79566 (Kcal/Mol)
 Warning -- explicit consideration of   9 degrees of freedom as
           vibrations may cause significant error
 Vibrational temperatures:     90.42   184.81   298.26   411.99   505.19
          (Kelvin)            575.02   798.24   847.95   871.56   957.77
                              987.43  1061.65  1064.80  1108.92  1206.31
                             1257.85  1421.95  1462.63  1610.56  1660.47
                             1729.01  1802.60  1888.56  2020.11  2092.79
                             2205.04  2385.67  4492.81  4518.94  4571.21
 
 Zero-point correction=                           0.072980 (Hartree/Particle)
 Thermal correction to Energy=                    0.080302
 Thermal correction to Enthalpy=                  0.081246
 Thermal correction to Gibbs Free Energy=         0.040518
 Sum of electronic and zero-point Energies=           -497.624595
 Sum of electronic and thermal Energies=              -497.617274
 Sum of electronic and thermal Enthalpies=            -497.616330
 Sum of electronic and thermal Free Energies=         -497.657057
 
                     E (Thermal)             CV                S
                      KCal/Mol        Cal/Mol-Kelvin    Cal/Mol-Kelvin
 Total                   50.390             26.795             85.718
 Electronic               0.000              0.000              0.000
 Translational            0.889              2.981             40.454
 Rotational               0.889              2.981             28.594
 Vibrational             48.613             20.834             16.670
 Vibration     1          0.597              1.972              4.366
 Vibration     2          0.611              1.925              2.969
 Vibration     3          0.641              1.829              2.067
 Vibration     4          0.684              1.699              1.495
 Vibration     5          0.728              1.573              1.161
 Vibration     6          0.766              1.471              0.964
 Vibration     7          0.910              1.129              0.534
 Vibration     8          0.947              1.054              0.468
 Vibration     9          0.964              1.020              0.440
                       Q            Log10(Q)             Ln(Q)
 Total Bot       0.230598D-18        -18.637144        -42.913611
 Total V=0       0.853701D+15         14.931306         34.380602
 Vib (Bot)       0.102307D-31        -31.990096        -73.659917
 Vib (Bot)    1  0.328462D+01          0.516485          1.189251
 Vib (Bot)    2  0.158774D+01          0.200778          0.462309
 Vib (Bot)    3  0.959137D+00         -0.018120         -0.041722
 Vib (Bot)    4  0.669155D+00         -0.174473         -0.401739
 Vib (Bot)    5  0.525066D+00         -0.279786         -0.644231
 Vib (Bot)    6  0.446078D+00         -0.350590         -0.807262
 Vib (Bot)    7  0.281552D+00         -0.550441         -1.267438
 Vib (Bot)    8  0.256131D+00         -0.591537         -1.362065
 Vib (Bot)    9  0.245036D+00         -0.610771         -1.406351
 Vib (V=0)       0.378752D+02          1.578355          3.634296
 Vib (V=0)    1  0.382246D+01          0.582343          1.340894
 Vib (V=0)    2  0.216460D+01          0.335378          0.772237
 Vib (V=0)    3  0.158164D+01          0.199107          0.458462
 Vib (V=0)    4  0.133533D+01          0.125587          0.289175
 Vib (V=0)    5  0.122505D+01          0.088153          0.202980
 Vib (V=0)    6  0.117006D+01          0.068209          0.157058
 Vib (V=0)    7  0.107382D+01          0.030932          0.071224
 Vib (V=0)    8  0.106179D+01          0.026037          0.059952
 Vib (V=0)    9  0.105681D+01          0.023999          0.055259
 Electronic      0.100000D+01          0.000000          0.000000
 Translational   0.569304D+08          7.755344         17.857340
 Rotational      0.395920D+06          5.597607         12.888967
 
                                                    PyrF-CO2_binding-site_index-5
                                                             IR Spectrum
 
     3 33                                                         1    1  1 1   1 1 1 1 1   11                                       
     2 22                                                         7    5  5 4   3 2 2 1 1   00    98 777 76 665      43  2  2  1     
     8 42                                                         1    8  0 5   5 9 4 9 5   52    06 966 18 207      16  9  1  3  6  
     6 89                                                         5    5  4 2   7 6 3 3 8   12    47 753 08 694      33  6  4  3  5  
 
     X XX                                                         X    X  X X   X X X X X   XX    XX XXX XX XXX      XX  X  X  X     
                                                                  X    X  X       X X X     X          X X                           
                                                                  X               X X X     X          X X                           
                                                                  X               X X X                X                             
                                                                  X               X   X                X                             
                                                                  X               X   X                X                             
                                                                  X               X   X                                              
                                                                  X                   X                                              
                                                                  X                   X                                              
                                                                  X                                                                  
                                                                  X                                                                  
                                                                  X                                                                  
                                                                  X                                                                  
                                                                  X                                                                  
                                                                  X                                                                  
                                                                  X                                                                  
                                                                  X                                                                  
                                                                  X                                                                  
                                                                  X                                                                  
                                                                  X                                                                  
 
 
                                                    PyrF-CO2_binding-site_index-5
                                                            Raman Spectrum
 
     3 33                                                         1    1  1 1   1 1 1 1 1   11                                       
     2 22                                                         7    5  5 4   3 2 2 1 1   00    98 777 76 665      43  2  2  1     
     8 42                                                         1    8  0 5   5 9 4 9 5   52    06 966 18 207      16  9  1  3  6  
     6 89                                                         5    5  4 2   7 6 3 3 8   12    47 753 08 694      33  6  4  3  5  
 
     X XX                                                         X    X  X X   X X X X X   XX    XX XXX XX XXX      XX  X  X  X  X  
     X XX                                                                 X     X   X X                                              
     X XX                                                                 X     X   X X                                              
     X XX                                                                 X         X X                                              
     X XX                                                                 X         X X                                              
     X XX                                                                 X         X                                                
     X XX                                                                 X                                                          
     X XX                                                                 X                                                          
     X XX                                                                 X                                                          
     X XX                                                                 X                                                          
     X XX                                                                                                                            
       XX                                                                                                                            
       XX                                                                                                                            
       X                                                                                                                             
       X                                                                                                                             
       X                                                                                                                             
       X                                                                                                                             
       X                                                                                                                             
       X                                                                                                                             
       X                                                                                                                             
 
 -------------------------------------------------------------------
 Center     Atomic                   Forces (Hartrees/Bohr)
 Number     Number              X              Y              Z
 -------------------------------------------------------------------
      1        6           0.000026898    0.000002801    0.000014869
      2        6           0.000009800   -0.000014737   -0.000045244
      3        6          -0.000001682    0.000000813   -0.000042959
      4        1           0.000006114   -0.000004555    0.000007166
      5        6           0.000014142    0.000024031    0.000038408
      6        7           0.000181515   -0.000001358    0.000126236
      7        1          -0.000001191   -0.000043862    0.000000841
      8        9          -0.000025659    0.000001989   -0.000011725
      9        1          -0.000002580    0.000028608   -0.000034102
     10        6          -0.000249269    0.000113754   -0.000341332
     11        8          -0.000098160    0.000011300    0.000166296
     12        8           0.000140071   -0.000118782    0.000121546
 -------------------------------------------------------------------
 Cartesian Forces:  Max     0.000341332 RMS     0.000096986
 Force constants in Cartesian coordinates: 
                1             2             3             4             5 
      1  0.556901D+00
      2 -0.271343D-01  0.716707D+00
      3  0.363679D-01  0.320705D+00  0.288126D+00
      4 -0.191901D+00 -0.119070D+00 -0.783316D-01  0.824969D+00
      5 -0.110730D+00 -0.234910D+00 -0.104720D+00  0.215394D-01  0.468080D+00
      6 -0.737187D-01 -0.105617D+00 -0.127879D+00  0.931106D-01  0.192093D+00
      7  0.208274D-01  0.236865D-01  0.134357D-01 -0.167306D+00  0.645970D-01
      8 -0.132755D-01 -0.523221D-01 -0.369600D-01  0.846275D-01 -0.179753D+00
      9 -0.619769D-02 -0.327188D-01 -0.421229D-02  0.322595D-01 -0.594730D-01
     10 -0.793734D-02  0.464912D-02  0.161625D-02 -0.346708D+00  0.751121D-02
     11 -0.198943D-01  0.707870D-02  0.171279D-02  0.930950D-02 -0.501385D-01
     12 -0.114890D-01  0.454308D-02  0.729863D-03 -0.318867D-01 -0.125259D-01
     13 -0.221269D-01  0.244282D-01  0.873043D-02 -0.614165D-01  0.468973D-01
     14  0.466884D-01 -0.444261D-01 -0.265349D-01  0.752419D-02  0.221771D-01
     15  0.204718D-01 -0.290939D-01  0.224374D-02 -0.417917D-02  0.117940D-01
     16 -0.235633D+00  0.463570D-01  0.493274D-02 -0.748983D-01 -0.405512D-01
     17  0.605063D-01 -0.117509D+00 -0.244637D-01 -0.101725D-01 -0.114574D-01
     18  0.118652D-01 -0.260066D-01 -0.718838D-01 -0.156152D-01 -0.176828D-01
     19 -0.697485D-01  0.568895D-01  0.248199D-01  0.117697D-01 -0.127404D-01
     20  0.666003D-01 -0.278723D+00 -0.130400D+00  0.726372D-02 -0.568511D-02
     21  0.300487D-01 -0.131592D+00 -0.882949D-01  0.504645D-02 -0.534982D-02
     22 -0.126537D-01  0.545132D-02  0.135277D-02 -0.630550D-02  0.171876D-02
     23  0.270825D-02 -0.652471D-02 -0.372350D-02  0.920258D-04 -0.391696D-02
     24  0.312129D-04 -0.342992D-02 -0.893357D-03 -0.124480D-02 -0.460319D-02
     25 -0.357076D-02  0.386744D-02  0.134805D-02  0.120612D-01  0.138852D-01
     26  0.284037D-02 -0.175184D-02 -0.204598D-02 -0.877404D-02 -0.796418D-02
     27  0.730886D-03 -0.193422D-02  0.172293D-02 -0.312365D-02 -0.165608D-02
     28 -0.396413D-01 -0.773959D-02 -0.817063D-02  0.459096D-02  0.123218D-01
     29 -0.198723D-01  0.145298D-01  0.859880D-02  0.120084D-01  0.702414D-02
     30 -0.145310D-01  0.103880D-01 -0.219465D-02  0.702479D-02  0.458606D-02
     31 -0.306901D-02 -0.141032D-02 -0.108916D-02  0.155732D-02 -0.829959D-03
     32  0.114315D-01 -0.174063D-02 -0.215714D-04 -0.279091D-02 -0.408553D-02
     33  0.570730D-02 -0.167843D-02  0.864513D-03 -0.136113D-02 -0.247938D-02
     34  0.855258D-02 -0.997499D-02 -0.501239D-02 -0.641171D-02 -0.361928D-02
     35  0.131240D-03 -0.409141D-03 -0.214720D-02 -0.155750D-02  0.629701D-03
     36  0.713369D-03 -0.356482D-02  0.167029D-02 -0.169910D-02  0.165143D-04
                6             7             8             9            10 
      6  0.226772D+00
      7  0.213676D-01  0.607222D+00
      8 -0.569777D-01  0.770534D-01  0.639988D+00
      9 -0.833241D-01  0.986676D-01  0.295654D+00  0.274720D+00
     10 -0.328307D-01 -0.750172D-02 -0.383880D-02 -0.283381D-02  0.363372D+00
     11 -0.122970D-01  0.201779D-01  0.503543D-02  0.540144D-02 -0.839411D-02
     12 -0.354561D-01  0.100301D-01  0.263781D-02  0.182796D-02  0.347586D-01
     13  0.169077D-01 -0.327480D+00 -0.102900D+00 -0.852355D-01  0.858804D-04
     14  0.716269D-02 -0.708612D-01 -0.126000D+00 -0.415979D-01  0.201989D-02
     15  0.163554D-01 -0.678450D-01 -0.452884D-01 -0.957156D-01  0.913085D-03
     16 -0.319068D-01 -0.292118D-01 -0.148039D-01 -0.126915D-01 -0.867485D-03
     17 -0.142034D-01 -0.550381D-01 -0.349572D-01 -0.313414D-01 -0.259869D-02
     18  0.188915D-02 -0.340644D-01 -0.270116D-01 -0.603691D-02 -0.228194D-02
     19 -0.568507D-02 -0.146291D-02 -0.235009D-02 -0.202782D-02  0.114557D-03
     20 -0.319551D-02 -0.245853D-02  0.791802D-04 -0.310203D-02 -0.443834D-03
     21 -0.472670D-03 -0.199377D-02 -0.312524D-02  0.344539D-02  0.250295D-03
     22 -0.356190D-03 -0.290203D-01  0.292307D-01  0.120353D-01 -0.110743D-02
     23 -0.472448D-02 -0.167684D-02  0.111766D-01  0.317648D-02  0.147016D-03
     24  0.230451D-02 -0.475840D-02  0.674250D-02  0.786553D-02 -0.217126D-03
     25  0.905911D-02 -0.735059D-01 -0.578714D-01 -0.369078D-01  0.240251D-03
     26 -0.434393D-02 -0.613860D-01 -0.259763D+00 -0.134438D+00  0.944893D-04
     27 -0.301754D-02 -0.387089D-01 -0.134066D+00 -0.987625D-01  0.298702D-03
     28  0.700628D-02  0.133238D-01  0.947807D-02  0.643189D-02  0.138422D-02
     29  0.458241D-02  0.114253D-01 -0.196279D-03  0.657424D-03  0.160481D-02
     30  0.427798D-02  0.752901D-02  0.662788D-03  0.215528D-02  0.767048D-03
     31 -0.336224D-03 -0.259484D-03 -0.336575D-02 -0.179173D-02 -0.172073D-03
     32 -0.274100D-02 -0.524609D-02 -0.395713D-02 -0.249112D-02 -0.567534D-03
     33 -0.106927D-02 -0.276731D-02 -0.229950D-02 -0.196845D-02 -0.304584D-03
     34 -0.261775D-02 -0.562508D-02 -0.198408D-02 -0.170843D-02 -0.902679D-03
     35  0.261389D-03 -0.273345D-03  0.669598D-03  0.272846D-03 -0.183566D-03
     36 -0.380200D-03 -0.892229D-03  0.313709D-04  0.560560D-05 -0.135904D-03
               11            12            13            14            15 
     11  0.424458D-01
     12  0.105583D-01  0.305244D-01
     13  0.661257D-03  0.172835D-03  0.785926D+00
     14 -0.391072D-02 -0.271505D-02 -0.489082D-01  0.507715D+00
     15 -0.287730D-02  0.154676D-03  0.492378D-01  0.203271D+00  0.233291D+00
     16 -0.310733D-02 -0.259368D-02 -0.120381D+00  0.754250D-02 -0.389532D-02
     17 -0.171267D-02 -0.481610D-02 -0.655306D-02 -0.220360D+00 -0.902522D-01
     18 -0.489905D-02  0.390029D-02 -0.117727D-01 -0.883399D-01 -0.102159D+00
     19  0.645576D-03  0.829545D-03 -0.573878D-02 -0.301311D-02 -0.209559D-02
     20 -0.719420D-03  0.177436D-02  0.837755D-03  0.400483D-03  0.114757D-02
     21  0.189515D-02 -0.308820D-02 -0.906946D-04  0.655081D-03 -0.126030D-02
     22  0.241612D-02  0.993274D-03 -0.265105D+00  0.994810D-01  0.265327D-01
     23  0.570804D-03 -0.493485D-03  0.974917D-01 -0.113336D+00 -0.369373D-01
     24 -0.235923D-03  0.136607D-02  0.255271D-01 -0.367744D-01 -0.413381D-01
     25 -0.128065D-02 -0.439833D-03  0.571852D-03 -0.222786D-01 -0.120337D-01
     26  0.409863D-04  0.106674D-02  0.390676D-02 -0.147935D-02 -0.981956D-03
     27  0.906760D-03 -0.140656D-02  0.199378D-02 -0.397842D-02 -0.731172D-03
     28  0.422336D-03  0.926925D-04  0.283303D-01 -0.364230D-01 -0.148696D-01
     29  0.187589D-02 -0.160367D-03 -0.161683D-01 -0.343320D-01 -0.157912D-01
     30 -0.242977D-03  0.242005D-02 -0.372282D-02 -0.182628D-01 -0.189680D-01
     31  0.344239D-04  0.271582D-04 -0.740460D-02  0.215458D-02 -0.271742D-03
     32 -0.259967D-03 -0.118453D-03 -0.735653D-02  0.146079D-01  0.455535D-02
     33 -0.415829D-04 -0.242124D-03 -0.540228D-02  0.561083D-02  0.694949D-02
     34 -0.990706D-03 -0.494999D-03 -0.526101D-02  0.160735D-01  0.803482D-02
     35 -0.306338D-03  0.249092D-03  0.766330D-02 -0.105651D-02  0.454752D-03
     36  0.119434D-03 -0.730308D-03  0.365421D-02  0.150412D-02  0.117808D-02
               16            17            18            19            20 
     16  0.623512D+00
     17 -0.174860D-01  0.522210D+00
     18  0.533896D-01  0.224411D+00  0.225283D+00
     19 -0.580714D-02  0.291160D-01  0.151558D-01  0.683332D-01
     20  0.120886D-02 -0.413603D-02 -0.106773D-02 -0.705340D-01  0.290048D+00
     21  0.203215D-03  0.211711D-02 -0.719425D-03 -0.318526D-01  0.137149D+00
     22  0.455727D-02  0.860750D-02  0.565247D-02 -0.565489D-03 -0.958763D-04
     23  0.351910D-01 -0.160470D-01 -0.284878D-02  0.236965D-02  0.742826D-03
     24  0.197445D-01 -0.563114D-02 -0.435943D-02  0.882670D-03 -0.111824D-02
     25 -0.591426D-02 -0.206899D-02 -0.230941D-02  0.910448D-03  0.568736D-03
     26 -0.613103D-03  0.830246D-03 -0.188578D-02 -0.505981D-03  0.220921D-03
     27 -0.142801D-02 -0.208746D-02  0.289301D-02 -0.353925D-03 -0.688077D-03
     28 -0.725386D-01  0.286063D-01  0.129789D-01  0.277521D-03 -0.477477D-03
     29  0.211440D-01 -0.680659D-01 -0.662553D-02  0.304330D-02 -0.268903D-02
     30  0.845725D-02 -0.622187D-02 -0.527107D-01  0.179843D-02 -0.653924D-03
     31  0.571122D-02 -0.304030D-01 -0.174594D-01  0.123181D-02 -0.273189D-02
     32 -0.214178D-01 -0.654839D-01 -0.462093D-01 -0.200669D-02  0.203414D-04
     33 -0.127624D-01 -0.472997D-01 -0.101028D-01 -0.106884D-02 -0.215622D-04
     34 -0.885290D-01 -0.251582D-02 -0.155390D-01  0.685551D-03  0.262192D-03
     35 -0.134640D-01  0.166882D-01 -0.183380D-02 -0.913709D-03  0.440478D-03
     36 -0.214496D-01 -0.210967D-03  0.140073D-01 -0.402496D-03  0.176024D-03
               21            22            23            24            25 
     21  0.889884D-01
     22 -0.432527D-03  0.315106D+00
     23 -0.828568D-03 -0.135671D+00  0.130280D+00
     24  0.234116D-02 -0.407212D-01  0.445362D-01  0.372586D-01
     25  0.214858D-03  0.226428D-02  0.254223D-03  0.844782D-03  0.654647D-01
     26 -0.810702D-03 -0.121952D-02 -0.517144D-03  0.171627D-02  0.653421D-01
     27  0.122824D-02  0.341934D-04  0.187719D-02 -0.295502D-02  0.404052D-01
     28  0.140290D-05 -0.160071D-01  0.489518D-02  0.744490D-03  0.219849D-02
     29 -0.286581D-03 -0.246502D-02  0.537884D-02  0.339448D-02  0.620824D-03
     30 -0.167523D-02 -0.334603D-02  0.413359D-02  0.689337D-03  0.332614D-03
     31 -0.156021D-02  0.353679D-02 -0.392191D-03  0.294763D-03 -0.245381D-03
     32  0.116231D-03  0.106835D-02 -0.276517D-02 -0.132808D-02 -0.108601D-02
     33 -0.710323D-03  0.110676D-02 -0.138090D-02 -0.883873D-03 -0.512324D-03
     34  0.164866D-03  0.530080D-02 -0.540945D-02 -0.112807D-02 -0.474944D-03
     35  0.608354D-04 -0.852272D-02 -0.504155D-02 -0.326861D-02  0.470197D-04
[...]
 RMS     Displacement     0.001369     0.001200     NO 
 Predicted change in Energy=-5.349072D-07
 GradGradGradGradGradGradGradGradGradGradGradGradGradGradGradGradGradGrad

 Leave Link  103 at Thu Dec 14 12:31:54 2023, MaxMem= 14763950080 cpu:               0.1 elap:               0.1
 (Enter /software/commercial/gaussian/g16/AVX2/g16/l9999.exe)

 ----------------------------------------------------------------------

 Electric dipole moment (input orientation):
 (Debye = 10**-18 statcoulomb cm , SI units = C m)
                  (au)            (Debye)         (10**-30 SI)
   Tot        0.515360D+01      0.130991D+02      0.436940D+02
   x         -0.448985D+01     -0.114121D+02     -0.380665D+02
   y         -0.200875D+01     -0.510572D+01     -0.170309D+02
   z         -0.153811D+01     -0.390949D+01     -0.130407D+02

 Dipole polarizability, Alpha (input orientation).
 (esu units = cm**3 , SI units = C**2 m**2 J**-1)
 Alpha(0;0):
               (au)            (10**-24 esu)      (10**-40 SI)
   iso        0.982956D+02      0.145659D+02      0.162068D+02
   aniso      0.551236D+02      0.816848D+01      0.908866D+01
   xx         0.116370D+03      0.172443D+02      0.191869D+02
   yx         0.284295D+01      0.421281D+00      0.468739D+00
   yy         0.103466D+03      0.153320D+02      0.170592D+02
   zx         0.817412D+01      0.121128D+01      0.134773D+01
   zy         0.221609D+02      0.328390D+01      0.365384D+01
   zz         0.750510D+02      0.111214D+02      0.123742D+02

 First dipole hyperpolarizability, Beta (input orientation).
 ||, _|_  parallel and perpendicular components, (z) with respect to z axis,
 vector components x,y,z.  Values do not include the 1/n! factor of 1/2.
 (esu units = statvolt**-1 cm**4 , SI units = C**3 m**3 J**-2)
 Beta(0;0,0):
               (au)            (10**-30 esu)      (10**-50 SI)
   || (z)     0.429408D+02      0.370975D+00      0.137684D+00
   _|_(z)     0.143136D+02      0.123658D+00      0.458946D-01
   x         -0.116739D+04     -0.100853D+02     -0.374306D+01
   y          0.628004D+03      0.542546D+01      0.201361D+01
   z          0.214704D+03      0.185488D+01      0.688419D+00
   ||         0.268572D+03      0.232026D+01      0.861140D+00
   xxx       -0.163732D+03     -0.141452D+01     -0.524985D+00
   xxy        0.160549D+03      0.138702D+01      0.514778D+00
   yxy       -0.795339D+02     -0.687111D+00     -0.255015D+00
   yyy        0.222223D+02      0.191984D+00      0.712528D-01
   xxz        0.115491D+03      0.997752D+00      0.370306D+00
   yxz        0.907364D+02      0.783892D+00      0.290934D+00
   yyz        0.121797D+02      0.105223D+00      0.390525D-01
   zxz       -0.145862D+03     -0.126014D+01     -0.467688D+00
   zyz        0.265634D+02      0.229487D+00      0.851719D-01
   zzz       -0.561027D+02     -0.484684D+00     -0.179885D+00

 ----------------------------------------------------------------------

 Dipole orientation:
     6         -1.23271606         -1.26168025          0.04735424
     6         -0.37354652         -0.48323505          2.36596619
     6          1.57880803          1.34980525          1.95246396
     1         -1.05008379         -1.13818889          4.17499858
     6          1.78509940          1.57312844         -0.61327061
     7          0.10093256          0.01042890         -1.82535699
     1         -2.66696712         -2.59581132         -0.49227347
     9          3.37834770          3.06462475         -1.89821096
     1          2.67961032          2.36023106          3.33785145
     6         -0.35333715         -0.34244683         -4.59417222
     8         -2.01080024         -1.93242948         -5.07314968
     8          0.96993949          0.98110713         -6.00057676

 Electric dipole moment (dipole orientation):
 (Debye = 10**-18 statcoulomb cm , SI units = C m)
                  (au)            (Debye)         (10**-30 SI)
   Tot        0.515360D+01      0.130991D+02      0.436940D+02
   x          0.000000D+00      0.000000D+00      0.000000D+00
   y          0.000000D+00      0.000000D+00      0.000000D+00
   z          0.515360D+01      0.130991D+02      0.436940D+02

 Dipole polarizability, Alpha (dipole orientation).
 (esu units = cm**3 , SI units = C**2 m**2 J**-1)
 Alpha(0;0):
               (au)            (10**-24 esu)      (10**-40 SI)
   iso        0.982956D+02      0.145659D+02      0.162068D+02
   aniso      0.551236D+02      0.816848D+01      0.908866D+01
   xx         0.876896D+02      0.129943D+02      0.144581D+02
   yx         0.240637D+02      0.356587D+01      0.396756D+01
   yy         0.851305D+02      0.126150D+02      0.140361D+02
   zx         0.257384D+01      0.381404D+00      0.424370D+00
   zy         0.132205D+01      0.195907D+00      0.217976D+00
   zz         0.122067D+03      0.180884D+02      0.201261D+02

 First dipole hyperpolarizability, Beta (dipole orientation).
 ||, _|_  parallel and perpendicular components, (z) with respect to z axis,
 vector components x,y,z.  Values do not include the 1/n! factor of 1/2.
 (esu units = statvolt**-1 cm**4 , SI units = C**3 m**3 J**-2)
 Beta(0;0,0):
               (au)            (10**-30 esu)      (10**-50 SI)
   || (z)     0.141635D+03      0.122362D+01      0.454133D+00
   _|_(z)     0.472116D+02      0.407872D+00      0.151378D+00
   x         -0.836289D+03     -0.722489D+01     -0.268144D+01
   y         -0.776136D+03     -0.670521D+01     -0.248857D+01
   z          0.708175D+03      0.611808D+01      0.227066D+01
   ||         0.268572D+03      0.232026D+01      0.861140D+00
   xxx       -0.160111D+03     -0.138324D+01     -0.513374D+00
   xxy       -0.340321D+02     -0.294011D+00     -0.109119D+00
   yxy       -0.366876D+02     -0.316952D+00     -0.117634D+00
   yyy       -0.156027D+03     -0.134795D+01     -0.500279D+00
   xxz        0.167740D+03      0.144914D+01      0.537834D+00
   yxz       -0.231535D+02     -0.200028D+00     -0.742386D-01
   yyz        0.174912D+03      0.151110D+01      0.560830D+00
   zxz       -0.819642D+02     -0.708107D+00     -0.262807D+00
   zyz       -0.686528D+02     -0.593107D+00     -0.220126D+00
   zzz       -0.106593D+03     -0.920880D+00     -0.341775D+00

 ----------------------------------------------------------------------
 Unable to Open any file for archive entry.
 1\1\GINC-NODE0003\Freq\RB3LYP\6-311+G(d,p)\C5H3F1N1O2(1-)\SVICCHI\14-D
 ec-2023\0\\#p freq=raman scale=0.967 guess=read geom=allcheck b3lyp/6-
 311+G(d,p) int=grid=ultrafine EmpiricalDispersion=GD3BJ SCRF=(Solvent=
 ethanol) scf=(xqc,intrep,maxconventionalcycle=350) nosymm\\PyrF-CO2_bi
 nding-site_index-5\\-1,1\C,-0.4674513857,0.7503644839,0.3005965553\C,-
 1.2397639706,-0.2105119116,-0.3011280036\C,-0.3662253317,-1.2519209557
 ,-0.7578176463\H,-2.3131462365,-0.1839816555,-0.410029783\C,0.89289550
 36,-0.8556113445,-0.4016402662\N,0.8651640666,0.3576572136,0.243906906
 2\H,-0.7186251718,1.683544175,0.7718666487\F,2.0419699797,-1.507989863
 ,-0.625590058\H,-0.623073031,-2.1621457869,-1.2757030461\C,1.992943436
 5,1.1565057793,0.8178444868\O,1.6293273899,2.2276159249,1.3296695537\O
 ,3.115420251,0.6450152405,0.7029013525\\Version=ES64L-G16RevC.02\HF=-4
 97.6975755\RMSD=9.738e-09\RMSF=9.699e-05\ZeroPoint=0.07298\Thermal=0.0
 803018\ETot=-497.6172737\HTot=-497.6163295\GTot=-497.6570571\Dipole=-2
 .6404933,-1.753397,-1.265677\DipoleDeriv=0.6185506,0.2907796,0.2501357
 ,0.067817,-0.2504904,-0.0118579,0.1330531,0.01748,-0.1903343,-0.127507
 7,-0.1976637,-0.0841005,-0.2914876,-0.0119069,0.1321809,-0.1330901,0.1
 431355,-0.2641,-0.4815481,-0.064882,-0.0508792,-0.1701546,-0.2383491,0
 .0281736,-0.107849,0.0398593,-0.3177624,-0.105316,0.0131793,-0.0308411
 ,0.0203272,0.131789,-0.0459692,-0.0268001,-0.0460657,0.1941107,1.50575
 68,-0.3484628,-0.0311664,-0.0004657,1.0350025,0.5180559,0.1446569,0.47
 81117,0.3495907,-1.5445804,-0.8458856,-0.6323676,-0.7784354,-0.9059864
 ,-0.546676,-0.595464,-0.5551286,-0.4260344,0.1191437,0.0265875,0.00104
 58,0.0531986,0.0881729,-0.0736263,0.0141933,-0.0761334,0.1979912,-1.23
 62118,0.5900344,0.1884877,0.558501,-0.6107322,-0.2208734,0.1809763,-0.
 2214856,-0.1822445,0.1144746,-0.0185022,-0.0257267,-0.0210926,-0.00123
 46,-0.1381069,-0.0264886,-0.1383584,0.1740736,3.31226,0.0917253,0.4412
 734,0.0961098,2.5968984,1.1538403,0.4465037,1.1570848,1.0668761,-1.046
 9344,0.1704958,0.0274774,0.1088411,-1.845923,-0.6398834,-0.0050672,-0.
 6360278,-0.924178,-2.1280874,0.2925944,-0.0533386,0.3568411,-0.9872403
 ,-0.1552575,-0.0246244,-0.1624716,-0.6779887\Polar=116.3703589,2.84294
 63,103.4655239,8.1741211,22.1608784,75.0510143\PolarDeriv=-0.4923173,-
 3.6725157,1.8312552,-2.3262454,-2.8929726,2.4360845,4.4047164,-3.07046
 83,12.2212016,-0.6800258,-1.6233702,3.8270709,2.8676185,-1.7035121,-1.
 5906352,-3.3722339,4.4415626,10.1767487,-4.2709495,-4.1071175,-3.93442
 ,-1.0419647,1.7107524,-6.4438146,-1.000908,7.5060925,-9.5858,8.0275016
 ,-1.2288532,-1.6076425,0.5985135,7.6287407,-2.8264074,-2.6753774,-1.82
 1982,-6.0436435,-2.9507574,8.9958995,-8.9538683,5.5585096,-0.8473269,-
 3.4678992,-3.7724642,-6.893316,-3.758001,-0.6637524,3.1308148,-1.87618
 59,-1.0851737,0.8403495,3.1012858,-4.5415074,-2.134457,-8.5653479,-16.
 3235662,-0.2677224,-1.2252357,-2.1427416,-0.4487503,-1.0742613,0.44268
 94,-1.0322137,-0.2395083,-1.2347438,-0.5113219,-0.4923941,-1.9227744,-
 1.3329484,-0.6676453,0.425054,-0.1328868,0.3373352,6.472904,-4.7850174
 ,13.5471537,-3.8148457,1.360709,11.4142946,-7.7119452,-3.2705212,-1.01
 84722,-6.364272,1.744959,0.9121433,-4.7851778,-5.5270974,6.1957991,3.2
 898806,-2.7405783,-1.830767,5.0631775,6.0324016,2.9350888,3.895814,3.0
 249821,-0.0490129,7.8243561,3.5171051,-0.1846633,2.3474446,-0.0296137,
 -2.4087294,4.1508168,1.6017096,-2.6377743,2.7480835,2.0432875,1.493265
 9,-0.7373117,2.4710992,-2.5845299,1.2121397,-0.6767592,-0.6005975,2.56
 13667,-2.0399366,7.6018231,-1.2289253,4.2307185,3.2255054,1.1128798,-0
 .9997729,5.3565011,0.2192721,1.0791417,0.2331005,7.5578423,-4.4289286,
 -1.6737998,-1.1631141,0.2195399,-3.1094268,-0.9900258,4.5257115,-1.358
 8101,2.17761,-1.6319356,1.4826446,0.2273066,2.0339923,-1.3858869,0.866
 7565,-0.5717199,0.8212613,-2.2156409,-1.9861516,-2.1806509,-1.3853221,
 -1.4342794,-1.1430791,-2.0712682,-2.4767427,-9.9708627,-1.9074618,-5.8
 669571,-4.227137,-1.5500074,-2.0918545,-6.6882179,-0.509584,-2.6807872
 ,-1.1883883,-12.4725259,0.012674,0.7419821,-1.7760621,-0.8383947,1.998
 0778,0.4672864,-2.0095536,-5.2738892,-0.7760297,-3.8173974,0.3027099,-
 1.014258,-0.3996508,-1.8567367,-1.4391567,-2.4744861,-0.4668871,-2.282
 1845,1.5876394,-2.5195384,0.770914,-0.8892935,-2.2789243,6.3248735,2.0
 090863,15.9549186,2.0160958,5.6278099,3.1001742,3.135282,0.9133212,3.2
 018572,0.2725303,6.2403653,5.9356225,22.6513295,0.1477394,4.0165631,2.
 2129184,1.7117931,2.318559,-6.4786772,3.2347568,-4.3879366,-1.7134412,
 -0.0248533,-2.2381593,-1.735026,-0.9632773,-0.2021397,4.7162824,-1.247
 4598,-0.9023003\HyperPolar=-163.7323432,160.5488417,-79.5339274,22.222
 3244,115.4910026,90.7363993,12.1797055,-145.8624697,26.5634057,-56.102
 6885\Quadrupole=-10.7253201,2.5789158,8.1464042,-7.7770164,-6.6485723,
 -5.6958994\PG=C01 [X(C5H3F1N1O2)]\NImag=0\\0.55690137,-0.02713428,0.71
 670750,0.03636794,0.32070468,0.28812645,-0.19190108,-0.11906980,-0.078
 33158,0.82496858,-0.11072993,-0.23491000,-0.10471962,0.02153942,0.4680
 8016,-0.07371865,-0.10561664,-0.12787886,0.09311061,0.19209325,0.22677
 167,0.02082745,0.02368645,0.01343573,-0.16730648,0.06459702,0.02136762
 ,0.60722205,-0.01327551,-0.05232214,-0.03696002,0.08462748,-0.17975342
 ,-0.05697772,0.07705343,0.63998808,-0.00619769,-0.03271875,-0.00421229
 ,0.03225948,-0.05947296,-0.08332406,0.09866763,0.29565397,0.27472004,-
 0.00793734,0.00464912,0.00161625,-0.34670823,0.00751121,-0.03283066,-0
 .00750172,-0.00383880,-0.00283381,0.36337205,-0.01989433,0.00707870,0.
 00171279,0.00930950,-0.05013851,-0.01229702,0.02017791,0.00503543,0.00
 540144,-0.00839411,0.04244581,-0.01148901,0.00454308,0.00072986,-0.031
 88672,-0.01252591,-0.03545608,0.01003009,0.00263781,0.00182796,0.03475
 865,0.01055828,0.03052436,-0.02212694,0.02442816,0.00873043,-0.0614165
 1,0.04689733,0.01690775,-0.32747960,-0.10290017,-0.08523552,0.00008588
 ,0.00066126,0.00017284,0.78592558,0.04668843,-0.04442611,-0.02653489,0
 .00752419,0.02217712,0.00716269,-0.07086117,-0.12599970,-0.04159793,0.
 00201989,-0.00391072,-0.00271505,-0.04890821,0.50771537,0.02047177,-0.
 02909394,0.00224374,-0.00417917,0.01179396,0.01635537,-0.06784505,-0.0
 4528844,-0.09571562,0.00091308,-0.00287730,0.00015468,0.04923784,0.203
 27069,0.23329099,-0.23563278,0.04635698,0.00493274,-0.07489829,-0.0405
 5117,-0.03190682,-0.02921175,-0.01480389,-0.01269153,-0.00086748,-0.00
 310733,-0.00259368,-0.12038101,0.00754250,-0.00389532,0.62351181,0.060
 50629,-0.11750850,-0.02446373,-0.01017247,-0.01145741,-0.01420344,-0.0
 5503812,-0.03495718,-0.03134143,-0.00259869,-0.00171267,-0.00481610,-0
 .00655306,-0.22036037,-0.09025221,-0.01748598,0.52221049,0.01186517,-0
 .02600661,-0.07188377,-0.01561518,-0.01768281,0.00188915,-0.03406439,-
 0.02701161,-0.00603691,-0.00228194,-0.00489905,0.00390029,-0.01177267,
 -0.08833993,-0.10215920,0.05338956,0.22441091,0.22528252,-0.06974846,0
 .05688949,0.02481986,0.01176973,-0.01274044,-0.00568507,-0.00146291,-0
 .00235009,-0.00202782,0.00011456,0.00064558,0.00082955,-0.00573878,-0.
 00301311,-0.00209559,-0.00580714,0.02911603,0.01515585,0.06833316,0.06
 660034,-0.27872292,-0.13039976,0.00726372,-0.00568511,-0.00319551,-0.0
 0245853,0.00007918,-0.00310203,-0.00044383,-0.00071942,0.00177436,0.00
 083776,0.00040048,0.00114757,0.00120886,-0.00413603,-0.00106773,-0.070
 53401,0.29004828,0.03004872,-0.13159236,-0.08829485,0.00504645,-0.0053
 4982,-0.00047267,-0.00199377,-0.00312524,0.00344539,0.00025030,0.00189
 515,-0.00308820,-0.00009069,0.00065508,-0.00126030,0.00020322,0.002117
 11,-0.00071942,-0.03185261,0.13714887,0.08898841,-0.01265373,0.0054513
 2,0.00135277,-0.00630550,0.00171876,-0.00035619,-0.02902030,0.02923067
 ,0.01203531,-0.00110743,0.00241612,0.00099327,-0.26510513,0.09948097,0
 .02653268,0.00455727,0.00860750,0.00565247,-0.00056549,-0.00009588,-0.
 00043253,0.31510550,0.00270825,-0.00652471,-0.00372350,0.00009203,-0.0
 0391696,-0.00472448,-0.00167684,0.01117665,0.00317648,0.00014702,0.000
 57080,-0.00049349,0.09749172,-0.11333613,-0.03693727,0.03519097,-0.016
 04700,-0.00284878,0.00236965,0.00074283,-0.00082857,-0.13567055,0.1302
 7956,0.00003121,-0.00342992,-0.00089336,-0.00124480,-0.00460319,0.0023
 0451,-0.00475840,0.00674250,0.00786553,-0.00021713,-0.00023592,0.00136
 607,0.02552715,-0.03677435,-0.04133810,0.01974452,-0.00563114,-0.00435
 943,0.00088267,-0.00111824,0.00234116,-0.04072119,0.04453621,0.0372585
 7,-0.00357076,0.00386744,0.00134805,0.01206121,0.01388522,0.00905911,-
 0.07350594,-0.05787135,-0.03690776,0.00024025,-0.00128065,-0.00043983,
 0.00057185,-0.02227859,-0.01203370,-0.00591426,-0.00206899,-0.00230941
 ,0.00091045,0.00056874,0.00021486,0.00226428,0.00025422,0.00084478,0.0
 6546474,0.00284037,-0.00175184,-0.00204598,-0.00877404,-0.00796418,-0.
 00434393,-0.06138600,-0.25976310,-0.13443794,0.00009449,0.00004099,0.0
 0106674,0.00390676,-0.00147935,-0.00098196,-0.00061310,0.00083025,-0.0
 0188578,-0.00050598,0.00022092,-0.00081070,-0.00121952,-0.00051714,0.0
 0171627,0.06534213,0.26978895,0.00073089,-0.00193422,0.00172293,-0.003
 12365,-0.00165608,-0.00301754,-0.03870895,-0.13406592,-0.09876250,0.00
 029870,0.00090676,-0.00140656,0.00199378,-0.00397842,-0.00073117,-0.00
 142801,-0.00208746,0.00289301,-0.00035392,-0.00068808,0.00122824,0.000
 03419,0.00187719,-0.00295502,0.04040515,0.14212727,0.09983965,-0.03964
 130,-0.00773959,-0.00817063,0.00459096,0.01232182,0.00700628,0.0133237
 6,0.00947807,0.00643189,0.00138422,0.00042234,0.00009269,0.02833026,-0
 .03642300,-0.01486963,-0.07253861,0.02860627,0.01297894,0.00027752,-0.
 00047748,0.00000140,-0.01600707,0.00489518,0.00074449,0.00219849,0.001
 22673,0.00057208,0.64322624,-0.01987232,0.01452981,0.00859880,0.012008
 36,0.00702414,0.00458241,0.01142530,-0.00019628,0.00065742,0.00160481,
 0.00187589,-0.00016037,-0.01616832,-0.03433203,-0.01579121,0.02114399,
 -0.06806590,-0.00662553,0.00304330,-0.00268903,-0.00028658,-0.00246502
 ,0.00537884,0.00339448,0.00062082,0.00116090,-0.00068582,-0.27951557,0
 .62902538,-0.01453102,0.01038795,-0.00219465,0.00702479,0.00458606,0.0
 0427798,0.00752901,0.00066279,0.00215528,0.00076705,-0.00024298,0.0024
 2005,-0.00372282,-0.01826285,-0.01896795,0.00845725,-0.00622187,-0.052
 71070,0.00179843,-0.00065392,-0.00167523,-0.00334603,0.00413359,0.0006
 8934,0.00033261,-0.00059580,0.00229811,-0.08974383,0.17369939,0.305599
 73,-0.00306901,-0.00141032,-0.00108916,0.00155732,-0.00082996,-0.00033
 622,-0.00025948,-0.00336575,-0.00179173,-0.00017207,0.00003442,0.00002
 716,-0.00740460,0.00215458,-0.00027174,0.00571122,-0.03040296,-0.01745
 939,0.00123181,-0.00273189,-0.00156021,0.00353679,-0.00039219,0.000294
 76,-0.00024538,-0.00040402,-0.00014254,-0.12719945,0.10636571,0.049519
 99,0.16026970,0.01143145,-0.00174063,-0.00002157,-0.00279091,-0.004085
 53,-0.00274100,-0.00524609,-0.00395713,-0.00249112,-0.00056753,-0.0002
 5997,-0.00011845,-0.00735653,0.01460795,0.00455535,-0.02141784,-0.0654
 8386,-0.04620927,-0.00200669,0.00002034,0.00011623,0.00106835,-0.00276
 517,-0.00132808,-0.00108601,-0.00053761,0.00002695,0.10697969,-0.39247
 700,-0.14777169,-0.14418960,0.49960712,0.00570730,-0.00167843,0.000864
 51,-0.00136113,-0.00247938,-0.00106927,-0.00276731,-0.00229950,-0.0019
 6845,-0.00030458,-0.00004158,-0.00024212,-0.00540228,0.00561083,0.0069
 4949,-0.01276237,-0.04729967,-0.01010282,-0.00106884,-0.00002156,-0.00
 071032,0.00110676,-0.00138090,-0.00088387,-0.00051232,0.00011080,-0.00
 083973,0.04974115,-0.14749278,-0.15422721,-0.05777486,0.22537618,0.143
 04566,0.00855258,-0.00997499,-0.00501239,-0.00641171,-0.00361928,-0.00
 261775,-0.00562508,-0.00198408,-0.00170843,-0.00090268,-0.00099071,-0.
 00049500,-0.00526101,0.01607353,0.00803482,-0.08852896,-0.00251582,-0.
 01553902,0.00068555,0.00026219,0.00016487,0.00530080,-0.00540945,-0.00
 112807,-0.00047494,-0.00050781,-0.00027773,-0.43794502,0.16180894,0.03
 591456,-0.03395684,0.06518171,0.02539849,0.56456731,0.00013124,-0.0004
 0914,-0.00214720,-0.00155750,0.00062970,0.00026139,-0.00027335,0.00066
 960,0.00027285,-0.00018357,-0.00030634,0.00024909,0.00766330,-0.001056
 51,0.00045475,-0.01346400,0.01668818,-0.00183380,-0.00091371,0.0004404
 8,0.00006084,-0.00852272,-0.00504155,-0.00326861,0.00004702,-0.0000287
 8,0.00015783,0.16022554,-0.16123471,-0.01972067,0.07517197,-0.04292851
 ,-0.02840401,-0.21832424,0.19257759,0.00071337,-0.00356482,0.00167029,
 -0.00169910,0.00001651,-0.00038020,-0.00089223,0.00003137,0.00000561,-
 0.00013590,0.00011943,-0.00073031,0.00365421,0.00150412,0.00117808,-0.
 02144956,-0.00021097,0.01400728,-0.00040250,0.00017602,0.00021780,-0.0
 0285151,-0.00278650,-0.00139540,-0.00000155,0.00008099,-0.00026941,0.0
 3521517,-0.01989021,-0.08766477,0.03058395,-0.02939352,0.01918415,-0.0
 4273436,0.05391755,0.05417688\\-0.00002690,-0.00000280,-0.00001487,-0.
 00000980,0.00001474,0.00004524,0.00000168,-0.00000081,0.00004296,-0.00
 000611,0.00000455,-0.00000717,-0.00001414,-0.00002403,-0.00003841,-0.0
 0018152,0.00000136,-0.00012624,0.00000119,0.00004386,-0.00000084,0.000
 02566,-0.00000199,0.00001173,0.00000258,-0.00002861,0.00003410,0.00024
 927,-0.00011375,0.00034133,0.00009816,-0.00001130,-0.00016630,-0.00014
 007,0.00011878,-0.00012155\\\@
 The archive entry for this job was punched.


 HAPPINESS IS NOT HAVING WHAT YOU WANT --
 HAPPINESS IS WANTING WHAT YOU HAVE!

              -- FROM MRS. SEVERN'S DESK
 Job cpu time:       0 days  0 hours 14 minutes 10.4 seconds.
 Elapsed time:       0 days  0 hours  1 minutes 15.1 seconds.
 File lengths (MBytes):  RWF=    127 Int=      0 D2E=      0 Chk=     16 Scr=      1
 Normal termination of Gaussian 16 at Thu Dec 14 12:31:54 2023.
