 Entering Gaussian System, Link 0=g16
 Input=IMID-H_dissociation-site_index-1-freq.gjf
 Output=IMID-H_dissociation-site_index-1-freq.log
 Initial command:
 /software/commercial/gaussian/g16/AVX/g16/l1.exe "/scratch1/svicchi/G09-659794.pbs02/Gau-2342902.inp" -scrdir="/scratch1/svicchi/G09-659794.pbs02/"
 Entering Link 1 = /software/commercial/gaussian/g16/AVX/g16/l1.exe PID=   2342903.
  
 Copyright (c) 1988-2019, Gaussian, Inc.  All Rights Reserved.
  
 This is part of the Gaussian(R) 16 program.  It is based on
 the Gaussian(R) 09 system (copyright 2009, Gaussian, Inc.),
 the Gaussian(R) 03 system (copyright 2003, Gaussian, Inc.),
 the Gaussian(R) 98 system (copyright 1998, Gaussian, Inc.),
 the Gaussian(R) 94 system (copyright 1995, Gaussian, Inc.),
 the Gaussian 92(TM) system (copyright 1992, Gaussian, Inc.),
 the Gaussian 90(TM) system (copyright 1990, Gaussian, Inc.),
 the Gaussian 88(TM) system (copyright 1988, Gaussian, Inc.),
 the Gaussian 86(TM) system (copyright 1986, Carnegie Mellon
 University), and the Gaussian 82(TM) system (copyright 1983,
 Carnegie Mellon University). Gaussian is a federally registered
 trademark of Gaussian, Inc.
  
 This software contains proprietary and confidential information,
 including trade secrets, belonging to Gaussian, Inc.
  
 This software is provided under written license and may be
 used, copied, transmitted, or stored only in accord with that
 written license.
  
 The following legend is applicable only to US Government
 contracts under FAR:
  
                    RESTRICTED RIGHTS LEGEND
  
 Use, reproduction and disclosure by the US Government is
 subject to restrictions as set forth in subparagraphs (a)
 and (c) of the Commercial Computer Software - Restricted
 Rights clause in FAR 52.227-19.
  
 Gaussian, Inc.
 340 Quinnipiac St., Bldg. 40, Wallingford CT 06492
  
  
 ---------------------------------------------------------------
 Warning -- This program may not be used in any manner that
 competes with the business of Gaussian, Inc. or will provide
 assistance to any competitor of Gaussian, Inc.  The licensee
 of this program is prohibited from giving any competitor of
 Gaussian, Inc. access to this program.  By using this program,
 the user acknowledges that Gaussian, Inc. is engaged in the
 business of creating and licensing software in the field of
 computational chemistry and represents and warrants to the
 licensee that it is not a competitor of Gaussian, Inc. and that
 it will not use this program in any manner prohibited above.
 ---------------------------------------------------------------
  

 Cite this work as:
 Gaussian 16, Revision C.01,
 M. J. Frisch, G. W. Trucks, H. B. Schlegel, G. E. Scuseria, 
 M. A. Robb, J. R. Cheeseman, G. Scalmani, V. Barone, 
 G. A. Petersson, H. Nakatsuji, X. Li, M. Caricato, A. V. Marenich, 
 J. Bloino, B. G. Janesko, R. Gomperts, B. Mennucci, H. P. Hratchian, 
 J. V. Ortiz, A. F. Izmaylov, J. L. Sonnenberg, D. Williams-Young, 
 F. Ding, F. Lipparini, F. Egidi, J. Goings, B. Peng, A. Petrone, 
 T. Henderson, D. Ranasinghe, V. G. Zakrzewski, J. Gao, N. Rega, 
 G. Zheng, W. Liang, M. Hada, M. Ehara, K. Toyota, R. Fukuda, 
 J. Hasegawa, M. Ishida, T. Nakajima, Y. Honda, O. Kitao, H. Nakai, 
 T. Vreven, K. Throssell, J. A. Montgomery, Jr., J. E. Peralta, 
 F. Ogliaro, M. J. Bearpark, J. J. Heyd, E. N. Brothers, K. N. Kudin, 
 V. N. Staroverov, T. A. Keith, R. Kobayashi, J. Normand, 
 K. Raghavachari, A. P. Rendell, J. C. Burant, S. S. Iyengar, 
 J. Tomasi, M. Cossi, J. M. Millam, M. Klene, C. Adamo, R. Cammi, 
 J. W. Ochterski, R. L. Martin, K. Morokuma, O. Farkas, 
 J. B. Foresman, and D. J. Fox, Gaussian, Inc., Wallingford CT, 2019.
 
 ******************************************
 Gaussian 16:  ES64L-G16RevC.01  3-Jul-2019
                 2-Jun-2023 
 ******************************************
 %NProcShared=2
 Will use up to    2 processors via shared memory.
 %mem=55gb
 %chk=/scratch1/svicchi/G09-659794.pbs02/02-freq/IMID-H_dissociation-site_index-1
 -freq.chk
 ----------------------------------------------------------------------
 #p freq=raman scale=0.967 pop=(nbo,full,hirshfeld) guess=read geom=all
 check b3lyp/6-311+G(d,p) int=grid=ultrafine EmpiricalDispersion=GD3BJ 
 SCRF=(Solvent=ethanol) scf=(xqc,intrep,maxconventionalcycle=350) nosym
 m
 ----------------------------------------------------------------------
 1/10=4,29=7,30=1,38=1,114=967000/1,3;
 2/12=2,15=1,40=1/2;
 3/5=4,6=6,7=111,11=2,14=-4,25=1,30=1,70=2201,71=2,72=4,74=-5,75=-5,116=-2,124=41,140=1/1,2,3;
 4/5=1/1;
 5/5=2,8=3,13=1,17=20,38=6,53=4,85=350,98=1/2,8;
 8/6=4,10=90,11=11/1;
 10/13=10,15=4,31=1/2;
 11/6=3,8=1,9=11,15=111,16=1,31=1/1,2,10;
 10/6=1,31=1/2;
 6/7=3,28=1,40=1,79=1/1,7;
 7/8=1,10=1,25=1,30=1/1,2,3,16;
 1/10=4,30=1/3;
 99//99;
 Leave Link    1 at Fri Jun  2 11:09:00 2023, MaxMem=  7381975040 cpu:               1.6 elap:               1.7
 (Enter /software/commercial/gaussian/g16/AVX/g16/l101.exe)
 Structure from the checkpoint file:  "/scratch1/svicchi/G09-659794.pbs02/02-freq/IMID-H_dissociation-site_index-1-freq.chk"
 ------------------------------------
 IMID-H_dissociation-site_index-1.gjf
 ------------------------------------
 Charge =  0 Multiplicity = 1
 No Z-Matrix found in chk file; cartesian coordinates used.
  C                                                -2.291839127291      3.424668549444      0.168360856423
  N                                                -1.342960298984      2.565851908244     -0.294405915245
  C                                                -1.979556852137      1.404362766183     -0.673519721711
  C                                                -3.309020399645      1.621866032764     -0.416388987996
  H                                                -1.444078467640      0.561858550595     -1.076434666825
  N                                                -3.494778811218      2.886316945422      0.109294035674
  H                                                -4.135839693286      0.948195581924     -0.577384855134
  H                                                -2.052427830606      4.412482765358      0.529521086114
  H                                                -0.351787519194      2.747311900066     -0.349577831301
 Recover connectivity data from disk.
 ITRead=  0  0  0  0  0  0  0  0  0
 MicOpt= -1 -1 -1 -1 -1 -1 -1 -1 -1
 NAtoms=      9 NQM=        9 NQMF=       0 NMMI=      0 NMMIF=      0
                NMic=       0 NMicF=      0.
                    Isotopes and Nuclear Properties:
 (Nuclear quadrupole moments (NQMom) in fm**2, nuclear magnetic moments (NMagM)
  in nuclear magnetons)

  Atom         1           2           3           4           5           6           7           8           9
 IAtWgt=          12          14          12          12           1          14           1           1           1
 AtmWgt=  12.0000000  14.0030740  12.0000000  12.0000000   1.0078250  14.0030740   1.0078250   1.0078250   1.0078250
 NucSpn=           0           2           0           0           1           2           1           1           1
 AtZEff=   3.6000000   4.5500000   3.6000000   3.6000000   1.0000000   4.5500000   1.0000000   1.0000000   1.0000000
 NQMom=    0.0000000   2.0440000   0.0000000   0.0000000   0.0000000   2.0440000   0.0000000   0.0000000   0.0000000
 NMagM=    0.0000000   0.4037610   0.0000000   0.0000000   2.7928460   0.4037610   2.7928460   2.7928460   2.7928460
 AtZNuc=   6.0000000   7.0000000   6.0000000   6.0000000   1.0000000   7.0000000   1.0000000   1.0000000   1.0000000
 Leave Link  101 at Fri Jun  2 11:09:02 2023, MaxMem=  7381975040 cpu:               0.3 elap:               0.7
 (Enter /software/commercial/gaussian/g16/AVX/g16/l103.exe)

 GradGradGradGradGradGradGradGradGradGradGradGradGradGradGradGradGradGrad
 Berny optimization.
 Initialization pass.
 Trust Radius=3.00D-01 FncErr=1.00D-07 GrdErr=1.00D-07 EigMax=2.50D+02 EigMin=1.00D-04
 Number of steps in this run=      2 maximum allowed number of steps=      2.
 GradGradGradGradGradGradGradGradGradGradGradGradGradGradGradGradGradGrad

 Leave Link  103 at Fri Jun  2 11:09:06 2023, MaxMem=  7381975040 cpu:               0.1 elap:               1.5
 (Enter /software/commercial/gaussian/g16/AVX/g16/l202.exe)
                          Input orientation:                          
 ---------------------------------------------------------------------
 Center     Atomic      Atomic             Coordinates (Angstroms)
 Number     Number       Type             X           Y           Z
 ---------------------------------------------------------------------
      1          6           0       -2.291839    3.424669    0.168361
      2          7           0       -1.342960    2.565852   -0.294406
      3          6           0       -1.979557    1.404363   -0.673520
      4          6           0       -3.309020    1.621866   -0.416389
      5          1           0       -1.444078    0.561859   -1.076435
      6          7           0       -3.494779    2.886317    0.109294
      7          1           0       -4.135840    0.948196   -0.577385
      8          1           0       -2.052428    4.412483    0.529521
      9          1           0       -0.351788    2.747312   -0.349578
 ---------------------------------------------------------------------
                    Distance matrix (angstroms):
                    1          2          3          4          5
     1  C    0.000000
     2  N    1.360915   0.000000
     3  C    2.210864   1.377694   0.000000
     4  C    2.150974   2.184349   1.371458   0.000000
     5  H    3.234794   2.153551   1.076518   2.244390   0.000000
     6  N    1.319233   2.212689   2.259399   1.381914   3.318800
     7  H    3.176381   3.239917   2.206102   1.078602   2.764758
     8  H    1.078671   2.142952   3.240587   3.203328   4.216217
     9  H    2.119168   1.009156   2.134967   3.164857   2.549044
                    6          7          8          9
     6  N    0.000000
     7  H    2.153788   0.000000
     8  H    2.141530   4.191316   0.000000
     9  H    3.179352   4.196161   2.537279   0.000000
 Symmetry turned off by external request.
 Stoichiometry    C3H4N2
 Framework group  C1[X(C3H4N2)]
 Deg. of freedom    21
 Full point group                 C1      NOp   1
 Rotational constants (GHZ):           9.7009632           9.4268291           4.7809659
 Leave Link  202 at Fri Jun  2 11:09:08 2023, MaxMem=  7381975040 cpu:               0.0 elap:               0.7
 (Enter /software/commercial/gaussian/g16/AVX/g16/l301.exe)
 Standard basis: 6-311+G(d,p) (5D, 7F)
 Ernie: Thresh=  0.10000D-02 Tol=  0.10000D-05 Strict=F.
   134 basis functions,   212 primitive gaussians,   139 cartesian basis functions
    18 alpha electrons       18 beta electrons
       nuclear repulsion energy       163.0982759855 Hartrees.
 IExCor=  402 DFT=T Ex+Corr=B3LYP ExCW=0 ScaHFX=  0.200000
 ScaDFX=  0.800000  0.720000  1.000000  0.810000 ScalE2=  1.000000  1.000000
 IRadAn=      5 IRanWt=     -1 IRanGd=            0 ICorTp=0 IEmpDi=141
 NAtoms=    9 NActive=    9 NUniq=    9 SFac= 1.00D+00 NAtFMM=   60 NAOKFM=F Big=F
 Integral buffers will be    131072 words long.
 Raffenetti 2 integral format.
 Two-electron integral symmetry is turned off.
 R6Disp:  Grimme-D3(BJ) Dispersion energy=       -0.0113708856 Hartrees.
 Nuclear repulsion after empirical dispersion term =      163.0869050999 Hartrees.
 Force inversion solution in PCM.
 ------------------------------------------------------------------------------
 Polarizable Continuum Model (PCM)
 =================================
 Model                : PCM.
 Atomic radii         : UFF (Universal Force Field).
 Polarization charges : Total charges.
 Charge compensation  : None.
 Solution method      : Matrix inversion.
 Cavity type          : Scaled VdW (van der Waals Surface) (Alpha=1.100).
 Cavity algorithm     : GePol (No added spheres)
                        Default sphere list used, NSphG=    9.
                        Lebedev-Laikov grids with approx.  5.0 points / Ang**2.
                        Smoothing algorithm: York/Karplus (Gamma=1.0000).
                        Polarization charges: spherical gaussians, with
                                              point-specific exponents (IZeta= 3).
                        Self-potential: point-specific (ISelfS= 7).
                        Self-field    : sphere-specific E.n sum rule (ISelfD= 2).
 1st derivatives      : Analytical E(r).r(x)/FMM algorithm (CHGder, D1EAlg=3).
                        Cavity 1st derivative terms included.
 2nd derivatives      : Analytical E(r).r(xy)/FMM algorithm (CHGder, D2EAlg=3).
                        Cavity 2nd derivative terms included.
 Solvent              : Ethanol, Eps=  24.852000 Eps(inf)=   1.852593
 ------------------------------------------------------------------------------
 Spheres list:
 ISph  on   Nord     Re0    Alpha      Xe            Ye            Ze
    1   C      1    1.9255  1.100     -2.291839      3.424669      0.168361
    2   N      2    1.8300  1.100     -1.342960      2.565852     -0.294406
    3   C      3    1.9255  1.100     -1.979557      1.404363     -0.673520
    4   C      4    1.9255  1.100     -3.309020      1.621866     -0.416389
    5   H      5    1.4430  1.100     -1.444078      0.561859     -1.076435
    6   N      6    1.8300  1.100     -3.494779      2.886317      0.109294
    7   H      7    1.4430  1.100     -4.135840      0.948196     -0.577385
    8   H      8    1.4430  1.100     -2.052428      4.412483      0.529521
    9   H      9    1.4430  1.100     -0.351788      2.747312     -0.349578
 ------------------------------------------------------------------------------
 GePol: Number of generator spheres                  =       9
 GePol: Total number of spheres                      =       9
 GePol: Number of exposed spheres                    =       9 (100.00%)
 GePol: Number of points                             =     888
 GePol: Average weight of points                     =       0.13
 GePol: Minimum weight of points                     =   0.17D-09
 GePol: Maximum weight of points                     =    0.20577
 GePol: Number of points with low weight             =      45
 GePol: Fraction of low-weight points (<1% of avg)   =       5.07%
 GePol: Cavity surface area                          =    118.691 Ang**2
 GePol: Cavity volume                                =    106.500 Ang**3
 Leave Link  301 at Fri Jun  2 11:09:09 2023, MaxMem=  7381975040 cpu:               0.5 elap:               0.9
 (Enter /software/commercial/gaussian/g16/AVX/g16/l302.exe)
 NPDir=0 NMtPBC=     1 NCelOv=     1 NCel=       1 NClECP=     1 NCelD=      1
         NCelK=      1 NCelE2=     1 NClLst=     1 CellRange=     0.0.
 One-electron integrals computed using PRISM.
 NBasis=   134 RedAO= T EigKep=  5.70D-05  NBF=   134
 NBsUse=   134 1.00D-06 EigRej= -1.00D+00 NBFU=   134
 Precomputing XC quadrature grid using
 IXCGrd= 4 IRadAn=           5 IRanWt=          -1 IRanGd=           0 AccXCQ= 0.00D+00.
 Generated NRdTot=       0 NPtTot=           0 NUsed=           0 NTot=          32
 NSgBfM=   139   139   139   139   139 MxSgAt=     9 MxSgA2=     9.
 Leave Link  302 at Fri Jun  2 11:09:11 2023, MaxMem=  7381975040 cpu:               0.6 elap:               1.3
 (Enter /software/commercial/gaussian/g16/AVX/g16/l303.exe)
 DipDrv:  MaxL=1.
 Leave Link  303 at Fri Jun  2 11:09:13 2023, MaxMem=  7381975040 cpu:               0.1 elap:               0.7
 (Enter /software/commercial/gaussian/g16/AVX/g16/l401.exe)
 Initial guess from the checkpoint file:  "/scratch1/svicchi/G09-659794.pbs02/02-freq/IMID-H_dissociation-site_index-1-freq.chk"
 B after Tr=     0.000000    0.000000    0.000000
         Rot=    1.000000    0.000000    0.000000    0.000000 Ang=   0.00 deg.
 Guess basis will be translated and rotated to current coordinates.
 JPrj=2 DoOrth=T DoCkMO=T.
 Leave Link  401 at Fri Jun  2 11:09:15 2023, MaxMem=  7381975040 cpu:               0.6 elap:               1.2
 (Enter /software/commercial/gaussian/g16/AVX/g16/l502.exe)
 Keep R1 ints in memory in canonical form, NReq=42839498.
 FoFCou: FMM=F IPFlag=           0 FMFlag=           0 FMFlg1=           0
         NFxFlg=           0 DoJE=F BraDBF=F KetDBF=F FulRan=T
         wScrn=  0.000000 ICntrl=       600 IOpCl=  0 I1Cent=           0 NGrid=           0
         NMat0=    1 NMatS0=   9045 NMatT0=    0 NMatD0=    1 NMtDS0=    0 NMtDT0=    0
 Symmetry not used in FoFCou.
 Two-electron integral symmetry not used.
 Closed shell SCF:
 Using DIIS extrapolation, IDIIS=  1040.
 NGot=  7381975040 LenX=  7341023700 LenY=  7341003938
 Requested convergence on RMS density matrix=1.00D-08 within 350 cycles.
 Requested convergence on MAX density matrix=1.00D-06.
 Requested convergence on             energy=1.00D-06.
 No special actions if energy rises.

 Cycle   1  Pass 1  IDiag  1:
 Inv3:  Mode=1 IEnd=     2365632.
 Iteration    1 A*A^-1 deviation from unit magnitude is 3.33D-15 for    886.
 Iteration    1 A*A^-1 deviation from orthogonality  is 1.44D-15 for    726     36.
 Iteration    1 A^-1*A deviation from unit magnitude is 3.33D-15 for    886.
 Iteration    1 A^-1*A deviation from orthogonality  is 1.29D-14 for    706    692.
 E= -226.305004189851    
 DIIS: error= 5.51D-08 at cycle   1 NSaved=   1.
 NSaved= 1 IEnMin= 1 EnMin= -226.305004189851     IErMin= 1 ErrMin= 5.51D-08
 ErrMax= 5.51D-08  0.00D+00 EMaxC= 1.00D-01 BMatC= 1.64D-13 BMatP= 1.64D-13
 IDIUse=1 WtCom= 1.00D+00 WtEn= 0.00D+00
 Coeff-Com:  0.100D+01
 Coeff:      0.100D+01
 Gap=     0.250 Goal=   None    Shift=    0.000
 RMSDP=5.42D-09 MaxDP=1.80D-07              OVMax= 5.10D-07

 Error on total polarization charges =  0.01236
 SCF Done:  E(RB3LYP) =  -226.305004190     A.U. after    1 cycles
            NFock=  1  Conv=0.54D-08     -V/T= 2.0043
 KE= 2.253411956728D+02 PE=-8.531577266812D+02 EE= 2.384246217187D+02
 Leave Link  502 at Fri Jun  2 11:09:23 2023, MaxMem=  7381975040 cpu:               9.1 elap:               6.8
 (Enter /software/commercial/gaussian/g16/AVX/g16/l508.exe)
 QCSCF skips out because SCF is already converged.
 Leave Link  508 at Fri Jun  2 11:09:26 2023, MaxMem=  7381975040 cpu:               0.0 elap:               1.1
 (Enter /software/commercial/gaussian/g16/AVX/g16/l801.exe)
 DoSCS=F DFT=T ScalE2(SS,OS)=  1.000000  1.000000
 Range of M.O.s used for correlation:     1   134
 NBasis=   134 NAE=    18 NBE=    18 NFC=     0 NFV=     0
 NROrb=    134 NOA=    18 NOB=    18 NVA=   116 NVB=   116

 **** Warning!!: The largest alpha MO coefficient is  0.52563001D+02

 Leave Link  801 at Fri Jun  2 11:09:26 2023, MaxMem=  7381975040 cpu:               0.1 elap:               0.3
 (Enter /software/commercial/gaussian/g16/AVX/g16/l1002.exe)
 Minotr:  Closed shell wavefunction.
 NEqPCM:  Using equilibrium solvation (IEInf=0, Eps=  24.8520, EpsInf=   1.8526)
          Direct CPHF calculation.
          Differentiating once with respect to electric field.
                with respect to dipole field.
          Electric field/nuclear overlap derivatives assumed to be zero.
          Requested convergence is 1.0D-08 RMS, and 1.0D-07 maximum.
          Secondary convergence is 1.0D-12 RMS, and 1.0D-12 maximum.
          NewPWx=F KeepS1=T KeepF1=T KeepIn=T MapXYZ=F SortEE=F KeepMc=T.
         2725 words used for storage of precomputed grid.
 Keep R1 ints in memory in canonical form, NReq=44193015.
 FoFCou: FMM=F IPFlag=           0 FMFlag=           0 FMFlg1=           0
         NFxFlg=           0 DoJE=F BraDBF=F KetDBF=F FulRan=T
         wScrn=  0.000000 ICntrl=       600 IOpCl=  0 I1Cent=           0 NGrid=           0
         NMat0=    1 NMatS0=   9045 NMatT0=    0 NMatD0=    1 NMtDS0=    0 NMtDT0=    0
 Symmetry not used in FoFCou.
 Two-electron integral symmetry not used.
          MDV=    7381975040 using IRadAn=       1.
          Solving linear equations simultaneously, MaxMat=       0.
          There are     3 degrees of freedom in the 1st order CPHF.  IDoFFX=0 NUNeed=     3.
      3 vectors produced by pass  0 Test12= 6.96D-14 3.33D-08 XBig12= 5.38D+01 4.53D+00.
 AX will form     3 AO Fock derivatives at one time.
      3 vectors produced by pass  1 Test12= 6.96D-14 3.33D-08 XBig12= 2.84D+01 1.77D+00.
      3 vectors produced by pass  2 Test12= 6.96D-14 3.33D-08 XBig12= 2.42D+00 3.22D-01.
      3 vectors produced by pass  3 Test12= 6.96D-14 3.33D-08 XBig12= 1.13D+00 3.77D-01.
      3 vectors produced by pass  4 Test12= 6.96D-14 3.33D-08 XBig12= 5.83D-02 4.86D-02.
      3 vectors produced by pass  5 Test12= 6.96D-14 3.33D-08 XBig12= 4.26D-03 2.35D-02.
      3 vectors produced by pass  6 Test12= 6.96D-14 3.33D-08 XBig12= 1.28D-03 7.41D-03.
      3 vectors produced by pass  7 Test12= 6.96D-14 3.33D-08 XBig12= 2.08D-05 1.16D-03.
      3 vectors produced by pass  8 Test12= 6.96D-14 3.33D-08 XBig12= 4.12D-07 1.30D-04.
      3 vectors produced by pass  9 Test12= 6.96D-14 3.33D-08 XBig12= 1.53D-08 2.59D-05.
      2 vectors produced by pass 10 Test12= 6.96D-14 3.33D-08 XBig12= 8.45D-11 2.01D-06.
      2 vectors produced by pass 11 Test12= 6.96D-14 3.33D-08 XBig12= 1.21D-12 2.10D-07.
      1 vectors produced by pass 12 Test12= 6.96D-14 3.33D-08 XBig12= 2.93D-14 7.42D-08.
 InvSVY:  IOpt=1 It=  1 EMax= 4.44D-15
 Solved reduced A of dimension    35 with     3 vectors.
 End of Minotr F.D. properties file   721 does not exist.
 End of Minotr F.D. properties file   722 does not exist.
 End of Minotr F.D. properties file   788 does not exist.
 Leave Link 1002 at Fri Jun  2 11:09:57 2023, MaxMem=  7381975040 cpu:              52.0 elap:              29.8
 (Enter /software/commercial/gaussian/g16/AVX/g16/l1101.exe)
 Using compressed storage, NAtomX=     9.
 Will process     10 centers per pass.
 R6Disp: Adding Grimme-D3(BJ) dispersion energy 1st derivatives to the gradient.
 Leave Link 1101 at Fri Jun  2 11:09:59 2023, MaxMem=  7381975040 cpu:               0.3 elap:               0.7
 (Enter /software/commercial/gaussian/g16/AVX/g16/l1102.exe)
 Symmetrizing basis deriv contribution to polar:
 IMax=3 JMax=2 DiffMx= 0.00D+00
 Leave Link 1102 at Fri Jun  2 11:10:02 2023, MaxMem=  7381975040 cpu:               0.1 elap:               1.3
 (Enter /software/commercial/gaussian/g16/AVX/g16/l1110.exe)
 Forming Gx(P) for the SCF density, NAtomX=     9.
 Integral derivatives from FoFJK, PRISM(SPDF).
 Do as many integral derivatives as possible in FoFJK.
 G2DrvN: MDV=    7381973995.
 G2DrvN: will do    10 centers at a time, making    1 passes.
 PxScal for G2LodP:  IOpCl= 0 ISclPx=1 IMOff=     1 NMtTot=     4 NTT=    9045 ScalPx= 5.16D+00
 Calling FoFCou, ICntrl=  3107 FMM=F I1Cent=   0 AccDes= 0.00D+00.
 FoFJK:  IHMeth= 1 ICntrl=    3107 DoSepK=F KAlg= 0 I1Cent=           0 FoldK=F
 IRaf=         0 NMat=       1 IRICut=       1 DoRegI=T DoRafI=F ISym2E= 0 IDoP0=0 IntGTp=1.
 FoFCou: FMM=F IPFlag=           0 FMFlag=      100000 FMFlg1=           0
         NFxFlg=           0 DoJE=F BraDBF=F KetDBF=F FulRan=T
         wScrn=  0.000000 ICntrl=      3107 IOpCl=  0 I1Cent=           0 NGrid=           0
         NMat0=    1 NMatS0=      1 NMatT0=    0 NMatD0=    4 NMtDS0=    3 NMtDT0=    0
 Symmetry not used in FoFCou.
 PxScal for G2LodP:  IOpCl= 0 ISclPx=0 IMOff=     1 NMtTot=     4 NTT=    9045 ScalPx= 1.00D+00
 NEqPCM:  Using equilibrium solvation (IEInf=0, Eps=  24.8520, EpsInf=   1.8526)
 G2PCM: DoFxE=T DoFxN=T DoGrad=T DoDP/DQ/DG/TGxP=TFFF NFrqRd=   0 IEInf=0 SqF1=F DoCFld=F IF1Alg=4.
 GePol: Maximum number of non-zero 1st derivatives   =     212
 End of G2Drv F.D. properties file   721 does not exist.
 End of G2Drv F.D. properties file   722 does not exist.
 End of G2Drv F.D. properties file   788 does not exist.
 Leave Link 1110 at Fri Jun  2 11:11:07 2023, MaxMem=  7381975040 cpu:             126.2 elap:              65.0
 (Enter /software/commercial/gaussian/g16/AVX/g16/l1002.exe)
 Minotr:  Closed shell wavefunction.
          IDoAtm=111111111
 NEqPCM:  Using equilibrium solvation (IEInf=0, Eps=  24.8520, EpsInf=   1.8526)
          Direct CPHF calculation.
          Differentiating once with respect to electric field.
                with respect to dipole field.
          Differentiating once with respect to nuclear coordinates.
          Requested convergence is 1.0D-08 RMS, and 1.0D-07 maximum.
          Secondary convergence is 1.0D-12 RMS, and 1.0D-12 maximum.
          NewPWx=T KeepS1=F KeepF1=F KeepIn=T MapXYZ=F SortEE=F KeepMc=T.
         2725 words used for storage of precomputed grid.
 Keep R1 ints in memory in canonical form, NReq=44193222.
 FoFCou: FMM=F IPFlag=           0 FMFlag=           0 FMFlg1=           0
         NFxFlg=           0 DoJE=F BraDBF=F KetDBF=F FulRan=T
         wScrn=  0.000000 ICntrl=       600 IOpCl=  0 I1Cent=           0 NGrid=           0
         NMat0=    1 NMatS0=   9045 NMatT0=    0 NMatD0=    1 NMtDS0=    0 NMtDT0=    0
 Symmetry not used in FoFCou.
 Two-electron integral symmetry not used.
          MDV=    7381975040 using IRadAn=       1.
          Solving linear equations simultaneously, MaxMat=       0.
          There are    30 degrees of freedom in the 1st order CPHF.  IDoFFX=5 NUNeed=    30.
 Will reuse    3 saved solutions.
     24 vectors produced by pass  0 Test12= 6.96D-15 3.33D-09 XBig12= 1.48D-01 1.41D-01.
 AX will form    24 AO Fock derivatives at one time.
     24 vectors produced by pass  1 Test12= 6.96D-15 3.33D-09 XBig12= 4.11D-02 7.92D-02.
     24 vectors produced by pass  2 Test12= 6.96D-15 3.33D-09 XBig12= 4.05D-04 5.51D-03.
     24 vectors produced by pass  3 Test12= 6.96D-15 3.33D-09 XBig12= 2.07D-06 3.62D-04.
     24 vectors produced by pass  4 Test12= 6.96D-15 3.33D-09 XBig12= 6.32D-09 1.73D-05.
     23 vectors produced by pass  5 Test12= 6.96D-15 3.33D-09 XBig12= 1.21D-11 5.07D-07.
      7 vectors produced by pass  6 Test12= 6.96D-15 3.33D-09 XBig12= 1.79D-14 2.15D-08.
 InvSVY:  IOpt=1 It=  1 EMax= 2.00D-15
 Solved reduced A of dimension   150 with    24 vectors.
 FullF1:  Do perturbations      1 to       3.
 Isotropic polarizability for W=    0.000000       59.68 Bohr**3.
 FullF1:  Do perturbations      1 to       6.
 End of Minotr F.D. properties file   721 does not exist.
 End of Minotr F.D. properties file   722 does not exist.
 End of Minotr F.D. properties file   788 does not exist.
 Leave Link 1002 at Fri Jun  2 11:12:06 2023, MaxMem=  7381975040 cpu:             105.7 elap:              57.5
 (Enter /software/commercial/gaussian/g16/AVX/g16/l601.exe)
 Copying SCF densities to generalized density rwf, IOpCl= 0 IROHF=0.

 **********************************************************************

            Population analysis using the SCF Density.

 **********************************************************************

 Alpha  occ. eigenvalues --  -14.37608 -14.30681 -10.23239 -10.20633 -10.19139
 Alpha  occ. eigenvalues --   -1.02553  -0.88011  -0.75378  -0.62206  -0.60047
 Alpha  occ. eigenvalues --   -0.57000  -0.45044  -0.44516  -0.44245  -0.42027
 Alpha  occ. eigenvalues --   -0.29750  -0.29164  -0.24471
 Alpha virt. eigenvalues --    0.00550   0.00642   0.03067   0.03383   0.03483
 Alpha virt. eigenvalues --    0.05295   0.05563   0.05682   0.07174   0.09163
 Alpha virt. eigenvalues --    0.10572   0.10879   0.12458   0.14060   0.15276
 Alpha virt. eigenvalues --    0.18589   0.18777   0.19007   0.19622   0.20586
 Alpha virt. eigenvalues --    0.20872   0.21332   0.22936   0.23773   0.25788
 Alpha virt. eigenvalues --    0.26717   0.28769   0.30782   0.40183   0.42081
 Alpha virt. eigenvalues --    0.44090   0.45982   0.52920   0.53990   0.55461
 Alpha virt. eigenvalues --    0.56616   0.58293   0.61741   0.65296   0.68077
 Alpha virt. eigenvalues --    0.70759   0.74172   0.76823   0.78843   0.79666
 Alpha virt. eigenvalues --    0.81989   0.85008   0.86824   0.87719   0.91608
 Alpha virt. eigenvalues --    0.94159   0.98538   0.99497   1.00533   1.13099
 Alpha virt. eigenvalues --    1.15635   1.16452   1.18495   1.28751   1.30737
 Alpha virt. eigenvalues --    1.39915   1.52659   1.58837   1.60191   1.63068
 Alpha virt. eigenvalues --    1.64071   1.69016   1.71656   1.76698   1.78321
 Alpha virt. eigenvalues --    1.78680   1.84856   1.88095   1.97892   2.03632
 Alpha virt. eigenvalues --    2.06440   2.15139   2.22940   2.23001   2.28971
 Alpha virt. eigenvalues --    2.41853   2.44233   2.49621   2.53064   2.56416
 Alpha virt. eigenvalues --    2.58720   2.64888   2.68723   2.72871   2.73368
 Alpha virt. eigenvalues --    2.77089   2.77473   2.84358   2.87207   2.89978
 Alpha virt. eigenvalues --    2.93913   2.94098   3.15891   3.32300   3.46540
 Alpha virt. eigenvalues --    3.52651   3.58042   3.66708   3.78359   3.84152
 Alpha virt. eigenvalues --    3.90908   4.08206   4.44922   4.74421   4.91084
 Alpha virt. eigenvalues --    5.25197  23.76183  23.91007  24.14886  35.51357
 Alpha virt. eigenvalues --   35.66589
     Molecular Orbital Coefficients:
                           1         2         3         4         5
                           O         O         O         O         O
     Eigenvalues --   -14.37608 -14.30681 -10.23239 -10.20633 -10.19139
   1 1   C  1S          0.00000  -0.00000   0.56292   0.00007   0.00002
   2        2S          0.00005   0.00011   0.46324   0.00006   0.00001
   3        2PX         0.00035  -0.00049   0.00040   0.00002   0.00002
   4        2PY        -0.00022  -0.00016  -0.00036   0.00011   0.00008
   5        2PZ        -0.00013  -0.00000  -0.00019   0.00004   0.00003
   6        3S          0.00028   0.00015   0.01904  -0.00015  -0.00011
   7        3PX        -0.00088   0.00160  -0.00072  -0.00006  -0.00014
   8        3PY         0.00048   0.00061   0.00024  -0.00050  -0.00048
   9        3PZ         0.00030   0.00004   0.00019  -0.00019  -0.00017
  10        4S          0.00635   0.00513  -0.00681   0.00142   0.00135
  11        4PX         0.00010  -0.00307   0.00034  -0.00206   0.00019
  12        4PY        -0.00486  -0.00354   0.00114  -0.00252  -0.00301
  13        4PZ        -0.00194  -0.00101   0.00041  -0.00074  -0.00122
  14        5S          0.00005  -0.00166  -0.01033  -0.00492  -0.00571
  15        5PX         0.00078  -0.00070   0.00002   0.00094  -0.00046
  16        5PY        -0.00067  -0.00008   0.00137   0.00168   0.00203
  17        5PZ        -0.00037   0.00006   0.00054   0.00055   0.00087
  18        6D 0        0.00003   0.00036  -0.00148  -0.00007  -0.00008
  19        6D+1        0.00043  -0.00020  -0.00000  -0.00001   0.00003
  20        6D-1       -0.00015   0.00032   0.00126   0.00016   0.00008
  21        6D+2       -0.00012  -0.00096  -0.00038  -0.00020  -0.00007
  22        6D-2        0.00099  -0.00097   0.00087  -0.00002   0.00010
  23 2   N  1S          0.55735   0.00009  -0.00006  -0.00005   0.00000
  24        2S          0.46563   0.00014  -0.00006  -0.00006   0.00001
  25        2PX         0.00005  -0.00008  -0.00034  -0.00029   0.00003
  26        2PY        -0.00002   0.00005   0.00023  -0.00028  -0.00008
  27        2PZ        -0.00002   0.00003   0.00013  -0.00008  -0.00003
  28        3S          0.01653  -0.00033   0.00077   0.00080   0.00014
  29        3PX        -0.00014   0.00051   0.00085   0.00078  -0.00000
  30        3PY         0.00008  -0.00028  -0.00042   0.00038   0.00042
  31        3PZ         0.00005  -0.00018  -0.00028   0.00005   0.00017
  32        4S         -0.01338   0.00006  -0.00195  -0.00209  -0.00294
  33        4PX         0.00676   0.00141   0.00203   0.00066   0.00133
  34        4PY         0.00131   0.00018  -0.00117   0.00144   0.00010
  35        4PZ        -0.00035  -0.00011  -0.00072   0.00049  -0.00013
  36        5S         -0.00055  -0.00248   0.00613   0.00747  -0.00089
  37        5PX        -0.00105   0.00143  -0.00064  -0.00244   0.00142
  38        5PY        -0.00080   0.00193   0.00203  -0.00122   0.00035
  39        5PZ        -0.00018   0.00058   0.00089  -0.00017  -0.00004
  40        6D 0       -0.00070  -0.00000   0.00042   0.00044   0.00003
  41        6D+1       -0.00017   0.00009   0.00038  -0.00011  -0.00006
  42        6D-1        0.00026  -0.00007  -0.00041  -0.00033  -0.00014
  43        6D+2        0.00061   0.00007  -0.00010   0.00013   0.00028
  44        6D-2        0.00020   0.00024   0.00063  -0.00053  -0.00009
  45 3   C  1S          0.00001  -0.00001  -0.00007   0.56278  -0.01211
  46        2S          0.00003   0.00004  -0.00006   0.46307  -0.00970
  47        2PX         0.00027  -0.00009   0.00002   0.00071  -0.00084
  48        2PY         0.00031  -0.00004  -0.00008   0.00052   0.00008
  49        2PZ         0.00009  -0.00000  -0.00003   0.00012   0.00014
  50        3S          0.00032  -0.00015  -0.00000   0.01948  -0.00087
  51        3PX        -0.00082   0.00095  -0.00003  -0.00161   0.00385
  52        3PY        -0.00054  -0.00014   0.00040  -0.00044  -0.00049
  53        3PZ        -0.00011  -0.00018   0.00016   0.00003  -0.00069
  54        4S          0.00808  -0.00203  -0.00140  -0.00930   0.00277
  55        4PX        -0.00227   0.00193  -0.00102   0.00295  -0.00203
  56        4PY         0.00511  -0.00254   0.00013  -0.00254   0.00139
  57        4PZ         0.00232  -0.00126   0.00018  -0.00139   0.00081
  58        5S         -0.00648   0.00807   0.00599  -0.00734   0.00870
  59        5PX         0.00061  -0.00105  -0.00036   0.00030  -0.00203
  60        5PY        -0.00068   0.00137   0.00007  -0.00004   0.00158
  61        5PZ        -0.00035   0.00068   0.00007  -0.00005   0.00089
  62        6D 0        0.00007   0.00003  -0.00002  -0.00149   0.00086
  63        6D+1       -0.00033   0.00006  -0.00001  -0.00105   0.00076
  64        6D-1       -0.00022   0.00021   0.00010   0.00123  -0.00003
  65        6D+2        0.00061  -0.00050  -0.00016   0.00056  -0.00180
  66        6D-2       -0.00069  -0.00002  -0.00004  -0.00142   0.00082
  67 4   C  1S         -0.00001   0.00001  -0.00002   0.01195   0.56278
  68        2S          0.00003   0.00001  -0.00002   0.01011   0.46309
  69        2PX         0.00005  -0.00013  -0.00004   0.00083  -0.00027
  70        2PY        -0.00009   0.00038  -0.00006  -0.00015   0.00034
  71        2PZ        -0.00004   0.00017  -0.00002  -0.00017   0.00017
  72        3S         -0.00024   0.00032  -0.00005  -0.00016   0.01938
  73        3PX        -0.00089   0.00052   0.00022  -0.00403   0.00129
  74        3PY         0.00023  -0.00088   0.00041   0.00064  -0.00084
  75        3PZ         0.00021  -0.00042   0.00013   0.00077  -0.00050
  76        4S         -0.00369   0.00664  -0.00021   0.00194  -0.01040
  77        4PX        -0.00340   0.00250   0.00167   0.00203  -0.00402
  78        4PY        -0.00155   0.00386   0.00117   0.00038  -0.00196
  79        4PZ        -0.00018   0.00121   0.00025  -0.00011  -0.00026
  80        5S          0.00663  -0.00864  -0.00334   0.00829  -0.00756
  81        5PX         0.00116  -0.00084  -0.00226   0.00250  -0.00025
  82        5PY         0.00044  -0.00135   0.00083   0.00077   0.00004
  83        5PZ         0.00003  -0.00043   0.00062  -0.00001   0.00005
  84        6D 0       -0.00011  -0.00012  -0.00006   0.00084  -0.00172
  85        6D+1        0.00021  -0.00005   0.00005   0.00065  -0.00025
  86        6D-1        0.00014  -0.00037   0.00006   0.00016   0.00067
  87        6D+2       -0.00030   0.00094  -0.00007  -0.00203   0.00131
  88        6D-2        0.00051   0.00021   0.00015   0.00049   0.00086
  89 5   H  1S         -0.00018   0.00006  -0.00009   0.00007  -0.00007
  90        2S          0.00060  -0.00138   0.00068  -0.00507  -0.00028
  91        3S          0.00197  -0.00056   0.00020   0.00186   0.00110
  92        4PX        -0.00013   0.00021   0.00001   0.00114   0.00037
  93        4PY        -0.00023  -0.00021   0.00012  -0.00221  -0.00009
  94        4PZ        -0.00007  -0.00011   0.00005  -0.00103  -0.00008
  95 6   N  1S         -0.00010   0.55737  -0.00008  -0.00000  -0.00005
  96        2S         -0.00001   0.46579  -0.00001   0.00002  -0.00006
  97        2PX         0.00007   0.00118   0.00053  -0.00003   0.00014
  98        2PY         0.00002  -0.00058   0.00017  -0.00011  -0.00033
  99        2PZ        -0.00000  -0.00038  -0.00000  -0.00004  -0.00015
 100        3S         -0.00034   0.01594   0.00059   0.00012   0.00082
 101        3PX        -0.00052   0.00121  -0.00169   0.00004  -0.00047
 102        3PY        -0.00009  -0.00009  -0.00051   0.00058   0.00056
 103        3PZ         0.00003  -0.00019   0.00001   0.00022   0.00028
 104        4S         -0.00148  -0.01573  -0.00449  -0.00336  -0.00260
 105        4PX        -0.00075  -0.00310  -0.00189  -0.00104   0.00006
 106        4PY        -0.00012   0.00144  -0.00052   0.00010   0.00109
 107        4PZ         0.00005   0.00097   0.00004   0.00017   0.00042
 108        5S         -0.00346   0.00447   0.00785  -0.00144   0.00853
 109        5PX        -0.00059  -0.00008   0.00364  -0.00112   0.00178
 110        5PY         0.00193  -0.00085   0.00111   0.00026  -0.00196
 111        5PZ         0.00084  -0.00033  -0.00003   0.00025  -0.00101
 112        6D 0        0.00006  -0.00035   0.00079   0.00005   0.00037
 113        6D+1       -0.00001   0.00005   0.00002  -0.00001   0.00016
 114        6D-1        0.00003   0.00019  -0.00015  -0.00018  -0.00053
 115        6D+2       -0.00013   0.00007  -0.00082   0.00029   0.00039
 116        6D-2       -0.00011   0.00037  -0.00067   0.00002   0.00024
 117 7   H  1S         -0.00001  -0.00019  -0.00013  -0.00011   0.00015
 118        2S         -0.00125   0.00020   0.00092  -0.00062  -0.00487
 119        3S         -0.00047   0.00129   0.00082   0.00105   0.00164
 120        4PX        -0.00025  -0.00000   0.00008  -0.00051  -0.00184
 121        4PY        -0.00021  -0.00035   0.00010  -0.00012  -0.00173
 122        4PZ        -0.00005  -0.00014   0.00003   0.00002  -0.00045
 123 8   H  1S         -0.00021  -0.00021   0.00004  -0.00017  -0.00016
 124        2S          0.00030  -0.00004  -0.00431   0.00111   0.00118
 125        3S          0.00187   0.00161   0.00180   0.00085   0.00087
 126        4PX        -0.00019   0.00046   0.00052   0.00007  -0.00009
 127        4PY         0.00028   0.00028   0.00235  -0.00013  -0.00014
 128        4PZ         0.00014   0.00005   0.00086  -0.00006  -0.00004
 129 9   H  1S          0.00016  -0.00005   0.00001   0.00005  -0.00005
 130        2S         -0.00437  -0.00070  -0.00083  -0.00058  -0.00016
 131        3S          0.00207  -0.00072  -0.00115   0.00048  -0.00052
 132        4PX         0.00196   0.00022   0.00017   0.00011   0.00002
 133        4PY         0.00035   0.00004   0.00016  -0.00006  -0.00003
 134        4PZ        -0.00011  -0.00001   0.00004  -0.00004  -0.00001
                           6         7         8         9        10
                           O         O         O         O         O
     Eigenvalues --    -1.02553  -0.88011  -0.75378  -0.62206  -0.60047
   1 1   C  1S         -0.05663  -0.01858   0.06452   0.04896  -0.02058
   2        2S         -0.08677  -0.02859   0.09999   0.07658  -0.03231
   3        2PX        -0.00042  -0.08051  -0.00401  -0.00480   0.12094
   4        2PY        -0.04516  -0.00652   0.00070   0.00586   0.00584
   5        2PZ        -0.01787   0.00775   0.00080   0.00295  -0.01323
   6        3S          0.22426   0.07633  -0.27362  -0.21344   0.08851
   7        3PX         0.00192  -0.11337  -0.00753  -0.00767   0.16774
   8        3PY        -0.06660  -0.00799   0.00375   0.01097   0.00661
   9        3PZ        -0.02668   0.01140   0.00246   0.00535  -0.01894
  10        4S          0.07028   0.02903  -0.14830  -0.14422   0.04836
  11        4PX         0.00552  -0.01363   0.00043   0.00057   0.05033
  12        4PY         0.00707   0.00141   0.01086   0.00172   0.01371
  13        4PZ         0.00210   0.00231   0.00426   0.00061  -0.00103
  14        5S          0.05662   0.02636   0.00613  -0.07612   0.03469
  15        5PX        -0.00464   0.00391  -0.00322   0.00669   0.02404
  16        5PY        -0.01334  -0.00639  -0.00902   0.01475  -0.00940
  17        5PZ        -0.00470  -0.00304  -0.00316   0.00499  -0.00682
  18        6D 0       -0.01145  -0.00523   0.00706   0.00326  -0.00052
  19        6D+1       -0.00348   0.00810   0.00405   0.00126  -0.00499
  20        6D-1        0.01031  -0.00147  -0.00095  -0.00938   0.00518
  21        6D+2       -0.00120   0.00339  -0.01146   0.01274  -0.00522
  22        6D-2       -0.00126   0.02393   0.00226   0.00422  -0.01309
  23 2   N  1S         -0.08028   0.07456   0.01516  -0.02773   0.00131
  24        2S         -0.12600   0.11766   0.02406  -0.04417   0.00210
  25        2PX        -0.03386  -0.01815  -0.01093   0.15467  -0.03885
  26        2PY        -0.00205   0.00676  -0.08428   0.01258   0.12551
  27        2PZ         0.00354   0.00501  -0.03204  -0.01486   0.05479
  28        3S          0.34441  -0.32936  -0.06951   0.12572  -0.00666
  29        3PX        -0.05073  -0.02674  -0.01612   0.22421  -0.05646
  30        3PY        -0.00326   0.01119  -0.12621   0.01907   0.18433
  31        3PZ         0.00523   0.00787  -0.04802  -0.02122   0.08040
  32        4S          0.22578  -0.23391  -0.04445   0.12582  -0.00318
  33        4PX        -0.03056  -0.01507  -0.01358   0.12805  -0.03615
  34        4PY        -0.00347   0.00235  -0.06218   0.00888   0.12190
  35        4PZ         0.00255   0.00286  -0.02293  -0.01291   0.05301
  36        5S         -0.05273   0.03255  -0.00816   0.06455  -0.00346
  37        5PX         0.02123  -0.02963  -0.00984   0.02276  -0.00139
  38        5PY        -0.00009  -0.01355   0.01046   0.00581  -0.02557
  39        5PZ        -0.00276  -0.00157   0.00541  -0.00061  -0.00997
  40        6D 0       -0.00873   0.00467  -0.00040  -0.00161   0.00028
  41        6D+1       -0.00250   0.00011   0.00509   0.00007  -0.00339
  42        6D-1        0.00556  -0.00400  -0.00013  -0.00243   0.00024
  43        6D+2        0.00346   0.00118  -0.00348   0.00697   0.00200
  44        6D-2        0.00054  -0.00246   0.01169   0.00301  -0.00787
  45 3   C  1S         -0.04214   0.01945  -0.07780   0.04081   0.02498
  46        2S         -0.06458   0.02990  -0.12065   0.06396   0.03911
  47        2PX         0.00059  -0.03669  -0.03008   0.02353  -0.10229
  48        2PY         0.03962  -0.02215   0.00894  -0.00815  -0.01794
  49        2PZ         0.01565  -0.00408   0.00742  -0.00625   0.00602
  50        3S          0.16389  -0.07790   0.32255  -0.17410  -0.10836
  51        3PX         0.00241  -0.05702  -0.03969   0.03179  -0.14313
  52        3PY         0.05741  -0.03560   0.01345  -0.01246  -0.02835
  53        3PZ         0.02247  -0.00680   0.01044  -0.00903   0.00714
  54        4S          0.04996  -0.03931   0.16214  -0.12308  -0.06838
  55        4PX         0.00484  -0.00914  -0.01102   0.01338  -0.04815
  56        4PY         0.00073  -0.00237  -0.00167  -0.00263  -0.00243
  57        4PZ        -0.00033   0.00023   0.00075  -0.00276   0.00522
  58        5S          0.02707  -0.13426  -0.01215   0.02026  -0.03306
  59        5PX        -0.00551   0.02378   0.01609  -0.01312  -0.01311
  60        5PY         0.00233  -0.01712  -0.00275  -0.00434  -0.01546
  61        5PZ         0.00163  -0.00985  -0.00316  -0.00004  -0.00445
  62        6D 0       -0.00853   0.00317  -0.00884   0.00304   0.00314
  63        6D+1       -0.00018  -0.00563  -0.00413   0.00307  -0.00347
  64        6D-1        0.00943  -0.00389   0.00472  -0.00810  -0.00375
  65        6D+2       -0.00635   0.00791   0.00664   0.00902   0.00587
  66        6D-2        0.00350  -0.01367  -0.00253   0.00779  -0.00894
  67 4   C  1S         -0.03453  -0.03968  -0.06452  -0.02655  -0.06221
  68        2S         -0.05292  -0.06113  -0.09988  -0.04145  -0.09728
  69        2PX         0.01964  -0.00838   0.03972  -0.07993  -0.01428
  70        2PY         0.02623   0.04190  -0.01413   0.03868  -0.03969
  71        2PZ         0.00789   0.01771  -0.01071   0.02562  -0.01391
  72        3S          0.13372   0.15848   0.26495   0.11541   0.26354
  73        3PX         0.02897  -0.01394   0.05527  -0.11077  -0.01974
  74        3PY         0.03872   0.06492  -0.01816   0.05924  -0.05404
  75        3PZ         0.01165   0.02755  -0.01431   0.03775  -0.01891
  76        4S          0.05931   0.07135   0.15217   0.08309   0.19132
  77        4PX         0.01144  -0.00074   0.02294  -0.03244  -0.00597
  78        4PY         0.00531   0.00731   0.00201   0.01426  -0.01989
  79        4PZ         0.00064   0.00300  -0.00215   0.00983  -0.00712
  80        5S         -0.03225   0.12573   0.01278   0.02743   0.00344
  81        5PX        -0.00603   0.02439  -0.00489  -0.00873  -0.01059
  82        5PY        -0.00131   0.00680  -0.00436   0.02124   0.00682
  83        5PZ         0.00025  -0.00043  -0.00110   0.00955   0.00407
  84        6D 0       -0.00757  -0.00491  -0.00756   0.00031  -0.00507
  85        6D+1        0.00008   0.00054  -0.00399  -0.00063  -0.00157
  86        6D-1        0.00649   0.01092   0.00173   0.00665   0.00100
  87        6D+2       -0.00216  -0.01494   0.01060  -0.01292   0.00647
  88        6D-2        0.00458   0.00066  -0.00199  -0.00506   0.00118
  89 5   H  1S          0.01010  -0.01249   0.04886  -0.02688  -0.04820
  90        2S          0.00843  -0.01354   0.05531  -0.03054  -0.06201
  91        3S         -0.00562   0.00279  -0.00058  -0.00535  -0.01054
  92        4PX         0.00022  -0.00016  -0.00543   0.00136   0.00017
  93        4PY         0.00184  -0.00405   0.00589  -0.00165  -0.00852
  94        4PZ         0.00070  -0.00159   0.00304  -0.00083  -0.00340
  95 6   N  1S         -0.05038  -0.08257   0.01683  -0.03606   0.03693
  96        2S         -0.07875  -0.12975   0.02657  -0.05739   0.05887
  97        2PX         0.04015   0.04185  -0.03139  -0.05005  -0.03468
  98        2PY        -0.01188  -0.01832  -0.04928  -0.06440  -0.05582
  99        2PZ        -0.00988  -0.01265  -0.01552  -0.01912  -0.01769
 100        3S          0.21224   0.35707  -0.07542   0.16509  -0.16897
 101        3PX         0.06049   0.06091  -0.04556  -0.07192  -0.05033
 102        3PY        -0.01853  -0.02908  -0.07315  -0.09648  -0.08147
 103        3PZ        -0.01513  -0.01937  -0.02318  -0.02904  -0.02587
 104        4S          0.13585   0.24626  -0.05041   0.14914  -0.14387
 105        4PX         0.02322   0.02410  -0.01604  -0.03694  -0.02129
 106        4PY        -0.00652  -0.01095  -0.02738  -0.04612  -0.04226
 107        4PZ        -0.00557  -0.00744  -0.00881  -0.01355  -0.01404
 108        5S         -0.03333  -0.07689  -0.01160   0.02698  -0.01065
 109        5PX        -0.00868  -0.01945   0.00023   0.02197   0.00347
 110        5PY        -0.00358   0.01192   0.00699   0.01627   0.01343
 111        5PZ        -0.00030   0.00723   0.00274   0.00363   0.00489
 112        6D 0       -0.00626  -0.00610   0.00190   0.00209   0.00190
 113        6D+1       -0.00218  -0.00063  -0.00220   0.00091  -0.00179
 114        6D-1        0.00333   0.00491   0.00428   0.00472   0.00291
 115        6D+2        0.00410  -0.00051  -0.00921  -0.01295  -0.00686
 116        6D-2       -0.00013   0.00231  -0.00895  -0.00251  -0.00736
 117 7   H  1S          0.00684   0.01601   0.03945   0.04341   0.08293
 118        2S          0.00735   0.01744   0.04722   0.05558   0.10362
 119        3S         -0.00104  -0.00212   0.00325   0.00681   0.01590
 120        4PX         0.00022   0.00115   0.00729   0.00406   0.01103
 121        4PY         0.00112   0.00404   0.00311   0.00784   0.00678
 122        4PZ         0.00042   0.00145   0.00030   0.00259   0.00127
 123 8   H  1S          0.01427   0.00342  -0.05001  -0.04327   0.03705
 124        2S          0.00961   0.00098  -0.06327  -0.05147   0.04607
 125        3S         -0.00659  -0.00000  -0.00368  -0.01212   0.00492
 126        4PX        -0.00011  -0.00391   0.00248  -0.00020   0.00409
 127        4PY        -0.00195   0.00149   0.01032   0.00467  -0.00593
 128        4PZ        -0.00076   0.00109   0.00378   0.00188  -0.00288
 129 9   H  1S          0.04002  -0.06747  -0.02781   0.13653  -0.01469
 130        2S          0.04259  -0.06414  -0.02722   0.15844  -0.01754
 131        3S         -0.01124   0.02212   0.00660  -0.01093   0.00057
 132        4PX        -0.01053   0.01427   0.00570  -0.01950   0.00087
 133        4PY        -0.00177   0.00311  -0.00324  -0.00438   0.00777
 134        4PZ         0.00065  -0.00060  -0.00202   0.00076   0.00297
                          11        12        13        14        15
                           O         O         O         O         O
     Eigenvalues --    -0.57000  -0.45044  -0.44516  -0.44245  -0.42027
   1 1   C  1S         -0.03475   0.00853   0.00151  -0.00001  -0.00635
   2        2S         -0.05435   0.01375   0.00233  -0.00002  -0.00993
   3        2PX        -0.02830  -0.06107   0.07005   0.01380  -0.07998
   4        2PY         0.10920  -0.07921  -0.08968  -0.04273  -0.10281
   5        2PZ         0.04697  -0.02348  -0.04430   0.10843  -0.03054
   6        3S          0.14902  -0.03596   0.00085   0.00005   0.04099
   7        3PX        -0.03857  -0.08597   0.10314   0.02157  -0.11099
   8        3PY         0.15108  -0.10674  -0.12631  -0.06680  -0.14237
   9        3PZ         0.06491  -0.03115  -0.06293   0.16938  -0.04226
  10        4S          0.15156  -0.07903  -0.01727   0.00012   0.00978
  11        4PX        -0.00442  -0.03646   0.04791   0.01293  -0.07845
  12        4PY         0.04907  -0.05804  -0.07110  -0.04002  -0.08818
  13        4PZ         0.02003  -0.01825  -0.03410   0.10139  -0.02493
  14        5S          0.00925   0.04440  -0.01390   0.00002   0.00979
  15        5PX        -0.01105  -0.01411   0.01898   0.00238  -0.01831
  16        5PY         0.00853  -0.01922  -0.00519  -0.00745  -0.00649
  17        5PZ         0.00480  -0.00579  -0.00445   0.01883  -0.00022
  18        6D 0       -0.00080  -0.00381  -0.00072  -0.01473  -0.00066
  19        6D+1        0.00160   0.00004  -0.00533  -0.00067  -0.00581
  20        6D-1       -0.00630  -0.00586  -0.00072  -0.01792  -0.00492
  21        6D+2        0.01212   0.01675   0.00676  -0.00843   0.01547
  22        6D-2        0.00752   0.00691  -0.01072  -0.00288  -0.00964
  23 2   N  1S          0.01557   0.00603   0.00272  -0.00001  -0.01388
  24        2S          0.02500   0.00993   0.00430  -0.00001  -0.02240
  25        2PX         0.10642   0.09555  -0.04805   0.01963  -0.03603
  26        2PY         0.01639   0.09489   0.10848  -0.06094  -0.00706
  27        2PZ        -0.00716   0.02554   0.04963   0.15260   0.00179
  28        3S         -0.07299  -0.03508  -0.01093   0.00004   0.06893
  29        3PX         0.15324   0.13693  -0.06750   0.02978  -0.05409
  30        3PY         0.02340   0.13771   0.16072  -0.09244  -0.00956
  31        3PZ        -0.01039   0.03729   0.07307   0.23154   0.00310
  32        4S         -0.08559  -0.02301  -0.02904   0.00007   0.08863
  33        4PX         0.12040   0.07211  -0.03138   0.02486  -0.03811
  34        4PY         0.01955   0.09733   0.10652  -0.07710  -0.02223
  35        4PZ        -0.00769   0.02955   0.04681   0.19331  -0.00397
  36        5S         -0.01510   0.02903  -0.04142   0.00007   0.06212
  37        5PX         0.02257   0.02942  -0.00156  -0.00020  -0.01807
  38        5PY         0.00795   0.00397   0.00030   0.00055   0.00228
  39        5PZ         0.00026  -0.00220   0.00031  -0.00143   0.00323
  40        6D 0        0.00152  -0.00316   0.00214   0.00198   0.00066
  41        6D+1        0.00064  -0.00208  -0.00568  -0.01161  -0.00242
  42        6D-1        0.00060  -0.00609   0.00325  -0.00138  -0.00242
  43        6D+2       -0.00385   0.01812  -0.00462  -0.00188   0.00584
  44        6D-2       -0.00043   0.00173  -0.01628   0.00459  -0.00479
  45 3   C  1S         -0.03448  -0.00509  -0.01023   0.00003   0.01652
  46        2S         -0.05397  -0.00819  -0.01616   0.00005   0.02649
  47        2PX         0.00467  -0.13633   0.07884   0.01126   0.03866
  48        2PY        -0.09989  -0.05437  -0.13823  -0.03462  -0.00515
  49        2PZ        -0.04023  -0.00398  -0.06473   0.08832  -0.00703
  50        3S          0.14476   0.01826   0.03608  -0.00011  -0.07643
  51        3PX         0.00420  -0.19351   0.10507   0.01745   0.05111
  52        3PY        -0.13640  -0.08473  -0.18843  -0.05363  -0.00838
  53        3PZ        -0.05465  -0.00864  -0.08788   0.13664  -0.00992
  54        4S          0.16437   0.00676   0.09854  -0.00026  -0.09540
  55        4PX         0.00317  -0.08577   0.06253   0.01025   0.01789
  56        4PY        -0.04006  -0.03133  -0.09796  -0.03164  -0.01670
  57        4PZ        -0.01631  -0.00134  -0.04669   0.08050  -0.00894
  58        5S          0.06619  -0.02534   0.03022  -0.00006  -0.04365
  59        5PX        -0.00665  -0.01051  -0.00423   0.00095   0.01502
  60        5PY         0.00346  -0.00867  -0.01294  -0.00285  -0.00140
  61        5PZ         0.00222  -0.00208  -0.00457   0.00729  -0.00249
  62        6D 0       -0.00098   0.00027   0.00289   0.01288  -0.00012
  63        6D+1       -0.00224  -0.00827  -0.00625  -0.00002   0.00799
  64        6D-1       -0.00599  -0.00542   0.00598   0.01546  -0.00150
  65        6D+2        0.01499   0.01725  -0.01039   0.00719  -0.00363
  66        6D-2       -0.00091  -0.01575  -0.01970   0.00282   0.01850
  67 4   C  1S         -0.01166  -0.00214   0.02135  -0.00005  -0.00003
  68        2S         -0.01802  -0.00345   0.03412  -0.00007   0.00001
  69        2PX        -0.00688   0.14244  -0.05097   0.00936  -0.10228
  70        2PY        -0.06984  -0.01872   0.04540  -0.02906  -0.13836
  71        2PZ        -0.02683  -0.02567   0.02476   0.07292  -0.04177
  72        3S          0.04776   0.00909  -0.09557   0.00020  -0.01002
  73        3PX        -0.01076   0.19731  -0.07279   0.01451  -0.13765
  74        3PY        -0.09755  -0.02751   0.06259  -0.04501  -0.19541
  75        3PZ        -0.03732  -0.03618   0.03450   0.11298  -0.05987
  76        4S          0.02405  -0.01197  -0.09772   0.00022   0.02413
  77        4PX        -0.01996   0.11472  -0.03355   0.00935  -0.08521
  78        4PY        -0.05071  -0.01258   0.02369  -0.02903  -0.11685
  79        4PZ        -0.01755  -0.01968   0.01391   0.07298  -0.03543
  80        5S         -0.06530  -0.05297  -0.01030   0.00004   0.01924
  81        5PX        -0.01760   0.00723  -0.00946   0.00049  -0.00168
  82        5PY        -0.00924  -0.01253   0.01394  -0.00151  -0.02042
  83        5PZ        -0.00140  -0.00590   0.00676   0.00372  -0.00788
  84        6D 0        0.00262  -0.00084   0.00391   0.00569  -0.00124
  85        6D+1       -0.00290  -0.00074  -0.00304   0.01157   0.00678
  86        6D-1       -0.00237  -0.00106   0.00724   0.01057  -0.00485
  87        6D+2        0.00341   0.00391  -0.01700   0.00619   0.00552
  88        6D-2       -0.00785  -0.00026  -0.01439  -0.00285   0.01866
  89 5   H  1S          0.09812  -0.00939   0.15499  -0.00034  -0.00309
  90        2S          0.12926  -0.01414   0.21954  -0.00048   0.00040
  91        3S          0.01926   0.00085   0.06671  -0.00016  -0.00670
  92        4PX        -0.01098  -0.00646  -0.00816   0.00091   0.00085
  93        4PY         0.01154  -0.00620   0.01333  -0.00277   0.00371
  94        4PZ         0.00599  -0.00162   0.00635   0.00692   0.00136
  95 6   N  1S         -0.00268   0.00341  -0.01454   0.00003   0.00301
  96        2S         -0.00418   0.00551  -0.02327   0.00005   0.00472
  97        2PX        -0.00245   0.08992  -0.02281   0.01211   0.05660
  98        2PY         0.06232   0.04623  -0.05352  -0.03734   0.11844
  99        2PZ         0.02505   0.00688  -0.01806   0.09437   0.03972
 100        3S          0.01226  -0.01635   0.06863  -0.00016  -0.01296
 101        3PX        -0.00464   0.13216  -0.02948   0.01825   0.08072
 102        3PY         0.09036   0.06460  -0.07702  -0.05628   0.17407
 103        3PZ         0.03646   0.00878  -0.02640   0.14225   0.05869
 104        4S          0.01168  -0.01580   0.08397  -0.00021  -0.03400
 105        4PX        -0.00646   0.08716  -0.02063   0.01384   0.03793
 106        4PY         0.04873   0.03994  -0.05456  -0.04268   0.10134
 107        4PZ         0.02017   0.00475  -0.01872   0.10786   0.03533
 108        5S          0.03994   0.00774   0.03771  -0.00009  -0.02137
 109        5PX         0.01138  -0.00529   0.01265  -0.00136  -0.00499
 110        5PY        -0.01685  -0.01557   0.00972   0.00412  -0.00301
 111        5PZ        -0.00815  -0.00551   0.00220  -0.01043  -0.00055
 112        6D 0        0.00117  -0.00307   0.00078  -0.00663  -0.00317
 113        6D+1        0.00497  -0.00503  -0.00196   0.01478   0.00414
 114        6D-1       -0.00243  -0.00325  -0.00033  -0.00318  -0.00822
 115        6D+2       -0.00107   0.01492   0.00120   0.00008   0.01706
 116        6D-2        0.01100  -0.00638  -0.00505  -0.00664   0.01652
 117 7   H  1S          0.04548  -0.07131  -0.02295   0.00013   0.14584
 118        2S          0.05548  -0.09682  -0.03056   0.00018   0.20695
 119        3S         -0.00385  -0.02625  -0.01117   0.00006   0.06830
 120        4PX         0.00802  -0.00305  -0.00345   0.00071   0.01293
 121        4PY         0.00334  -0.00911   0.00300  -0.00214   0.00774
 122        4PZ         0.00030  -0.00322   0.00165   0.00540   0.00141
 123 8   H  1S          0.10670  -0.08717  -0.06976   0.00021  -0.09857
 124        2S          0.14115  -0.12291  -0.09844   0.00031  -0.14067
 125        3S          0.01908  -0.02817  -0.03136   0.00010  -0.04884
 126        4PX        -0.00648  -0.00067   0.00553   0.00107  -0.00045
 127        4PY        -0.01613   0.00978   0.00617  -0.00336   0.00866
 128        4PZ        -0.00557   0.00398   0.00176   0.00842   0.00349
 129 9   H  1S          0.06145   0.09177  -0.03190  -0.00000  -0.01546
 130        2S          0.06292   0.14283  -0.05251  -0.00001  -0.02304
 131        3S         -0.00305   0.01955  -0.00787   0.00000  -0.00820
 132        4PX        -0.00696  -0.01054   0.00223   0.00140   0.00153
 133        4PY        -0.00140   0.00324   0.00823  -0.00435  -0.00015
 134        4PZ         0.00034   0.00265   0.00301   0.01090  -0.00026
                          16        17        18        19        20
                           O         O         O         V         V
     Eigenvalues --    -0.29750  -0.29164  -0.24471   0.00550   0.00642
   1 1   C  1S          0.00001   0.02297   0.00001  -0.00005   0.01120
   2        2S          0.00002   0.03724   0.00001  -0.00008   0.01943
   3        2PX         0.00434   0.05789  -0.01796   0.01966   0.00007
   4        2PY        -0.01333   0.00822   0.05546  -0.06058  -0.03500
   5        2PZ         0.03361  -0.00418  -0.13975   0.15311  -0.01316
   6        3S         -0.00006  -0.11226  -0.00003   0.00036  -0.08862
   7        3PX         0.00668   0.08878  -0.02811   0.02932  -0.00490
   8        3PY        -0.02050   0.01954   0.08682  -0.09023  -0.06045
   9        3PZ         0.05170  -0.00365  -0.21877   0.22813  -0.02226
  10        4S         -0.00010  -0.18426  -0.00003  -0.00060   0.14527
  11        4PX         0.00724   0.01894  -0.02675   0.05916  -0.01808
  12        4PY        -0.02231   0.03812   0.08257  -0.18162  -0.19510
  13        4PZ         0.05622   0.01269  -0.20807   0.46009  -0.07290
  14        5S         -0.00006  -0.08764   0.00005  -0.00705   1.74486
  15        5PX         0.00121  -0.00123  -0.00495   0.07157   0.35069
  16        5PY        -0.00377   0.02341   0.01523  -0.22510  -0.05491
  17        5PZ         0.00954   0.00944  -0.03844   0.56815  -0.06419
  18        6D 0        0.00703   0.00298   0.00363   0.01271   0.00587
  19        6D+1       -0.03284  -0.01493   0.00037  -0.00048   0.00223
  20        6D-1       -0.00219  -0.00630   0.00449   0.01515  -0.00176
  21        6D+2       -0.00450   0.02074   0.00213   0.00702  -0.00644
  22        6D-2        0.01315  -0.03281   0.00064   0.00288  -0.00004
  23 2   N  1S         -0.00001  -0.01411  -0.00000  -0.00009   0.02151
  24        2S         -0.00002  -0.02294  -0.00001  -0.00015   0.03550
  25        2PX        -0.02162  -0.04198  -0.00583  -0.01901  -0.04737
  26        2PY         0.06680   0.03589   0.01803   0.05939  -0.00592
  27        2PZ        -0.16825   0.01974  -0.04542  -0.14961   0.00301
  28        3S          0.00005   0.07249   0.00002   0.00051  -0.11817
  29        3PX        -0.03269  -0.06260  -0.00878  -0.02815  -0.06956
  30        3PY         0.10099   0.04958   0.02711   0.08792  -0.00919
  31        3PZ        -0.25438   0.02787  -0.06832  -0.22147   0.00421
  32        4S          0.00007   0.11819   0.00004   0.00131  -0.30861
  33        4PX        -0.03285  -0.04638  -0.00939  -0.04315  -0.03897
  34        4PY         0.10154   0.07080   0.02899   0.13388  -0.00483
  35        4PZ        -0.25573   0.03421  -0.07306  -0.33730   0.00144
  36        5S          0.00005   0.10902   0.00004   0.00762  -1.88205
  37        5PX        -0.00772  -0.01797  -0.00342  -0.06416  -0.06747
  38        5PY         0.02396   0.01716   0.01059   0.19861   0.04801
  39        5PZ        -0.06031   0.00916  -0.02669  -0.50106   0.02534
  40        6D 0        0.00307   0.00207  -0.01371   0.00391   0.00028
  41        6D+1        0.00006   0.00236   0.00058  -0.01382   0.00045
  42        6D-1        0.00370  -0.00127  -0.01628   0.00024  -0.00519
  43        6D+2        0.00173  -0.00240  -0.00750  -0.00141   0.00937
  44        6D-2        0.00063   0.00376  -0.00313   0.00573   0.00349
  45 3   C  1S         -0.00001  -0.01577   0.00000  -0.00005   0.01248
  46        2S         -0.00001  -0.02535   0.00000  -0.00008   0.02139
  47        2PX        -0.00584  -0.06820   0.01968   0.01488  -0.01122
  48        2PY         0.01791   0.01038  -0.06084  -0.04599   0.03558
  49        2PZ        -0.04515   0.01289   0.15335   0.11549   0.01612
  50        3S          0.00004   0.07784  -0.00000   0.00036  -0.09177
  51        3PX        -0.00920  -0.09238   0.03048   0.02182  -0.02251
  52        3PY         0.02826   0.01777  -0.09420  -0.06738   0.05783
  53        3PZ        -0.07123   0.01894   0.23745   0.16912   0.02666
  54        4S          0.00008   0.14043  -0.00004  -0.00035   0.07617
  55        4PX        -0.00691  -0.10213   0.03027   0.04553  -0.00324
  56        4PY         0.02124   0.01343  -0.09358  -0.14114   0.12766
  57        4PZ        -0.05356   0.01846   0.23586   0.35435   0.05278
  58        5S          0.00012   0.03613  -0.00008   0.00113  -0.30751
  59        5PX        -0.00146  -0.01629   0.00575   0.06049   1.04696
  60        5PY         0.00441  -0.00067  -0.01779  -0.19965  -0.03128
  61        5PZ        -0.01112   0.00183   0.04477   0.50421  -0.14452
  62        6D 0       -0.00467   0.00208   0.00445  -0.01094   0.00573
  63        6D+1       -0.01904   0.00247  -0.01497  -0.00434  -0.00131
  64        6D-1       -0.01178  -0.00128   0.00050  -0.01452  -0.00088
  65        6D+2       -0.00750  -0.00246  -0.00136  -0.00719  -0.00544
  66        6D-2        0.00577   0.00396   0.00627  -0.00075  -0.00829
  67 4   C  1S          0.00001   0.01605   0.00000  -0.00005   0.01206
  68        2S          0.00001   0.02576   0.00000  -0.00009   0.02049
  69        2PX         0.01159   0.05498   0.01761  -0.00662   0.01876
  70        2PY        -0.03570  -0.05528  -0.05433   0.02017   0.01290
  71        2PZ         0.08988  -0.02906   0.13689  -0.05096   0.00247
  72        3S         -0.00004  -0.07460  -0.00001   0.00036  -0.08190
  73        3PX         0.01795   0.07507   0.02723  -0.01051   0.02784
  74        3PY        -0.05532  -0.09234  -0.08403   0.03202   0.02066
  75        3PZ         0.13928  -0.04639   0.21173  -0.08091   0.00423
  76        4S         -0.00007  -0.15949  -0.00001   0.00007  -0.01442
  77        4PX         0.01588  -0.00374   0.02529  -0.01780   0.01085
  78        4PY        -0.04902  -0.05548  -0.07804   0.05450   0.07058
  79        4PZ         0.12348  -0.02162   0.19666  -0.13821   0.02597
  80        5S         -0.00011  -0.03927  -0.00001  -0.00925   2.27535
  81        5PX         0.00273  -0.00734   0.00441  -0.02991  -0.04755
  82        5PY        -0.00851  -0.00189  -0.01362   0.09334  -0.10483
  83        5PZ         0.02146   0.00018   0.03430  -0.23409  -0.03660
  84        6D 0        0.01494   0.00346  -0.00860  -0.01764   0.00393
  85        6D+1       -0.00424  -0.01242   0.01652   0.01933   0.00394
  86        6D-1        0.01658  -0.00737  -0.00499  -0.01489  -0.00531
  87        6D+2        0.00726   0.02002  -0.00055  -0.00487   0.00140
  88        6D-2        0.00468  -0.02719  -0.00770  -0.01066   0.00705
  89 5   H  1S         -0.00001  -0.02840   0.00000   0.00006  -0.01114
  90        2S         -0.00003  -0.04744   0.00001  -0.00016   0.05106
  91        3S         -0.00002  -0.02797  -0.00000   0.00097  -0.21347
  92        4PX        -0.00054  -0.00230   0.00174   0.00222   0.00902
  93        4PY         0.00165  -0.00291  -0.00538  -0.00693  -0.00721
  94        4PZ        -0.00416  -0.00086   0.01358   0.01757  -0.00393
  95 6   N  1S         -0.00002  -0.04404  -0.00000  -0.00003   0.00854
  96        2S         -0.00003  -0.07075  -0.00001  -0.00005   0.01410
  97        2PX         0.02189  -0.20371  -0.00645  -0.01191  -0.00090
  98        2PY        -0.06783   0.10551   0.01988   0.03678   0.00482
  99        2PZ         0.17105   0.06797  -0.05005  -0.09273   0.00158
 100        3S          0.00010   0.19750   0.00002   0.00018  -0.04741
 101        3PX         0.03300  -0.29164  -0.00972  -0.01760  -0.00402
 102        3PY        -0.10223   0.15329   0.02995   0.05440   0.00784
 103        3PZ         0.25780   0.09818  -0.07542  -0.13714   0.00297
 104        4S          0.00016   0.35009   0.00002   0.00058  -0.14059
 105        4PX         0.02991  -0.23330  -0.00901  -0.02565  -0.04284
 106        4PY        -0.09262   0.12465   0.02778   0.07974   0.01913
 107        4PZ         0.23355   0.07933  -0.06995  -0.20116   0.01213
 108        5S          0.00015   0.20089   0.00001   0.00365  -0.88902
 109        5PX         0.00484  -0.03686  -0.00228  -0.03291  -0.12188
 110        5PY        -0.01494   0.02281   0.00703   0.10243   0.16294
 111        5PZ         0.03762   0.01377  -0.01769  -0.26012   0.07910
 112        6D 0       -0.00971   0.00941  -0.00675   0.00910   0.00297
 113        6D+1        0.01351   0.00656  -0.01240   0.00930  -0.00156
 114        6D-1       -0.00731  -0.00550  -0.01213   0.01397  -0.00306
 115        6D+2       -0.00196  -0.00793  -0.00696   0.00746   0.00337
 116        6D-2       -0.00687   0.00771   0.00297  -0.00134  -0.00494
 117 7   H  1S         -0.00002  -0.03476   0.00000   0.00002  -0.00428
 118        2S         -0.00003  -0.06137  -0.00000  -0.00020   0.04810
 119        3S         -0.00003  -0.05977   0.00001   0.00079  -0.19496
 120        4PX         0.00098   0.00339   0.00156  -0.00078  -0.00656
 121        4PY        -0.00302  -0.00455  -0.00482   0.00253  -0.00530
 122        4PZ         0.00759  -0.00225   0.01215  -0.00630  -0.00129
 123 8   H  1S         -0.00002  -0.03055   0.00000   0.00005  -0.01545
 124        2S         -0.00002  -0.04909  -0.00000  -0.00029   0.06850
 125        3S         -0.00002  -0.05947  -0.00000   0.00089  -0.23684
 126        4PX         0.00032   0.00356  -0.00156   0.00293   0.00478
 127        4PY        -0.00098  -0.00237   0.00482  -0.00913   0.00656
 128        4PZ         0.00248  -0.00140  -0.01216   0.02294   0.00210
 129 9   H  1S         -0.00002  -0.02246   0.00000  -0.00008   0.01647
 130        2S         -0.00002  -0.04629   0.00000  -0.00023   0.04471
 131        3S         -0.00005  -0.03426  -0.00001  -0.00180   0.45129
 132        4PX        -0.00205   0.00076  -0.00061  -0.00262   0.02085
 133        4PY         0.00634   0.00427   0.00188   0.00783   0.00341
 134        4PZ        -0.01597   0.00161  -0.00473  -0.01976  -0.00142
                          21        22        23        24        25
                           V         V         V         V         V
     Eigenvalues --     0.03067   0.03383   0.03483   0.05295   0.05563
   1 1   C  1S          0.00693   0.01504   0.00003  -0.01739  -0.01397
   2        2S          0.01200   0.02555   0.00005  -0.02837  -0.02229
   3        2PX         0.00114  -0.02101   0.00574   0.01742  -0.00190
   4        2PY        -0.03508  -0.03764  -0.01792   0.02032   0.01991
   5        2PZ        -0.01408  -0.01235   0.04492   0.00576   0.00834
   6        3S         -0.05185  -0.09903  -0.00020   0.07780   0.04680
   7        3PX        -0.00412  -0.03376   0.00833   0.01724   0.01650
   8        3PY        -0.06052  -0.06823  -0.02607   0.04264   0.03351
   9        3PZ        -0.02350  -0.02289   0.06526   0.01461   0.01146
  10        4S          0.03370  -0.01003  -0.00006   0.43982   0.61618
  11        4PX         0.07743  -0.04291   0.02021   0.24704  -0.28590
  12        4PY         0.03469  -0.04121  -0.06266  -0.15474  -0.10392
  13        4PZ         0.00378  -0.01124   0.15778  -0.09337  -0.00382
  14        5S         -1.92716  -0.34337  -0.00119  -0.15320   0.46473
  15        5PX         1.03326  -0.67307   0.06561   0.90171  -1.82710
  16        5PY         1.15225   1.15870  -0.20429  -1.08507  -0.61937
  17        5PZ         0.32442   0.54473   0.52304  -0.54622  -0.01197
  18        6D 0       -0.00103   0.00240  -0.00117   0.00327   0.00893
  19        6D+1       -0.00032  -0.00001   0.03080   0.00207  -0.00101
  20        6D-1       -0.00076  -0.00073   0.00855  -0.00539  -0.00705
  21        6D+2        0.00320  -0.00205   0.00725   0.00422   0.00213
  22        6D-2        0.00073  -0.00194  -0.01119   0.00400  -0.00777
  23 2   N  1S          0.01356  -0.00771  -0.00001   0.02484   0.00262
  24        2S          0.02240  -0.01270  -0.00002   0.04061   0.00442
  25        2PX        -0.04275   0.02491   0.00270  -0.00677   0.02068
  26        2PY         0.00070   0.01439  -0.00814   0.00188   0.01217
  27        2PZ         0.00577   0.00246   0.02061   0.00162   0.00214
  28        3S         -0.07540   0.04267   0.00007  -0.12303  -0.01851
  29        3PX        -0.06515   0.03862   0.00355  -0.01539   0.03059
  30        3PY        -0.00120   0.01762  -0.01065   0.00158   0.02254
  31        3PZ         0.00789   0.00197   0.02695   0.00261   0.00499
  32        4S         -0.14270   0.08248   0.00015  -0.51601   0.00758
  33        4PX        -0.07712   0.05647   0.00844   0.15319   0.10755
  34        4PY         0.00490   0.03434  -0.02574   0.03223  -0.01625
  35        4PZ         0.01186   0.00621   0.06512  -0.00685  -0.02050
  36        5S         -0.86235   0.80284   0.00188  -3.20809   0.29101
  37        5PX         0.21969   0.43307   0.00583   0.71631   0.24239
  38        5PY        -0.08455  -0.02487  -0.01532  -0.03195   0.69518
  39        5PZ        -0.06174  -0.06548   0.03838  -0.10478   0.24530
  40        6D 0       -0.00151   0.00177   0.01269   0.00099   0.00563
  41        6D+1       -0.00010   0.00093   0.00192   0.00071  -0.00015
  42        6D-1        0.00086  -0.00171   0.01587   0.00136  -0.00257
  43        6D+2        0.00052  -0.00004   0.00757  -0.00466  -0.00272
  44        6D-2        0.00088   0.00109   0.00202  -0.00015  -0.00469
  45 3   C  1S         -0.00938  -0.01133  -0.00003  -0.02372   0.00864
  46        2S         -0.01542  -0.01901  -0.00006  -0.03833   0.01454
  47        2PX         0.02050   0.01539  -0.01590   0.02459   0.00416
  48        2PY        -0.00793  -0.03856   0.04914  -0.01364  -0.00464
  49        2PZ        -0.00579  -0.01696  -0.12412  -0.00858  -0.00231
  50        3S          0.04637   0.07154   0.00021   0.09526  -0.05256
  51        3PX         0.03252   0.03914  -0.02363   0.04702   0.00176
  52        3PY        -0.01619  -0.06667   0.07311  -0.02715  -0.01321
  53        3PZ        -0.01061  -0.03101  -0.18473  -0.01682  -0.00539
  54        4S          0.16596   0.00335   0.00005   0.84550  -0.19174
  55        4PX        -0.01746  -0.03518  -0.05032  -0.06802   0.19875
  56        4PY         0.05359  -0.01813   0.15527   0.24470  -0.09312
  57        4PZ         0.02347  -0.00168  -0.39164   0.10578  -0.06226
  58        5S         -2.78674   7.18510   0.01676   8.08563  -2.19467
  59        5PX         0.79055  -2.62310  -0.09774  -2.00955   1.22212
  60        5PY         0.60640   0.93072   0.28578   1.87992  -0.07884
  61        5PZ         0.13916   0.70814  -0.71293   1.00450  -0.18973
  62        6D 0       -0.00294   0.00183   0.00544   0.00373   0.00841
  63        6D+1       -0.00279   0.00119  -0.02562  -0.00213  -0.00059
  64        6D-1        0.00009   0.00026  -0.00177  -0.00385  -0.01022
  65        6D+2        0.00630  -0.00403  -0.00356   0.00409   0.00873
  66        6D-2       -0.00322   0.00048   0.01026  -0.00656  -0.00459
  67 4   C  1S         -0.01431   0.00601   0.00002   0.01100  -0.01994
  68        2S         -0.02400   0.01005   0.00003   0.01849  -0.03202
  69        2PX        -0.03701  -0.00150   0.01778   0.00824  -0.02528
  70        2PY        -0.03889   0.01405  -0.05486   0.00932  -0.00890
  71        2PZ        -0.01068   0.00541   0.13836   0.00259  -0.00012
  72        3S          0.09263  -0.03805  -0.00012  -0.06492   0.07659
  73        3PX        -0.07614   0.00313   0.02634   0.01158  -0.04778
  74        3PY        -0.06763   0.02162  -0.08124   0.01166  -0.02105
  75        3PZ        -0.01706   0.00764   0.20489   0.00308  -0.00199
  76        4S         -0.08452  -0.04583  -0.00012  -0.29022   0.68864
  77        4PX        -0.03617   0.03031   0.05663  -0.26055   0.09872
  78        4PY        -0.07807   0.05571  -0.17430  -0.07152   0.14902
  79        4PZ        -0.02636   0.01707   0.43969   0.00496   0.04700
  80        5S          3.93742  -6.11329  -0.01421  -6.63391   4.18990
  81        5PX         1.91953  -1.92552   0.13101  -2.70143   1.53430
  82        5PY         0.53330   0.60749  -0.41718  -0.00521   1.22537
  83        5PZ        -0.03507   0.48583   1.05576   0.34503   0.28897
  84        6D 0       -0.00140   0.00043  -0.00743   0.00458   0.00807
  85        6D+1        0.00002  -0.00047  -0.01584   0.00005   0.00130
  86        6D-1       -0.00003  -0.00113  -0.01405  -0.00685  -0.00858
  87        6D+2        0.00200   0.00214  -0.00821   0.00696   0.00437
  88        6D-2        0.00148  -0.00096   0.00404  -0.00106  -0.00103
  89 5   H  1S          0.00669   0.01566   0.00002  -0.00547  -0.00328
  90        2S         -0.01325  -0.00524  -0.00008  -0.07519  -0.03465
  91        3S          0.20026   0.22513   0.00044   0.27994  -0.15465
  92        4PX         0.00439  -0.01061  -0.00237  -0.00087   0.00860
  93        4PY         0.00978   0.00898   0.00727   0.01296   0.00147
  94        4PZ         0.00332   0.00497  -0.01827   0.00526  -0.00053
  95 6   N  1S         -0.00568   0.01079   0.00002   0.00304   0.02356
  96        2S         -0.00941   0.01799   0.00004   0.00501   0.03847
  97        2PX        -0.00938   0.03741  -0.01773  -0.00171   0.00746
  98        2PY         0.01996  -0.01508   0.05498   0.00603   0.00025
  99        2PZ         0.00914  -0.01043  -0.13867   0.00265  -0.00099
 100        3S          0.03170  -0.06490  -0.00013  -0.01726  -0.11717
 101        3PX        -0.02186   0.05801  -0.02654  -0.00609   0.01619
 102        3PY         0.03110  -0.02575   0.08229   0.01328  -0.00223
 103        3PZ         0.01517  -0.01713  -0.20756   0.00610  -0.00313
 104        4S          0.07515  -0.05270  -0.00012  -0.00460  -0.45405
 105        4PX         0.03180   0.03752  -0.03681   0.00782  -0.14522
 106        4PY         0.00167  -0.00994   0.11394  -0.02832   0.04741
 107        4PZ        -0.00339  -0.00801  -0.28720  -0.01213   0.03706
 108        5S          1.10769  -0.99989  -0.00197   0.74742  -3.67828
 109        5PX        -0.08580   0.03106  -0.08243   0.53846  -0.48935
 110        5PY         0.01309  -0.17298   0.25448   0.61989  -0.08769
 111        5PZ         0.01625  -0.07093  -0.64240   0.17684   0.02819
 112        6D 0       -0.00024  -0.00026  -0.00387   0.00164   0.00339
 113        6D+1        0.00073  -0.00210  -0.00534   0.00123   0.00221
 114        6D-1        0.00020  -0.00050  -0.00637  -0.00245  -0.00141
 115        6D+2       -0.00067   0.00317  -0.00352   0.00147  -0.00385
 116        6D-2        0.00175  -0.00413   0.00106   0.00229   0.00211
 117 7   H  1S          0.02449  -0.00427   0.00000  -0.00129  -0.00825
 118        2S         -0.02307   0.02982   0.00010  -0.02022  -0.07964
 119        3S          0.35227  -0.05806  -0.00005  -0.19972   0.16221
 120        4PX         0.01079  -0.00525   0.00308  -0.01216   0.00453
 121        4PY         0.01041   0.00279  -0.00954  -0.00108   0.01180
 122        4PZ         0.00274   0.00172   0.02405   0.00113   0.00411
 123 8   H  1S         -0.01346  -0.01289  -0.00003  -0.00925  -0.01785
 124        2S         -0.00484   0.04701   0.00010  -0.07563  -0.08328
 125        3S         -0.26679  -0.30943  -0.00076   0.16906   0.05141
 126        4PX         0.00832  -0.00330   0.00136   0.00411  -0.00924
 127        4PY         0.00990   0.01371  -0.00420  -0.01135  -0.00698
 128        4PZ         0.00286   0.00583   0.01068  -0.00503  -0.00157
 129 9   H  1S          0.00245  -0.00116   0.00000   0.00699  -0.00955
 130        2S          0.03809  -0.00406   0.00001   0.01196  -0.04788
 131        3S          0.12005  -0.39206  -0.00081   0.08147  -0.36509
 132        4PX         0.01444  -0.01030   0.00048   0.01324   0.00020
 133        4PY         0.00764   0.00593  -0.00155   0.00595  -0.00887
 134        4PZ         0.00118   0.00367   0.00395   0.00067  -0.00356
                          26        27        28        29        30
                           V         V         V         V         V
     Eigenvalues --     0.05682   0.07174   0.09163   0.10572   0.10879
   1 1   C  1S         -0.00002   0.00710   0.00000   0.00000   0.00135
   2        2S         -0.00002   0.01274   0.00000   0.00001   0.00213
   3        2PX        -0.01463  -0.00117  -0.01107  -0.00089  -0.02373
   4        2PY         0.04515   0.01084   0.03416   0.00271   0.00391
   5        2PZ        -0.11373   0.00440  -0.08611  -0.00682   0.00460
   6        3S          0.00006  -0.06269   0.00000  -0.00001   0.00016
   7        3PX        -0.02098  -0.00265  -0.01389  -0.00145  -0.05906
   8        3PY         0.06487   0.02707   0.04289   0.00438   0.00929
   9        3PZ        -0.16340   0.01100  -0.10811  -0.01103   0.01127
  10        4S          0.00065   0.04930  -0.00000  -0.00019  -0.13417
  11        4PX        -0.05142   0.06759  -0.04378  -0.00197   0.11065
  12        4PY         0.15699   0.02632   0.13505   0.00628   0.01608
  13        4PZ        -0.39572   0.00154  -0.34033  -0.01586  -0.00786
  14        5S          0.00026   4.83867  -0.00209  -0.00267  -2.15522
  15        5PX         0.06920   0.54588   0.18722   0.00542   4.05169
  16        5PY        -0.22437  -1.46443  -0.57849  -0.00843   0.04368
  17        5PZ         0.56503  -0.65090   1.46028   0.02252  -0.50318
  18        6D 0        0.00512   0.01454   0.00659   0.00123  -0.00021
  19        6D+1       -0.00932   0.00413  -0.00070  -0.00590   0.00176
  20        6D-1        0.00312  -0.01476   0.00771  -0.00044  -0.00314
[...]
     19  0.101308D-01  0.495936D-02 -0.834082D-05  0.240145D+00
     20 -0.209301D-01 -0.163698D-01 -0.171823D-02  0.152306D+00  0.171242D+00
     21 -0.102824D-01 -0.504633D-02 -0.593695D-02  0.324671D-01  0.394340D-01
     22 -0.224479D-02 -0.271119D-01 -0.110653D-01  0.557686D-03 -0.131606D-02
     23 -0.290893D-02 -0.560315D-02 -0.138115D-04  0.354557D-04 -0.171284D-04
     24 -0.146212D-02  0.309222D-02 -0.319780D-02  0.906547D-04 -0.295291D-03
     25 -0.376338D-03  0.221840D-02  0.182564D-02  0.243842D-03 -0.138490D-04
     26  0.697331D-02 -0.161748D-02 -0.431623D-02 -0.109316D-02  0.944861D-03
     27  0.372704D-02 -0.370107D-02  0.504466D-02 -0.240491D-03 -0.311891D-03
               21            22            23            24            25 
     21  0.339471D-01
     22 -0.445576D-03  0.710812D-01
     23 -0.469199D-03  0.637761D-01  0.316275D+00
     24  0.102357D-02  0.188840D-01  0.108860D+00  0.620103D-01
     25  0.186467D-03  0.322440D-03  0.276969D-03 -0.154544D-03  0.455881D+00
     26 -0.172403D-03 -0.488774D-03 -0.464600D-03  0.571931D-03  0.747423D-01
     27  0.164341D-02 -0.449599D-03  0.460823D-03 -0.148059D-02 -0.272085D-01
               26            27 
     26  0.657622D-01
     27  0.113868D-01  0.211824D-01
 Leave Link  716 at Fri Jun  2 11:13:37 2023, MaxMem=  7381975040 cpu:               0.1 elap:               0.6
 (Enter /software/commercial/gaussian/g16/AVX/g16/l103.exe)

 GradGradGradGradGradGradGradGradGradGradGradGradGradGradGradGradGradGrad
 Berny optimization.
 Search for a local minimum.
 Step number   1 out of a maximum of    2
 All quantities printed in internal units (Hartrees-Bohrs-Radians)
 Second derivative matrix not updated -- analytic derivatives used.
 ITU=  0
     Eigenvalues ---    0.01916   0.02920   0.04194   0.04862   0.05705
     Eigenvalues ---    0.06316   0.06434   0.16645   0.18826   0.20961
     Eigenvalues ---    0.22337   0.24780   0.29886   0.40786   0.65584
     Eigenvalues ---    0.74998   0.92067   1.05132   1.22675   1.30813
     Eigenvalues ---    1.33173
 Angle between quadratic step and forces=  53.94 degrees.
 Linear search not attempted -- first point.
 B after Tr=    -0.000018    0.000020    0.000027
         Rot=    1.000000   -0.000000    0.000002   -0.000001 Ang=  -0.00 deg.
 Variable       Old X    -DE/DX   Delta X   Delta X   Delta X     New X
                                 (Linear)    (Quad)   (Total)
    X1       -4.33095   0.00007   0.00000   0.00004   0.00001  -4.33094
    Y1        6.47169   0.00015   0.00000   0.00020   0.00021   6.47189
    Z1        0.31816   0.00005   0.00000   0.00008   0.00009   0.31825
    X2       -2.53783   0.00004   0.00000   0.00003  -0.00000  -2.53783
    Y2        4.84876  -0.00004   0.00000  -0.00003  -0.00002   4.84874
    Z2       -0.55635  -0.00001   0.00000   0.00001   0.00003  -0.55632
    X3       -3.74082  -0.00000   0.00000  -0.00002  -0.00004  -3.74086
    Y3        2.65386  -0.00001   0.00000   0.00001   0.00002   2.65388
    Z3       -1.27277  -0.00000   0.00000   0.00001   0.00003  -1.27274
    X4       -6.25314   0.00001   0.00000  -0.00002  -0.00004  -6.25319
    Y4        3.06488  -0.00007   0.00000  -0.00010  -0.00010   3.06478
    Z4       -0.78686  -0.00004   0.00000  -0.00004  -0.00004  -0.78690
    X5       -2.72891   0.00001   0.00000   0.00003   0.00002  -2.72890
    Y5        1.06176   0.00001   0.00000   0.00006   0.00007   1.06183
    Z5       -2.03417   0.00000   0.00000   0.00001   0.00002  -2.03414
    X6       -6.60417  -0.00014   0.00000  -0.00018  -0.00021  -6.60439
    Y6        5.45435  -0.00003   0.00000   0.00000   0.00000   5.45435
    Z6        0.20654   0.00000   0.00000   0.00002   0.00002   0.20656
    X7       -7.81560   0.00001   0.00000   0.00007   0.00005  -7.81556
    Y7        1.79183  -0.00001   0.00000  -0.00020  -0.00020   1.79163
    Z7       -1.09110  -0.00001   0.00000  -0.00010  -0.00010  -1.09120
    X8       -3.87853   0.00000   0.00000   0.00023   0.00019  -3.87834
    Y8        8.33838  -0.00000   0.00000   0.00016   0.00017   8.33855
    Z8        1.00065   0.00000   0.00000   0.00002   0.00003   1.00068
    X9       -0.66478   0.00001   0.00000   0.00006   0.00003  -0.66475
    Y9        5.19167   0.00000   0.00000  -0.00016  -0.00015   5.19152
    Z9       -0.66061   0.00000   0.00000  -0.00012  -0.00010  -0.66070
         Item               Value     Threshold  Converged?
 Maximum Force            0.000148     0.000450     YES
 RMS     Force            0.000048     0.000300     YES
 Maximum Displacement     0.000210     0.001800     YES
 RMS     Displacement     0.000099     0.001200     YES
 Predicted change in Energy=-3.938198D-08
 Optimization completed.
    -- Stationary point found.
 GradGradGradGradGradGradGradGradGradGradGradGradGradGradGradGradGradGrad

 Leave Link  103 at Fri Jun  2 11:13:40 2023, MaxMem=  7381975040 cpu:               0.8 elap:               1.4
 (Enter /software/commercial/gaussian/g16/AVX/g16/l9999.exe)

 ----------------------------------------------------------------------

 Electric dipole moment (input orientation):
 (Debye = 10**-18 statcoulomb cm , SI units = C m)
                  (au)            (Debye)         (10**-30 SI)
   Tot        0.198057D+01      0.503410D+01      0.167920D+02
   x          0.193503D+01      0.491836D+01      0.164059D+02
   y         -0.243528D+00     -0.618988D+00     -0.206472D+01
   z         -0.344967D+00     -0.876819D+00     -0.292475D+01

 Dipole polarizability, Alpha (input orientation).
 (esu units = cm**3 , SI units = C**2 m**2 J**-1)
 Alpha(0;0):
               (au)            (10**-24 esu)      (10**-40 SI)
   iso        0.596779D+02      0.884336D+01      0.983956D+01
   aniso      0.292399D+02      0.433290D+01      0.482100D+01
   xx         0.685375D+02      0.101562D+02      0.113003D+02
   yx         0.233674D+00      0.346268D-01      0.385276D-01
   yy         0.657956D+02      0.974990D+01      0.108482D+02
   zx        -0.354532D+01     -0.525362D+00     -0.584544D+00
   zy         0.101119D+02      0.149842D+01      0.166722D+01
   zz         0.447008D+02      0.662397D+01      0.737016D+01

 First dipole hyperpolarizability, Beta (input orientation).
 ||, _|_  parallel and perpendicular components, (z) with respect to z axis,
 vector components x,y,z.  Values do not include the 1/n! factor of 1/2.
 (esu units = statvolt**-1 cm**4 , SI units = C**3 m**3 J**-2)
 Beta(0;0,0):
               (au)            (10**-30 esu)      (10**-50 SI)
   || (z)     0.146450D+01      0.126521D-01      0.469570D-02
   _|_(z)     0.488165D+00      0.421737D-02      0.156523D-02
   x         -0.220162D+03     -0.190203D+01     -0.705920D+00
   y         -0.509067D+02     -0.439795D+00     -0.163225D+00
   z          0.732248D+01      0.632605D-01      0.234785D-01
   ||         0.452179D+02      0.390648D+00      0.144985D+00
   xxx       -0.740186D+02     -0.639463D+00     -0.237330D+00
   xxy       -0.510487D+02     -0.441021D+00     -0.163681D+00
   yxy        0.308984D+02      0.266938D+00      0.990716D-01
   yyy        0.660476D+02      0.570599D+00      0.211772D+00
   xxz       -0.211647D+02     -0.182846D+00     -0.678617D-01
   yxz        0.263463D+02      0.227612D+00      0.844758D-01
   yyz        0.752501D+02      0.650102D+00      0.241279D+00
   zxz       -0.302673D+02     -0.261486D+00     -0.970480D-01
   zyz       -0.319677D+02     -0.276176D+00     -0.102500D+00
   zzz       -0.516445D+02     -0.446169D+00     -0.165591D+00

 ----------------------------------------------------------------------

 Dipole orientation:
     6          0.16285651         -5.90612897         -5.08253572
     7         -0.52217651         -4.59508267         -2.97877211
     6         -1.67171107         -2.39345840         -3.75944034
     6         -1.62485911         -2.48240151         -6.34917003
     1         -2.38921475         -1.01900692         -2.44241863
     7         -0.47549407         -4.68303862         -7.15896324
     1         -2.34461167         -1.10329175         -7.66618330
     1          1.10526948         -7.71116067         -4.98891725
     1         -0.23859872         -5.13803082         -1.17279702

 Electric dipole moment (dipole orientation):
 (Debye = 10**-18 statcoulomb cm , SI units = C m)
                  (au)            (Debye)         (10**-30 SI)
   Tot        0.198057D+01      0.503410D+01      0.167920D+02
   x          0.000000D+00      0.000000D+00      0.000000D+00
   y          0.000000D+00      0.000000D+00      0.000000D+00
   z          0.198057D+01      0.503410D+01      0.167920D+02

 Dipole polarizability, Alpha (dipole orientation).
 (esu units = cm**3 , SI units = C**2 m**2 J**-1)
 Alpha(0;0):
               (au)            (10**-24 esu)      (10**-40 SI)
   iso        0.596779D+02      0.884336D+01      0.983956D+01
   aniso      0.292399D+02      0.433290D+01      0.482100D+01
   xx         0.464903D+02      0.688915D+01      0.766521D+01
   yx        -0.119843D+02     -0.177589D+01     -0.197595D+01
   yy         0.631871D+02      0.936336D+01      0.104181D+02
   zx        -0.554808D+00     -0.822141D-01     -0.914755D-01
   zy         0.105188D+01      0.155872D+00      0.173431D+00
   zz         0.693565D+02      0.102776D+02      0.114353D+02

 First dipole hyperpolarizability, Beta (dipole orientation).
 ||, _|_  parallel and perpendicular components, (z) with respect to z axis,
 vector components x,y,z.  Values do not include the 1/n! factor of 1/2.
 (esu units = statvolt**-1 cm**4 , SI units = C**3 m**3 J**-2)
 Beta(0;0,0):
               (au)            (10**-30 esu)      (10**-50 SI)
   || (z)    -0.420232D+02     -0.363048D+00     -0.134742D+00
   _|_(z)    -0.140077D+02     -0.121016D+00     -0.449139D-01
   x         -0.392360D+02     -0.338969D+00     -0.125805D+00
   y          0.736768D+02      0.636510D+00      0.236234D+00
   z         -0.210116D+03     -0.181524D+01     -0.673709D+00
   ||         0.452179D+02      0.390648D+00      0.144985D+00
   xxx       -0.714286D+02     -0.617088D+00     -0.229026D+00
   xxy        0.124161D+01      0.107265D-01      0.398105D-02
   yxy        0.917425D+02      0.792584D+00      0.294160D+00
   yyy       -0.407036D+02     -0.351647D+00     -0.130510D+00
   xxz       -0.226124D+02     -0.195354D+00     -0.725035D-01
   yxz       -0.990238D+01     -0.855488D-01     -0.317506D-01
   yyz       -0.882691D+01     -0.762577D-01     -0.283023D-01
   zxz       -0.333926D+02     -0.288486D+00     -0.107069D+00
   zyz        0.640209D+02      0.553091D+00      0.205274D+00
   zzz       -0.385994D+02     -0.333469D+00     -0.123764D+00

 ----------------------------------------------------------------------
 Unable to Open any file for archive entry.
 1\1\GINC-NODE1904\Freq\RB3LYP\6-311+G(d,p)\C3H4N2\SVICCHI\02-Jun-2023\
 0\\#p freq=raman scale=0.967 pop=(nbo,full,hirshfeld) guess=read geom=
 allcheck b3lyp/6-311+G(d,p) int=grid=ultrafine EmpiricalDispersion=GD3
 BJ SCRF=(Solvent=ethanol) scf=(xqc,intrep,maxconventionalcycle=350) no
 symm\\IMID-H_dissociation-site_index-1.gjf\\0,1\C,-2.2918391273,3.4246
 685494,0.1683608564\N,-1.342960299,2.5658519082,-0.2944059152\C,-1.979
 5568521,1.4043627662,-0.6735197217\C,-3.3090203996,1.6218660328,-0.416
 388988\H,-1.4440784676,0.5618585506,-1.0764346668\N,-3.4947788112,2.88
 63169454,0.1092940357\H,-4.1358396933,0.9481955819,-0.5773848551\H,-2.
 0524278306,4.4124827654,0.5295210861\H,-0.3517875192,2.7473119001,-0.3
 495778313\\Version=ES64L-G16RevC.01\HF=-226.3050042\RMSD=5.416e-09\RMS
 F=4.762e-05\ZeroPoint=0.0687855\Thermal=0.0725915\ETot=-226.2324127\HT
 ot=-226.2314685\GTot=-226.2624977\Dipole=1.9350302,-0.2435284,-0.34496
 71\DipoleDeriv=0.7726029,-0.1207195,-0.1455186,-0.0738127,0.0393823,0.
 019642,-0.1266016,0.0252511,0.0391065,-0.9237332,-0.0311602,0.0693073,
 -0.1501145,-0.1093722,0.0921011,0.0215079,0.0763998,-0.2647799,0.26868
 28,0.0985157,-0.0165686,0.3233935,-0.0698904,-0.0043838,0.0718837,0.02
 51929,-0.1631044,0.1259243,0.0775047,-0.0121391,-0.0937473,0.1663667,0
 .1594021,-0.0807431,0.1368695,-0.1398121,0.0781127,0.0521856,0.0424418
 ,0.0270827,0.0673726,-0.0747441,0.0327209,-0.0780778,0.211879,-0.74952
 25,0.0537234,0.0648295,0.0757166,-0.4311382,-0.0169996,0.0739062,-0.01
 37141,-0.427576,0.0284123,-0.1010031,-0.0167287,-0.0744078,0.0346867,-
 0.0600583,-0.0061088,-0.0565911,0.1887378,0.0814776,-0.0359125,0.00117
 83,-0.0440652,0.0348325,-0.0603737,-0.0021215,-0.0613423,0.1775081,0.3
 180431,0.0068658,0.013198,0.0099546,0.26776,-0.0545857,0.0155563,-0.05
 39881,0.378041\Polar=68.5374751,0.2336735,65.795579,-3.5453164,10.1118
 532,44.7007674\PolarDeriv=-1.2100294,-2.9787639,7.9699937,-0.6226562,3
 .6183464,3.8031723,3.0277352,-0.2891259,10.1070596,-0.6145734,0.239548
 7,2.1600446,1.6848011,0.6422003,-2.2945017,1.3761343,5.2481154,5.30372
 67,-1.984074,0.0919965,-1.6956293,0.8870419,-1.0811372,0.6002135,0.736
 8191,-3.4723426,-5.302616,-2.8514064,-1.6366682,-0.8598202,1.3722647,-
 2.6366381,-2.3568992,1.9964872,0.1450056,-0.7846298,3.464545,-0.048597
 6,11.7198796,1.1073565,1.0228776,7.1326831,-1.9402233,2.8671219,-1.004
 5823,-0.8576331,2.3254448,0.5810187,0.0350702,-1.6523431,2.9492193,4.2
 604943,-4.10375,-6.8500992,-5.1275137,3.4396329,-11.519644,0.1883098,-
 2.3157956,-8.7242254,-5.3032435,-1.9224423,8.7078098,2.3795757,5.12985
 97,1.0837288,-3.1083264,0.9794839,7.1726149,-5.5672593,-0.3648814,0.87
 35652,3.8498223,-3.1465794,3.4317063,-1.7731631,1.7714721,1.1890595,-2
 .9425017,3.570945,-8.0784683,1.890039,-3.6487266,-2.6682176,-1.773274,
 2.1132083,-4.2699005,0.515447,-1.0439898,-0.4569782,-7.0934738,2.99004
 28,-10.0445399,1.1660598,-2.728682,-4.7742856,6.6341777,-0.6053218,-10
 .9178677,0.3958024,-4.9766751,-2.0411775,2.6270052,1.0055094,-4.185811
 2,-3.4771637,-0.6050924,1.9170215,-7.5804557,-4.4336798,-4.0929045,-0.
 7719616,-0.8729413,-0.7079799,-4.0196158,-4.1828094,-5.0915407,-1.4353
 535,-1.2781103,-0.8397146,-0.4815039,-1.3022265,-1.5096963,0.081386,-0
 .336792,-0.357834,1.1827036,2.3783927,2.0944539,0.8022936,0.4348831,0.
 1311604,1.795491,2.3643252,10.9756271,0.8340853,3.8764654,2.3737181,0.
 553926,0.5852117,4.4573807,0.1760864,1.13726,0.609334,14.4984756,1.707
 5558,2.1366842,-0.9832807,0.150977,1.350202,2.0113614,1.6696499,0.6045
 787,0.2594638,-0.0311384,0.2104197,-0.9099629,0.2655939,0.037594,0.638
 3878,-0.0758754,-0.2541063\HyperPolar=-74.0185577,-51.0487363,30.89844
 51,66.0475563,-21.1646963,26.3463228,75.2500653,-30.267331,-31.9677347
 ,-51.6445424\Quadrupole=-10.2710578,5.987292,4.2837658,12.7001447,1.37
 43346,0.0502079\PG=C01 [X(C3H4N2)]\NImag=0\\0.62893879,0.11784259,0.79
 172790,-0.01643784,0.24425858,0.23674473,-0.19131816,0.08625910,0.0508
 5220,0.95787300,0.08141360,-0.19577496,-0.06364784,0.08247959,0.545323
 90,0.04891155,-0.06420745,-0.09374442,-0.07896999,0.17099961,0.1661596
 0,-0.00169751,-0.01133632,-0.00222243,-0.15223780,-0.06384972,-0.01274
 055,0.68852924,0.03448532,-0.08282385,-0.04366911,-0.07246346,-0.23459
 909,-0.06206350,-0.12708091,0.66932621,0.01598912,-0.03778175,-0.00102
 890,-0.01614157,-0.06309979,-0.07779461,-0.12427814,0.23634037,0.22471
 202,-0.01188690,-0.02636238,-0.00747420,-0.07857000,-0.06606277,-0.014
 44360,-0.36600976,0.04329830,0.05561866,0.80171233,-0.07625030,-0.0752
 5187,-0.02457998,-0.01073217,-0.01033035,-0.00791552,0.02724506,-0.098
 99287,-0.01613019,0.16746054,0.56580786,-0.02724624,-0.03099294,0.0026
 2185,0.00750774,-0.00079920,0.01177634,0.04926274,-0.01819991,-0.08073
 866,-0.01969611,0.15083333,0.19386199,-0.00499168,-0.00361521,-0.00041
 235,0.01379086,-0.01842829,-0.00949609,-0.13780857,0.12411023,0.063943
 73,0.00330539,0.01942338,0.00723409,0.12912133,-0.00394079,-0.00179340
 ,-0.00137723,0.01523337,-0.01558376,-0.00690454,0.11454376,-0.23518018
 ,-0.09877673,-0.00133479,0.00410839,0.00194155,-0.12482117,0.24666790,
 -0.00054785,-0.00141954,0.00246379,0.00385305,-0.00257142,-0.00464729,
 0.06014070,-0.10001914,-0.07057475,-0.00099706,-0.00073110,-0.00051406
 ,-0.06359035,0.10620424,0.06959497,-0.33878602,-0.09720538,-0.00493409
 ,-0.10975319,0.02940862,0.02857180,-0.01489170,0.01229630,0.00899412,-
 0.10641783,0.01729488,0.01154726,-0.00461224,-0.00102043,0.00108319,0.
 56695130,-0.11698870,-0.14390482,-0.01130449,-0.02677921,-0.00053628,-
 0.00540513,0.07574143,-0.03200712,-0.02931885,0.02857410,-0.22169696,-
 0.06400961,0.00329483,0.00235006,-0.00223584,0.05609172,0.41938554,-0.
 01280294,-0.01385842,-0.08108557,0.00628035,-0.01262209,0.01595099,0.0
 3417819,-0.02115890,0.00453098,0.01604822,-0.06256159,-0.09657627,0.00
 278893,-0.00167983,0.00589047,-0.03724478,0.11792909,0.15537950,0.0006
 6126,0.00211696,0.00139952,-0.00490956,0.00072825,0.00159620,-0.008180
 80,-0.01748840,-0.00587121,-0.23860441,-0.14207932,-0.02932489,-0.0000
 4411,0.00051523,-0.00010852,0.01013082,0.00495936,-0.00000834,0.240145
 27,0.00135726,-0.00460060,-0.00399090,0.00258322,0.00115818,-0.0019606
 3,0.00624128,0.00797015,0.00230239,-0.13972712,-0.15971382,-0.03426603
 ,-0.00050029,-0.00061382,0.00080659,-0.02093008,-0.01636978,-0.0017182
 3,0.15230563,0.17124196,0.00109729,-0.00408591,0.00324987,0.00233195,-
 0.00172438,0.00428107,0.00354487,0.00535200,0.00181258,-0.02838777,-0.
 03396366,-0.03786987,-0.00051189,0.00067589,-0.00215077,-0.01028243,-0
 .00504633,-0.00593695,0.03246708,0.03943399,0.03394709,-0.07044751,-0.
 06027103,-0.01822441,0.00916846,0.02572915,0.00891075,-0.00491268,0.00
 112977,0.00146153,-0.00457323,-0.00221979,0.00055030,0.00104846,0.0007
 7253,0.00037832,-0.00224479,-0.02711193,-0.01106527,0.00055769,-0.0013
 1606,-0.00044558,0.07108117,-0.05590433,-0.30147567,-0.10195247,-0.005
 65369,-0.01194618,-0.00368743,0.00307324,0.00116618,-0.00111816,-0.002
 22037,0.00213515,-0.00147779,-0.00047449,-0.00006935,-0.00060235,-0.00
 290893,-0.00560315,-0.00001381,0.00003546,-0.00001713,-0.00046920,0.06
 377614,0.31627476,-0.01648788,-0.10139301,-0.06451862,-0.00353839,-0.0
 0773344,-0.00343500,0.00223856,-0.00086645,0.00236595,0.00054752,-0.00
 147414,0.00591844,-0.00011777,-0.00076222,0.00131375,-0.00146212,0.003
 09222,-0.00319780,0.00009065,-0.00029529,0.00102357,0.01888396,0.10886
 040,0.06201030,-0.01047226,-0.00742832,-0.00254640,-0.44404360,-0.0714
 1841,0.02765993,-0.00279042,0.00171285,0.00028377,0.00104442,-0.000142
 28,0.00016510,0.00019058,0.00005231,-0.00021147,-0.00037634,0.00221840
 ,0.00182564,0.00024384,-0.00001385,0.00018647,0.00032244,0.00027697,-0
 .00015454,0.45588134,0.01798536,0.01389727,0.00626343,-0.07092675,-0.0
 7771145,-0.01885540,-0.02457782,0.00514058,0.00758271,-0.00362551,-0.0
 0606553,-0.00302939,0.00101101,0.00011417,0.00056856,0.00697331,-0.001
 61748,-0.00431623,-0.00109316,0.00094486,-0.00017240,-0.00048877,-0.00
 046460,0.00057193,0.07474233,0.06576217,0.00752480,0.00948044,-0.00470
 273,0.02782466,-0.01880145,-0.01854668,-0.01012394,0.00428462,-0.00328
 462,-0.00121567,-0.00347714,0.00152024,0.00016170,0.00067887,-0.001376
 11,0.00372704,-0.00370107,0.00504466,-0.00024049,-0.00031189,0.0016434
 1,-0.00044960,0.00046082,-0.00148059,-0.02720850,0.01138679,0.02118243
 \\-0.00007148,-0.00014778,-0.00005476,-0.00003999,0.00003883,0.0000130
 0,0.00000076,0.00000625,0.00000440,-0.00000746,0.00007112,0.00003644,-
 0.00000560,-0.00000994,-0.00000134,0.00014190,0.00002997,-0.00000325,-
 0.00000627,0.00000889,0.00000983,-0.00000379,0.00000436,-0.00000145,-0
 .00000806,-0.00000171,-0.00000287\\\@
 The archive entry for this job was punched.


 THE DIFFICULTY IN SCIENCE IS OFTEN NOT SO MUCH HOW
 TO MAKE A DISCOVERY BUT RATHER TO KNOW ONE HAS MADE IT.

                                                   -- J. D. BERNAL
 Job cpu time:       0 days  0 hours  7 minutes 35.2 seconds.
 Elapsed time:       0 days  0 hours  4 minutes 18.8 seconds.
 File lengths (MBytes):  RWF=     72 Int=      0 D2E=      0 Chk=      8 Scr=      1
 Normal termination of Gaussian 16 at Fri Jun  2 11:13:43 2023.
