 Entering Gaussian System, Link 0=g16
 Input=indazolide-CO2_binding-site_index-0-freq.gjf
 Output=indazolide-CO2_binding-site_index-0-freq.log
 Initial command:
 /software/commercial/gaussian/g16/AVX/g16/l1.exe "/scratch1/svicchi/G09-659831.pbs02/Gau-3570726.inp" -scrdir="/scratch1/svicchi/G09-659831.pbs02/"
 Entering Link 1 = /software/commercial/gaussian/g16/AVX/g16/l1.exe PID=   3570727.
  
 Copyright (c) 1988-2019, Gaussian, Inc.  All Rights Reserved.
  
 This is part of the Gaussian(R) 16 program.  It is based on
 the Gaussian(R) 09 system (copyright 2009, Gaussian, Inc.),
 the Gaussian(R) 03 system (copyright 2003, Gaussian, Inc.),
 the Gaussian(R) 98 system (copyright 1998, Gaussian, Inc.),
 the Gaussian(R) 94 system (copyright 1995, Gaussian, Inc.),
 the Gaussian 92(TM) system (copyright 1992, Gaussian, Inc.),
 the Gaussian 90(TM) system (copyright 1990, Gaussian, Inc.),
 the Gaussian 88(TM) system (copyright 1988, Gaussian, Inc.),
 the Gaussian 86(TM) system (copyright 1986, Carnegie Mellon
 University), and the Gaussian 82(TM) system (copyright 1983,
 Carnegie Mellon University). Gaussian is a federally registered
 trademark of Gaussian, Inc.
  
 This software contains proprietary and confidential information,
 including trade secrets, belonging to Gaussian, Inc.
  
 This software is provided under written license and may be
 used, copied, transmitted, or stored only in accord with that
 written license.
  
 The following legend is applicable only to US Government
 contracts under FAR:
  
                    RESTRICTED RIGHTS LEGEND
  
 Use, reproduction and disclosure by the US Government is
 subject to restrictions as set forth in subparagraphs (a)
 and (c) of the Commercial Computer Software - Restricted
 Rights clause in FAR 52.227-19.
  
 Gaussian, Inc.
 340 Quinnipiac St., Bldg. 40, Wallingford CT 06492
  
  
 ---------------------------------------------------------------
 Warning -- This program may not be used in any manner that
 competes with the business of Gaussian, Inc. or will provide
 assistance to any competitor of Gaussian, Inc.  The licensee
 of this program is prohibited from giving any competitor of
 Gaussian, Inc. access to this program.  By using this program,
 the user acknowledges that Gaussian, Inc. is engaged in the
 business of creating and licensing software in the field of
 computational chemistry and represents and warrants to the
 licensee that it is not a competitor of Gaussian, Inc. and that
 it will not use this program in any manner prohibited above.
 ---------------------------------------------------------------
  

 Cite this work as:
 Gaussian 16, Revision C.01,
 M. J. Frisch, G. W. Trucks, H. B. Schlegel, G. E. Scuseria, 
 M. A. Robb, J. R. Cheeseman, G. Scalmani, V. Barone, 
 G. A. Petersson, H. Nakatsuji, X. Li, M. Caricato, A. V. Marenich, 
 J. Bloino, B. G. Janesko, R. Gomperts, B. Mennucci, H. P. Hratchian, 
 J. V. Ortiz, A. F. Izmaylov, J. L. Sonnenberg, D. Williams-Young, 
 F. Ding, F. Lipparini, F. Egidi, J. Goings, B. Peng, A. Petrone, 
 T. Henderson, D. Ranasinghe, V. G. Zakrzewski, J. Gao, N. Rega, 
 G. Zheng, W. Liang, M. Hada, M. Ehara, K. Toyota, R. Fukuda, 
 J. Hasegawa, M. Ishida, T. Nakajima, Y. Honda, O. Kitao, H. Nakai, 
 T. Vreven, K. Throssell, J. A. Montgomery, Jr., J. E. Peralta, 
 F. Ogliaro, M. J. Bearpark, J. J. Heyd, E. N. Brothers, K. N. Kudin, 
 V. N. Staroverov, T. A. Keith, R. Kobayashi, J. Normand, 
 K. Raghavachari, A. P. Rendell, J. C. Burant, S. S. Iyengar, 
 J. Tomasi, M. Cossi, J. M. Millam, M. Klene, C. Adamo, R. Cammi, 
 J. W. Ochterski, R. L. Martin, K. Morokuma, O. Farkas, 
 J. B. Foresman, and D. J. Fox, Gaussian, Inc., Wallingford CT, 2019.
 
 ******************************************
 Gaussian 16:  ES64L-G16RevC.01  3-Jul-2019
                 2-Jun-2023 
 ******************************************
 %NProcShared=2
 Will use up to    2 processors via shared memory.
 %mem=55gb
 %chk=/scratch1/svicchi/G09-659831.pbs02/02-freq/indazolide-CO2_binding-site_inde
 x-0-freq.chk
 ----------------------------------------------------------------------
 #p freq=raman scale=0.967 pop=(nbo,full,hirshfeld) guess=read geom=all
 check b3lyp/6-311+G(d,p) int=grid=ultrafine EmpiricalDispersion=GD3BJ 
 SCRF=(Solvent=ethanol) scf=(xqc,intrep,maxconventionalcycle=350) nosym
 m
 ----------------------------------------------------------------------
 1/10=4,29=7,30=1,38=1,114=967000/1,3;
 2/12=2,15=1,40=1/2;
 3/5=4,6=6,7=111,11=2,14=-4,25=1,30=1,70=2201,71=2,72=4,74=-5,75=-5,116=-2,124=41,140=1/1,2,3;
 4/5=1/1;
 5/5=2,8=3,13=1,17=20,38=6,53=4,85=350,98=1/2,8;
 8/6=4,10=90,11=11/1;
 10/13=10,15=4,31=1/2;
 11/6=3,8=1,9=11,15=111,16=1,31=1/1,2,10;
 10/6=1,31=1/2;
 6/7=3,28=1,40=1,79=1/1,7;
 7/8=1,10=1,25=1,30=1/1,2,3,16;
 1/10=4,30=1/3;
 99//99;
 Leave Link    1 at Fri Jun  2 12:32:07 2023, MaxMem=  7381975040 cpu:               1.2 elap:               1.2
 (Enter /software/commercial/gaussian/g16/AVX/g16/l101.exe)
 Structure from the checkpoint file:  "/scratch1/svicchi/G09-659831.pbs02/02-freq/indazolide-CO2_binding-site_index-0-freq.chk"
 ---------------------------------------
 indazolide-CO2_binding-site_index-0.gjf
 ---------------------------------------
 Charge = -1 Multiplicity = 1
 No Z-Matrix found in chk file; cartesian coordinates used.
  N                                                -1.564350399559     -1.102353209364      0.051948998557
  N                                                -2.380445592667     -0.012221180503      0.165827112653
  C                                                -0.238700646373     -0.716640392722     -0.008201390261
  C                                                -0.230891593002      0.698876032373      0.073280477545
  C                                                 0.958949316654     -1.440994721413     -0.125956488128
  C                                                 0.980033536370      1.410243068351      0.037775428585
  C                                                -1.609103469132      1.054499754512      0.179958539709
  C                                                 2.140175170305     -0.716589827858     -0.158942592609
  C                                                 2.158354531996      0.694147748048     -0.078393278652
  H                                                 0.942269256277     -2.517946963604     -0.187241737242
  H                                                 0.986810677701      2.492377222008      0.099848166485
  H                                                -2.044947860798      2.039753350508      0.264679508844
  H                                                 3.080246417606     -1.249186965935     -0.249419293503
  H                                                 3.108152008351      1.215050009929     -0.108506945332
  C                                                -2.121560377096     -2.479900856046      0.002808230454
  O                                                -1.248860040532     -3.362388137592     -0.091435350990
  O                                                -3.356111936100     -2.558921930693      0.061039613885
 Recover connectivity data from disk.
 ITRead=  0  0  0  0  0  0  0  0  0  0  0  0  0  0  0  0  0
 MicOpt= -1 -1 -1 -1 -1 -1 -1 -1 -1 -1 -1 -1 -1 -1 -1 -1 -1
 NAtoms=     17 NQM=       17 NQMF=       0 NMMI=      0 NMMIF=      0
                NMic=       0 NMicF=      0.
                    Isotopes and Nuclear Properties:
 (Nuclear quadrupole moments (NQMom) in fm**2, nuclear magnetic moments (NMagM)
  in nuclear magnetons)

  Atom         1           2           3           4           5           6           7           8           9          10
 IAtWgt=          14          14          12          12          12          12          12          12          12           1
 AtmWgt=  14.0030740  14.0030740  12.0000000  12.0000000  12.0000000  12.0000000  12.0000000  12.0000000  12.0000000   1.0078250
 NucSpn=           2           2           0           0           0           0           0           0           0           1
 AtZEff=   4.5500000   4.5500000   3.6000000   3.6000000   3.6000000   3.6000000   3.6000000   3.6000000   3.6000000   1.0000000
 NQMom=    2.0440000   2.0440000   0.0000000   0.0000000   0.0000000   0.0000000   0.0000000   0.0000000   0.0000000   0.0000000
 NMagM=    0.4037610   0.4037610   0.0000000   0.0000000   0.0000000   0.0000000   0.0000000   0.0000000   0.0000000   2.7928460
 AtZNuc=   7.0000000   7.0000000   6.0000000   6.0000000   6.0000000   6.0000000   6.0000000   6.0000000   6.0000000   1.0000000

  Atom        11          12          13          14          15          16          17
 IAtWgt=           1           1           1           1          12          16          16
 AtmWgt=   1.0078250   1.0078250   1.0078250   1.0078250  12.0000000  15.9949146  15.9949146
 NucSpn=           1           1           1           1           0           0           0
 AtZEff=   1.0000000   1.0000000   1.0000000   1.0000000   3.6000000   5.6000000   5.6000000
 NQMom=    0.0000000   0.0000000   0.0000000   0.0000000   0.0000000   0.0000000   0.0000000
 NMagM=    2.7928460   2.7928460   2.7928460   2.7928460   0.0000000   0.0000000   0.0000000
 AtZNuc=   1.0000000   1.0000000   1.0000000   1.0000000   6.0000000   8.0000000   8.0000000
 Leave Link  101 at Fri Jun  2 12:32:08 2023, MaxMem=  7381975040 cpu:               0.2 elap:               0.5
 (Enter /software/commercial/gaussian/g16/AVX/g16/l103.exe)

 GradGradGradGradGradGradGradGradGradGradGradGradGradGradGradGradGradGrad
 Berny optimization.
 Initialization pass.
 Trust Radius=3.00D-01 FncErr=1.00D-07 GrdErr=1.00D-07 EigMax=2.50D+02 EigMin=1.00D-04
 Number of steps in this run=      2 maximum allowed number of steps=      2.
 GradGradGradGradGradGradGradGradGradGradGradGradGradGradGradGradGradGrad

 Leave Link  103 at Fri Jun  2 12:32:10 2023, MaxMem=  7381975040 cpu:               0.1 elap:               0.8
 (Enter /software/commercial/gaussian/g16/AVX/g16/l202.exe)
                          Input orientation:                          
 ---------------------------------------------------------------------
 Center     Atomic      Atomic             Coordinates (Angstroms)
 Number     Number       Type             X           Y           Z
 ---------------------------------------------------------------------
      1          7           0       -1.564350   -1.102353    0.051949
      2          7           0       -2.380446   -0.012221    0.165827
      3          6           0       -0.238701   -0.716640   -0.008201
      4          6           0       -0.230892    0.698876    0.073280
      5          6           0        0.958949   -1.440995   -0.125956
      6          6           0        0.980034    1.410243    0.037775
      7          6           0       -1.609103    1.054500    0.179959
      8          6           0        2.140175   -0.716590   -0.158943
      9          6           0        2.158355    0.694148   -0.078393
     10          1           0        0.942269   -2.517947   -0.187242
     11          1           0        0.986811    2.492377    0.099848
     12          1           0       -2.044948    2.039753    0.264680
     13          1           0        3.080246   -1.249187   -0.249419
     14          1           0        3.108152    1.215050   -0.108507
     15          6           0       -2.121560   -2.479901    0.002808
     16          8           0       -1.248860   -3.362388   -0.091435
     17          8           0       -3.356112   -2.558922    0.061040
 ---------------------------------------------------------------------
                    Distance matrix (angstroms):
                    1          2          3          4          5
     1  N    0.000000
     2  N    1.366517   0.000000
     3  C    1.381933   2.261319   0.000000
     4  C    2.241204   2.266011   1.417881   0.000000
     5  C    2.552130   3.643911   1.404607   2.456515   0.000000
     6  C    3.575924   3.651386   2.451746   1.404864   2.856013
     7  C    2.161112   1.316458   2.247297   1.427346   3.593880
     8  C    3.730523   4.586679   2.383647   2.771178   1.386054
     9  C    4.135570   4.599925   2.782287   2.394060   2.449422
    10  H    2.888643   4.176572   2.161354   3.433967   1.078824
    11  H    4.408265   4.197116   3.436764   2.167983   3.939947
    12  H    3.185759   2.081569   3.306766   2.263931   4.614282
    13  H    4.656679   5.614416   3.370045   3.855220   2.133526
    14  H    5.218082   5.630822   3.865606   3.383592   3.416716
    15  C    1.486787   2.486572   2.579606   3.699218   3.253528
    16  O    2.286449   3.545460   2.833254   4.190138   2.927006
    17  O    2.309131   2.729210   3.621747   4.514466   4.461444
                    6          7          8          9         10
     6  C    0.000000
     7  C    2.617327   0.000000
     8  C    2.430647   4.160373   0.000000
     9  C    1.383737   3.793460   1.413152   0.000000
    10  H    3.934811   4.405305   2.163485   3.436315   0.000000
    11  H    1.083934   2.968616   3.419750   2.153582   5.018740
    12  H    3.098109   1.080677   5.029129   4.426749   5.468120
    13  H    3.400874   5.242265   1.084242   2.157703   2.486878
    14  H    2.142052   4.728793   2.161193   1.083679   4.316540
    15  C    4.975372   3.575749   4.614956   5.329057   3.069954
    16  O    5.269029   4.439857   4.300043   5.297619   2.350172
    17  O    5.878518   4.015345   5.801013   6.404002   4.305741
                   11         12         13         14         15
    11  H    0.000000
    12  H    3.069788   0.000000
    13  H    4.301600   6.111386   0.000000
    14  H    2.484968   5.232002   2.468420   0.000000
    15  C    5.864720   4.527883   5.351361   6.404291   0.000000
    16  O    6.270015   5.472084   4.819932   6.319556   1.244697
    17  O    6.661689   4.786276   6.575599   7.487210   1.238448
                   16         17
    16  O    0.000000
    17  O    2.260380   0.000000
 Symmetry turned off by external request.
 Stoichiometry    C8H5N2O2(1-)
 Framework group  C1[X(C8H5N2O2)]
 Deg. of freedom    45
 Full point group                 C1      NOp   1
 Rotational constants (GHZ):           2.0565643           0.7855270           0.5684215
 Leave Link  202 at Fri Jun  2 12:32:11 2023, MaxMem=  7381975040 cpu:               0.0 elap:               0.6
 (Enter /software/commercial/gaussian/g16/AVX/g16/l301.exe)
 Standard basis: 6-311+G(d,p) (5D, 7F)
 Ernie: Thresh=  0.10000D-02 Tol=  0.10000D-05 Strict=F.
   294 basis functions,   472 primitive gaussians,   306 cartesian basis functions
    42 alpha electrons       42 beta electrons
       nuclear repulsion energy       643.8853369415 Hartrees.
 IExCor=  402 DFT=T Ex+Corr=B3LYP ExCW=0 ScaHFX=  0.200000
 ScaDFX=  0.800000  0.720000  1.000000  0.810000 ScalE2=  1.000000  1.000000
 IRadAn=      5 IRanWt=     -1 IRanGd=            0 ICorTp=0 IEmpDi=141
 NAtoms=   17 NActive=   17 NUniq=   17 SFac= 1.00D+00 NAtFMM=   60 NAOKFM=F Big=F
 Integral buffers will be    131072 words long.
 Raffenetti 2 integral format.
 Two-electron integral symmetry is turned off.
 R6Disp:  Grimme-D3(BJ) Dispersion energy=       -0.0349170247 Hartrees.
 Nuclear repulsion after empirical dispersion term =      643.8504199167 Hartrees.
 Force inversion solution in PCM.
 ------------------------------------------------------------------------------
 Polarizable Continuum Model (PCM)
 =================================
 Model                : PCM.
 Atomic radii         : UFF (Universal Force Field).
 Polarization charges : Total charges.
 Charge compensation  : None.
 Solution method      : Matrix inversion.
 Cavity type          : Scaled VdW (van der Waals Surface) (Alpha=1.100).
 Cavity algorithm     : GePol (No added spheres)
                        Default sphere list used, NSphG=   17.
                        Lebedev-Laikov grids with approx.  5.0 points / Ang**2.
                        Smoothing algorithm: York/Karplus (Gamma=1.0000).
                        Polarization charges: spherical gaussians, with
                                              point-specific exponents (IZeta= 3).
                        Self-potential: point-specific (ISelfS= 7).
                        Self-field    : sphere-specific E.n sum rule (ISelfD= 2).
 1st derivatives      : Analytical E(r).r(x)/FMM algorithm (CHGder, D1EAlg=3).
                        Cavity 1st derivative terms included.
 2nd derivatives      : Analytical E(r).r(xy)/FMM algorithm (CHGder, D2EAlg=3).
                        Cavity 2nd derivative terms included.
 Solvent              : Ethanol, Eps=  24.852000 Eps(inf)=   1.852593
 ------------------------------------------------------------------------------
 Spheres list:
 ISph  on   Nord     Re0    Alpha      Xe            Ye            Ze
    1   N      1    1.8300  1.100     -1.564350     -1.102353      0.051949
    2   N      2    1.8300  1.100     -2.380446     -0.012221      0.165827
    3   C      3    1.9255  1.100     -0.238701     -0.716640     -0.008201
    4   C      4    1.9255  1.100     -0.230892      0.698876      0.073280
    5   C      5    1.9255  1.100      0.958949     -1.440995     -0.125956
    6   C      6    1.9255  1.100      0.980034      1.410243      0.037775
    7   C      7    1.9255  1.100     -1.609103      1.054500      0.179959
    8   C      8    1.9255  1.100      2.140175     -0.716590     -0.158943
    9   C      9    1.9255  1.100      2.158355      0.694148     -0.078393
   10   H     10    1.4430  1.100      0.942269     -2.517947     -0.187242
   11   H     11    1.4430  1.100      0.986811      2.492377      0.099848
   12   H     12    1.4430  1.100     -2.044948      2.039753      0.264680
   13   H     13    1.4430  1.100      3.080246     -1.249187     -0.249419
   14   H     14    1.4430  1.100      3.108152      1.215050     -0.108507
   15   C     15    1.9255  1.100     -2.121560     -2.479901      0.002808
   16   O     16    1.7500  1.100     -1.248860     -3.362388     -0.091435
   17   O     17    1.7500  1.100     -3.356112     -2.558922      0.061040
 ------------------------------------------------------------------------------
 GePol: Number of generator spheres                  =      17
 GePol: Total number of spheres                      =      17
 GePol: Number of exposed spheres                    =      17 (100.00%)
 GePol: Number of points                             =    1592
 GePol: Average weight of points                     =       0.13
 GePol: Minimum weight of points                     =   0.21D-11
 GePol: Maximum weight of points                     =    0.20577
 GePol: Number of points with low weight             =      94
 GePol: Fraction of low-weight points (<1% of avg)   =       5.90%
 GePol: Cavity surface area                          =    203.868 Ang**2
 GePol: Cavity volume                                =    207.960 Ang**3
 Leave Link  301 at Fri Jun  2 12:32:14 2023, MaxMem=  7381975040 cpu:               1.0 elap:               1.5
 (Enter /software/commercial/gaussian/g16/AVX/g16/l302.exe)
 NPDir=0 NMtPBC=     1 NCelOv=     1 NCel=       1 NClECP=     1 NCelD=      1
         NCelK=      1 NCelE2=     1 NClLst=     1 CellRange=     0.0.
 One-electron integrals computed using PRISM.
 NBasis=   294 RedAO= T EigKep=  1.28D-06  NBF=   294
 NBsUse=   294 1.00D-06 EigRej= -1.00D+00 NBFU=   294
 Precomputing XC quadrature grid using
 IXCGrd= 4 IRadAn=           5 IRanWt=          -1 IRanGd=           0 AccXCQ= 0.00D+00.
 Generated NRdTot=       0 NPtTot=           0 NUsed=           0 NTot=          32
 NSgBfM=   306   306   306   306   306 MxSgAt=    17 MxSgA2=    17.
 Leave Link  302 at Fri Jun  2 12:32:16 2023, MaxMem=  7381975040 cpu:               1.2 elap:               1.2
 (Enter /software/commercial/gaussian/g16/AVX/g16/l303.exe)
 DipDrv:  MaxL=1.
 Leave Link  303 at Fri Jun  2 12:32:17 2023, MaxMem=  7381975040 cpu:               0.1 elap:               0.5
 (Enter /software/commercial/gaussian/g16/AVX/g16/l401.exe)
 Initial guess from the checkpoint file:  "/scratch1/svicchi/G09-659831.pbs02/02-freq/indazolide-CO2_binding-site_index-0-freq.chk"
 B after Tr=     0.000000    0.000000    0.000000
         Rot=    1.000000    0.000000    0.000000    0.000000 Ang=   0.00 deg.
 Guess basis will be translated and rotated to current coordinates.
 JPrj=2 DoOrth=T DoCkMO=T.
 Leave Link  401 at Fri Jun  2 12:32:20 2023, MaxMem=  7381975040 cpu:               1.4 elap:               2.0
 (Enter /software/commercial/gaussian/g16/AVX/g16/l502.exe)
 Keep R1 ints in memory in canonical form, NReq=954751621.
 FoFCou: FMM=F IPFlag=           0 FMFlag=           0 FMFlg1=           0
         NFxFlg=           0 DoJE=F BraDBF=F KetDBF=F FulRan=T
         wScrn=  0.000000 ICntrl=       600 IOpCl=  0 I1Cent=           0 NGrid=           0
         NMat0=    1 NMatS0=  43365 NMatT0=    0 NMatD0=    1 NMtDS0=    0 NMtDT0=    0
 Symmetry not used in FoFCou.
 Two-electron integral symmetry not used.
 Closed shell SCF:
 Using DIIS extrapolation, IDIIS=  1040.
 NGot=  7381975040 LenX=  6441500057 LenY=  6441405980
 Requested convergence on RMS density matrix=1.00D-08 within 350 cycles.
 Requested convergence on MAX density matrix=1.00D-06.
 Requested convergence on             energy=1.00D-06.
 No special actions if energy rises.

 Cycle   1  Pass 1  IDiag  1:
 Inv3:  Mode=1 IEnd=     7603392.
 Iteration    1 A*A^-1 deviation from unit magnitude is 4.77D-15 for   1577.
 Iteration    1 A*A^-1 deviation from orthogonality  is 1.53D-15 for   1334    223.
 Iteration    1 A^-1*A deviation from unit magnitude is 4.55D-15 for   1577.
 Iteration    1 A^-1*A deviation from orthogonality  is 1.64D-15 for   1343    233.
 E= -568.169792266532    
 DIIS: error= 1.69D-08 at cycle   1 NSaved=   1.
 NSaved= 1 IEnMin= 1 EnMin= -568.169792266532     IErMin= 1 ErrMin= 1.69D-08
 ErrMax= 1.69D-08  0.00D+00 EMaxC= 1.00D-01 BMatC= 5.26D-14 BMatP= 5.26D-14
 IDIUse=1 WtCom= 1.00D+00 WtEn= 0.00D+00
 Coeff-Com:  0.100D+01
 Coeff:      0.100D+01
 Gap=     0.186 Goal=   None    Shift=    0.000
 RMSDP=7.92D-09 MaxDP=6.44D-07              OVMax= 2.35D-07

 Error on total polarization charges =  0.01984
 SCF Done:  E(RB3LYP) =  -568.169792267     A.U. after    1 cycles
            NFock=  1  Conv=0.79D-08     -V/T= 2.0040
 KE= 5.658999984054D+02 PE=-2.628852517465D+03 EE= 8.509323068767D+02
 Leave Link  502 at Fri Jun  2 12:32:59 2023, MaxMem=  7381975040 cpu:              67.5 elap:              37.8
 (Enter /software/commercial/gaussian/g16/AVX/g16/l508.exe)
 QCSCF skips out because SCF is already converged.
 Leave Link  508 at Fri Jun  2 12:33:01 2023, MaxMem=  7381975040 cpu:               0.0 elap:               0.6
 (Enter /software/commercial/gaussian/g16/AVX/g16/l801.exe)
 DoSCS=F DFT=T ScalE2(SS,OS)=  1.000000  1.000000
 Range of M.O.s used for correlation:     1   294
 NBasis=   294 NAE=    42 NBE=    42 NFC=     0 NFV=     0
 NROrb=    294 NOA=    42 NOB=    42 NVA=   252 NVB=   252

 **** Warning!!: The largest alpha MO coefficient is  0.19817776D+03

 Leave Link  801 at Fri Jun  2 12:33:03 2023, MaxMem=  7381975040 cpu:               0.3 elap:               1.1
 (Enter /software/commercial/gaussian/g16/AVX/g16/l1002.exe)
 Minotr:  Closed shell wavefunction.
 NEqPCM:  Using equilibrium solvation (IEInf=0, Eps=  24.8520, EpsInf=   1.8526)
          Direct CPHF calculation.
          Differentiating once with respect to electric field.
                with respect to dipole field.
          Electric field/nuclear overlap derivatives assumed to be zero.
          Requested convergence is 1.0D-08 RMS, and 1.0D-07 maximum.
          Secondary convergence is 1.0D-12 RMS, and 1.0D-12 maximum.
          NewPWx=F KeepS1=T KeepF1=T KeepIn=T MapXYZ=F SortEE=F KeepMc=T.
         5228 words used for storage of precomputed grid.
 Keep R1 ints in memory in canonical form, NReq=954758972.
 FoFCou: FMM=F IPFlag=           0 FMFlag=           0 FMFlg1=           0
         NFxFlg=           0 DoJE=F BraDBF=F KetDBF=F FulRan=T
         wScrn=  0.000000 ICntrl=       600 IOpCl=  0 I1Cent=           0 NGrid=           0
         NMat0=    1 NMatS0=  43365 NMatT0=    0 NMatD0=    1 NMtDS0=    0 NMtDT0=    0
 Symmetry not used in FoFCou.
 Two-electron integral symmetry not used.
          MDV=    7381975040 using IRadAn=       1.
          Solving linear equations simultaneously, MaxMat=       0.
          There are     3 degrees of freedom in the 1st order CPHF.  IDoFFX=0 NUNeed=     3.
      3 vectors produced by pass  0 Test12= 3.53D-13 3.33D-08 XBig12= 2.14D+02 8.57D+00.
 AX will form     3 AO Fock derivatives at one time.
      3 vectors produced by pass  1 Test12= 3.53D-13 3.33D-08 XBig12= 8.82D+01 2.00D+00.
      3 vectors produced by pass  2 Test12= 3.53D-13 3.33D-08 XBig12= 1.60D+01 9.58D-01.
      3 vectors produced by pass  3 Test12= 3.53D-13 3.33D-08 XBig12= 9.25D+00 6.83D-01.
      3 vectors produced by pass  4 Test12= 3.53D-13 3.33D-08 XBig12= 1.01D+00 1.88D-01.
      3 vectors produced by pass  5 Test12= 3.53D-13 3.33D-08 XBig12= 2.29D-01 1.56D-01.
      3 vectors produced by pass  6 Test12= 3.53D-13 3.33D-08 XBig12= 4.98D-02 5.65D-02.
      3 vectors produced by pass  7 Test12= 3.53D-13 3.33D-08 XBig12= 1.29D-02 3.15D-02.
      3 vectors produced by pass  8 Test12= 3.53D-13 3.33D-08 XBig12= 1.38D-03 8.05D-03.
      3 vectors produced by pass  9 Test12= 3.53D-13 3.33D-08 XBig12= 3.39D-04 3.13D-03.
      3 vectors produced by pass 10 Test12= 3.53D-13 3.33D-08 XBig12= 3.91D-05 1.53D-03.
      3 vectors produced by pass 11 Test12= 3.53D-13 3.33D-08 XBig12= 1.96D-06 3.54D-04.
      3 vectors produced by pass 12 Test12= 3.53D-13 3.33D-08 XBig12= 6.37D-08 5.88D-05.
      3 vectors produced by pass 13 Test12= 3.53D-13 3.33D-08 XBig12= 1.81D-09 6.52D-06.
      2 vectors produced by pass 14 Test12= 3.53D-13 3.33D-08 XBig12= 5.94D-11 1.05D-06.
      2 vectors produced by pass 15 Test12= 3.53D-13 3.33D-08 XBig12= 1.92D-12 2.35D-07.
 InvSVY:  IOpt=1 It=  1 EMax= 5.33D-15
 Solved reduced A of dimension    46 with     3 vectors.
 End of Minotr F.D. properties file   721 does not exist.
 End of Minotr F.D. properties file   722 does not exist.
 End of Minotr F.D. properties file   788 does not exist.
 Leave Link 1002 at Fri Jun  2 12:36:32 2023, MaxMem=  7381975040 cpu:             395.1 elap:             207.9
 (Enter /software/commercial/gaussian/g16/AVX/g16/l1101.exe)
 Using compressed storage, NAtomX=    17.
 Will process     18 centers per pass.
 R6Disp: Adding Grimme-D3(BJ) dispersion energy 1st derivatives to the gradient.
 Leave Link 1101 at Fri Jun  2 12:36:35 2023, MaxMem=  7381975040 cpu:               1.6 elap:               2.1
 (Enter /software/commercial/gaussian/g16/AVX/g16/l1102.exe)
 Symmetrizing basis deriv contribution to polar:
 IMax=3 JMax=2 DiffMx= 0.00D+00
 Leave Link 1102 at Fri Jun  2 12:36:36 2023, MaxMem=  7381975040 cpu:               0.2 elap:               0.3
 (Enter /software/commercial/gaussian/g16/AVX/g16/l1110.exe)
 Forming Gx(P) for the SCF density, NAtomX=    17.
 Integral derivatives from FoFJK, PRISM(SPDF).
 Do as many integral derivatives as possible in FoFJK.
 G2DrvN: MDV=    7381973187.
 G2DrvN: will do    18 centers at a time, making    1 passes.
 PxScal for G2LodP:  IOpCl= 0 ISclPx=1 IMOff=     1 NMtTot=     4 NTT=   43365 ScalPx= 6.06D+01
 Calling FoFCou, ICntrl=  3107 FMM=F I1Cent=   0 AccDes= 0.00D+00.
 FoFJK:  IHMeth= 1 ICntrl=    3107 DoSepK=F KAlg= 0 I1Cent=           0 FoldK=F
 IRaf=         0 NMat=       1 IRICut=       1 DoRegI=T DoRafI=F ISym2E= 0 IDoP0=0 IntGTp=1.
 FoFCou: FMM=F IPFlag=           0 FMFlag=      100000 FMFlg1=           0
         NFxFlg=           0 DoJE=F BraDBF=F KetDBF=F FulRan=T
         wScrn=  0.000000 ICntrl=      3107 IOpCl=  0 I1Cent=           0 NGrid=           0
         NMat0=    1 NMatS0=      1 NMatT0=    0 NMatD0=    4 NMtDS0=    3 NMtDT0=    0
 Symmetry not used in FoFCou.
 PxScal for G2LodP:  IOpCl= 0 ISclPx=0 IMOff=     1 NMtTot=     4 NTT=   43365 ScalPx= 1.00D+00
 NEqPCM:  Using equilibrium solvation (IEInf=0, Eps=  24.8520, EpsInf=   1.8526)
 G2PCM: DoFxE=T DoFxN=T DoGrad=T DoDP/DQ/DG/TGxP=TFFF NFrqRd=   0 IEInf=0 SqF1=F DoCFld=F IF1Alg=4.
 GePol: Maximum number of non-zero 1st derivatives   =     211
 End of G2Drv F.D. properties file   721 does not exist.
 End of G2Drv F.D. properties file   722 does not exist.
 End of G2Drv F.D. properties file   788 does not exist.
 Leave Link 1110 at Fri Jun  2 12:44:25 2023, MaxMem=  7381975040 cpu:             922.9 elap:             467.9
 (Enter /software/commercial/gaussian/g16/AVX/g16/l1002.exe)
 Minotr:  Closed shell wavefunction.
          IDoAtm=11111111111111111
 NEqPCM:  Using equilibrium solvation (IEInf=0, Eps=  24.8520, EpsInf=   1.8526)
          Direct CPHF calculation.
          Differentiating once with respect to electric field.
                with respect to dipole field.
          Differentiating once with respect to nuclear coordinates.
          Requested convergence is 1.0D-08 RMS, and 1.0D-07 maximum.
          Secondary convergence is 1.0D-12 RMS, and 1.0D-12 maximum.
          NewPWx=T KeepS1=F KeepF1=F KeepIn=T MapXYZ=F SortEE=F KeepMc=T.
         5228 words used for storage of precomputed grid.
 Keep R1 ints in memory in canonical form, NReq=954759363.
 FoFCou: FMM=F IPFlag=           0 FMFlag=           0 FMFlg1=           0
         NFxFlg=           0 DoJE=F BraDBF=F KetDBF=F FulRan=T
         wScrn=  0.000000 ICntrl=       600 IOpCl=  0 I1Cent=           0 NGrid=           0
         NMat0=    1 NMatS0=  43365 NMatT0=    0 NMatD0=    1 NMtDS0=    0 NMtDT0=    0
 Symmetry not used in FoFCou.
 Two-electron integral symmetry not used.
          MDV=    7381975040 using IRadAn=       1.
          Solving linear equations simultaneously, MaxMat=       0.
          There are    54 degrees of freedom in the 1st order CPHF.  IDoFFX=5 NUNeed=    54.
 Will reuse    3 saved solutions.
     48 vectors produced by pass  0 Test12= 1.96D-14 1.85D-09 XBig12= 2.89D-01 1.28D-01.
 AX will form    48 AO Fock derivatives at one time.
     48 vectors produced by pass  1 Test12= 1.96D-14 1.85D-09 XBig12= 5.44D-02 5.61D-02.
     48 vectors produced by pass  2 Test12= 1.96D-14 1.85D-09 XBig12= 4.79D-04 4.27D-03.
     48 vectors produced by pass  3 Test12= 1.96D-14 1.85D-09 XBig12= 3.54D-06 3.41D-04.
     48 vectors produced by pass  4 Test12= 1.96D-14 1.85D-09 XBig12= 1.65D-08 1.44D-05.
     48 vectors produced by pass  5 Test12= 1.96D-14 1.85D-09 XBig12= 3.38D-11 7.49D-07.
     26 vectors produced by pass  6 Test12= 1.96D-14 1.85D-09 XBig12= 6.42D-14 3.10D-08.
 InvSVY:  IOpt=1 It=  1 EMax= 5.55D-16
 Solved reduced A of dimension   314 with    54 vectors.
 FullF1:  Do perturbations      1 to       3.
 Isotropic polarizability for W=    0.000000      162.03 Bohr**3.
 FullF1:  Do perturbations      1 to       6.
 End of Minotr F.D. properties file   721 does not exist.
 End of Minotr F.D. properties file   722 does not exist.
 End of Minotr F.D. properties file   788 does not exist.
 Leave Link 1002 at Fri Jun  2 12:53:11 2023, MaxMem=  7381975040 cpu:            1015.5 elap:             524.8
 (Enter /software/commercial/gaussian/g16/AVX/g16/l601.exe)
 Copying SCF densities to generalized density rwf, IOpCl= 0 IROHF=0.

 **********************************************************************

            Population analysis using the SCF Density.

 **********************************************************************

 Alpha  occ. eigenvalues --  -19.06556 -19.06529 -14.37346 -14.33731 -10.28699
 Alpha  occ. eigenvalues --  -10.21047 -10.19544 -10.18047 -10.17766 -10.17663
 Alpha  occ. eigenvalues --  -10.17455 -10.17301  -1.06188  -1.01652  -0.95510
 Alpha  occ. eigenvalues --   -0.85631  -0.82125  -0.75881  -0.74429  -0.63418
 Alpha  occ. eigenvalues --   -0.62115  -0.60170  -0.55029  -0.50103  -0.47724
 Alpha  occ. eigenvalues --   -0.46298  -0.46013  -0.44806  -0.43164  -0.42134
 Alpha  occ. eigenvalues --   -0.40957  -0.39565  -0.37179  -0.35037  -0.34687
 Alpha  occ. eigenvalues --   -0.29711  -0.29257  -0.27071  -0.26043  -0.24624
 Alpha  occ. eigenvalues --   -0.24215  -0.22530
 Alpha virt. eigenvalues --   -0.03927  -0.00241   0.01048   0.02332   0.02644
 Alpha virt. eigenvalues --    0.02861   0.04340   0.04834   0.05085   0.05178
 Alpha virt. eigenvalues --    0.07254   0.07283   0.07418   0.08008   0.08957
 Alpha virt. eigenvalues --    0.09033   0.10539   0.10981   0.11362   0.12477
 Alpha virt. eigenvalues --    0.12957   0.14716   0.14755   0.15333   0.16312
 Alpha virt. eigenvalues --    0.16491   0.17480   0.17723   0.18159   0.18361
 Alpha virt. eigenvalues --    0.19387   0.19415   0.19698   0.20644   0.21525
 Alpha virt. eigenvalues --    0.21703   0.22210   0.22384   0.22859   0.23697
 Alpha virt. eigenvalues --    0.23810   0.24713   0.25207   0.25626   0.26139
 Alpha virt. eigenvalues --    0.26368   0.26668   0.26962   0.27621   0.28900
 Alpha virt. eigenvalues --    0.30003   0.30259   0.30421   0.31022   0.32021
 Alpha virt. eigenvalues --    0.32305   0.33530   0.34443   0.35385   0.36001
 Alpha virt. eigenvalues --    0.39767   0.40544   0.41533   0.43640   0.44075
 Alpha virt. eigenvalues --    0.44252   0.47526   0.49068   0.50740   0.52529
 Alpha virt. eigenvalues --    0.53677   0.54006   0.55869   0.56583   0.56833
 Alpha virt. eigenvalues --    0.58662   0.59131   0.59832   0.60696   0.62053
 Alpha virt. eigenvalues --    0.64672   0.65711   0.65811   0.67538   0.69855
 Alpha virt. eigenvalues --    0.70317   0.70443   0.71394   0.73663   0.75744
 Alpha virt. eigenvalues --    0.77343   0.79297   0.81189   0.83196   0.83686
 Alpha virt. eigenvalues --    0.84418   0.86470   0.87004   0.87775   0.88292
 Alpha virt. eigenvalues --    0.88768   0.89801   0.91331   0.94183   0.95515
 Alpha virt. eigenvalues --    0.96488   0.98459   0.99491   1.01021   1.02166
 Alpha virt. eigenvalues --    1.04651   1.05360   1.07243   1.08933   1.09103
 Alpha virt. eigenvalues --    1.10104   1.13943   1.16217   1.16712   1.18646
 Alpha virt. eigenvalues --    1.19550   1.22668   1.23241   1.25806   1.26925
 Alpha virt. eigenvalues --    1.28090   1.31827   1.35340   1.37882   1.41217
 Alpha virt. eigenvalues --    1.41343   1.48066   1.49796   1.52289   1.52909
 Alpha virt. eigenvalues --    1.56116   1.56635   1.58189   1.59459   1.60836
 Alpha virt. eigenvalues --    1.64978   1.68259   1.71449   1.71931   1.73663
 Alpha virt. eigenvalues --    1.74899   1.74948   1.78362   1.78462   1.83524
 Alpha virt. eigenvalues --    1.84313   1.85936   1.86415   1.89530   1.89937
 Alpha virt. eigenvalues --    1.92142   1.95122   1.97413   1.97803   1.98861
 Alpha virt. eigenvalues --    2.01032   2.04443   2.07037   2.11270   2.11306
 Alpha virt. eigenvalues --    2.13456   2.20461   2.22887   2.26395   2.28087
 Alpha virt. eigenvalues --    2.30633   2.39238   2.41455   2.42496   2.43993
 Alpha virt. eigenvalues --    2.48219   2.51288   2.56578   2.62872   2.64090
 Alpha virt. eigenvalues --    2.66272   2.69344   2.69569   2.70161   2.73208
 Alpha virt. eigenvalues --    2.75319   2.76264   2.76877   2.78418   2.78853
 Alpha virt. eigenvalues --    2.80234   2.82213   2.85630   2.85933   2.87522
 Alpha virt. eigenvalues --    2.90059   2.91627   2.92778   2.94032   2.95016
 Alpha virt. eigenvalues --    2.98526   3.01177   3.05681   3.08047   3.12685
 Alpha virt. eigenvalues --    3.21077   3.30563   3.31009   3.31860   3.35587
 Alpha virt. eigenvalues --    3.39508   3.42144   3.43891   3.47614   3.51061
 Alpha virt. eigenvalues --    3.56999   3.61000   3.63825   3.67991   3.70711
 Alpha virt. eigenvalues --    3.81478   3.88164   3.93106   3.97623   4.03218
 Alpha virt. eigenvalues --    4.07194   4.09777   4.20002   4.21841   4.29879
 Alpha virt. eigenvalues --    4.61502   4.83907   4.94267   5.05159   5.08114
 Alpha virt. eigenvalues --    5.18068   5.23931   5.44138   5.73978   5.91358
 Alpha virt. eigenvalues --   23.62795  23.88023  23.94045  23.94438  24.00357
 Alpha virt. eigenvalues --   24.07226  24.11293  24.19289  35.55522  35.57312
 Alpha virt. eigenvalues --   49.97755  50.08002
     Molecular Orbital Coefficients:
                           1         2         3         4         5
                           O         O         O         O         O
     Eigenvalues --   -19.06556 -19.06529 -14.37346 -14.33731 -10.28699
   1 1   N  1S         -0.00000  -0.00000   0.55738  -0.00162  -0.00002
   2        2S          0.00003   0.00002   0.46568  -0.00136  -0.00006
   3        2PX        -0.00005  -0.00007  -0.00019  -0.00018  -0.00008
   4        2PY        -0.00010  -0.00011   0.00039   0.00023  -0.00012
   5        2PZ        -0.00000  -0.00000   0.00003   0.00002  -0.00000
   6        3S         -0.00008   0.00007   0.01692   0.00007   0.00039
   7        3PX         0.00012   0.00038   0.00093   0.00031   0.00006
   8        3PY         0.00040   0.00040   0.00020  -0.00040  -0.00022
   9        3PZ         0.00002   0.00000  -0.00005  -0.00004  -0.00002
  10        4S         -0.00062  -0.00150  -0.02626   0.00131   0.00144
  11        4PX         0.00248  -0.00315  -0.00622  -0.00291   0.00038
  12        4PY        -0.00091   0.00097  -0.00192   0.00305   0.00238
  13        4PZ        -0.00019   0.00024   0.00028   0.00036   0.00012
  14        5S         -0.02102   0.01832   0.02801  -0.01739   0.01455
  15        5PX         0.01121  -0.01280  -0.01337  -0.00526  -0.00544
  16        5PY        -0.00079   0.02038   0.01476  -0.00066  -0.00635
  17        5PZ        -0.00072   0.00195   0.00168   0.00028  -0.00005
  18        6D 0        0.00005   0.00005  -0.00023   0.00009   0.00018
  19        6D+1       -0.00001  -0.00001  -0.00002   0.00002  -0.00001
  20        6D-1       -0.00000  -0.00001   0.00001  -0.00003  -0.00002
  21        6D+2        0.00010   0.00015   0.00008   0.00006   0.00022
  22        6D-2       -0.00014  -0.00011   0.00011   0.00029  -0.00016
  23 2   N  1S         -0.00000  -0.00000   0.00161   0.55738   0.00000
  24        2S          0.00002   0.00000   0.00135   0.46581   0.00002
  25        2PX        -0.00001  -0.00001   0.00013   0.00171  -0.00001
  26        2PY        -0.00004  -0.00005  -0.00020  -0.00037  -0.00003
  27        2PZ        -0.00000  -0.00000  -0.00002  -0.00013  -0.00000
  28        3S         -0.00021   0.00007   0.00021   0.01616  -0.00011
  29        3PX         0.00002   0.00004  -0.00007   0.00065   0.00000
  30        3PY         0.00010   0.00020   0.00023   0.00104   0.00017
  31        3PZ         0.00001   0.00001   0.00002   0.00002   0.00001
  32        4S          0.00274  -0.00203   0.00124  -0.01985  -0.00074
  33        4PX         0.00096  -0.00076   0.00085  -0.00445  -0.00067
  34        4PY        -0.00058   0.00016  -0.00001   0.00004  -0.00015
  35        4PZ        -0.00010   0.00006  -0.00005   0.00028   0.00003
  36        5S          0.01612  -0.03422  -0.03472   0.01651  -0.00971
  37        5PX         0.00278  -0.00469  -0.00686   0.00578  -0.00047
  38        5PY        -0.00328   0.00642   0.00723  -0.00365   0.00601
  39        5PZ        -0.00035   0.00069   0.00084  -0.00058   0.00040
  40        6D 0       -0.00001   0.00002   0.00016  -0.00025   0.00002
  41        6D+1       -0.00000   0.00000   0.00003   0.00001   0.00000
  42        6D-1        0.00000  -0.00001  -0.00004   0.00001   0.00000
  43        6D+2       -0.00001   0.00005   0.00008  -0.00024  -0.00001
  44        6D-2       -0.00000   0.00001   0.00038   0.00043  -0.00002
  45 3   C  1S         -0.00000  -0.00000   0.00001  -0.00001  -0.00002
  46        2S          0.00001   0.00001   0.00002   0.00005  -0.00001
  47        2PX        -0.00008   0.00003  -0.00047  -0.00003  -0.00003
  48        2PY        -0.00009  -0.00005  -0.00021   0.00002  -0.00007
  49        2PZ        -0.00000  -0.00000   0.00002   0.00000  -0.00000
  50        3S          0.00004  -0.00006   0.00055  -0.00065   0.00000
  51        3PX         0.00042  -0.00019   0.00128   0.00044   0.00022
  52        3PY         0.00046   0.00015   0.00071  -0.00023   0.00040
  53        3PZ         0.00000   0.00002  -0.00004  -0.00004   0.00001
  54        4S         -0.00450   0.00443   0.00307   0.00739  -0.00326
  55        4PX         0.00009  -0.00094  -0.02324  -0.00468   0.00321
  56        4PY        -0.00396  -0.00178  -0.00237   0.00287  -0.00806
  57        4PZ        -0.00025  -0.00003   0.00132   0.00047  -0.00068
  58        5S         -0.00945   0.04519  -0.03490   0.10770   0.05144
  59        5PX        -0.04362   0.00350   0.01293   0.02341  -0.03826
  60        5PY         0.00725  -0.03527  -0.03310  -0.01128   0.10825
  61        5PZ         0.00311  -0.00227  -0.00272  -0.00212   0.00868
  62        6D 0        0.00004  -0.00001   0.00014  -0.00020   0.00002
  63        6D+1       -0.00000  -0.00001   0.00005  -0.00003  -0.00000
  64        6D-1        0.00001  -0.00000   0.00006   0.00003   0.00000
  65        6D+2       -0.00001   0.00004  -0.00082  -0.00001  -0.00001
  66        6D-2       -0.00013  -0.00001  -0.00036  -0.00019  -0.00009
  67 4   C  1S         -0.00000  -0.00000  -0.00001  -0.00001  -0.00001
  68        2S          0.00001   0.00001   0.00006   0.00006   0.00002
  69        2PX        -0.00001   0.00001   0.00004  -0.00009   0.00000
  70        2PY        -0.00001  -0.00001  -0.00007   0.00007  -0.00002
  71        2PZ        -0.00000  -0.00000  -0.00001   0.00001  -0.00000
  72        3S         -0.00015  -0.00006  -0.00053  -0.00011  -0.00037
  73        3PX         0.00003  -0.00003  -0.00014   0.00081   0.00001
  74        3PY         0.00007   0.00005   0.00069  -0.00030   0.00013
  75        3PZ         0.00000   0.00000   0.00005  -0.00007   0.00001
  76        4S          0.00463   0.00008   0.00367  -0.00540   0.00681
  77        4PX         0.00034   0.00055   0.01558   0.00922   0.00004
  78        4PY        -0.00275   0.00003   0.00097   0.00627  -0.00589
  79        4PZ        -0.00017  -0.00004  -0.00092  -0.00022  -0.00034
  80        5S          0.02285   0.02767   0.02690   0.03033  -0.12889
  81        5PX         0.06061   0.02702  -0.00006   0.00099   0.02021
  82        5PY         0.02416   0.00438  -0.02555   0.02991   0.07057
  83        5PZ        -0.00237  -0.00143  -0.00148   0.00166   0.00281
  84        6D 0       -0.00005  -0.00002  -0.00012   0.00009  -0.00007
  85        6D+1       -0.00001  -0.00001  -0.00003   0.00005  -0.00001
  86        6D-1        0.00000   0.00000  -0.00002  -0.00001   0.00000
  87        6D+2        0.00003   0.00003   0.00038  -0.00038   0.00001
  88        6D-2        0.00002  -0.00001   0.00008   0.00030   0.00003
  89 5   C  1S         -0.00000  -0.00000  -0.00001  -0.00000  -0.00001
  90        2S          0.00001   0.00001   0.00005   0.00002   0.00000
  91        2PX         0.00002  -0.00006  -0.00007  -0.00008  -0.00002
  92        2PY        -0.00001  -0.00006  -0.00009   0.00001  -0.00003
  93        2PZ        -0.00000   0.00000  -0.00000   0.00001  -0.00000
  94        3S         -0.00006  -0.00003  -0.00058  -0.00013   0.00008
  95        3PX        -0.00009   0.00021   0.00023   0.00048   0.00003
  96        3PY         0.00005   0.00022   0.00034  -0.00014   0.00009
  97        3PZ         0.00001  -0.00000   0.00000  -0.00004   0.00000
  98        4S          0.00078  -0.00146   0.01616   0.00189  -0.00287
  99        4PX         0.00272  -0.00028  -0.00137  -0.00240   0.00498
 100        4PY         0.00104  -0.00152   0.00926   0.00018   0.00006
 101        4PZ        -0.00011  -0.00007   0.00063   0.00016  -0.00031
 102        5S          0.07699  -0.01635  -0.04042  -0.06924   0.03590
 103        5PX         0.00638   0.02940   0.00259   0.01718  -0.08053
 104        5PY         0.01149   0.00325  -0.00123  -0.00784  -0.01023
 105        5PZ         0.00027  -0.00170  -0.00024  -0.00155   0.00453
 106        6D 0        0.00001   0.00005  -0.00012  -0.00000   0.00009
 107        6D+1        0.00000   0.00000   0.00001   0.00002   0.00001
 108        6D-1       -0.00000   0.00000   0.00003  -0.00000  -0.00001
 109        6D+2       -0.00000  -0.00004  -0.00034  -0.00015  -0.00006
 110        6D-2        0.00005  -0.00007   0.00001   0.00014   0.00001
 111 6   C  1S          0.00000  -0.00000  -0.00001  -0.00000   0.00000
 112        2S         -0.00001   0.00001   0.00003   0.00001  -0.00000
 113        2PX        -0.00001  -0.00001  -0.00009  -0.00008  -0.00002
 114        2PY        -0.00001  -0.00000  -0.00008  -0.00003  -0.00001
 115        2PZ        -0.00000   0.00000   0.00000   0.00000   0.00000
 116        3S          0.00013  -0.00008  -0.00003   0.00005   0.00006
 117        3PX         0.00006   0.00007   0.00055   0.00042   0.00015
 118        3PY         0.00006   0.00002   0.00057   0.00024   0.00009
 119        3PZ        -0.00000  -0.00000  -0.00000  -0.00001  -0.00000
 120        4S         -0.00179   0.00055  -0.01276  -0.00753  -0.00076
 121        4PX        -0.00065   0.00022   0.00250   0.00248  -0.00237
 122        4PY         0.00104  -0.00055   0.00471   0.00203   0.00216
 123        4PZ         0.00010  -0.00005   0.00011  -0.00004   0.00027
 124        5S         -0.09046  -0.04133   0.01308  -0.03129  -0.00076
 125        5PX         0.01663   0.00522  -0.00845   0.01423   0.03752
 126        5PY         0.00977   0.00415   0.00102   0.00110  -0.00419
 127        5PZ        -0.00050  -0.00009   0.00060  -0.00084  -0.00262
 128        6D 0        0.00002  -0.00001   0.00003   0.00005   0.00001
 129        6D+1        0.00000  -0.00000   0.00000   0.00002  -0.00000
 130        6D-1        0.00000   0.00000   0.00001   0.00001   0.00000
 131        6D+2       -0.00001   0.00000  -0.00013  -0.00020  -0.00003
 132        6D-2       -0.00004  -0.00002  -0.00013  -0.00004  -0.00005
 133 7   C  1S         -0.00000   0.00000  -0.00001  -0.00000  -0.00001
 134        2S          0.00001  -0.00000   0.00004   0.00010   0.00001
 135        2PX        -0.00002   0.00000  -0.00009  -0.00042   0.00003
 136        2PY        -0.00003   0.00003   0.00001  -0.00037   0.00000
 137        2PZ        -0.00000   0.00000   0.00001   0.00000  -0.00000
 138        3S         -0.00002  -0.00001  -0.00042   0.00018  -0.00021
 139        3PX         0.00006  -0.00004   0.00039   0.00154  -0.00019
 140        3PY         0.00018  -0.00013   0.00035   0.00113   0.00001
 141        3PZ         0.00001  -0.00000  -0.00000  -0.00003   0.00001
 142        4S         -0.00102   0.00160   0.00908   0.01135   0.00230
 143        4PX         0.00006  -0.00023   0.00311   0.00073   0.00071
 144        4PY         0.00122   0.00008  -0.00095  -0.00819   0.00028
 145        4PZ         0.00006   0.00002  -0.00025  -0.00052  -0.00003
 146        5S          0.03981   0.03588   0.02430  -0.02485  -0.00877
 147        5PX         0.00505   0.00570   0.00664  -0.00868  -0.00188
 148        5PY        -0.00321  -0.00477  -0.00149  -0.00226  -0.00151
 149        5PZ        -0.00052  -0.00065  -0.00049   0.00041   0.00002
 150        6D 0       -0.00001  -0.00003  -0.00012   0.00019  -0.00005
 151        6D+1       -0.00001  -0.00000  -0.00002  -0.00009  -0.00000
 152        6D-1        0.00001   0.00001   0.00004   0.00004   0.00001
 153        6D+2       -0.00001  -0.00005  -0.00018   0.00047  -0.00002
 154        6D-2       -0.00006  -0.00002  -0.00023  -0.00137   0.00003
 155 8   C  1S         -0.00000  -0.00000  -0.00000  -0.00000  -0.00000
 156        2S          0.00001   0.00001   0.00002   0.00001  -0.00000
 157        2PX        -0.00002  -0.00001  -0.00008  -0.00001  -0.00001
 158        2PY        -0.00000  -0.00001  -0.00003  -0.00001   0.00000
 159        2PZ         0.00000  -0.00000   0.00000   0.00000   0.00000
 160        3S         -0.00004  -0.00015  -0.00011  -0.00000   0.00002
 161        3PX         0.00010   0.00004   0.00046   0.00011   0.00004
 162        3PY         0.00000   0.00005   0.00017   0.00006  -0.00002
 163        3PZ        -0.00001   0.00000  -0.00002  -0.00000  -0.00000
 164        4S         -0.00199   0.00204  -0.00818  -0.00008  -0.00224
 165        4PX         0.00073  -0.00141   0.00262  -0.00014   0.00091
 166        4PY         0.00133   0.00059  -0.00125  -0.00161   0.00186
 167        4PZ         0.00003   0.00012  -0.00024  -0.00008   0.00005
 168        5S         -0.03389  -0.03243   0.00847  -0.00170   0.06003
 169        5PX         0.00621   0.00829  -0.00228  -0.00036  -0.02668
 170        5PY         0.00488   0.01134  -0.00265   0.00334  -0.04026
 171        5PZ        -0.00011   0.00015  -0.00001   0.00022  -0.00065
 172        6D 0       -0.00000  -0.00003  -0.00003   0.00001   0.00002
 173        6D+1        0.00000  -0.00000   0.00000  -0.00000   0.00000
 174        6D-1        0.00000   0.00000   0.00001   0.00000  -0.00000
 175        6D+2       -0.00002  -0.00002  -0.00012  -0.00002   0.00001
 176        6D-2       -0.00000  -0.00001  -0.00005  -0.00006   0.00001
 177 9   C  1S         -0.00000  -0.00000  -0.00001  -0.00000  -0.00000
 178        2S          0.00000   0.00000   0.00004   0.00001   0.00000
 179        2PX         0.00000  -0.00000  -0.00000  -0.00001   0.00001
 180        2PY        -0.00001  -0.00001  -0.00003  -0.00001  -0.00000
 181        2PZ        -0.00000  -0.00000  -0.00000   0.00000  -0.00000
 182        3S         -0.00002   0.00004  -0.00037  -0.00011  -0.00005
 183        3PX        -0.00001   0.00003   0.00006   0.00003  -0.00003
 184        3PY         0.00004   0.00009   0.00020   0.00006   0.00001
 185        3PZ         0.00000   0.00000   0.00001   0.00000   0.00000
 186        4S          0.00044  -0.00151   0.00541   0.00204   0.00177
 187        4PX        -0.00095   0.00082  -0.00286  -0.00072  -0.00133
 188        4PY         0.00053   0.00038  -0.00222  -0.00106   0.00121
 189        4PZ         0.00009  -0.00003   0.00005  -0.00002   0.00015
 190        5S          0.00322  -0.00468   0.00699  -0.01075  -0.00579
 191        5PX        -0.00205  -0.00292  -0.00015   0.00083   0.01822
 192        5PY        -0.00237   0.00275   0.00122  -0.00279  -0.02922
 193        5PZ        -0.00001   0.00033   0.00008  -0.00021  -0.00284
 194        6D 0       -0.00000   0.00001  -0.00005  -0.00001  -0.00000
 195        6D+1       -0.00000   0.00000  -0.00001  -0.00000  -0.00000
 196        6D-1        0.00000  -0.00000   0.00000   0.00000  -0.00000
 197        6D+2        0.00001   0.00003   0.00004  -0.00001   0.00001
 198        6D-2       -0.00001   0.00002   0.00003  -0.00002   0.00001
 199 10  H  1S         -0.00004   0.00004  -0.00015   0.00003  -0.00001
 200        2S          0.00042  -0.00028   0.00098  -0.00050   0.00043
 201        3S         -0.00126  -0.00067   0.00369   0.00113  -0.00148
 202        4PX        -0.00001   0.00005  -0.00002   0.00007  -0.00004
 203        4PY         0.00002   0.00005  -0.00001  -0.00009   0.00001
 204        4PZ         0.00000  -0.00000   0.00000  -0.00001   0.00000
 205 11  H  1S         -0.00000  -0.00001  -0.00001   0.00001   0.00004
 206        2S         -0.00007   0.00009  -0.00038  -0.00024  -0.00058
 207        3S         -0.00021   0.00015  -0.00072  -0.00031  -0.00066
 208        4PX         0.00001  -0.00000  -0.00005  -0.00001   0.00004
 209        4PY        -0.00001   0.00000   0.00011   0.00010   0.00006
 210        4PZ        -0.00000   0.00000   0.00001   0.00001   0.00000
 211 12  H  1S          0.00000   0.00001  -0.00006  -0.00030   0.00000
 212        2S         -0.00027  -0.00018  -0.00043   0.00053  -0.00027
 213        3S         -0.00010  -0.00059  -0.00015   0.00248  -0.00064
 214        4PX        -0.00004  -0.00001  -0.00017   0.00017  -0.00001
 215        4PY         0.00003   0.00005   0.00014   0.00041   0.00007
 216        4PZ         0.00001   0.00000   0.00002   0.00001   0.00000
 217 13  H  1S         -0.00003  -0.00002  -0.00003   0.00002  -0.00001
 218        2S          0.00021   0.00018   0.00001  -0.00025   0.00018
 219        3S          0.00002   0.00074  -0.00023   0.00005   0.00022
 220        4PX        -0.00002   0.00000  -0.00002   0.00005  -0.00003
 221        4PY        -0.00002   0.00001   0.00000   0.00003  -0.00002
 222        4PZ        -0.00000   0.00000   0.00000  -0.00000   0.00000
 223 14  H  1S         -0.00001   0.00001  -0.00007  -0.00001   0.00000
 224        2S          0.00011  -0.00015   0.00037   0.00005  -0.00003
 225        3S          0.00027  -0.00014   0.00102   0.00031   0.00011
 226        4PX         0.00001   0.00002   0.00003   0.00002   0.00003
 227        4PY        -0.00003   0.00001   0.00002   0.00000  -0.00003
 228        4PZ        -0.00000  -0.00000  -0.00000  -0.00000  -0.00000
 229 15  C  1S         -0.00002  -0.00002   0.00001  -0.00000   0.56309
 230        2S          0.00009   0.00009  -0.00002   0.00003   0.46331
 231        2PX        -0.00038   0.00023   0.00009  -0.00002   0.00023
 232        2PY        -0.00004  -0.00028   0.00031   0.00005   0.00062
 233        2PZ         0.00002  -0.00003   0.00001   0.00000   0.00002
 234        3S          0.00023   0.00017   0.00007  -0.00027   0.01849
 235        3PX         0.00079  -0.00047  -0.00009   0.00010  -0.00046
 236        3PY         0.00014   0.00058  -0.00061  -0.00024  -0.00149
 237        3PZ        -0.00004   0.00006  -0.00003  -0.00002  -0.00006
 238        4S          0.00309   0.00287   0.00254   0.00180  -0.01380
 239        4PX        -0.00977   0.00802   0.00286   0.00284  -0.00280
 240        4PY         0.00275  -0.00365   0.00177   0.00014   0.00002
 241        4PZ         0.00068  -0.00063  -0.00007  -0.00015   0.00013
 242        5S         -0.00963  -0.01026  -0.00341  -0.00121  -0.00786
 243        5PX        -0.00021  -0.00232  -0.00070   0.00049  -0.00247
 244        5PY        -0.00303  -0.00230  -0.00021  -0.00022  -0.00222
 245        5PZ        -0.00014   0.00000   0.00002  -0.00004   0.00001
 246        6D 0        0.00018   0.00014  -0.00006  -0.00010  -0.00148
 247        6D+1        0.00006   0.00006  -0.00004  -0.00002  -0.00025
 248        6D-1        0.00003  -0.00005  -0.00000  -0.00000   0.00013
 249        6D+2       -0.00082  -0.00008   0.00042   0.00017   0.00127
 250        6D-2       -0.00003   0.00083  -0.00032  -0.00001  -0.00103
 251 16  O  1S         -0.02336   0.55082   0.00000   0.00000  -0.00007
 252        2S         -0.01986   0.46928   0.00002   0.00000  -0.00004
 253        2PX        -0.00003  -0.00079  -0.00002  -0.00001  -0.00031
 254        2PY        -0.00002   0.00078   0.00005   0.00003   0.00037
 255        2PZ         0.00000   0.00008   0.00000   0.00000   0.00004
 256        3S         -0.00100   0.01402  -0.00003   0.00001   0.00036
 257        3PX         0.00028  -0.00029   0.00013   0.00004   0.00090
 258        3PY        -0.00013   0.00044  -0.00026  -0.00014  -0.00112
 259        3PZ        -0.00002   0.00004  -0.00002  -0.00001  -0.00011
 260        4S          0.00336  -0.01282  -0.00127  -0.00105  -0.00292
 261        4PX        -0.00037   0.00106   0.00013   0.00011   0.00108
 262        4PY         0.00138  -0.00189  -0.00046  -0.00009  -0.00090
 263        4PZ         0.00010  -0.00015  -0.00003  -0.00001  -0.00011
 264        5S          0.00457   0.00773   0.00236  -0.00008   0.01012
 265        5PX         0.00036   0.00159  -0.00112   0.00006  -0.00306
 266        5PY         0.00127   0.00188   0.00055  -0.00005   0.00418
 267        5PZ         0.00003   0.00000   0.00010  -0.00000   0.00041
 268        6D 0        0.00002  -0.00012   0.00002  -0.00001   0.00051
 269        6D+1        0.00002  -0.00002   0.00000  -0.00000   0.00009
 270        6D-1        0.00001   0.00002  -0.00001  -0.00000  -0.00010
 271        6D+2       -0.00021   0.00002   0.00008   0.00002   0.00013
 272        6D-2        0.00005  -0.00020   0.00011   0.00003   0.00082
 273 17  O  1S          0.55082   0.02336   0.00000   0.00000  -0.00007
 274        2S          0.46927   0.01995   0.00003   0.00002  -0.00004
 275        2PX         0.00110   0.00010   0.00005   0.00002   0.00047
 276        2PY         0.00006  -0.00003  -0.00001   0.00001   0.00005
 277        2PZ        -0.00005  -0.00001  -0.00000  -0.00000  -0.00002
 278        3S          0.01411   0.00021  -0.00018  -0.00017   0.00037
 279        3PX         0.00063  -0.00024  -0.00027  -0.00011  -0.00143
 280        3PY         0.00011   0.00009   0.00002  -0.00002  -0.00014
 281        3PZ        -0.00002   0.00002   0.00001   0.00000   0.00006
 282        4S         -0.01341   0.00204   0.00044   0.00104  -0.00385
 283        4PX        -0.00254   0.00075   0.00006   0.00033  -0.00195
 284        4PY        -0.00072   0.00070  -0.00052  -0.00007  -0.00041
 285        4PZ         0.00008   0.00000  -0.00003  -0.00002   0.00008
 286        5S          0.00551   0.00579  -0.00027  -0.00004   0.00076
 287        5PX         0.00045   0.00181  -0.00009  -0.00012   0.00116
 288        5PY         0.00140   0.00076  -0.00040  -0.00076   0.00124
 289        5PZ         0.00006  -0.00005  -0.00002  -0.00004   0.00000
 290        6D 0       -0.00013   0.00002   0.00004   0.00003   0.00052
 291        6D+1       -0.00002   0.00002   0.00000   0.00000   0.00007
 292        6D-1        0.00000  -0.00001   0.00000  -0.00000   0.00001
 293        6D+2        0.00020  -0.00007  -0.00008   0.00000  -0.00081
 294        6D-2       -0.00001   0.00020  -0.00008  -0.00001  -0.00023
                           6         7         8         9        10
                           O         O         O         O         O
     Eigenvalues --   -10.21047 -10.19544 -10.18047 -10.17766 -10.17663
   1 1   N  1S         -0.00005   0.00000   0.00000   0.00000   0.00000
   2        2S         -0.00007   0.00002   0.00003   0.00004   0.00003
   3        2PX         0.00034   0.00002   0.00005   0.00003   0.00006
   4        2PY         0.00016  -0.00000   0.00003  -0.00002  -0.00001
   5        2PZ        -0.00001  -0.00000  -0.00000  -0.00000  -0.00000
   6        3S          0.00097  -0.00025  -0.00026  -0.00029  -0.00026
   7        3PX        -0.00061  -0.00018  -0.00027  -0.00023  -0.00030
   8        3PY        -0.00036  -0.00010  -0.00023  -0.00006   0.00002
   9        3PZ         0.00002   0.00001   0.00000   0.00001   0.00002
  10        4S         -0.00490   0.00084   0.00084   0.00182   0.00147
  11        4PX        -0.00294   0.00218   0.00139   0.00132   0.00124
  12        4PY        -0.00105   0.00265   0.00271   0.00142   0.00050
  13        4PZ         0.00011   0.00002   0.00007  -0.00000  -0.00005
  14        5S          0.02140  -0.03538   0.00543   0.00314   0.00730
  15        5PX         0.01066   0.01217   0.00737   0.00934   0.00199
  16        5PY         0.01239  -0.00401   0.01170   0.01077   0.00035
  17        5PZ         0.00009  -0.00096   0.00024   0.00007  -0.00010
  18        6D 0        0.00055  -0.00005  -0.00002  -0.00002  -0.00002
  19        6D+1        0.00006   0.00000   0.00000   0.00001   0.00000
  20        6D-1        0.00001   0.00001   0.00001   0.00001   0.00001
  21        6D+2       -0.00054  -0.00010  -0.00008  -0.00020  -0.00009
  22        6D-2       -0.00053   0.00003  -0.00003   0.00005   0.00004
  23 2   N  1S          0.00000  -0.00008   0.00000   0.00000   0.00000
  24        2S          0.00003  -0.00003   0.00002   0.00005   0.00001
  25        2PX        -0.00006   0.00037   0.00003  -0.00001   0.00001
  26        2PY         0.00001   0.00038   0.00001   0.00007   0.00000
  27        2PZ         0.00000  -0.00000  -0.00000   0.00000  -0.00000
  28        3S         -0.00032   0.00067  -0.00006  -0.00019   0.00002
  29        3PX         0.00015  -0.00112  -0.00016  -0.00016  -0.00005
  30        3PY        -0.00012  -0.00103  -0.00005  -0.00043  -0.00003
  31        3PZ        -0.00002   0.00001   0.00001  -0.00001   0.00000
  32        4S          0.00162  -0.00307  -0.00163  -0.00096  -0.00109
  33        4PX         0.00024  -0.00025  -0.00090  -0.00058  -0.00068
  34        4PY         0.00095  -0.00159  -0.00018  -0.00007  -0.00038
  35        4PZ         0.00004  -0.00008   0.00004   0.00003   0.00002
  36        5S         -0.01194   0.04649  -0.00773   0.00085  -0.00299
  37        5PX        -0.00405   0.01192  -0.00167  -0.00024  -0.00029
  38        5PY         0.00028  -0.00652   0.00083   0.00009   0.00023
  39        5PZ         0.00027  -0.00112   0.00015   0.00002   0.00003
  40        6D 0       -0.00005   0.00077   0.00003   0.00006   0.00002
  41        6D+1       -0.00002   0.00002   0.00000  -0.00002   0.00000
  42        6D-1        0.00000  -0.00003   0.00000  -0.00000   0.00000
  43        6D+2        0.00012   0.00017  -0.00002   0.00017  -0.00002
  44        6D-2       -0.00004  -0.00090  -0.00006  -0.00022  -0.00002
  45 3   C  1S          0.56287  -0.00005  -0.00035  -0.00406  -0.00056
  46        2S          0.46316  -0.00002  -0.00024  -0.00323  -0.00039
  47        2PX        -0.00069  -0.00001   0.00004  -0.00004   0.00019
  48        2PY        -0.00033   0.00007   0.00015   0.00074  -0.00013
  49        2PZ         0.00002   0.00000   0.00001   0.00005  -0.00002
  50        3S          0.01976  -0.00010   0.00010   0.00006  -0.00011
  51        3PX         0.00104   0.00023  -0.00020   0.00031  -0.00114
  52        3PY         0.00068  -0.00056  -0.00081  -0.00259   0.00070
  53        3PZ        -0.00003  -0.00005  -0.00003  -0.00017   0.00011
  54        4S         -0.02196  -0.00531  -0.00921   0.00179  -0.00659
  55        4PX        -0.00698   0.00143  -0.00032   0.00581   0.00012
  56        4PY        -0.00315   0.00041  -0.00253   0.00390  -0.00036
  57        4PZ         0.00025  -0.00007  -0.00013  -0.00015  -0.00003
  58        5S         -0.03876   0.01865  -0.17517  -0.10160   0.02751
  59        5PX         0.00934   0.00328  -0.06129  -0.02512   0.00417
  60        5PY        -0.01851   0.00252  -0.04623  -0.02842   0.02276
  61        5PZ        -0.00168  -0.00006   0.00113  -0.00009   0.00107
  62        6D 0       -0.00155  -0.00002   0.00015   0.00064   0.00018
  63        6D+1       -0.00024  -0.00003  -0.00002  -0.00001   0.00007
  64        6D-1        0.00020  -0.00000  -0.00004  -0.00015  -0.00003
  65        6D+2        0.00030   0.00029   0.00048   0.00130  -0.00036
  66        6D-2       -0.00089  -0.00023  -0.00006   0.00010   0.00054
  67 4   C  1S          0.00399   0.00679   0.05059   0.56050   0.00437
  68        2S          0.00341   0.00570   0.04176   0.46121   0.00367
  69        2PX        -0.00002  -0.00068   0.00069  -0.00006   0.00007
  70        2PY        -0.00074   0.00017   0.00041  -0.00000  -0.00002
  71        2PZ        -0.00004   0.00005  -0.00002   0.00000  -0.00001
  72        3S          0.00012   0.00055   0.00179   0.01955  -0.00036
  73        3PX         0.00006   0.00240  -0.00271   0.00023  -0.00059
  74        3PY         0.00276  -0.00068  -0.00160  -0.00037   0.00024
  75        3PZ         0.00016  -0.00019   0.00008  -0.00004   0.00005
  76        4S          0.00425   0.00459   0.00701  -0.01896   0.00355
  77        4PX         0.00527  -0.00582   0.01272  -0.00415   0.00686
  78        4PY        -0.00543  -0.00005  -0.00156   0.00221  -0.00064
  79        4PZ        -0.00064   0.00036  -0.00089   0.00040  -0.00047
  80        5S          0.00603   0.09034   0.15386   0.13096  -0.04674
  81        5PX         0.02002  -0.01420   0.13050   0.05726   0.00425
  82        5PY        -0.01569   0.02825  -0.02526  -0.01154   0.01910
  83        5PZ        -0.00216   0.00250  -0.00964  -0.00427   0.00083
  84        6D 0        0.00053   0.00068   0.00051  -0.00179  -0.00006
  85        6D+1       -0.00004   0.00018   0.00004  -0.00019  -0.00002
  86        6D-1       -0.00013  -0.00002   0.00006   0.00007  -0.00000
  87        6D+2        0.00149  -0.00131  -0.00070   0.00082   0.00016
  88        6D-2       -0.00008   0.00048  -0.00108   0.00096  -0.00004
  89 5   C  1S          0.00389  -0.00004  -0.00067  -0.00113   0.07891
  90        2S          0.00337  -0.00000  -0.00048  -0.00090   0.06512
  91        2PX        -0.00067  -0.00003   0.00001  -0.00007   0.00070
  92        2PY         0.00036   0.00001   0.00004   0.00007   0.00039
  93        2PZ         0.00006   0.00000   0.00000   0.00001  -0.00002
  94        3S         -0.00010  -0.00022  -0.00058  -0.00003   0.00247
  95        3PX         0.00291   0.00027  -0.00005   0.00050  -0.00300
  96        3PY        -0.00150  -0.00015  -0.00039  -0.00054  -0.00158
  97        3PZ        -0.00027  -0.00003  -0.00002  -0.00006   0.00010
  98        4S          0.00670   0.00029   0.00498  -0.00571   0.00394
  99        4PX        -0.00180  -0.00102   0.00064  -0.00126   0.00089
 100        4PY         0.00533   0.00087   0.00260  -0.00453   0.00382
 101        4PZ         0.00042   0.00012   0.00011  -0.00018   0.00016
 102        5S          0.00860   0.00823   0.11055   0.05467   0.01491
 103        5PX         0.01487   0.00507   0.00996   0.00970  -0.00336
 104        5PY         0.00467   0.00250   0.02052   0.01044   0.00150
 105        5PZ        -0.00067  -0.00017   0.00057  -0.00000   0.00030
 106        6D 0        0.00054  -0.00003  -0.00005  -0.00002   0.00041
 107        6D+1        0.00020   0.00001  -0.00000   0.00003   0.00001
 108        6D-1       -0.00013  -0.00000   0.00001  -0.00001   0.00010
 109        6D+2       -0.00068  -0.00006  -0.00007  -0.00012  -0.00082
 110        6D-2        0.00172   0.00013  -0.00003   0.00034  -0.00154
 111 6   C  1S         -0.00002   0.00004   0.56017  -0.05059  -0.00253
 112        2S          0.00002   0.00004   0.46090  -0.04147  -0.00202
 113        2PX        -0.00009  -0.00004  -0.00021  -0.00067   0.00014
 114        2PY        -0.00007  -0.00000   0.00004  -0.00037  -0.00012
 115        2PZ         0.00000   0.00000   0.00002   0.00002  -0.00002
 116        3S         -0.00005   0.00006   0.02022  -0.00191  -0.00010
 117        3PX         0.00062   0.00012   0.00059   0.00296  -0.00089
 118        3PY         0.00060   0.00006  -0.00016   0.00152   0.00092
 119        3PZ        -0.00000  -0.00000  -0.00005  -0.00010   0.00011
 120        4S         -0.00523   0.00187  -0.02586   0.00621  -0.00901
 121        4PX        -0.00154   0.00042   0.00119  -0.00187   0.00064
 122        4PY         0.00392  -0.00005   0.01207  -0.00448   0.00517
 123        4PZ         0.00032  -0.00003   0.00062  -0.00014   0.00026
 124        5S         -0.01391  -0.04723  -0.19503  -0.11095  -0.00568
 125        5PX        -0.00407   0.01484   0.00754   0.00892   0.00729
 126        5PY         0.00356   0.00486   0.02938   0.01676  -0.00035
 127        5PZ         0.00046  -0.00065   0.00121   0.00040  -0.00048
 128        6D 0       -0.00002  -0.00003  -0.00166   0.00076   0.00010
 129        6D+1       -0.00001   0.00002  -0.00018   0.00002   0.00006
 130        6D-1        0.00004   0.00003   0.00020   0.00007  -0.00003
 131        6D+2       -0.00019  -0.00037  -0.00029  -0.00064  -0.00032
 132        6D-2       -0.00036  -0.00007  -0.00028  -0.00174   0.00054
 133 7   C  1S         -0.00001   0.56284  -0.00066  -0.00685  -0.00001
 134        2S          0.00002   0.46313  -0.00053  -0.00552   0.00002
 135        2PX         0.00003  -0.00016   0.00014   0.00070   0.00003
 136        2PY         0.00006  -0.00012   0.00003  -0.00016   0.00002
 137        2PZ         0.00000   0.00000  -0.00001  -0.00005  -0.00000
 138        3S         -0.00019   0.02006  -0.00002   0.00005  -0.00024
 139        3PX        -0.00034  -0.00021  -0.00062  -0.00263  -0.00020
 140        3PY         0.00000  -0.00036  -0.00012   0.00055  -0.00008
 141        3PZ         0.00002  -0.00001   0.00003   0.00020   0.00001
 142        4S          0.00250  -0.01744   0.00812  -0.00216   0.00549
 143        4PX         0.00208  -0.00508   0.00267   0.00059   0.00179
 144        4PY         0.00212   0.00534  -0.00086   0.00035  -0.00168
 145        4PZ        -0.00001   0.00063  -0.00022  -0.00002  -0.00021
 146        5S          0.04748  -0.07825   0.12934   0.03636   0.01071
 147        5PX         0.00947  -0.01859   0.02262   0.00571   0.00138
 148        5PY        -0.00352   0.00379  -0.00583  -0.00045  -0.00346
 149        5PZ        -0.00080   0.00138  -0.00175  -0.00038  -0.00028
 150        6D 0       -0.00008  -0.00172  -0.00001   0.00065  -0.00004
 151        6D+1        0.00002  -0.00019   0.00003   0.00021   0.00001
 152        6D-1        0.00004   0.00024   0.00003  -0.00007   0.00001
 153        6D+2       -0.00048  -0.00047  -0.00048  -0.00112  -0.00014
 154        6D-2       -0.00009  -0.00053   0.00005   0.00113   0.00006
 155 8   C  1S         -0.00004  -0.00004   0.00076  -0.00424   0.55610
 156        2S          0.00003  -0.00002   0.00068  -0.00343   0.45762
 157        2PX        -0.00010  -0.00003   0.00002  -0.00000   0.00006
 158        2PY        -0.00009   0.00001   0.00017   0.00001   0.00001
 159        2PZ         0.00000   0.00000   0.00001   0.00000  -0.00000
 160        3S         -0.00026  -0.00014  -0.00000  -0.00069   0.01938
 161        3PX         0.00100   0.00020   0.00006   0.00016  -0.00017
 162        3PY         0.00056  -0.00006  -0.00116  -0.00013  -0.00034
 163        3PZ        -0.00003  -0.00002  -0.00007  -0.00002  -0.00001
 164        4S         -0.00472  -0.00081  -0.00617   0.00749  -0.01637
 165        4PX         0.00203   0.00001   0.00345  -0.00328   0.00659
 166        4PY        -0.00182  -0.00100  -0.00130   0.00166  -0.00378
 167        4PZ        -0.00024  -0.00006  -0.00030   0.00030  -0.00064
 168        5S         -0.02305  -0.02510  -0.05874  -0.03317  -0.00426
 169        5PX         0.00701   0.00273   0.01406   0.00759  -0.00069
 170        5PY         0.00689  -0.00088   0.00629   0.00580   0.00007
 171        5PZ        -0.00005  -0.00023  -0.00053  -0.00015   0.00004
 172        6D 0       -0.00002  -0.00003   0.00004  -0.00007  -0.00167
 173        6D+1       -0.00002  -0.00001  -0.00004  -0.00001  -0.00020
 174        6D-1        0.00005   0.00001  -0.00004   0.00001   0.00016
 175        6D+2       -0.00023   0.00000   0.00061   0.00006   0.00014
 176        6D-2       -0.00057  -0.00006  -0.00003  -0.00005  -0.00004
 177 9   C  1S         -0.00010  -0.00005   0.02215  -0.00387   0.03650
 178        2S         -0.00002  -0.00002   0.01842  -0.00315   0.03017
 179        2PX        -0.00000  -0.00003  -0.00062  -0.00004   0.00008
 180        2PY        -0.00004   0.00000   0.00044   0.00005  -0.00076
 181        2PZ        -0.00000   0.00000   0.00006   0.00001  -0.00005
 182        3S         -0.00051  -0.00027   0.00042  -0.00021   0.00105
 183        3PX         0.00020   0.00012   0.00256   0.00072  -0.00040
 184        3PY         0.00029   0.00000  -0.00183  -0.00040   0.00292
 185        3PZ         0.00000  -0.00001  -0.00027  -0.00007   0.00019
 186        4S          0.00598   0.00098   0.00891  -0.00507   0.00775
 187        4PX        -0.00283  -0.00111  -0.00668   0.00268  -0.00493
 188        4PY        -0.00122  -0.00126  -0.00175   0.00271  -0.00362
 189        4PZ         0.00011  -0.00000   0.00032  -0.00001   0.00010
 190        5S         -0.00140   0.01814   0.04773   0.02026  -0.00661
 191        5PX        -0.00218  -0.00392  -0.01233  -0.00591   0.00074
 192        5PY         0.00382  -0.00652   0.00332   0.00163  -0.00318
 193        5PZ         0.00036  -0.00013   0.00098   0.00047  -0.00023
 194        6D 0       -0.00007  -0.00004   0.00059  -0.00003   0.00041
 195        6D+1       -0.00001  -0.00000   0.00021   0.00003  -0.00006
 196        6D-1       -0.00000   0.00001  -0.00010  -0.00002  -0.00012
 197        6D+2        0.00012  -0.00007  -0.00088  -0.00014   0.00156
 198        6D-2        0.00006  -0.00006   0.00145   0.00042  -0.00014
 199 10  H  1S         -0.00023  -0.00005  -0.00008  -0.00000  -0.00017
 200        2S          0.00001   0.00011   0.00014  -0.00088  -0.00072
 201        3S          0.00222   0.00034  -0.00003  -0.00163   0.00204
 202        4PX         0.00017   0.00005  -0.00002   0.00007  -0.00011
 203        4PY        -0.00039  -0.00003  -0.00013  -0.00017  -0.00073
 204        4PZ        -0.00003  -0.00000  -0.00001  -0.00001  -0.00004
 205 11  H  1S         -0.00002  -0.00006   0.00042  -0.00019  -0.00001
 206        2S         -0.00086  -0.00028  -0.00560   0.00014  -0.00106
 207        3S         -0.00065  -0.00030   0.00130   0.00220  -0.00079
 208        4PX         0.00007  -0.00002  -0.00001   0.00018  -0.00004
 209        4PY         0.00018   0.00016   0.00233   0.00017   0.00025
 210        4PZ         0.00001   0.00001   0.00014  -0.00000   0.00002
 211 12  H  1S         -0.00004   0.00020  -0.00005  -0.00002  -0.00004
 212        2S         -0.00073  -0.00479  -0.00043  -0.00032   0.00010
 213        3S         -0.00046   0.00159   0.00003   0.00036   0.00035
 214        4PX        -0.00020  -0.00082  -0.00017  -0.00033  -0.00005
 215        4PY         0.00013   0.00226   0.00016   0.00006   0.00001
 216        4PZ         0.00002   0.00018   0.00002   0.00002   0.00000
 217 13  H  1S         -0.00008  -0.00003  -0.00004  -0.00007   0.00036
 218        2S         -0.00058  -0.00012  -0.00077   0.00024  -0.00502
 219        3S         -0.00008  -0.00003  -0.00037   0.00101   0.00147
 220        4PX         0.00018   0.00006   0.00017   0.00005   0.00202
 221        4PY        -0.00006   0.00001  -0.00012  -0.00003  -0.00113
 222        4PZ        -0.00002  -0.00000  -0.00002  -0.00000  -0.00019
 223 14  H  1S         -0.00008  -0.00005  -0.00019  -0.00002  -0.00019
 224        2S          0.00010   0.00045   0.00010  -0.00080   0.00005
 225        3S          0.00128   0.00022   0.00285  -0.00046   0.00249
 226        4PX         0.00007  -0.00003   0.00043   0.00016   0.00036
 227        4PY         0.00005  -0.00002   0.00009   0.00003   0.00028
 228        4PZ        -0.00000   0.00000  -0.00002  -0.00001  -0.00001
 229 15  C  1S          0.00002   0.00001   0.00000   0.00001   0.00000
 230        2S          0.00003   0.00002   0.00000   0.00003   0.00001
 231        2PX         0.00002   0.00002   0.00001   0.00003   0.00002
 232        2PY         0.00003  -0.00002  -0.00002   0.00003  -0.00000
 233        2PZ         0.00000  -0.00000  -0.00000   0.00000  -0.00000
 234        3S         -0.00016  -0.00032  -0.00010  -0.00036   0.00004
 235        3PX        -0.00008  -0.00002  -0.00005  -0.00016  -0.00007
 236        3PY        -0.00019   0.00010   0.00015  -0.00015   0.00006
 237        3PZ        -0.00001   0.00001   0.00001  -0.00000   0.00001
 238        4S         -0.00045   0.00526   0.00258   0.00221  -0.00097
 239        4PX         0.00229   0.00146   0.00029   0.00202  -0.00076
 240        4PY        -0.00090   0.00165   0.00166   0.00160   0.00032
 241        4PZ        -0.00015   0.00003   0.00010   0.00000   0.00006
 242        5S          0.00920   0.00945  -0.01328   0.00003   0.00747
 243        5PX         0.00197   0.00115  -0.00305  -0.00075   0.00252
 244        5PY         0.00212   0.00306  -0.00231   0.00091   0.00115
 245        5PZ         0.00002   0.00011   0.00004   0.00010  -0.00009
 246        6D 0       -0.00003  -0.00012  -0.00007  -0.00010   0.00003
 247        6D+1       -0.00001  -0.00001  -0.00001  -0.00001   0.00000
 248        6D-1        0.00000   0.00002   0.00001   0.00001  -0.00000
 249        6D+2        0.00004  -0.00005  -0.00001   0.00003  -0.00002
 250        6D-2       -0.00004  -0.00005   0.00001  -0.00004  -0.00000
 251 16  O  1S          0.00000  -0.00000   0.00000   0.00000   0.00000
 252        2S          0.00001  -0.00000   0.00001   0.00000   0.00001
 253        2PX         0.00001  -0.00000   0.00000  -0.00000   0.00001
 254        2PY         0.00002   0.00000   0.00001   0.00002   0.00001
 255        2PZ         0.00000   0.00000   0.00000   0.00000  -0.00000
 256        3S         -0.00001   0.00005  -0.00006  -0.00001  -0.00011
 257        3PX        -0.00002   0.00001  -0.00000   0.00003  -0.00004
 258        3PY        -0.00007  -0.00002  -0.00005  -0.00008  -0.00004
 259        3PZ        -0.00000  -0.00000  -0.00000  -0.00001   0.00000
 260        4S         -0.00056  -0.00065   0.00018  -0.00046   0.00052
 261        4PX         0.00010   0.00018  -0.00007  -0.00007  -0.00013
 262        4PY        -0.00030  -0.00036   0.00011  -0.00013   0.00029
 263        4PZ        -0.00002  -0.00003   0.00001  -0.00000   0.00002
 264        5S         -0.00264  -0.00178   0.00117   0.00049   0.00073
 265        5PX         0.00055  -0.00019  -0.00040   0.00006   0.00003
 266        5PY        -0.00071  -0.00067  -0.00022  -0.00012   0.00053
 267        5PZ        -0.00007  -0.00003   0.00000  -0.00002   0.00003
 268        6D 0        0.00001   0.00000  -0.00001  -0.00000  -0.00002
 269        6D+1        0.00000   0.00000  -0.00000  -0.00000  -0.00000
 270        6D-1       -0.00000  -0.00000   0.00000  -0.00000   0.00000
 271        6D+2        0.00001   0.00001   0.00001   0.00001  -0.00001
 272        6D-2        0.00000   0.00002  -0.00000   0.00001  -0.00001
 273 17  O  1S          0.00000   0.00000  -0.00000   0.00000   0.00000
 274        2S          0.00001   0.00000  -0.00001   0.00001   0.00001
 275        2PX         0.00002   0.00001   0.00002   0.00002   0.00001
 276        2PY         0.00002   0.00000   0.00000   0.00000   0.00001
 277        2PZ        -0.00000  -0.00000  -0.00000  -0.00000   0.00000
 278        3S         -0.00007  -0.00003   0.00009  -0.00003  -0.00006
 279        3PX        -0.00009  -0.00004  -0.00007  -0.00011  -0.00004
 280        3PY        -0.00006  -0.00001  -0.00001  -0.00002  -0.00003
 281        3PZ         0.00000   0.00000   0.00000   0.00000   0.00000
 282        4S          0.00059  -0.00008  -0.00081  -0.00000   0.00006
 283        4PX         0.00049  -0.00004  -0.00001   0.00024   0.00017
 284        4PY         0.00025  -0.00005  -0.00012  -0.00006   0.00008
 285        4PZ        -0.00001  -0.00000  -0.00001  -0.00002  -0.00000
 286        5S          0.00598   0.00219   0.00503   0.00580  -0.00062
 287        5PX         0.00198   0.00075   0.00149   0.00208  -0.00060
 288        5PY         0.00093   0.00042   0.00102   0.00099  -0.00018
 289        5PZ        -0.00005  -0.00001  -0.00001  -0.00005   0.00003
 290        6D 0        0.00001  -0.00000  -0.00001   0.00000  -0.00001
 291        6D+1        0.00000  -0.00000  -0.00000   0.00000  -0.00000
 292        6D-1       -0.00000   0.00000   0.00000   0.00000   0.00000
 293        6D+2       -0.00000  -0.00001  -0.00001  -0.00002   0.00000
 294        6D-2        0.00000  -0.00002  -0.00001  -0.00001   0.00000
                          11        12        13        14        15
                           O         O         O         O         O
     Eigenvalues --   -10.17455 -10.17301  -1.06188  -1.01652  -0.95510
   1 1   N  1S          0.00000   0.00000  -0.06351  -0.04932   0.00361
   2        2S          0.00004   0.00003  -0.09971  -0.07741   0.00564
   3        2PX         0.00005   0.00003  -0.00635   0.00121  -0.01356
   4        2PY        -0.00002   0.00001   0.01387   0.04721   0.00496
   5        2PZ        -0.00000  -0.00000   0.00113   0.00267   0.00103
   6        3S         -0.00044  -0.00033   0.27206   0.21188  -0.01492
   7        3PX        -0.00024  -0.00018  -0.01456   0.00070  -0.01888
   8        3PY         0.00007  -0.00007   0.01907   0.07627   0.00711
   9        3PZ         0.00002   0.00001   0.00189   0.00439   0.00144
[...]
 4403063,-4.7139013,-1.3303399,0.3010755,3.6164289,4.850081,8.6265221,-
 0.2639922,0.3085953,-2.9795342,-39.6111425,0.1351577,1.3464613,2.57076
 93,0.2367352,-1.2987661,-2.7588909,-0.2106465,-0.1638314,-2.0668627,-1
 .4664631,0.2688406,-19.3431944,2.995279,5.8780095,1.3146206,0.2789885,
 -0.4944013,39.4876372,1.4224618,1.6842489,-2.3404421,-0.0969885,0.3444
 408,3.3512762,-0.0240135,-0.5010067,-0.8711807,1.5277884,0.3069653,-18
 .5453617,-6.4128038,-12.382347,0.6859065,-0.6860528,-2.1968045,-1.1757
 427,1.1448263,-5.3883032,-0.1984314,0.3356773,-5.0024233,1.1242661,-0.
 0190794,1.3040765,0.2805315,-7.3841851,-1.0602625,-5.9993065,-4.605271
 4,-13.4211945,0.0652931,0.1232856,-1.8964744,3.0014206,2.0641655,5.292
 1033,0.1833285,-0.5456345,4.8457897,0.674263,0.8370835,0.3080095,0.916
 0849,7.5981012,1.1487495,36.3733059,2.2563151,-0.3774836,-2.377866,0.3
 686104,-0.8094275,14.1551182,-0.6787216,3.9171282,-0.4246679,-0.506172
 7,5.2223694,-1.8067902,0.4636161,-0.6440785,-2.6661071,7.8032375,1.633
 4291,8.5891134,3.1237405,12.4596663,0.510422,0.1137792,5.0749145,-7.59
 70524,4.4096913,17.2028138,0.1726659,0.905304,-1.5632841,0.0541813,-0.
 5306436,0.3923548,8.5008476,-1.6659718,-1.6983549,6.0684408,3.991395,1
 1.7112907,0.7047864,0.3151,4.8790617,12.2073273,-3.9460786,-19.3132629
 ,-1.4191557,-1.1542189,1.570151,1.4017024,-0.8283173,-2.2235305,8.5159
 093,2.6694202,-1.0219395,-1.0353808,-2.5942853,0.3895217,-0.0690851,0.
 1910683,0.0392034,-2.6001637,0.8094022,-14.8277032,0.1607512,-0.933099
 8,-1.0870006,-0.0703009,0.2376114,-0.9337374,0.0143492,0.6682842,-0.00
 6696,0.1429136,2.1081348,0.2795136,0.0957065,-0.1370013,-0.0213767,1.4
 883515,2.0043887,18.490595,0.0824713,0.9325865,0.8224948,0.0475439,-0.
 0296449,1.1004641,-0.1979779,-0.3749651,0.027118,-3.2938797,3.9703513,
 -4.1649617,0.3994623,-0.5006858,-0.292953,4.0193583,-5.6343644,14.6994
 415,-0.5134328,1.1996967,0.8831065,0.3806063,-0.5411294,1.1137179,-0.4
 604019,-0.3456305,0.0594428,15.350052,-5.5673013,3.2929935,-1.3299799,
 0.5037519,0.6221287,-6.4407914,4.7571434,-2.9517198,0.6857778,-0.42626
 82,-0.4109229,-1.4590772,0.6445748,-0.3429883,-0.7728753,-0.2659127,0.
 0332095,15.5064066,6.1492408,3.7863209,-0.6560073,-0.2022493,0.545844,
 6.1440261,4.9752027,3.6548479,-0.0100748,-0.1056912,0.2859881,-0.68508
 99,-0.0129207,0.0016754,-0.9907223,-0.0510287,0.1163672,7.2071386,7.83
 54766,-2.3609507,0.0370241,-0.4657174,-1.5005507,0.8323579,7.7789838,1
 3.1858436,0.3539116,0.2425111,-1.1326754,-0.1760165,0.0576798,0.658606
 5,0.8194586,1.2006904,0.0819073,8.4893188,0.3025444,13.0803753,-0.1508
 823,0.3531707,2.8667679,-3.2537513,-1.1710249,-17.6372876,-0.1341556,-
 0.4974988,-1.2830172,-0.391941,-0.438716,-1.1647992,2.3284854,-4.66679
 53,-0.9371413,-22.9166943,-11.010185,-10.3578476,0.1639911,0.0684915,-
 1.8891897,-0.873841,-5.4813532,-2.8138244,0.1031633,0.1628482,0.937659
 3,0.3791178,0.4817978,0.5523684,-5.9875162,-1.5686833,0.5546857\HyperP
 olar=357.0536173,115.8996622,-273.3966304,-187.3091818,2.0247786,-26.2
 823818,-2.0466397,127.840169,66.7750734,-12.3764731\Quadrupole=-9.2560
 469,-7.668874,16.9249208,-22.6277654,0.3724222,0.1359527\PG=C01 [X(C8H
 5N2O2)]\NImag=0\\0.60446511,0.04843466,0.62856357,-0.02782139,0.028274
 03,0.09978102,-0.16407888,0.01615302,0.00733706,0.50842428,0.08653670,
 -0.15203746,-0.01104586,0.10972339,0.52981237,0.01134247,-0.00656358,-
 0.05977113,-0.01997944,0.01886035,0.09661496,-0.23228725,-0.01438945,0
 .01022572,-0.08255179,0.03228702,0.00775111,0.73027044,-0.05690672,-0.
 13841656,-0.00144554,0.02385740,-0.01092656,-0.00269333,-0.09295833,0.
 64617329,0.00803135,-0.00403486,-0.05377722,0.00716998,-0.00325292,0.0
 0977294,-0.04210664,0.03481969,0.15095036,-0.01891559,-0.00913533,0.00
 098894,-0.07204933,-0.07343030,0.00173298,-0.12220022,0.02075084,0.004
 19347,0.75012919,-0.05643392,-0.04676652,0.00046412,-0.02215818,0.0018
 9509,0.00011339,-0.01306175,-0.25940999,-0.00982770,0.09131966,0.62204
 347,-0.00177259,-0.00254222,0.00602582,0.00463997,0.00334595,0.0232976
 7,0.00227559,-0.01195662,-0.07570931,-0.03301052,0.02203172,0.14477862
 ,-0.04469797,-0.00139124,0.00262328,0.00720725,0.00291566,0.00003763,-
 0.23182927,0.07658137,0.01567723,0.03273397,0.04964986,0.00102137,0.64
 010829,-0.00288499,0.02049981,0.00148732,-0.00752340,0.00020559,0.0001
 6985,0.10871475,-0.18926567,-0.01465009,0.02674780,-0.01979301,-0.0030
 4068,0.02261927,0.75636362,0.00250275,0.00141323,-0.00217588,-0.000559
 23,-0.00051318,0.00549155,0.01755405,-0.01260491,-0.05656614,-0.000303
 21,-0.00450152,0.00339741,-0.03135065,0.03502987,0.12963606,-0.0015905
 0,-0.00902001,-0.00019362,0.00580066,0.02155225,0.00127927,0.03293242,
 -0.05517969,-0.00515400,-0.24500766,-0.08133062,0.00715983,-0.05452683
 ,-0.00328595,0.00321128,0.64814127,0.00176153,-0.00633864,-0.00067091,
 0.00774993,0.00332929,-0.00066195,-0.03036087,-0.02166030,0.00054432,-
 0.10637002,-0.18105367,-0.00037499,0.00456194,0.00052152,-0.00020022,-
 0.01449983,0.73725886,0.00041592,0.00000946,0.00335647,0.00048263,-0.0
 0153902,0.00636490,-0.00372307,0.00212528,0.00219807,0.00574495,-0.001
 95606,-0.05837610,0.00366003,0.00029728,-0.00123198,-0.03352953,0.0358
 4860,0.13741383,-0.00582907,-0.00930114,0.00068320,-0.21975332,-0.1613
 0990,0.00026369,0.00120695,0.05521124,0.00367705,-0.23086084,0.0562607
 9,0.01374390,-0.00948474,0.00027357,0.00076708,-0.04652570,0.00069562,
 0.00277566,0.60354650,0.00066989,-0.12843122,-0.00823914,-0.13269580,-
 0.29850299,-0.00543435,0.02794805,-0.02812275,-0.00390859,0.06003203,-
 0.12569377,-0.00736480,-0.00102087,-0.00617951,-0.00041880,-0.01947784
 ,0.01375638,0.00217201,-0.05781029,0.85539854,0.00116806,-0.00756725,0
 .01193030,0.00194574,-0.00361484,-0.06441677,0.00207355,-0.00557116,0.
 00829190,0.01397644,-0.00714571,-0.06446962,0.00068337,-0.00051040,0.0
 0217946,0.00162646,0.00090230,-0.00277765,-0.03293528,0.04588159,0.134
 44519,0.01131599,0.00964988,0.00019683,-0.00779983,-0.00059068,0.00049
 404,-0.06794062,0.01103807,0.00511987,-0.01608356,-0.01655693,-0.00020
 744,-0.28874700,-0.13075150,0.00705665,0.02730990,0.02742596,0.0002709
 7,0.00504712,-0.00184836,-0.00049630,0.72270932,0.01089515,0.00935509,
 -0.00048638,-0.00513678,-0.01239863,-0.00040772,-0.02382697,0.05318109
 ,0.00443692,-0.03534412,-0.03502272,0.00046023,-0.07442320,-0.19151665
 ,-0.00298299,0.07102299,-0.03076903,-0.00666735,0.01629897,0.00088939,
 -0.00090873,-0.01829470,0.64277571,0.00025631,-0.00040340,0.00553337,0
 .00022963,-0.00070097,0.00039399,0.00310056,0.00220989,0.00283126,-0.0
 0129987,-0.00072801,-0.00433161,0.01032286,0.00060304,-0.05923781,0.00
 279512,-0.00391888,0.00630990,0.00055538,0.00022826,-0.00106516,-0.038
 41575,0.03056218,0.13850142,-0.00354246,0.00567441,0.00047076,-0.00553
 300,-0.01214261,-0.00041023,-0.01285123,0.02149914,0.00175741,-0.06809
 126,-0.00975356,0.00420588,0.02645926,-0.02839185,-0.00289012,-0.29188
 307,0.12985862,0.02219310,0.01488452,-0.00190763,-0.00064308,-0.124032
 68,-0.03342034,0.00192250,0.73162916,-0.01020815,-0.01090753,0.0000835
 5,0.00737789,0.00920432,0.00010901,0.03424984,-0.03774087,-0.00406554,
 0.02645934,0.04700056,0.00061295,-0.06925530,-0.02757369,0.00238913,0.
 07408987,-0.18708748,-0.01200304,-0.02021855,-0.00264597,0.00075896,0.
 02707772,-0.28870301,-0.01471891,0.02382198,0.63819941,-0.00043113,-0.
 00092332,-0.00112836,0.00072354,0.00135671,-0.00089229,0.00248734,-0.0
 0327031,-0.00507316,0.00630518,0.00291509,0.00705099,-0.00523865,-0.00
 020471,0.00723523,0.01897490,-0.01553001,-0.06314122,-0.00172383,-0.00
 039233,0.00635061,0.00541914,-0.01090370,-0.06417967,-0.03681853,0.027
 86998,0.13394474,0.00099029,-0.00294533,-0.00041288,-0.00048054,0.0006
 5809,0.00007383,0.00554947,0.02838874,0.00153837,-0.00398980,0.0014023
 1,0.00069191,-0.05441361,-0.00231768,0.00103215,-0.00113884,-0.0000428
 7,0.00000555,-0.00005001,0.00126341,0.00005082,0.00411398,-0.02629836,
 -0.00158009,-0.00375957,-0.00184927,0.00067569,0.05331177,-0.00095695,
 0.00029196,0.00024523,0.00040228,-0.00037981,-0.00005547,-0.00148565,-
 0.01142724,-0.00078486,0.00209386,0.00105269,-0.00040169,0.00179914,-0
 .34877725,-0.01820618,0.00043521,0.00052024,0.00006006,-0.00005500,-0.
 00072896,-0.00001807,0.00152942,-0.00801060,-0.00075587,-0.00220572,0.
 00142310,-0.00026337,0.00142487,0.36850896,-0.00028162,0.00037926,-0.0
 0275482,0.00006343,-0.00007633,0.00011670,-0.00018135,-0.00270030,0.00
 381730,0.00072998,-0.00035719,0.00561144,0.00122577,-0.01791871,-0.037
 47861,0.00003476,0.00009203,-0.00099998,-0.00002270,-0.00009801,-0.000
 38337,0.00003933,0.00101702,0.00331948,0.00064932,-0.00029204,0.008439
 17,-0.00138900,0.02000849,0.02672565,-0.00021777,-0.00213273,-0.000117
 32,0.00023235,-0.00002495,-0.00000043,-0.00401441,-0.00118422,0.000580
 04,0.00518912,-0.02780973,-0.00174559,-0.00100613,0.00004419,-0.000004
 04,-0.05890188,-0.00351497,0.00126211,0.00113484,0.00072529,-0.0002320
 7,-0.00416712,0.00196021,0.00089861,0.00518024,0.02757071,0.00151662,0
 .00016445,-0.00002965,-0.00009816,0.05581721,-0.00009657,-0.00119554,-
 0.00005547,-0.00056426,-0.00038124,0.00000051,-0.00203879,0.00138948,-
 0.00014979,0.00173159,-0.01147259,-0.00094191,-0.00028861,0.00029838,0
 .00009921,-0.00220520,-0.33447491,-0.01710254,0.00084915,0.00096346,0.
 00018719,0.00308311,0.00108247,-0.00060692,-0.00285320,-0.01138401,-0.
 00070710,0.00002497,-0.00008887,0.00007162,0.00306467,0.35486951,-0.00
 000267,0.00006988,-0.00011381,-0.00003317,-0.00003175,0.00023100,0.000
 53028,-0.00020532,0.00617616,-0.00003291,0.00092914,0.00302196,-0.0000
 2494,0.00007766,-0.00109548,0.00132201,-0.01700944,-0.03693943,-0.0002
 1892,0.00019261,-0.00307579,0.00096490,-0.00053511,0.00811900,-0.00023
 745,-0.00264248,0.00387730,-0.00009620,0.00007433,-0.00134594,-0.00181
 487,0.01888412,0.02556165,-0.00146809,-0.00586619,0.00029817,0.0122076
 1,-0.01972343,-0.00243049,-0.00617990,0.00019886,0.00064908,-0.0002292
 5,0.02283663,0.00139028,0.00102298,0.00156068,0.00004885,0.00131450,0.
 00002775,-0.00014662,-0.11105287,0.11586611,0.01189542,-0.00003352,-0.
 00017100,-0.00002343,-0.00022363,-0.00003699,0.00000847,-0.00045553,0.
 00020251,0.00005507,-0.00024657,-0.00056415,-0.00001246,0.10412713,-0.
 00315305,-0.00270317,-0.00050034,0.00962841,-0.02194011,-0.00139572,-0
 .00091841,-0.00023961,-0.00018958,-0.00219000,0.00199226,0.00020511,-0
 .00007801,0.00011525,-0.00001075,0.00033174,0.00017651,0.00004840,0.10
 845372,-0.28937001,-0.02196357,0.00014322,0.00016129,0.00001486,0.0002
 7853,-0.00019881,-0.00002558,-0.00005821,0.00001607,-0.00000860,0.0003
 0158,-0.00015503,-0.00003136,-0.11407013,0.31213635,0.00047170,-0.0002
 8472,0.00893903,-0.00069393,0.00042644,-0.00825023,0.00056536,-0.00026
 758,0.00394614,-0.00008074,-0.00134622,0.00069619,-0.00004097,-0.00011
 386,0.00038147,-0.00012555,0.00006954,-0.00102204,0.01146545,-0.022437
 66,-0.03101521,-0.00000616,0.00003383,-0.00025380,0.00002589,-0.000004
 75,-0.00006514,0.00004081,-0.00002333,0.00023011,0.00003644,0.00002143
 ,0.00006108,-0.01172228,0.02399908,0.02520119,-0.00055401,0.00102721,0
 .00017360,-0.00078064,-0.00038214,-0.00004225,-0.00256707,-0.00376007,
 0.00043736,-0.00007176,-0.00052935,-0.00007779,-0.01925623,0.01477839,
 0.00231059,0.00155394,-0.00051356,0.00022295,0.00037235,0.00010639,-0.
 00003026,-0.26552117,0.11768818,0.02137965,0.00361427,-0.00270121,-0.0
 0020454,0.00117662,-0.00009640,-0.00040306,0.00004080,-0.00015175,-0.0
 0000237,-0.00004971,0.00002797,0.00000650,0.28137259,-0.00014747,0.001
 03187,-0.00000186,-0.00023194,-0.00008097,0.00007253,-0.00368558,-0.00
 121982,-0.00028850,-0.00097016,-0.00046840,0.00008117,-0.01566059,0.01
 094641,0.00141205,-0.00127222,-0.00547940,-0.00055696,0.00012801,0.000
 12968,0.00001153,0.11812042,-0.12506436,-0.01265022,0.02823651,-0.0107
 4502,-0.00257698,0.00063381,0.00076458,0.00029699,0.00134012,-0.000697
 93,-0.00013358,-0.00000115,0.00000319,-0.00000134,-0.12613903,0.129736
 96,0.00010345,-0.00007998,0.00121477,-0.00003301,0.00008338,-0.0010791
 0,0.00044294,-0.00027988,0.00771779,-0.00010357,0.00005580,-0.00079842
 ,0.00055430,-0.00051340,0.00364369,0.00017601,-0.00060623,0.00549263,-
 0.00002839,0.00001191,-0.00020224,0.02140150,-0.01262794,-0.03828892,0
 .00158912,-0.00061743,0.00273447,-0.00036557,0.00034147,-0.00503653,0.
 00008380,-0.00003846,0.00012901,0.00000454,-0.00000309,0.00002626,-0.0
 2356043,0.01406088,0.02764589,0.00007872,-0.00037691,-0.00004983,-0.00
 102847,0.00010781,0.00000239,0.00024401,0.00057521,-0.00001563,-0.0027
 5263,0.00401297,0.00091040,0.00138740,0.00043622,0.00028229,-0.0190193
 9,-0.01492399,0.00052417,0.00017858,-0.00113878,0.00000154,0.00325264,
 0.00270701,0.00007512,-0.27107591,-0.11715221,0.00824944,0.00003121,0.
 00016667,0.00002795,0.00110565,0.00014825,-0.00037092,-0.00011617,0.00
 004085,0.00000868,0.00068347,-0.00040926,-0.00027713,0.28700898,-0.000
 14592,-0.00004567,0.00002874,0.00024045,0.00020505,0.00005938,0.001038
 43,-0.00062442,-0.00007063,0.00333204,-0.00126159,-0.00074355,0.001411
 62,-0.00533691,-0.00071233,0.01609883,0.01117670,-0.00053872,0.0001039
 9,0.00059982,-0.00004341,-0.02855540,-0.01066009,0.00107781,-0.1175572
 2,-0.12219718,0.00237414,-0.00119431,-0.00037149,0.00003612,-0.0006497
 6,0.00086973,0.00037306,0.00001270,-0.00000391,-0.00000009,0.00044401,
 0.00120217,0.00023213,0.12564999,0.12649727,-0.00003847,0.00004363,-0.
 00036389,0.00001207,0.00006563,-0.00107421,0.00001224,-0.00004174,-0.0
 0053348,0.00086702,-0.00079047,0.00782959,0.00033496,-0.00065113,0.005
 36087,0.00232246,0.00142805,0.00276927,0.00007428,0.00003745,0.0012259
 8,-0.00173481,-0.00089890,0.00201600,0.00822907,0.00235138,-0.03475943
 ,-0.00005038,-0.00004919,0.00031596,-0.00041709,0.00032203,-0.00482968
 ,0.00000723,-0.00000190,-0.00001526,-0.00022687,0.00028556,-0.00327384
 ,-0.00937450,-0.00208506,0.02534304,-0.09501264,0.00139750,0.00288852,
 0.01934574,0.00350428,-0.00187684,-0.01580417,-0.02480455,-0.00103272,
 -0.00879116,0.00307271,0.00086084,0.00492657,0.00097724,-0.00024248,0.
 00277520,-0.00060380,-0.00013493,-0.00096489,0.01406264,0.00110434,-0.
 00143554,-0.00240049,-0.00002709,-0.00028844,0.00287120,0.00015231,-0.
 00411074,-0.00029378,0.00023458,-0.00001967,0.00025288,0.00004202,0.00
 140331,0.00180261,0.00013785,0.00042206,-0.00003674,-0.00002441,0.0002
 6781,0.00031526,-0.00000006,0.89439848,0.00831209,-0.06438255,-0.00142
 004,0.01352097,-0.04564830,-0.00250579,-0.04198317,0.00050616,0.003059
 98,-0.00460331,0.01452054,0.00104674,0.00702430,0.00017024,-0.00039845
 ,0.00291123,-0.00006198,-0.00027512,0.01428600,0.01661837,-0.00016198,
 -0.00110485,-0.00814540,-0.00042245,-0.00023547,0.00503851,0.00032968,
 0.00472998,-0.00055101,-0.00033968,0.00082880,0.00099886,-0.00001208,0
 .00063038,0.00159471,-0.00008842,0.00073801,-0.00008437,-0.00005112,0.
 00057697,0.00000422,-0.00003483,-0.18229693,0.46108561,0.00333512,-0.0
 0125518,-0.04863192,-0.00118207,-0.00206600,-0.01325952,-0.00200909,0.
 00206206,-0.00789081,0.00039061,0.00055468,0.00170373,0.00014860,-0.00
 003084,-0.00011858,0.00009255,-0.00002791,0.00132474,0.00112682,-0.000
 04691,0.00363468,0.00003556,-0.00034786,0.00040475,-0.00002643,0.00016
 237,-0.00048030,0.00044239,0.00000234,-0.00042992,0.00007573,0.0000257
 0,0.00035429,0.00009218,-0.00013658,0.00220910,0.00002371,-0.00000560,
 0.00004214,0.00001749,-0.00001358,-0.00002803,-0.04450312,0.02200821,0
 .23047748,0.01048844,0.01704379,0.00125771,0.00404371,-0.00104699,0.00
 001574,-0.00526032,0.00079826,0.00036845,-0.00025789,0.00244790,0.0001
 9071,-0.00561238,-0.00047823,0.00035716,0.00030897,-0.00042922,-0.0000
 5122,0.00190219,0.00107844,-0.00007317,0.00075578,-0.00310650,-0.00019
 591,-0.00063366,0.00023762,0.00003729,0.00119111,-0.00318558,-0.000583
 12,0.00009014,0.00001488,-0.00000550,0.00017050,0.00001986,-0.00006593
 ,-0.00007903,0.00004017,0.00001310,-0.00001369,-0.00033170,-0.00002365
 ,-0.28758178,0.19919193,0.02133492,0.38117627,0.03023734,-0.08463164,-
 0.00736389,-0.01348549,-0.00169387,0.00048167,0.01222772,0.00316083,-0
 .00051905,0.00211292,-0.00388796,-0.00039294,-0.00395466,-0.00048218,0
 .00016828,-0.00035407,0.00041979,0.00005876,-0.00017610,-0.00809297,-0
 .00045212,-0.00018152,0.00162826,0.00010785,-0.00047439,-0.00108251,-0
 .00002840,-0.00286926,-0.00254791,-0.00017974,-0.00019462,-0.00031015,
 -0.00000589,-0.00092584,-0.00127711,0.00002966,-0.00031202,0.00001978,
 0.00001764,-0.00024331,-0.00006670,0.00001153,0.20234269,-0.29066015,-
 0.02176007,-0.26748804,0.37598127,0.00193835,-0.00660608,0.01554627,-0
 .00064164,-0.00028323,0.00497796,0.00098948,0.00018143,0.00002069,0.00
 017354,-0.00037982,0.00041680,0.00020009,-0.00006794,0.00091909,-0.000
 05810,0.00005303,-0.00014387,-0.00016917,-0.00050539,-0.00042392,-0.00
 003178,0.00027887,0.00027171,0.00001276,-0.00007685,-0.00013008,-0.000
 53774,-0.00016036,-0.00042602,-0.00001848,-0.00001608,-0.00003208,-0.0
 0011789,-0.00001674,-0.00092668,-0.00000938,-0.00000382,0.00004451,-0.
 00001536,0.00001876,-0.00004315,0.02141214,-0.02141274,-0.08518264,-0.
 03231336,0.03294124,0.03548111,-0.05914431,-0.04482216,0.00145123,-0.0
 0320581,0.01136580,0.00174654,0.01328296,-0.00410554,-0.00089067,0.001
 24868,-0.00336877,-0.00027675,-0.00427156,-0.00051852,0.00022688,-0.00
 154298,-0.00082222,0.00002734,-0.00375158,-0.00585266,-0.00011557,0.00
 125631,0.00184996,0.00000638,0.00014749,-0.00233450,-0.00013324,0.0018
 6975,0.00025477,-0.00010116,-0.00038123,-0.00040697,-0.00000682,-0.000
 19080,-0.00056068,-0.00002311,-0.00035649,0.00005508,0.00002373,-0.000
 23221,-0.00021300,0.00000649,-0.50953016,-0.02252694,0.02060503,-0.100
 68837,0.04373866,0.00918654,0.66549032,-0.05591361,-0.02388581,0.00064
 644,-0.00685789,-0.00066177,-0.00014880,0.00824316,-0.00535706,-0.0011
 1880,-0.00253683,-0.00367441,-0.00002446,-0.00049067,-0.00019597,0.000
 03756,0.00018330,-0.00023388,0.00001896,-0.00369009,-0.00058750,0.0002
 1568,-0.00018385,0.00121720,0.00010173,-0.00042720,-0.00059980,-0.0000
 1977,-0.00095089,0.00030555,0.00006908,-0.00029493,-0.00031162,0.00000
 623,0.00002324,-0.00030789,-0.00001200,-0.00022463,0.00000564,0.000014
 34,-0.00017749,0.00001300,0.00000794,-0.02016272,-0.09100347,0.0008751
 7,0.05519340,0.01352322,-0.00394429,0.02826770,0.11175457,0.00078237,0
 .00007111,0.01639000,0.00051846,-0.00101435,0.00148157,0.00001195,-0.0
 0036168,0.00382753,-0.00027230,-0.00003123,-0.00014517,0.00016572,0.00
 003675,-0.00034036,0.00006615,0.00006267,-0.00059754,-0.00003421,0.000
 32216,-0.00022840,-0.00010656,-0.00002238,-0.00034390,-0.00002997,0.00
 008372,0.00021715,-0.00011965,-0.00001351,0.00027936,-0.00000531,0.000
 00645,-0.00009923,0.00000389,0.00001638,-0.00014220,0.00000257,-0.0000
 0186,-0.00001209,0.00000391,0.00000726,0.00006027,0.02100905,0.0006780
 7,-0.08412919,0.00973678,-0.00311452,0.02963029,-0.03173284,0.00327497
 ,0.03415190\\-0.00002328,-0.00005325,-0.00000017,0.00000535,0.00000001
 ,-0.00000129,-0.00000197,0.00000079,0.00000074,0.00000253,0.00000555,-
 0.00000224,0.00000094,0.00000088,0.00000129,0.00000676,0.00000308,-0.0
 0000413,0.00000674,0.00000690,-0.00000286,0.00000145,-0.00000137,-0.00
 000014,0.00000388,-0.00000008,-0.00000275,0.00000203,0.00000045,0.0000
 0118,0.00000277,0.00000296,-0.00000251,0.00000454,0.00000697,-0.000001
 85,0.00000199,0.00000073,0.00000047,0.00000337,0.00000129,-0.00000144,
 -0.00000301,0.00004371,0.00000567,-0.00002325,-0.00001341,0.00000736,0
 .00000917,-0.00000521,0.00000268\\\@
 The archive entry for this job was punched.


    THE DOUGHNUT CREED
 AS YOU RAMBLE ON THROUGH LIFE, BROTHER
 WHATEVER BE YOUR GOAL
 KEEP YOUR EYE UPON THE DOUGHNUT
 AND NOT UPON THE HOLE.
 Job cpu time:       0 days  0 hours 58 minutes  2.9 seconds.
 Elapsed time:       0 days  0 hours 30 minutes  0.3 seconds.
 File lengths (MBytes):  RWF=    225 Int=      0 D2E=      0 Chk=     25 Scr=      1
 Normal termination of Gaussian 16 at Fri Jun  2 13:02:31 2023.
