 Entering Gaussian System, Link 0=g16
 Input=PyrCHO-isolated-freq.gjf
 Output=PyrCHO-isolated-freq.log
 Initial command:
 /software/commercial/gaussian/g16/AVX2/g16/l1.exe "/scratch1/svicchi/G09-1734036.pbs02/Gau-1106313.inp" -scrdir="/scratch1/svicchi/G09-1734036.pbs02/"
 Entering Link 1 = /software/commercial/gaussian/g16/AVX2/g16/l1.exe PID=   1106314.
  
 Copyright (c) 1988-2021, Gaussian, Inc.  All Rights Reserved.
  
 This is part of the Gaussian(R) 16 program.  It is based on
 the Gaussian(R) 09 system (copyright 2009, Gaussian, Inc.),
 the Gaussian(R) 03 system (copyright 2003, Gaussian, Inc.),
 the Gaussian(R) 98 system (copyright 1998, Gaussian, Inc.),
 the Gaussian(R) 94 system (copyright 1995, Gaussian, Inc.),
 the Gaussian 92(TM) system (copyright 1992, Gaussian, Inc.),
 the Gaussian 90(TM) system (copyright 1990, Gaussian, Inc.),
 the Gaussian 88(TM) system (copyright 1988, Gaussian, Inc.),
 the Gaussian 86(TM) system (copyright 1986, Carnegie Mellon
 University), and the Gaussian 82(TM) system (copyright 1983,
 Carnegie Mellon University). Gaussian is a federally registered
 trademark of Gaussian, Inc.
  
 This software contains proprietary and confidential information,
 including trade secrets, belonging to Gaussian, Inc.
  
 This software is provided under written license and may be
 used, copied, transmitted, or stored only in accord with that
 written license.
  
 The following legend is applicable only to US Government
 contracts under FAR:
  
                    RESTRICTED RIGHTS LEGEND
  
 Use, reproduction and disclosure by the US Government is
 subject to restrictions as set forth in subparagraphs (a)
 and (c) of the Commercial Computer Software - Restricted
 Rights clause in FAR 52.227-19.
  
 Gaussian, Inc.
 340 Quinnipiac St., Bldg. 40, Wallingford CT 06492
  
  
 ---------------------------------------------------------------
 Warning -- This program may not be used in any manner that
 competes with the business of Gaussian, Inc. or will provide
 assistance to any competitor of Gaussian, Inc.  The licensee
 of this program is prohibited from giving any competitor of
 Gaussian, Inc. access to this program.  By using this program,
 the user acknowledges that Gaussian, Inc. is engaged in the
 business of creating and licensing software in the field of
 computational chemistry and represents and warrants to the
 licensee that it is not a competitor of Gaussian, Inc. and that
 it will not use this program in any manner prohibited above.
 ---------------------------------------------------------------
  

 Cite this work as:
 Gaussian 16, Revision C.02,
 M. J. Frisch, G. W. Trucks, H. B. Schlegel, G. E. Scuseria, 
 M. A. Robb, J. R. Cheeseman, G. Scalmani, V. Barone, 
 G. A. Petersson, H. Nakatsuji, X. Li, M. Caricato, A. V. Marenich, 
 J. Bloino, B. G. Janesko, R. Gomperts, B. Mennucci, H. P. Hratchian, 
 J. V. Ortiz, A. F. Izmaylov, J. L. Sonnenberg, D. Williams-Young, 
 F. Ding, F. Lipparini, F. Egidi, J. Goings, B. Peng, A. Petrone, 
 T. Henderson, D. Ranasinghe, V. G. Zakrzewski, J. Gao, N. Rega, 
 G. Zheng, W. Liang, M. Hada, M. Ehara, K. Toyota, R. Fukuda, 
 J. Hasegawa, M. Ishida, T. Nakajima, Y. Honda, O. Kitao, H. Nakai, 
 T. Vreven, K. Throssell, J. A. Montgomery, Jr., J. E. Peralta, 
 F. Ogliaro, M. J. Bearpark, J. J. Heyd, E. N. Brothers, K. N. Kudin, 
 V. N. Staroverov, T. A. Keith, R. Kobayashi, J. Normand, 
 K. Raghavachari, A. P. Rendell, J. C. Burant, S. S. Iyengar, 
 J. Tomasi, M. Cossi, J. M. Millam, M. Klene, C. Adamo, R. Cammi, 
 J. W. Ochterski, R. L. Martin, K. Morokuma, O. Farkas, 
 J. B. Foresman, and D. J. Fox, Gaussian, Inc., Wallingford CT, 2019.
 
 ******************************************
 Gaussian 16:  ES64L-G16RevC.02  7-Dec-2021
                14-Dec-2023 
 ******************************************
 %NProcShared=12
 Will use up to   12 processors via shared memory.
 %mem=110gb
 %chk=/scratch1/svicchi/G09-1734036.pbs02/02-freq/PyrCHO-isolated-freq.chk
 ----------------------------------------------------------------------
 #p freq=raman scale=0.967 guess=read geom=allcheck b3lyp/6-311+G(d,p) 
 int=grid=ultrafine EmpiricalDispersion=GD3BJ SCRF=(Solvent=ethanol) sc
 f=(xqc,intrep,maxconventionalcycle=350) nosymm
 ----------------------------------------------------------------------
 1/10=4,29=7,30=1,38=1,114=967000/1,3;
 2/12=2,15=1,40=1/2;
 3/5=4,6=6,7=111,11=2,14=-4,25=1,30=1,70=2201,71=2,72=4,74=-5,75=-5,116=-2,124=41,140=1/1,2,3;
 4/5=1/1;
 5/5=2,8=3,13=1,17=20,38=6,53=4,85=350,98=1/2,8;
 8/6=4,10=90,11=11/1;
 10/13=10,15=4,31=1/2;
 11/6=3,8=1,9=11,15=111,16=1,31=1/1,2,10;
 10/6=1,31=1/2;
 6/7=2,8=2,9=2,10=2,28=1/1;
 7/8=1,10=1,25=1,30=1/1,2,3,16;
 1/10=4,30=1/3;
 99//99;
 Leave Link    1 at Thu Dec 14 12:33:48 2023, MaxMem= 14763950080 cpu:               0.1 elap:               0.1
 (Enter /software/commercial/gaussian/g16/AVX2/g16/l101.exe)
 Structure from the checkpoint file:  "/scratch1/svicchi/G09-1734036.pbs02/02-freq/PyrCHO-isolated-freq.chk"
 ---------------
 PyrCHO-isolated
 ---------------
 Charge = -1 Multiplicity = 1
 No Z-Matrix found in chk file; cartesian coordinates used.
  C                                                -0.335738184010      0.695307542743      0.146236047388
  C                                                -1.181647984795     -0.331138721577     -0.358261189024
  C                                                -0.342039001527     -1.400978436272     -0.662540803210
  H                                                -2.255950218537     -0.282588093247     -0.478285874481
  C                                                 0.971067274537     -0.973981644236     -0.328539500146
  N                                                 0.949949774828      0.322087159509      0.168177510439
  H                                                -0.638900340618      1.679427950370      0.486529981582
  C                                                 2.205319946024     -1.673211627078     -0.437194269144
  H                                                -0.618500969911     -2.363176582912     -1.069911838169
  O                                                 2.382008481996     -2.830216720725     -0.856606348070
  H                                                 3.080330222014     -1.081102826575     -0.098513717166
 Recover connectivity data from disk.
 ITRead=  0  0  0  0  0  0  0  0  0  0  0
 MicOpt= -1 -1 -1 -1 -1 -1 -1 -1 -1 -1 -1
 NAtoms=     11 NQM=       11 NQMF=       0 NMMI=      0 NMMIF=      0
                NMic=       0 NMicF=      0.
                    Isotopes and Nuclear Properties:
 (Nuclear quadrupole moments (NQMom) in fm**2, nuclear magnetic moments (NMagM)
  in nuclear magnetons)

  Atom         1           2           3           4           5           6           7           8           9          10
 IAtWgt=          12          12          12           1          12          14           1          12           1          16
 AtmWgt=  12.0000000  12.0000000  12.0000000   1.0078250  12.0000000  14.0030740   1.0078250  12.0000000   1.0078250  15.9949146
 NucSpn=           0           0           0           1           0           2           1           0           1           0
 AtZEff=   3.6000000   3.6000000   3.6000000   1.0000000   3.6000000   4.5500000   1.0000000   3.6000000   1.0000000   5.6000000
 NQMom=    0.0000000   0.0000000   0.0000000   0.0000000   0.0000000   2.0440000   0.0000000   0.0000000   0.0000000   0.0000000
 NMagM=    0.0000000   0.0000000   0.0000000   2.7928460   0.0000000   0.4037610   2.7928460   0.0000000   2.7928460   0.0000000
 AtZNuc=   6.0000000   6.0000000   6.0000000   1.0000000   6.0000000   7.0000000   1.0000000   6.0000000   1.0000000   8.0000000

  Atom        11
 IAtWgt=           1
 AtmWgt=   1.0078250
 NucSpn=           1
 AtZEff=   1.0000000
 NQMom=    0.0000000
 NMagM=    2.7928460
 AtZNuc=   1.0000000
 Leave Link  101 at Thu Dec 14 12:33:48 2023, MaxMem= 14763950080 cpu:               0.1 elap:               0.1
 (Enter /software/commercial/gaussian/g16/AVX2/g16/l103.exe)

 GradGradGradGradGradGradGradGradGradGradGradGradGradGradGradGradGradGrad
 Berny optimization.
 Initialization pass.
 Trust Radius=3.00D-01 FncErr=1.00D-07 GrdErr=1.00D-07 EigMax=2.50D+02 EigMin=1.00D-04
 Number of steps in this run=      2 maximum allowed number of steps=      2.
 GradGradGradGradGradGradGradGradGradGradGradGradGradGradGradGradGradGrad

 Leave Link  103 at Thu Dec 14 12:33:48 2023, MaxMem= 14763950080 cpu:               0.0 elap:               0.0
 (Enter /software/commercial/gaussian/g16/AVX2/g16/l202.exe)
                          Input orientation:                          
 ---------------------------------------------------------------------
 Center     Atomic      Atomic             Coordinates (Angstroms)
 Number     Number       Type             X           Y           Z
 ---------------------------------------------------------------------
      1          6           0       -0.335738    0.695308    0.146236
      2          6           0       -1.181648   -0.331139   -0.358261
      3          6           0       -0.342039   -1.400978   -0.662541
      4          1           0       -2.255950   -0.282588   -0.478286
      5          6           0        0.971067   -0.973982   -0.328540
      6          7           0        0.949950    0.322087    0.168178
      7          1           0       -0.638900    1.679428    0.486530
      8          6           0        2.205320   -1.673212   -0.437194
      9          1           0       -0.618501   -2.363177   -1.069912
     10          8           0        2.382008   -2.830217   -0.856606
     11          1           0        3.080330   -1.081103   -0.098514
 ---------------------------------------------------------------------
                    Distance matrix (angstroms):
                    1          2          3          4          5
     1  C    0.000000
     2  C    1.422559   0.000000
     3  C    2.246903   1.393588   0.000000
     4  H    2.243551   1.082076   2.224366   0.000000
     5  C    2.172482   2.246845   1.420609   3.303648   0.000000
     6  N    1.338943   2.290753   2.308307   3.325860   1.388153
     7  H    1.084528   2.247360   3.301120   2.719417   3.208881
     8  C    3.522393   3.644028   2.571756   4.673163   1.422712
     9  H    3.303528   2.225480   1.080837   2.712952   2.237459
    10  O    4.563021   4.381026   3.082340   5.305111   2.390652
    11  H    3.858116   4.335248   3.483254   5.409043   2.124471
                    6          7          8          9         10
     6  N    0.000000
     7  H    2.113804   0.000000
     8  C    2.433854   4.492555   0.000000
     9  H    3.347170   4.331926   2.974953   0.000000
    10  O    3.610816   5.591672   1.243296   3.044123   0.000000
    11  H    2.564876   4.668563   1.109478   4.033445   2.030211
                   11
    11  H    0.000000
 Symmetry turned off by external request.
 Stoichiometry    C5H4NO(1-)
 Framework group  C1[X(C5H4NO)]
 Deg. of freedom    27
 Full point group                 C1      NOp   1
 Rotational constants (GHZ):           8.1533214           2.0505130           1.6384530
 Leave Link  202 at Thu Dec 14 12:33:49 2023, MaxMem= 14763950080 cpu:               0.0 elap:               0.0
 (Enter /software/commercial/gaussian/g16/AVX2/g16/l301.exe)
 Standard basis: 6-311+G(d,p) (5D, 7F)
 Ernie: Thresh=  0.10000D-02 Tol=  0.10000D-05 Strict=F.
   178 basis functions,   284 primitive gaussians,   185 cartesian basis functions
    25 alpha electrons       25 beta electrons
       nuclear repulsion energy       257.9241218912 Hartrees.
 IExCor=  402 DFT=T Ex+Corr=B3LYP ExCW=0 ScaHFX=  0.200000
 ScaDFX=  0.800000  0.720000  1.000000  0.810000 ScalE2=  1.000000  1.000000
 IRadAn=      5 IRanWt=     -1 IRanGd=            0 ICorTp=0 IEmpDi=141
 NAtoms=   11 NActive=   11 NUniq=   11 SFac= 1.00D+00 NAtFMM=   60 NAOKFM=F Big=F
 Integral buffers will be    131072 words long.
 Raffenetti 2 integral format.
 Two-electron integral symmetry is turned off.
 R6Disp:  Grimme-D3(BJ) Dispersion energy=       -0.0167807260 Hartrees.
 Nuclear repulsion after empirical dispersion term =      257.9073411652 Hartrees.
 Force inversion solution in PCM.
 ------------------------------------------------------------------------------
 Polarizable Continuum Model (PCM)
 =================================
 Model                : PCM.
 Atomic radii         : UFF (Universal Force Field).
 Polarization charges : Total charges.
 Charge compensation  : None.
 Solution method      : Matrix inversion.
 Cavity type          : Scaled VdW (van der Waals Surface) (Alpha=1.100).
 Cavity algorithm     : GePol (No added spheres)
                        Default sphere list used, NSphG=   11.
                        Lebedev-Laikov grids with approx.  5.0 points / Ang**2.
                        Smoothing algorithm: York/Karplus (Gamma=1.0000).
                        Polarization charges: spherical gaussians, with
                                              point-specific exponents (IZeta= 3).
                        Self-potential: point-specific (ISelfS= 7).
                        Self-field    : sphere-specific E.n sum rule (ISelfD= 2).
 1st derivatives      : Analytical E(r).r(x)/FMM algorithm (CHGder, D1EAlg=3).
                        Cavity 1st derivative terms included.
 2nd derivatives      : Analytical E(r).r(xy)/FMM algorithm (CHGder, D2EAlg=3).
                        Cavity 2nd derivative terms included.
 Solvent              : Ethanol, Eps=  24.852000 Eps(inf)=   1.852593
 ------------------------------------------------------------------------------
 Spheres list:
 ISph  on   Nord     Re0    Alpha      Xe            Ye            Ze
    1   C      1    1.9255  1.100     -0.335738      0.695308      0.146236
    2   C      2    1.9255  1.100     -1.181648     -0.331139     -0.358261
    3   C      3    1.9255  1.100     -0.342039     -1.400978     -0.662541
    4   H      4    1.4430  1.100     -2.255950     -0.282588     -0.478286
    5   C      5    1.9255  1.100      0.971067     -0.973982     -0.328540
    6   N      6    1.8300  1.100      0.949950      0.322087      0.168178
    7   H      7    1.4430  1.100     -0.638900      1.679428      0.486530
    8   C      8    1.9255  1.100      2.205320     -1.673212     -0.437194
    9   H      9    1.4430  1.100     -0.618501     -2.363177     -1.069912
   10   O     10    1.7500  1.100      2.382008     -2.830217     -0.856606
   11   H     11    1.4430  1.100      3.080330     -1.081103     -0.098514
 ------------------------------------------------------------------------------
 GePol: Number of generator spheres                  =      11
 GePol: Total number of spheres                      =      11
 GePol: Number of exposed spheres                    =      11 (100.00%)
 GePol: Number of points                             =    1101
 GePol: Average weight of points                     =       0.14
 GePol: Minimum weight of points                     =   0.20D-09
 GePol: Maximum weight of points                     =    0.20577
 GePol: Number of points with low weight             =      51
 GePol: Fraction of low-weight points (<1% of avg)   =       4.63%
 GePol: Cavity surface area                          =    149.324 Ang**2
 GePol: Cavity volume                                =    139.791 Ang**3
 Leave Link  301 at Thu Dec 14 12:33:49 2023, MaxMem= 14763950080 cpu:               0.1 elap:               0.1
 (Enter /software/commercial/gaussian/g16/AVX2/g16/l302.exe)
 NPDir=0 NMtPBC=     1 NCelOv=     1 NCel=       1 NClECP=     1 NCelD=      1
         NCelK=      1 NCelE2=     1 NClLst=     1 CellRange=     0.0.
 One-electron integrals computed using PRISM.
 NBasis=   178 RedAO= T EigKep=  1.15D-05  NBF=   178
 NBsUse=   178 1.00D-06 EigRej= -1.00D+00 NBFU=   178
 Precomputing XC quadrature grid using
 IXCGrd= 4 IRadAn=           5 IRanWt=          -1 IRanGd=           0 AccXCQ= 0.00D+00.
 Generated NRdTot=       0 NPtTot=           0 NUsed=           0 NTot=          32
 NSgBfM=   185   185   185   185   185 MxSgAt=    11 MxSgA2=    11.
 Leave Link  302 at Thu Dec 14 12:33:49 2023, MaxMem= 14763950080 cpu:               0.7 elap:               0.1
 (Enter /software/commercial/gaussian/g16/AVX2/g16/l303.exe)
 DipDrv:  MaxL=1.
 Leave Link  303 at Thu Dec 14 12:33:50 2023, MaxMem= 14763950080 cpu:               0.1 elap:               0.1
 (Enter /software/commercial/gaussian/g16/AVX2/g16/l401.exe)
 Initial guess from the checkpoint file:  "/scratch1/svicchi/G09-1734036.pbs02/02-freq/PyrCHO-isolated-freq.chk"
 B after Tr=     0.000000    0.000000    0.000000
         Rot=    1.000000    0.000000    0.000000    0.000000 Ang=   0.00 deg.
 Guess basis will be translated and rotated to current coordinates.
 JPrj=2 DoOrth=T DoCkMO=T.
 Leave Link  401 at Thu Dec 14 12:33:50 2023, MaxMem= 14763950080 cpu:               0.4 elap:               0.1
 (Enter /software/commercial/gaussian/g16/AVX2/g16/l502.exe)
 Keep R1 ints in memory in canonical form, NReq=139071061.
 FoFCou: FMM=F IPFlag=           0 FMFlag=           0 FMFlg1=           0
         NFxFlg=           0 DoJE=F BraDBF=F KetDBF=F FulRan=T
         wScrn=  0.000000 ICntrl=       600 IOpCl=  0 I1Cent=           0 NGrid=           0
         NMat0=    1 NMatS0=  15931 NMatT0=    0 NMatD0=    1 NMtDS0=    0 NMtDT0=    0
 Symmetry not used in FoFCou.
 Two-electron integral symmetry not used.
 Closed shell SCF:
 Using DIIS extrapolation, IDIIS=  1040.
 NGot= 14763950080 LenX= 14636971401 LenY= 14636936735
 Requested convergence on RMS density matrix=1.00D-08 within 350 cycles.
 Requested convergence on MAX density matrix=1.00D-06.
 Requested convergence on             energy=1.00D-06.
 No special actions if energy rises.

 Cycle   1  Pass 1  IDiag  1:
 Inv3:  Mode=1 IEnd=     3636603.
 Iteration    1 A*A^-1 deviation from unit magnitude is 2.89D-15 for     32.
 Iteration    1 A*A^-1 deviation from orthogonality  is 1.89D-15 for    979     44.
 Iteration    1 A^-1*A deviation from unit magnitude is 3.33D-15 for     32.
 Iteration    1 A^-1*A deviation from orthogonality  is 1.68D-15 for    795    490.
 E= -323.139325907448    
 DIIS: error= 7.22D-09 at cycle   1 NSaved=   1.
 NSaved= 1 IEnMin= 1 EnMin= -323.139325907448     IErMin= 1 ErrMin= 7.22D-09
 ErrMax= 7.22D-09  0.00D+00 EMaxC= 1.00D-01 BMatC= 6.34D-15 BMatP= 6.34D-15
 IDIUse=1 WtCom= 1.00D+00 WtEn= 0.00D+00
 Coeff-Com:  0.100D+01
 Coeff:      0.100D+01
 Gap=     0.170 Goal=   None    Shift=    0.000
 RMSDP=2.24D-09 MaxDP=1.13D-07              OVMax= 5.52D-08

 Error on total polarization charges =  0.02145
 SCF Done:  E(RB3LYP) =  -323.139325907     A.U. after    1 cycles
            NFock=  1  Conv=0.22D-08     -V/T= 2.0042
 KE= 3.217821270968D+02 PE=-1.280186741921D+03 EE= 3.773579477517D+02
 Leave Link  502 at Thu Dec 14 12:33:52 2023, MaxMem= 14763950080 cpu:              13.3 elap:               1.5
 (Enter /software/commercial/gaussian/g16/AVX2/g16/l508.exe)
 QCSCF skips out because SCF is already converged.
 Leave Link  508 at Thu Dec 14 12:33:52 2023, MaxMem= 14763950080 cpu:               0.1 elap:               0.0
 (Enter /software/commercial/gaussian/g16/AVX2/g16/l801.exe)
 DoSCS=F DFT=T ScalE2(SS,OS)=  1.000000  1.000000
 Range of M.O.s used for correlation:     1   178
 NBasis=   178 NAE=    25 NBE=    25 NFC=     0 NFV=     0
 NROrb=    178 NOA=    25 NOB=    25 NVA=   153 NVB=   153

 **** Warning!!: The largest alpha MO coefficient is  0.86613553D+02

 Leave Link  801 at Thu Dec 14 12:33:52 2023, MaxMem= 14763950080 cpu:               0.1 elap:               0.1
 (Enter /software/commercial/gaussian/g16/AVX2/g16/l1002.exe)
 Minotr:  Closed shell wavefunction.
 NEqPCM:  Using equilibrium solvation (IEInf=0, Eps=  24.8520, EpsInf=   1.8526)
          Direct CPHF calculation.
          Differentiating once with respect to electric field.
                with respect to dipole field.
          Electric field/nuclear overlap derivatives assumed to be zero.
          Requested convergence is 1.0D-08 RMS, and 1.0D-07 maximum.
          Secondary convergence is 1.0D-12 RMS, and 1.0D-12 maximum.
          NewPWx=F KeepS1=T KeepF1=T KeepIn=T MapXYZ=F SortEE=F KeepMc=T.
         3370 words used for storage of precomputed grid.
 Keep R1 ints in memory in canonical form, NReq=139038466.
 FoFCou: FMM=F IPFlag=           0 FMFlag=           0 FMFlg1=           0
         NFxFlg=           0 DoJE=F BraDBF=F KetDBF=F FulRan=T
         wScrn=  0.000000 ICntrl=       600 IOpCl=  0 I1Cent=           0 NGrid=           0
         NMat0=    1 NMatS0=  15931 NMatT0=    0 NMatD0=    1 NMtDS0=    0 NMtDT0=    0
 Symmetry not used in FoFCou.
 Two-electron integral symmetry not used.
          MDV=   14763950080 using IRadAn=       1.
          Solving linear equations simultaneously, MaxMat=       0.
          There are     3 degrees of freedom in the 1st order CPHF.  IDoFFX=0 NUNeed=     3.
      3 vectors produced by pass  0 Test12= 1.28D-13 3.33D-08 XBig12= 1.61D+02 1.04D+01.
 AX will form     3 AO Fock derivatives at one time.
      3 vectors produced by pass  1 Test12= 1.28D-13 3.33D-08 XBig12= 5.97D+01 1.62D+00.
      3 vectors produced by pass  2 Test12= 1.28D-13 3.33D-08 XBig12= 8.72D+00 1.10D+00.
      3 vectors produced by pass  3 Test12= 1.28D-13 3.33D-08 XBig12= 4.67D+00 7.25D-01.
      3 vectors produced by pass  4 Test12= 1.28D-13 3.33D-08 XBig12= 5.18D-01 1.95D-01.
      3 vectors produced by pass  5 Test12= 1.28D-13 3.33D-08 XBig12= 1.23D-01 9.20D-02.
      3 vectors produced by pass  6 Test12= 1.28D-13 3.33D-08 XBig12= 9.44D-03 1.30D-02.
      3 vectors produced by pass  7 Test12= 1.28D-13 3.33D-08 XBig12= 2.47D-03 1.74D-02.
      3 vectors produced by pass  8 Test12= 1.28D-13 3.33D-08 XBig12= 2.45D-04 3.57D-03.
      3 vectors produced by pass  9 Test12= 1.28D-13 3.33D-08 XBig12= 7.92D-06 6.17D-04.
      3 vectors produced by pass 10 Test12= 1.28D-13 3.33D-08 XBig12= 1.56D-07 7.48D-05.
      2 vectors produced by pass 11 Test12= 1.28D-13 3.33D-08 XBig12= 2.82D-09 8.58D-06.
      2 vectors produced by pass 12 Test12= 1.28D-13 3.33D-08 XBig12= 6.51D-11 1.30D-06.
      1 vectors produced by pass 13 Test12= 1.28D-13 3.33D-08 XBig12= 1.07D-12 1.61D-07.
 InvSVY:  IOpt=1 It=  1 EMax= 3.55D-15
 Solved reduced A of dimension    38 with     3 vectors.
 End of Minotr F.D. properties file   721 does not exist.
 End of Minotr F.D. properties file   722 does not exist.
 End of Minotr F.D. properties file   788 does not exist.
 Leave Link 1002 at Thu Dec 14 12:34:01 2023, MaxMem= 14763950080 cpu:              93.2 elap:               8.4
 (Enter /software/commercial/gaussian/g16/AVX2/g16/l1101.exe)
 Using compressed storage, NAtomX=    11.
 Will process     12 centers per pass.
 R6Disp: Adding Grimme-D3(BJ) dispersion energy 1st derivatives to the gradient.
 Leave Link 1101 at Thu Dec 14 12:34:01 2023, MaxMem= 14763950080 cpu:               0.7 elap:               0.1
 (Enter /software/commercial/gaussian/g16/AVX2/g16/l1102.exe)
 Symmetrizing basis deriv contribution to polar:
 IMax=3 JMax=2 DiffMx= 0.00D+00
 Leave Link 1102 at Thu Dec 14 12:34:01 2023, MaxMem= 14763950080 cpu:               0.1 elap:               0.1
 (Enter /software/commercial/gaussian/g16/AVX2/g16/l1110.exe)
 Forming Gx(P) for the SCF density, NAtomX=    11.
 Integral derivatives from FoFJK, PRISM(SPDF).
 Do as many integral derivatives as possible in FoFJK.
 G2DrvN: MDV=   14763948833.
 G2DrvN: will do    12 centers at a time, making    1 passes.
 PxScal for G2LodP:  IOpCl= 0 ISclPx=1 IMOff=     1 NMtTot=     4 NTT=   15931 ScalPx= 4.39D+01
 Calling FoFCou, ICntrl=  3107 FMM=F I1Cent=   0 AccDes= 0.00D+00.
 FoFJK:  IHMeth= 1 ICntrl=    3107 DoSepK=F KAlg= 0 I1Cent=           0 FoldK=F
 IRaf=         0 NMat=       1 IRICut=       1 DoRegI=T DoRafI=F ISym2E= 0 IDoP0=0 IntGTp=1.
 FoFCou: FMM=F IPFlag=           0 FMFlag=      100000 FMFlg1=           0
         NFxFlg=           0 DoJE=F BraDBF=F KetDBF=F FulRan=T
         wScrn=  0.000000 ICntrl=      3107 IOpCl=  0 I1Cent=           0 NGrid=           0
         NMat0=    1 NMatS0=      1 NMatT0=    0 NMatD0=    4 NMtDS0=    3 NMtDT0=    0
 Symmetry not used in FoFCou.
 PxScal for G2LodP:  IOpCl= 0 ISclPx=0 IMOff=     1 NMtTot=     4 NTT=   15931 ScalPx= 1.00D+00
 NEqPCM:  Using equilibrium solvation (IEInf=0, Eps=  24.8520, EpsInf=   1.8526)
 G2PCM: DoFxE=T DoFxN=T DoGrad=T DoDP/DQ/DG/TGxP=TFFF NFrqRd=   0 IEInf=0 SqF1=F DoCFld=F IF1Alg=4.
 GePol: Maximum number of non-zero 1st derivatives   =     225
 End of G2Drv F.D. properties file   721 does not exist.
 End of G2Drv F.D. properties file   722 does not exist.
 End of G2Drv F.D. properties file   788 does not exist.
 Leave Link 1110 at Thu Dec 14 12:34:13 2023, MaxMem= 14763950080 cpu:             138.0 elap:              11.8
 (Enter /software/commercial/gaussian/g16/AVX2/g16/l1002.exe)
 Minotr:  Closed shell wavefunction.
          IDoAtm=11111111111
 NEqPCM:  Using equilibrium solvation (IEInf=0, Eps=  24.8520, EpsInf=   1.8526)
          Direct CPHF calculation.
          Differentiating once with respect to electric field.
                with respect to dipole field.
          Differentiating once with respect to nuclear coordinates.
          Requested convergence is 1.0D-08 RMS, and 1.0D-07 maximum.
          Secondary convergence is 1.0D-12 RMS, and 1.0D-12 maximum.
          NewPWx=T KeepS1=F KeepF1=F KeepIn=T MapXYZ=F SortEE=F KeepMc=T.
         3370 words used for storage of precomputed grid.
 Keep R1 ints in memory in canonical form, NReq=139040141.
 FoFCou: FMM=F IPFlag=           0 FMFlag=           0 FMFlg1=           0
         NFxFlg=           0 DoJE=F BraDBF=F KetDBF=F FulRan=T
         wScrn=  0.000000 ICntrl=       600 IOpCl=  0 I1Cent=           0 NGrid=           0
         NMat0=    1 NMatS0=  15931 NMatT0=    0 NMatD0=    1 NMtDS0=    0 NMtDT0=    0
 Symmetry not used in FoFCou.
 Two-electron integral symmetry not used.
          MDV=   14763950080 using IRadAn=       1.
          Solving linear equations simultaneously, MaxMat=       0.
          There are    36 degrees of freedom in the 1st order CPHF.  IDoFFX=5 NUNeed=    36.
 Will reuse    3 saved solutions.
     30 vectors produced by pass  0 Test12= 1.06D-14 2.78D-09 XBig12= 1.59D-01 1.83D-01.
 AX will form    30 AO Fock derivatives at one time.
     30 vectors produced by pass  1 Test12= 1.06D-14 2.78D-09 XBig12= 4.47D-02 9.25D-02.
     30 vectors produced by pass  2 Test12= 1.06D-14 2.78D-09 XBig12= 6.03D-04 5.69D-03.
     30 vectors produced by pass  3 Test12= 1.06D-14 2.78D-09 XBig12= 5.24D-06 4.40D-04.
     30 vectors produced by pass  4 Test12= 1.06D-14 2.78D-09 XBig12= 2.21D-08 2.53D-05.
     30 vectors produced by pass  5 Test12= 1.06D-14 2.78D-09 XBig12= 4.97D-11 1.04D-06.
     16 vectors produced by pass  6 Test12= 1.06D-14 2.78D-09 XBig12= 7.93D-14 3.72D-08.
 InvSVY:  IOpt=1 It=  1 EMax= 1.11D-15
 Solved reduced A of dimension   196 with    30 vectors.
 FullF1:  Do perturbations      1 to       3.
 Isotropic polarizability for W=    0.000000      113.87 Bohr**3.
 FullF1:  Do perturbations      1 to       6.
 End of Minotr F.D. properties file   721 does not exist.
 End of Minotr F.D. properties file   722 does not exist.
 End of Minotr F.D. properties file   788 does not exist.
 Leave Link 1002 at Thu Dec 14 12:34:24 2023, MaxMem= 14763950080 cpu:             117.5 elap:              10.5
 (Enter /software/commercial/gaussian/g16/AVX2/g16/l601.exe)
 Copying SCF densities to generalized density rwf, IOpCl= 0 IROHF=0.

 **********************************************************************

            Population analysis using the SCF Density.

 **********************************************************************

 Alpha  occ. eigenvalues --  -19.08390 -14.27053 -10.22468 -10.16077 -10.15413
 Alpha  occ. eigenvalues --  -10.14218 -10.13940  -1.00413  -0.91483  -0.72770
 Alpha  occ. eigenvalues --   -0.70890  -0.60024  -0.53365  -0.50104  -0.47639
 Alpha  occ. eigenvalues --   -0.42788  -0.38872  -0.38744  -0.36386  -0.36114
 Alpha  occ. eigenvalues --   -0.34278  -0.25197  -0.23822  -0.21867  -0.19603
 Alpha virt. eigenvalues --   -0.02587   0.01579   0.03061   0.03723   0.05197
 Alpha virt. eigenvalues --    0.05338   0.05711   0.06567   0.07148   0.08255
 Alpha virt. eigenvalues --    0.09776   0.09957   0.10304   0.12765   0.12817
 Alpha virt. eigenvalues --    0.14112   0.14638   0.15783   0.16301   0.16573
 Alpha virt. eigenvalues --    0.18742   0.19909   0.20501   0.22130   0.22142
 Alpha virt. eigenvalues --    0.22504   0.23898   0.24535   0.25456   0.26099
 Alpha virt. eigenvalues --    0.26865   0.27599   0.28071   0.29651   0.30341
 Alpha virt. eigenvalues --    0.31808   0.36292   0.38404   0.41846   0.44658
 Alpha virt. eigenvalues --    0.48308   0.49110   0.51708   0.54524   0.55905
 Alpha virt. eigenvalues --    0.57051   0.58729   0.59697   0.63023   0.63188
 Alpha virt. eigenvalues --    0.66559   0.67552   0.69619   0.71731   0.76071
 Alpha virt. eigenvalues --    0.77631   0.79466   0.80376   0.82602   0.83679
 Alpha virt. eigenvalues --    0.85895   0.89135   0.90771   0.91180   0.94122
 Alpha virt. eigenvalues --    0.97043   0.98548   0.99548   1.03554   1.09667
 Alpha virt. eigenvalues --    1.12167   1.13681   1.13880   1.16850   1.17151
 Alpha virt. eigenvalues --    1.20283   1.27874   1.28442   1.33659   1.45458
 Alpha virt. eigenvalues --    1.49707   1.56470   1.57657   1.57709   1.60580
 Alpha virt. eigenvalues --    1.64407   1.67724   1.68047   1.73033   1.75499
 Alpha virt. eigenvalues --    1.78930   1.81791   1.82475   1.87709   1.88545
 Alpha virt. eigenvalues --    1.94993   1.97774   1.98941   2.00048   2.01224
 Alpha virt. eigenvalues --    2.02243   2.15692   2.29433   2.30725   2.32514
 Alpha virt. eigenvalues --    2.43635   2.44003   2.49829   2.51151   2.51682
 Alpha virt. eigenvalues --    2.60486   2.64183   2.70464   2.70792   2.74186
 Alpha virt. eigenvalues --    2.75467   2.76870   2.79813   2.81612   2.87198
 Alpha virt. eigenvalues --    2.88935   2.90199   2.96434   3.03001   3.04303
 Alpha virt. eigenvalues --    3.07409   3.24731   3.27375   3.29804   3.34563
 Alpha virt. eigenvalues --    3.40047   3.46338   3.50290   3.58055   3.70050
 Alpha virt. eigenvalues --    3.83057   3.94747   3.95216   4.10302   4.19288
 Alpha virt. eigenvalues --    4.40292   4.54845   5.04486   5.12364   5.19820
 Alpha virt. eigenvalues --    5.74710  23.73870  23.90266  23.98810  24.04446
 Alpha virt. eigenvalues --   24.18536  35.64465  49.99041
          Condensed to atoms (all electrons):
               1          2          3          4          5          6
     1  C    5.286863   0.453051  -0.329630  -0.032798   0.010733   0.290904
     2  C    0.453051   5.260933   0.306234   0.386819  -0.158524  -0.066374
     3  C   -0.329630   0.306234   6.362190  -0.036051  -0.164017   0.154221
     4  H   -0.032798   0.386819  -0.036051   0.544911   0.013643   0.008694
     5  C    0.010733  -0.158524  -0.164017   0.013643   6.759768   0.154722
     6  N    0.290904  -0.066374   0.154221   0.008694   0.154722   7.079408
     7  H    0.428432  -0.048178  -0.021126  -0.000533   0.041964  -0.073525
     8  C    0.049104   0.077654  -0.477274   0.006506  -0.406654  -0.246991
     9  H   -0.006184  -0.003914   0.364587  -0.003590  -0.010072   0.008948
    10  O   -0.005833   0.037389   0.006547   0.000061  -0.203405   0.006763
    11  H   -0.001300   0.005819  -0.003548   0.000036  -0.232941   0.006088
               7          8          9         10         11
     1  C    0.428432   0.049104  -0.006184  -0.005833  -0.001300
     2  C   -0.048178   0.077654  -0.003914   0.037389   0.005819
     3  C   -0.021126  -0.477274   0.364587   0.006547  -0.003548
     4  H   -0.000533   0.006506  -0.003590   0.000061   0.000036
     5  C    0.041964  -0.406654  -0.010072  -0.203405  -0.232941
     6  N   -0.073525  -0.246991   0.008948   0.006763   0.006088
     7  H    0.563906   0.004700  -0.000136   0.000031   0.000037
     8  C    0.004700   6.322403   0.001916   0.361981   0.556586
     9  H   -0.000136   0.001916   0.536803  -0.001934  -0.000313
    10  O    0.000031   0.361981  -0.001934   8.360210  -0.067540
    11  H    0.000037   0.556586  -0.000313  -0.067540   0.639036
 Mulliken charges:
               1
     1  C   -0.143341
     2  C   -0.250908
     3  C   -0.162133
     4  H    0.112303
     5  C    0.194782
     6  N   -0.322858
     7  H    0.104428
     8  C   -0.249933
     9  H    0.113888
    10  O   -0.494269
    11  H    0.098041
 Sum of Mulliken charges =  -1.00000
 Mulliken charges with hydrogens summed into heavy atoms:
               1
     1  C   -0.038913
     2  C   -0.138605
     3  C   -0.048245
     5  C    0.194782
     6  N   -0.322858
     8  C   -0.151891
    10  O   -0.494269
 APT charges:
               1
     1  C   -0.076928
     2  C   -0.379925
     3  C    0.130577
     4  H    0.040769
     5  C   -0.723194
     6  N   -0.283138
     7  H    0.010926
     8  C    1.673467
     9  H    0.071811
    10  O   -1.379434
    11  H   -0.084931
 Sum of APT charges =  -1.00000
 APT charges with hydrogens summed into heavy atoms:
               1
     1  C   -0.066002
     2  C   -0.339156
     3  C    0.202388
     5  C   -0.723194
     6  N   -0.283138
     8  C    1.588536
    10  O   -1.379434
 Electronic spatial extent (au):  <R**2>=            972.6642
 Charge=             -1.0000 electrons
 Dipole moment (field-independent basis, Debye):
    X=             -6.5171    Y=              5.7761    Z=              1.7486  Tot=              8.8822
 Quadrupole moment (field-independent basis, Debye-Ang):
   XX=            -56.9986   YY=            -64.6500   ZZ=            -48.3938
   XY=             12.8679   XZ=              4.0984   YZ=             -5.7068
 Traceless Quadrupole moment (field-independent basis, Debye-Ang):
   XX=             -0.3178   YY=             -7.9692   ZZ=              8.2870
   XY=             12.8679   XZ=              4.0984   YZ=             -5.7068
 Octapole moment (field-independent basis, Debye-Ang**2):
  XXX=           -114.0556  YYY=            176.6934  ZZZ=             46.2089  XYY=            -80.6968
  XXY=             72.2240  XXZ=             24.0764  XZZ=            -31.5507  YZZ=             43.1720
  YYZ=             33.3104  XYZ=            -17.7243
 Hexadecapole moment (field-independent basis, Debye-Ang**3):
 XXXX=           -673.4716 YYYY=           -800.2384 ZZZZ=           -129.8289 XXXY=            278.6437
 XXXZ=             73.8261 YYYX=            347.8638 YYYZ=           -144.0602 ZZZX=             44.3383
 ZZZY=            -98.3614 XXYY=           -333.7686 XXZZ=           -138.1287 YYZZ=           -139.9359
 XXYZ=            -69.0268 YYXZ=             64.8031 ZZXY=             77.3342
 N-N= 2.579073411652D+02 E-N=-1.280186739760D+03  KE= 3.217821270968D+02
  Exact polarizability:     143.269     -31.768     126.663      -2.030      19.884      71.679
 Approx polarizability:     164.035     -40.854     149.181      -3.522      25.279      78.936
 No NMR shielding tensors so no spin-rotation constants.
 Leave Link  601 at Thu Dec 14 12:34:25 2023, MaxMem= 14763950080 cpu:               0.6 elap:               0.1
 (Enter /software/commercial/gaussian/g16/AVX2/g16/l701.exe)
 ... and contract with generalized density number  0.
 Compute integral second derivatives.
 R6Disp: Adding Grimme-D3(BJ) dispersion energy 2nd derivatives to the Hessian.
 D2PCM: PCM CHGder 2nd derivatives, FixD1E=F FixD2E=F DoIter=F DoCFld=F I1PDM=0
 GePol: Maximum number of non-zero 2nd derivatives   =     225
 Leave Link  701 at Thu Dec 14 12:34:26 2023, MaxMem= 14763950080 cpu:              13.9 elap:               1.4
 (Enter /software/commercial/gaussian/g16/AVX2/g16/l702.exe)
 L702 exits ... SP integral derivatives will be done elsewhere.
 Leave Link  702 at Thu Dec 14 12:34:26 2023, MaxMem= 14763950080 cpu:               0.1 elap:               0.0
 (Enter /software/commercial/gaussian/g16/AVX2/g16/l703.exe)
 Integral derivatives from FoFJK, PRISM(SPDF).
 Compute integral second derivatives, UseDBF=F ICtDFT=           0.
 Calling FoFJK, ICntrl=    100127 FMM=F ISym2X=0 I1Cent= 0 IOpClX= 0 NMat=1 NMatS=1 NMatT=0.
 FoFJK:  IHMeth= 1 ICntrl=  100127 DoSepK=F KAlg= 0 I1Cent=           0 FoldK=F
 IRaf=         0 NMat=       1 IRICut=       1 DoRegI=T DoRafI=F ISym2E= 0 IDoP0=0 IntGTp=1.
 FoFCou: FMM=F IPFlag=           0 FMFlag=      100000 FMFlg1=         800
         NFxFlg=           0 DoJE=F BraDBF=F KetDBF=F FulRan=T
         wScrn=  0.000000 ICntrl=    100127 IOpCl=  0 I1Cent=           0 NGrid=           0
         NMat0=    1 NMatS0=      1 NMatT0=    0 NMatD0=    1 NMtDS0=    0 NMtDT0=    0
 Symmetry not used in FoFCou.
 Leave Link  703 at Thu Dec 14 12:34:40 2023, MaxMem= 14763950080 cpu:             162.9 elap:              13.7
 (Enter /software/commercial/gaussian/g16/AVX2/g16/l716.exe)
 Dipole        =-2.56402454D+00 2.27248072D+00 6.87961480D-01
 Polarizability= 1.43268719D+02-3.17677788D+01 1.26663294D+02
                -2.03002358D+00 1.98844471D+01 7.16787030D+01
 HyperPolar    = 6.20872520D+02-5.73764424D+02 2.92379943D+02
                 1.53512631D+02-6.68459574D+01 1.33115099D+02
                -1.16415494D+00-2.47384375D+02 1.39282882D+02
                 4.43136846D+01
 Full mass-weighted force constant matrix:
 Low frequencies ---  -28.3126  -15.6880   -0.0008   -0.0007   -0.0003   18.4524
 Low frequencies ---  160.6556  222.1354  293.9744
 Diagonal vibrational polarizability:
       27.4170451      20.5234951      19.3322776
 Diagonal vibrational hyperpolarizability:
     -127.1119448     128.1142886      38.6961597
 Harmonic frequencies (cm**-1), IR intensities (KM/Mole), Raman scattering
 activities (A**4/AMU), depolarization ratios for plane and unpolarized
 incident light, reduced masses (AMU), force constants (mDyne/A),
 and normal coordinates:
                      1                      2                      3
                      A                      A                      A
 Frequencies --    160.6089               222.1308               293.9707
 Red. masses --      5.4492                 5.7748                 2.3076
 Frc consts  --      0.0828                 0.1679                 0.1175
 IR Inten    --      1.0612                13.0276                37.9862
 Raman Activ --      2.8570                 1.3703                 3.2176
 Depolar (P) --      0.7491                 0.6362                 0.7500
 Depolar (U) --      0.8566                 0.7777                 0.8571
  Atom  AN      X      Y      Z        X      Y      Z        X      Y      Z
     1   6    -0.03  -0.09   0.23     0.10   0.04   0.03     0.00   0.00  -0.00
     2   6    -0.02  -0.05   0.12    -0.09   0.18   0.06    -0.01  -0.04   0.11
     3   6     0.03   0.09  -0.23    -0.27   0.04  -0.02     0.01   0.02  -0.05
     4   1    -0.04  -0.11   0.28    -0.09   0.35   0.12    -0.04  -0.11   0.29
     5   6     0.04   0.12  -0.31    -0.17  -0.17  -0.09     0.02   0.05  -0.13
     6   7     0.01   0.03  -0.07     0.03  -0.17  -0.06     0.01   0.04  -0.11
     7   1    -0.06  -0.19   0.50     0.28   0.08   0.07    -0.00  -0.01   0.02
     8   6     0.02   0.05  -0.12    -0.05  -0.01  -0.01    -0.03  -0.08   0.22
     9   1     0.05   0.14  -0.37    -0.49   0.10  -0.02    -0.01  -0.01   0.03
    10   8    -0.04  -0.11   0.29     0.37   0.04   0.06     0.01   0.03  -0.09
    11   1     0.04   0.10  -0.27    -0.26   0.26   0.06    -0.11  -0.31   0.82
                      4                      5                      6
                      A                      A                      A
 Frequencies --    526.1774               627.8898               676.6480
 Red. masses --      8.7684                 2.7645                 4.1453
 Frc consts  --      1.4303                 0.6422                 1.1182
 IR Inten    --      4.2049                23.0135                 3.0598
 Raman Activ --     36.5677                 0.7396                 1.1765
 Depolar (P) --      0.2760                 0.7492                 0.7500
 Depolar (U) --      0.4326                 0.8566                 0.8571
  Atom  AN      X      Y      Z        X      Y      Z        X      Y      Z
     1   6     0.25  -0.14  -0.02     0.02   0.06  -0.15     0.03   0.08  -0.22
     2   6     0.14  -0.07  -0.01    -0.03  -0.09   0.23    -0.00  -0.01   0.03
     3   6    -0.04  -0.19  -0.08     0.02   0.07  -0.19    -0.00  -0.01   0.04
     4   1     0.14   0.11   0.06    -0.03  -0.09   0.25    -0.06  -0.18   0.48
     5   6    -0.09  -0.11  -0.05    -0.02  -0.06   0.15     0.03   0.10  -0.26
     6   7     0.18  -0.25  -0.07    -0.00  -0.01   0.04    -0.04  -0.12   0.32
     7   1     0.35  -0.12   0.00     0.07   0.20  -0.52     0.04   0.12  -0.31
     8   6    -0.09   0.31   0.11     0.00   0.00  -0.01     0.01   0.03  -0.07
     9   1    -0.08  -0.17  -0.07     0.08   0.23  -0.60    -0.07  -0.21   0.54
    10   8    -0.30   0.35   0.10    -0.00  -0.00   0.01    -0.00  -0.01   0.03
    11   1    -0.15   0.38   0.13     0.02   0.07  -0.17    -0.02  -0.06   0.15
                      7                      8                      9
                      A                      A                      A
 Frequencies --    746.7336               759.5001               822.4354
 Red. masses --      1.3994                 4.9665                 1.2904
 Frc consts  --      0.4598                 1.6879                 0.5143
 IR Inten    --    118.6424               139.5575                 6.4359
 Raman Activ --     27.4273                17.5437                29.4132
 Depolar (P) --      0.7497                 0.2284                 0.7497
 Depolar (U) --      0.8569                 0.3718                 0.8570
  Atom  AN      X      Y      Z        X      Y      Z        X      Y      Z
     1   6     0.00  -0.00   0.00    -0.08   0.01  -0.01     0.02   0.05  -0.12
     2   6     0.01   0.03  -0.08    -0.14   0.11   0.02     0.00   0.01  -0.02
     3   6     0.02   0.04  -0.11    -0.08   0.08   0.02    -0.01  -0.03   0.08
     4   1    -0.09  -0.28   0.72    -0.14   0.07   0.03    -0.03  -0.10   0.25
     5   6    -0.01  -0.04   0.11     0.15  -0.09  -0.01    -0.00  -0.00   0.01
     6   7     0.00   0.01  -0.03    -0.12  -0.16  -0.08    -0.00  -0.00   0.01
     7   1    -0.03  -0.09   0.23     0.14   0.05   0.05    -0.09  -0.28   0.72
     8   6    -0.00   0.00  -0.00     0.44   0.05   0.08    -0.00  -0.00  -0.00
     9   1    -0.06  -0.19   0.50    -0.42   0.16   0.02     0.07   0.19  -0.51
    10   8     0.00  -0.00   0.00    -0.12   0.02  -0.01     0.00   0.00  -0.00
    11   1     0.01   0.04  -0.09     0.61  -0.18   0.01    -0.00  -0.01   0.03
                     10                     11                     12
                      A                      A                      A
 Frequencies --    875.5769               903.3706               955.7447
 Red. masses --      1.3652                 5.7091                 2.7077
 Frc consts  --      0.6166                 2.7451                 1.4573
 IR Inten    --      5.1767                 6.8158                28.8940
 Raman Activ --      0.1462                14.7011                36.6478
 Depolar (P) --      0.7500                 0.6904                 0.1609
 Depolar (U) --      0.8571                 0.8169                 0.2772
  Atom  AN      X      Y      Z        X      Y      Z        X      Y      Z
     1   6    -0.01  -0.03   0.09    -0.09   0.33   0.11     0.02  -0.05  -0.02
     2   6     0.02   0.04  -0.11     0.39   0.03   0.07     0.06  -0.02  -0.00
     3   6    -0.01  -0.03   0.09     0.07  -0.19  -0.07    -0.19  -0.17  -0.09
     4   1    -0.07  -0.22   0.56     0.39  -0.26  -0.06     0.06   0.50   0.20
     5   6     0.00   0.01  -0.02    -0.06  -0.11  -0.05    -0.00   0.01   0.00
     6   7    -0.00   0.00  -0.00    -0.25  -0.04  -0.05     0.08   0.20   0.09
     7   1     0.06   0.20  -0.51    -0.08   0.33   0.13    -0.44  -0.15  -0.11
     8   6     0.00   0.00  -0.01     0.01  -0.00  -0.00     0.10   0.01   0.02
     9   1     0.06   0.19  -0.50    -0.47  -0.04  -0.07    -0.53  -0.08  -0.10
    10   8    -0.00  -0.00   0.00    -0.01  -0.01  -0.00    -0.01  -0.02  -0.01
    11   1    -0.01  -0.02   0.05    -0.01   0.01   0.00     0.17  -0.08  -0.01
                     13                     14                     15
                      A                      A                      A
 Frequencies --   1010.7176              1033.5962              1076.9474
 Red. masses --      1.7123                 1.2557                 2.2436
 Frc consts  --      1.0306                 0.7904                 1.5332
 IR Inten    --      0.0581                98.2605                28.5574
 Raman Activ --      6.2123                15.2369               152.4788
 Depolar (P) --      0.7494                 0.5151                 0.1058
 Depolar (U) --      0.8567                 0.6799                 0.1913
  Atom  AN      X      Y      Z        X      Y      Z        X      Y      Z
     1   6     0.00  -0.00   0.00    -0.03  -0.02  -0.01     0.07   0.17   0.08
     2   6    -0.00  -0.00   0.00     0.01   0.08   0.03    -0.15  -0.06  -0.04
     3   6     0.00   0.00  -0.00     0.05  -0.06  -0.02    -0.08  -0.15  -0.07
     4   1     0.01   0.02  -0.06     0.01   0.70   0.27    -0.16  -0.21  -0.10
     5   6    -0.01  -0.03   0.08    -0.03   0.01   0.00    -0.04   0.02   0.00
     6   7     0.00   0.00  -0.01    -0.05  -0.04  -0.02     0.04   0.05   0.02
     7   1     0.00  -0.00   0.00    -0.11  -0.04  -0.03     0.52   0.29   0.18
     8   6     0.03   0.08  -0.21     0.01  -0.01  -0.00     0.07   0.01   0.01
     9   1     0.00  -0.01   0.02     0.59  -0.22  -0.01     0.52  -0.34  -0.06
    10   8    -0.01  -0.02   0.05     0.00  -0.00  -0.00    -0.00  -0.02  -0.01
    11   1    -0.12  -0.34   0.90     0.03  -0.02  -0.01     0.13  -0.07  -0.01
                     16                     17                     18
                      A                      A                      A
 Frequencies --   1204.2221              1275.8087              1323.6780
 Red. masses --      1.8259                 3.6833                 3.4638
 Frc consts  --      1.5601                 3.5323                 3.5758
 IR Inten    --    147.1786               138.8583               101.2272
 Raman Activ --     20.3434                48.6479               123.9216
 Depolar (P) --      0.7109                 0.6724                 0.6929
 Depolar (U) --      0.8310                 0.8041                 0.8186
  Atom  AN      X      Y      Z        X      Y      Z        X      Y      Z
     1   6     0.07  -0.07  -0.02    -0.10   0.03  -0.00    -0.22   0.10   0.01
     2   6     0.01  -0.07  -0.02     0.07   0.02   0.02    -0.16   0.04  -0.00
     3   6     0.00  -0.03  -0.01    -0.10  -0.05  -0.03     0.23  -0.15  -0.03
     4   1     0.02   0.37   0.15     0.07  -0.25  -0.09    -0.19   0.37   0.12
     5   6     0.08   0.13   0.06    -0.06   0.34   0.12     0.08  -0.03  -0.00
     6   7    -0.14   0.01  -0.02     0.12  -0.22  -0.07     0.18  -0.03   0.01
     7   1     0.76   0.08   0.13    -0.28  -0.02  -0.05     0.18   0.21   0.10
     8   6    -0.06   0.01  -0.00    -0.02  -0.03  -0.01    -0.07  -0.07  -0.03
     9   1    -0.39   0.09  -0.02    -0.08  -0.05  -0.03    -0.68   0.10  -0.05
    10   8     0.02  -0.02  -0.00     0.05   0.02   0.01    -0.01   0.06   0.02
    11   1     0.02  -0.08  -0.03     0.44  -0.62  -0.18    -0.17   0.08   0.01
                     19                     20                     21
                      A                      A                      A
 Frequencies --   1374.6673              1411.8770              1469.9148
 Red. masses --      2.2858                 1.8150                 3.7761
 Frc consts  --      2.5449                 2.1316                 4.8070
 IR Inten    --    327.1911                 9.1482                61.0547
 Raman Activ --    348.3700                29.6834                12.6671
 Depolar (P) --      0.4563                 0.6940                 0.3507
 Depolar (U) --      0.6267                 0.8193                 0.5193
  Atom  AN      X      Y      Z        X      Y      Z        X      Y      Z
     1   6    -0.06  -0.15  -0.07    -0.10  -0.07  -0.04     0.17  -0.04   0.01
     2   6     0.04   0.16   0.07     0.05   0.09   0.04    -0.12   0.26   0.08
     3   6     0.06  -0.05  -0.01    -0.03  -0.04  -0.02     0.02  -0.19  -0.07
     4   1     0.05  -0.35  -0.13     0.06  -0.22  -0.08    -0.15  -0.53  -0.23
     5   6    -0.14  -0.06  -0.04    -0.04   0.10   0.03     0.24   0.04   0.05
     6   7    -0.00   0.11   0.04     0.04  -0.01   0.00    -0.12  -0.00  -0.02
     7   1     0.55  -0.03   0.06     0.32   0.01   0.04    -0.51  -0.20  -0.14
     8   6     0.00  -0.04  -0.02     0.09   0.03   0.02    -0.10  -0.00  -0.01
     9   1     0.03  -0.04  -0.01     0.05  -0.07  -0.02    -0.07  -0.21  -0.09
    10   8     0.01   0.07   0.03    -0.02  -0.10  -0.04     0.01   0.01   0.00
    11   1     0.37  -0.53  -0.15    -0.43   0.72   0.22    -0.14   0.05   0.00
                     22                     23                     24
                      A                      A                      A
 Frequencies --   1505.8018              1626.5524              2888.1506
 Red. masses --      5.2145                 6.6424                 1.0801
 Frc consts  --      6.9662                10.3541                 5.3082
 IR Inten    --     88.4946              1374.1514               235.8225
 Raman Activ --     42.3466               403.3315               385.9905
 Depolar (P) --      0.3656                 0.5132                 0.4237
 Depolar (U) --      0.5354                 0.6783                 0.5952
  Atom  AN      X      Y      Z        X      Y      Z        X      Y      Z
     1   6    -0.24  -0.00  -0.03    -0.12   0.01  -0.01    -0.00   0.00   0.00
     2   6     0.14  -0.00   0.02    -0.01   0.05   0.02    -0.00   0.00   0.00
     3   6    -0.30   0.05  -0.02     0.02  -0.01  -0.00     0.00  -0.00   0.00
     4   1     0.17  -0.05   0.00    -0.00   0.03   0.01     0.00   0.00   0.00
     5   6     0.38  -0.12   0.00     0.09  -0.13  -0.04     0.00  -0.00  -0.00
     6   7     0.06   0.02   0.01     0.08  -0.02   0.00     0.00   0.00   0.00
     7   1     0.41   0.14   0.11     0.07   0.05   0.03    -0.00   0.00   0.00
     8   6    -0.12  -0.09  -0.05    -0.20   0.52   0.17    -0.07  -0.04  -0.02
     9   1     0.57  -0.22  -0.01     0.06  -0.02   0.00     0.00   0.00   0.00
    10   8    -0.01   0.12   0.05     0.06  -0.28  -0.10     0.00  -0.00  -0.00
    11   1    -0.11  -0.09  -0.05     0.47  -0.52  -0.14     0.80   0.51   0.30
                     25                     26                     27
                      A                      A                      A
 Frequencies --   3162.3198              3195.3196              3218.0333
 Red. masses --      1.0905                 1.0922                 1.1010
 Frc consts  --      6.4250                 6.5705                 6.7176
 IR Inten    --     40.8168                36.6510                23.7275
 Raman Activ --    257.3217               264.1997               296.3491
 Depolar (P) --      0.5076                 0.4340                 0.1875
 Depolar (U) --      0.6734                 0.6053                 0.3158
  Atom  AN      X      Y      Z        X      Y      Z        X      Y      Z
     1   6     0.02  -0.08  -0.03    -0.00   0.02   0.01    -0.00   0.01   0.00
     2   6    -0.02   0.00  -0.00    -0.07   0.00  -0.01    -0.04   0.00  -0.00
     3   6     0.00   0.00   0.00     0.01   0.03   0.01    -0.02  -0.07  -0.03
     4   1     0.26  -0.02   0.03     0.85  -0.04   0.10     0.44  -0.02   0.05
     5   6    -0.00   0.00   0.00    -0.00  -0.00  -0.00     0.00   0.00   0.00
     6   7    -0.00  -0.00  -0.00     0.00  -0.00  -0.00     0.00   0.00   0.00
     7   1    -0.26   0.87   0.30     0.06  -0.22  -0.08     0.02  -0.09  -0.03
     8   6    -0.00   0.00   0.00     0.00   0.00   0.00    -0.00  -0.00  -0.00
     9   1    -0.01  -0.03  -0.01    -0.12  -0.40  -0.17     0.23   0.79   0.33
    10   8     0.00  -0.00  -0.00    -0.00  -0.00  -0.00     0.00   0.00   0.00
    11   1     0.00   0.00   0.00     0.00   0.00   0.00    -0.00   0.00  -0.00

 -------------------
 - Thermochemistry -
 -------------------
 Temperature   298.150 Kelvin.  Pressure   1.00000 Atm.
 Thermochemistry will use frequencies scaled by 0.9670.
 Atom     1 has atomic number  6 and mass  12.00000
 Atom     2 has atomic number  6 and mass  12.00000
 Atom     3 has atomic number  6 and mass  12.00000
 Atom     4 has atomic number  1 and mass   1.00783
 Atom     5 has atomic number  6 and mass  12.00000
 Atom     6 has atomic number  7 and mass  14.00307
 Atom     7 has atomic number  1 and mass   1.00783
 Atom     8 has atomic number  6 and mass  12.00000
 Atom     9 has atomic number  1 and mass   1.00783
 Atom    10 has atomic number  8 and mass  15.99491
 Atom    11 has atomic number  1 and mass   1.00783
 Molecular mass:    94.02929 amu.
 Principal axes and moments of inertia in atomic units:
                           1         2         3
     Eigenvalues --   221.35043 880.141301101.49098
           X            0.73464   0.66776  -0.11998
           Y           -0.65968   0.66175  -0.35624
           Z           -0.15849   0.34086   0.92666
 This molecule is an asymmetric top.
 Rotational symmetry number  1.
 Rotational temperatures (Kelvin)      0.39130     0.09841     0.07863
 Rotational constants (GHZ):           8.15332     2.05051     1.63845
 Zero-point vibrational energy     198669.2 (Joules/Mol)
                                   47.48308 (Kcal/Mol)
 Warning -- explicit consideration of   5 degrees of freedom as
           vibrations may cause significant error
 Vibrational temperatures:    223.45   309.05   409.00   732.07   873.58
          (Kelvin)            941.42  1038.93  1056.69  1144.25  1218.19
                             1256.86  1329.72  1406.21  1438.04  1498.35
                             1675.43  1775.03  1841.63  1912.57  1964.34
                             2045.09  2095.02  2263.02  4018.28  4399.73
                             4445.64  4477.24
 
 Zero-point correction=                           0.075669 (Hartree/Particle)
 Thermal correction to Energy=                    0.081268
 Thermal correction to Enthalpy=                  0.082212
 Thermal correction to Gibbs Free Energy=         0.046272
 Sum of electronic and zero-point Energies=           -323.063657
 Sum of electronic and thermal Energies=              -323.058058
 Sum of electronic and thermal Enthalpies=            -323.057114
 Sum of electronic and thermal Free Energies=         -323.093054
 
                     E (Thermal)             CV                S
                      KCal/Mol        Cal/Mol-Kelvin    Cal/Mol-Kelvin
 Total                   50.996             20.522             75.642
 Electronic               0.000              0.000              0.000
 Translational            0.889              2.981             39.534
 Rotational               0.889              2.981             26.864
 Vibrational             49.219             14.560              9.243
 Vibration     1          0.620              1.897              2.606
 Vibration     2          0.645              1.818              2.002
 Vibration     3          0.683              1.703              1.508
 Vibration     4          0.864              1.230              0.636
 Vibration     5          0.966              1.017              0.437
                       Q            Log10(Q)             Ln(Q)
 Total Bot       0.520400D-21        -21.283662        -49.007444
 Total V=0       0.332413D+14         13.521677         31.134813
 Vib (Bot)       0.875662D-34        -34.057663        -78.420668
 Vib (Bot)    1  0.130355D+01          0.115128          0.265092
 Vib (Bot)    2  0.922857D+00         -0.034866         -0.080281
 Vib (Bot)    3  0.674803D+00         -0.170823         -0.393335
 Vib (Bot)    4  0.320477D+00         -0.494204         -1.137946
 Vib (Bot)    5  0.244112D+00         -0.612411         -1.410128
 Vib (V=0)       0.559341D+01          0.747676          1.721588
 Vib (V=0)    1  0.189615D+01          0.277874          0.639828
 Vib (V=0)    2  0.154960D+01          0.190220          0.437998
 Vib (V=0)    3  0.133986D+01          0.127058          0.292562
 Vib (V=0)    4  0.109389D+01          0.038974          0.089740
 Vib (V=0)    5  0.105641D+01          0.023832          0.054875
 Electronic      0.100000D+01          0.000000          0.000000
 Translational   0.358384D+08          7.554349         17.394530
 Rotational      0.165826D+06          5.219652         12.018694
 
                                                           PyrCHO-isolated
                                                             IR Spectrum
 
     33 3          2                                                1    11  11 1 1  1    1 11                                       
     21 1          8                                                6    54  43 3 2  2    0 00 9 98 8 77  6 6   5        2  2 1      
     19 6          8                                                2    07  17 2 7  0    7 31 5 07 2 64  7 2   2        9  2 6      
     85 2          8                                                7    60  25 4 6  4    7 41 6 36 2 07  7 8   6        4  2 1      
 
     XX X          X                                                X    XX  XX X X  X    X XX X XX X XX  X X   X        X  X X      
                   X                                                X         X   X  X                XX                             
                   X                                                X         X                                                      
                                                                    X         X                                                      
                                                                    X         X                                                      
                                                                    X                                                                
                                                                    X                                                                
                                                                    X                                                                
                                                                    X                                                                
                                                                    X                                                                
                                                                    X                                                                
                                                                    X                                                                
                                                                    X                                                                
                                                                    X                                                                
                                                                    X                                                                
                                                                    X                                                                
                                                                    X                                                                
                                                                    X                                                                
                                                                    X                                                                
                                                                    X                                                                
 
 
                                                           PyrCHO-isolated
                                                            Raman Spectrum
 
     33 3          2                                                1    11  11 1 1  1    1 11                                       
     21 1          8                                                6    54  43 3 2  2    0 00 9 98 8 77  6 6   5        2  2 1      
     19 6          8                                                2    07  17 2 7  0    7 31 5 07 2 64  7 2   2        9  2 6      
     85 2          8                                                7    60  25 4 6  4    7 41 6 36 2 07  7 8   6        4  2 1      
 
     XX X          X                                                X    XX  XX X X  X    X XX X XX X XX  X X   X        X  X X      
     XX X          X                                                X    X    X X X       X    X                X                    
     XX X          X                                                X         X X         X                                          
     XX X          X                                                X         X X         X                                          
     XX X          X                                                X         X X         X                                          
     XX X          X                                                X         X X         X                                          
     XX X          X                                                X         X           X                                          
     XX X          X                                                X         X           X                                          
     XX X          X                                                X         X                                                      
     XX X          X                                                X         X                                                      
     XX X          X                                                X         X                                                      
     XX X          X                                                X         X                                                      
     XX X          X                                                X         X                                                      
     X             X                                                X         X                                                      
     X             X                                                X         X                                                      
                   X                                                X         X                                                      
                   X                                                X         X                                                      
                   X                                                X                                                                
                   X                                                X                                                                
                                                                    X                                                                
 
 -------------------------------------------------------------------
 Center     Atomic                   Forces (Hartrees/Bohr)
 Number     Number              X              Y              Z
 -------------------------------------------------------------------
      1        6           0.000004646    0.000019414    0.000003250
      2        6           0.000018075    0.000020164    0.000007812
      3        6          -0.000020849    0.000001613   -0.000000567
      4        1           0.000000472    0.000000837    0.000000454
      5        6          -0.000078571    0.000012436   -0.000006303
      6        7           0.000020129    0.000018403    0.000007029
      7        1          -0.000002771    0.000000522    0.000000180
      8        6           0.000037618   -0.000020173    0.000012784
      9        1          -0.000003337    0.000012128    0.000002813
     10        8           0.000034736   -0.000020347   -0.000006717
     11        1          -0.000010147   -0.000044997   -0.000020735
 -------------------------------------------------------------------
 Cartesian Forces:  Max     0.000078571 RMS     0.000021452
 Force constants in Cartesian coordinates: 
                1             2             3             4             5 
      1  0.580879D+00
      2 -0.103002D+00  0.706765D+00
      3  0.181810D-01  0.208647D+00  0.213470D+00
      4 -0.153719D+00 -0.854496D-01 -0.449170D-01  0.800822D+00
      5 -0.535484D-01 -0.189935D+00 -0.561388D-01 -0.572447D-01  0.480664D+00
      6 -0.326009D-01 -0.603499D-01 -0.897183D-01  0.671028D-01  0.134968D+00
      7  0.331024D-01  0.205854D-01  0.106054D-01 -0.191266D+00  0.941289D-01
      8 -0.262981D-01 -0.634426D-01 -0.327025D-01  0.125093D+00 -0.233134D+00
      9 -0.747835D-02 -0.265035D-01  0.125524D-02  0.310152D-01 -0.552272D-01
     10 -0.640905D-02  0.719912D-02  0.228804D-02 -0.336152D+00  0.136167D-01
     11 -0.186407D-01  0.892663D-02  0.206204D-02  0.131101D-01 -0.542876D-01
     12 -0.764798D-02  0.539846D-02 -0.158827D-02 -0.350538D-01 -0.933359D-02
     13 -0.714210D-01  0.420296D-01  0.582969D-02 -0.663791D-01  0.699723D-01
     14  0.725143D-01 -0.580538D-01 -0.167678D-01  0.980699D-02 -0.503451D-02
     15  0.175973D-01 -0.208088D-01  0.391274D-02 -0.603932D-02  0.319061D-02
     16 -0.325768D+00  0.554918D-01 -0.114516D-01 -0.733432D-01 -0.496033D-01
     17  0.714085D-01 -0.112818D+00 -0.728967D-02  0.745444D-03  0.143493D-01
     18 -0.532785D-02 -0.933498D-02 -0.737718D-01 -0.117641D-01 -0.865532D-02
     19 -0.731413D-01  0.593906D-01  0.170926D-01  0.105710D-01 -0.145874D-01
     20  0.628991D-01 -0.281409D+00 -0.895661D-01  0.967158D-02 -0.863050D-02
     21  0.184495D-01 -0.900089D-01 -0.602068D-01  0.500297D-02 -0.546223D-02
     22  0.267970D-01 -0.454298D-02  0.945892D-03 -0.753381D-03 -0.232420D-01
     23 -0.282339D-01 -0.817556D-02 -0.926814D-02 -0.859683D-02  0.240731D-01
     24 -0.818175D-02 -0.615941D-02  0.281804D-02 -0.379869D-02  0.507765D-02
     25 -0.367889D-02  0.375387D-02  0.344499D-03  0.110923D-01  0.158483D-01
     26  0.146830D-02 -0.228359D-02 -0.256006D-02 -0.105455D-01 -0.857433D-02
     27 -0.535296D-03 -0.228068D-02  0.390301D-02 -0.277726D-02 -0.162240D-02
     28 -0.606529D-02  0.369833D-02  0.918412D-03  0.651893D-03  0.510744D-02
     29  0.230873D-01  0.364680D-04  0.389142D-02  0.282212D-02 -0.208009D-01
     30  0.835107D-02  0.137343D-02 -0.618553D-03  0.113930D-02 -0.740977D-02
     31 -0.576041D-03  0.845398D-03  0.163011D-03 -0.152485D-02 -0.447823D-03
     32 -0.165465D-02  0.389009D-03 -0.307088D-03  0.586986D-03  0.130972D-02
     33 -0.806752D-03  0.275461D-04  0.545011D-03  0.899267D-04  0.613503D-03
                6             7             8             9            10 
      6  0.173186D+00
      7  0.190730D-01  0.539716D+00
      8 -0.511178D-01  0.244267D-01  0.716153D+00
      9 -0.766459D-01  0.637638D-01  0.234380D+00  0.216130D+00
     10 -0.348284D-01 -0.703330D-02 -0.548164D-02 -0.303119D-02  0.354638D+00
     11 -0.939730D-02  0.215924D-01  0.646903D-02  0.528768D-02 -0.150911D-01
     12 -0.338145D-01  0.741462D-02  0.178604D-02  0.164818D-02  0.373208D-01
     13  0.171324D-01 -0.227227D+00 -0.664351D-01 -0.464621D-01 -0.245353D-02
     14 -0.461787D-02 -0.588602D-01 -0.100240D+00 -0.211132D-01  0.166645D-02
     15  0.106317D-01 -0.434960D-01 -0.220229D-01 -0.789794D-01 -0.490951D-03
     16 -0.311785D-01 -0.315235D-01 -0.738430D-02 -0.880185D-02 -0.251575D-02
     17 -0.210250D-02 -0.332511D-01 -0.521320D-01 -0.300917D-01 -0.117890D-02
     18  0.152842D-01 -0.188367D-01 -0.267509D-01  0.207282D-02 -0.156210D-02
     19 -0.434664D-02 -0.264510D-02 -0.292689D-02 -0.190964D-02 -0.833609D-04
     20 -0.233357D-02 -0.239266D-02 -0.193450D-02 -0.237618D-02 -0.653792D-03
     21 -0.791097D-03 -0.170068D-02 -0.244645D-02  0.225863D-02 -0.487233D-04
     22 -0.950090D-02 -0.428792D-01  0.226900D-01  0.343606D-02  0.394291D-03
     23  0.705883D-02  0.200847D-01  0.408098D-02  0.483273D-02 -0.156598D-02
     24  0.449871D-02  0.241010D-02  0.511883D-02  0.743191D-03 -0.718207D-03
     25  0.742309D-02 -0.757318D-01 -0.651540D-01 -0.315315D-01  0.201163D-03
     26 -0.505152D-02 -0.644128D-01 -0.280300D+00 -0.106455D+00  0.214011D-03
     27 -0.201844D-04 -0.312896D-01 -0.106525D+00 -0.713999D-01  0.547015D-03
     28  0.203769D-02  0.695812D-02 -0.288786D-02  0.194444D-03 -0.270139D-03
     29 -0.779259D-02 -0.247002D-01  0.573508D-02 -0.564478D-03  0.111861D-02
     30 -0.245267D-02 -0.815870D-02  0.225160D-02 -0.168643D-02  0.350172D-03
     31 -0.313587D-03 -0.147166D-02  0.435791D-02  0.805206D-03 -0.316493D-03
     32  0.736643D-03  0.279899D-02 -0.125504D-02 -0.216984D-02  0.156495D-03
     33 -0.157841D-03  0.214799D-03 -0.197101D-02  0.460341D-02  0.173554D-03
               11            12            13            14            15 
     11  0.442333D-01
     12  0.724568D-02  0.281561D-01
     13  0.334914D-02  0.167384D-03  0.713594D+00
     14 -0.424046D-02 -0.385689D-02 -0.977546D-01  0.533183D+00
     15 -0.363350D-02  0.484546D-02  0.374962D-01  0.141922D+00  0.191051D+00
     16 -0.478752D-02 -0.295542D-02 -0.689620D-01 -0.432881D-02 -0.168736D-02
     17 -0.204995D-02 -0.327996D-02 -0.494185D-01 -0.215877D+00 -0.627809D-01
     18 -0.375034D-02  0.443617D-02 -0.190182D-01 -0.570548D-01 -0.945612D-01
     19  0.904506D-03  0.550650D-03 -0.600233D-02  0.151204D-02 -0.125252D-02
     20 -0.238990D-03  0.465106D-03  0.257882D-02  0.159361D-02 -0.222219D-02
     21  0.664714D-03 -0.140900D-02 -0.842102D-03 -0.235695D-02  0.720859D-02
     22  0.465577D-03  0.550955D-04 -0.251493D+00  0.697022D-01  0.196139D-02
     23  0.159248D-02 -0.858144D-04  0.282528D-01 -0.107251D+00 -0.147448D-01
     24  0.162249D-03  0.128968D-02 -0.139946D-01 -0.924088D-02 -0.644456D-01
     25 -0.139668D-02 -0.806266D-04  0.527880D-02 -0.215836D-01 -0.746964D-02
     26  0.451970D-04  0.133864D-02  0.124546D-02 -0.145234D-02  0.161259D-03
     27  0.112480D-02 -0.284001D-02  0.140035D-02 -0.274187D-02 -0.234675D-02
     28 -0.200473D-04 -0.799410D-04 -0.217199D-03  0.460539D-01  0.156441D-01
     29 -0.172709D-03 -0.417374D-04  0.581299D-01 -0.514680D-01 -0.178333D-01
     30 -0.181702D-03  0.272472D-03  0.203157D-01 -0.194897D-01  0.997795D-02
     31  0.514295D-03  0.309210D-03 -0.247188D-01 -0.187287D-01 -0.122631D-01
     32 -0.276900D-03  0.364068D-03  0.805021D-02  0.884022D-02 -0.122702D-02
     33  0.415670D-03 -0.996241D-03 -0.202464D-02 -0.468160D-02  0.127057D-01
               16            17            18            19            20 
     16  0.528006D+00
     17 -0.365344D-01  0.402403D+00
     18  0.401733D-01  0.109596D+00  0.153794D+00
     19 -0.779852D-02  0.310516D-01  0.118308D-01  0.775008D-01
     20  0.390787D-02 -0.529829D-02  0.103759D-02 -0.764658D-01  0.296422D+00
     21  0.135982D-02  0.453433D-02 -0.475642D-02 -0.223407D-01  0.959113D-01
     22 -0.135700D-01  0.242612D-01  0.938788D-02  0.150515D-02 -0.876582D-03
     23  0.504384D-01 -0.491404D-01 -0.703317D-02  0.102332D-02  0.916173D-03
     24  0.194188D-01 -0.104927D-01 -0.155322D-01  0.270642D-03 -0.712726D-03
     25 -0.493574D-02 -0.378573D-02 -0.280935D-02  0.102150D-02  0.702732D-03
     26  0.457188D-03 -0.110437D-03 -0.213071D-02 -0.630945D-03 -0.338836D-03
     27 -0.118348D-02 -0.269257D-02  0.436132D-02 -0.241433D-03 -0.432842D-03
     28 -0.256026D-02 -0.213755D-02 -0.238314D-02 -0.848608D-03  0.502935D-03
     29 -0.850407D-02  0.205274D-01  0.314174D-02  0.805850D-03 -0.108972D-02
     30 -0.482866D-02  0.396877D-02  0.103550D-01  0.360493D-03  0.138922D-03
     31  0.297023D-02 -0.116052D-02  0.309443D-03 -0.792316D-04  0.125856D-03
     32  0.847150D-03  0.146689D-03  0.935185D-03 -0.768241D-04  0.850480D-05
     33  0.113489D-02  0.631160D-03 -0.168213D-02 -0.142255D-04  0.907123D-04
               21            22            23            24            25 
     21  0.559801D-01
     22 -0.465225D-03  0.589017D+00
     23 -0.467047D-03 -0.443436D-01  0.722103D+00
     24  0.223023D-02  0.353216D-01  0.199827D+00  0.265308D+00
     25  0.271066D-03  0.600558D-03 -0.496910D-03  0.123456D-03  0.656995D-01
     26 -0.600137D-03  0.646416D-03 -0.251768D-02 -0.128838D-03  0.713813D-01
     27  0.809665D-03  0.612187D-03 -0.222657D-03 -0.192931D-02  0.334469D-01
     28  0.250805D-03 -0.103398D+00  0.509570D-01  0.141029D-01  0.561229D-03
     29  0.163845D-03  0.356702D-01 -0.491051D+00 -0.158789D+00  0.791170D-03
     30 -0.116702D-02  0.817572D-02 -0.156869D+00 -0.122637D+00  0.303392D-03
     31  0.632377D-04 -0.206221D+00 -0.675189D-01 -0.449543D-01 -0.108607D-03
     32  0.675023D-04 -0.804305D-01 -0.946303D-01 -0.246620D-01 -0.604818D-04
     33 -0.156908D-03 -0.499297D-01 -0.230277D-01 -0.723440D-01 -0.212873D-04
               26            27            28            29            30 
     26  0.293913D+00
     27  0.114826D+00  0.690578D-01
     28  0.333243D-03  0.886804D-04  0.873717D-01
     29  0.152588D-02  0.503298D-03 -0.778019D-01  0.574015D+00
     30  0.529078D-03  0.508779D-03 -0.217293D-01  0.199598D+00  0.998066D-01
     31 -0.156653D-03 -0.681292D-04  0.178169D-01 -0.114189D-01 -0.427916D-02
     32  0.935700D-04  0.645240D-04 -0.238055D-01 -0.372570D-01 -0.239094D-01
     33  0.713388D-04 -0.104438D-03 -0.904470D-02 -0.222771D-01  0.764092D-02
               31            32            33 
     31  0.214229D+00
     32  0.935881D-01  0.122632D+00
     33  0.602281D-01  0.501075D-01  0.499465D-01
 Leave Link  716 at Thu Dec 14 12:34:41 2023, MaxMem= 14763950080 cpu:               0.1 elap:               0.1
 (Enter /software/commercial/gaussian/g16/AVX2/g16/l103.exe)

 GradGradGradGradGradGradGradGradGradGradGradGradGradGradGradGradGradGrad
 Berny optimization.
 Search for a local minimum.
 Step number   1 out of a maximum of    2
 All quantities printed in internal units (Hartrees-Bohrs-Radians)
 Second derivative matrix not updated -- analytic derivatives used.
 ITU=  0
     Eigenvalues ---    0.00609   0.00851   0.01162   0.02471   0.04316
     Eigenvalues ---    0.04817   0.05167   0.07377   0.07610   0.09980
     Eigenvalues ---    0.17002   0.20003   0.20432   0.21224   0.23736
     Eigenvalues ---    0.26731   0.27515   0.37151   0.54571   0.68253
     Eigenvalues ---    0.75151   0.81800   0.93526   1.08618   1.11529
     Eigenvalues ---    1.20546   1.31091
 Angle between quadratic step and forces=  61.23 degrees.
 Linear search not attempted -- first point.
 B after Tr=     0.000028   -0.000030   -0.000006
         Rot=    1.000000   -0.000002    0.000001   -0.000009 Ang=  -0.00 deg.
 Variable       Old X    -DE/DX   Delta X   Delta X   Delta X     New X
                                 (Linear)    (Quad)   (Total)
    X1       -0.63445   0.00000   0.00000   0.00002   0.00002  -0.63443
    Y1        1.31394   0.00002   0.00000   0.00011   0.00007   1.31401
    Z1        0.27635   0.00000   0.00000  -0.00004  -0.00004   0.27631
    X2       -2.23299   0.00002   0.00000  -0.00010  -0.00006  -2.23305
    Y2       -0.62576   0.00002   0.00000   0.00020   0.00014  -0.62562
    Z2       -0.67702   0.00001   0.00000   0.00005   0.00004  -0.67698
    X3       -0.64636  -0.00002   0.00000  -0.00032  -0.00025  -0.64661
    Y3       -2.64747   0.00000   0.00000   0.00003  -0.00000  -2.64747
    Z3       -1.25202  -0.00000   0.00000   0.00004   0.00002  -1.25200
    X4       -4.26313   0.00000   0.00000  -0.00011  -0.00007  -4.26320
    Y4       -0.53401   0.00000   0.00000   0.00021   0.00010  -0.53391
    Z4       -0.90383   0.00000   0.00000   0.00008   0.00006  -0.90377
    X5        1.83505  -0.00008   0.00000  -0.00024  -0.00018   1.83487
    Y5       -1.84056   0.00001   0.00000  -0.00020  -0.00019  -1.84075
    Z5       -0.62085  -0.00001   0.00000  -0.00003  -0.00003  -0.62088
    X6        1.79514   0.00002   0.00000  -0.00001   0.00000   1.79515
    Y6        0.60866   0.00002   0.00000  -0.00009  -0.00009   0.60856
    Z6        0.31781   0.00001   0.00000  -0.00004  -0.00004   0.31777
    X7       -1.20735  -0.00000   0.00000  -0.00001  -0.00004  -1.20738
    Y7        3.17366   0.00000   0.00000   0.00011   0.00005   3.17371
    Z7        0.91941   0.00000   0.00000  -0.00006  -0.00006   0.91935
    X8        4.16745   0.00004   0.00000   0.00006   0.00014   4.16759
    Y8       -3.16191  -0.00002   0.00000  -0.00015  -0.00011  -3.16202
    Z8       -0.82618   0.00001   0.00000   0.00005   0.00004  -0.82614
    X9       -1.16880  -0.00000   0.00000  -0.00057  -0.00046  -1.16926
    Y9       -4.46576   0.00001   0.00000   0.00013   0.00008  -4.46567
    Z9       -2.02184   0.00000   0.00000   0.00005   0.00002  -2.02182
   X10        4.50134   0.00003   0.00000   0.00080   0.00093   4.50227
   Y10       -5.34833  -0.00002   0.00000  -0.00000   0.00005  -5.34828
   Z10       -1.61875  -0.00001   0.00000  -0.00009  -0.00010  -1.61886
   X11        5.82098  -0.00001   0.00000  -0.00010  -0.00004   5.82094
   Y11       -2.04299  -0.00004   0.00000  -0.00017  -0.00010  -2.04309
   Z11       -0.18616  -0.00002   0.00000   0.00010   0.00010  -0.18607
         Item               Value     Threshold  Converged?
 Maximum Force            0.000079     0.000450     YES
 RMS     Force            0.000021     0.000300     YES
 Maximum Displacement     0.000927     0.001800     YES
 RMS     Displacement     0.000202     0.001200     YES
 Predicted change in Energy=-2.865495D-08
 Optimization completed.
    -- Stationary point found.
 GradGradGradGradGradGradGradGradGradGradGradGradGradGradGradGradGradGrad

 Leave Link  103 at Thu Dec 14 12:34:41 2023, MaxMem= 14763950080 cpu:               0.1 elap:               0.1
 (Enter /software/commercial/gaussian/g16/AVX2/g16/l9999.exe)

 ----------------------------------------------------------------------

 Electric dipole moment (input orientation):
 (Debye = 10**-18 statcoulomb cm , SI units = C m)
                  (au)            (Debye)         (10**-30 SI)
   Tot        0.349452D+01      0.888219D+01      0.296278D+02
   x         -0.256402D+01     -0.651710D+01     -0.217387D+02
   y          0.227248D+01      0.577607D+01      0.192669D+02
   z          0.687961D+00      0.174862D+01      0.583278D+01

 Dipole polarizability, Alpha (input orientation).
 (esu units = cm**3 , SI units = C**2 m**2 J**-1)
 Alpha(0;0):
               (au)            (10**-24 esu)      (10**-40 SI)
   iso        0.113870D+03      0.168738D+02      0.187747D+02
   aniso      0.918597D+02      0.136122D+02      0.151456D+02
   xx         0.143269D+03      0.212302D+02      0.236218D+02
   yx        -0.317678D+02     -0.470750D+01     -0.523780D+01
   yy         0.126663D+03      0.187696D+02      0.208840D+02
   zx        -0.203002D+01     -0.300818D+00     -0.334706D+00
   zy         0.198844D+02      0.294657D+01      0.327850D+01
   zz         0.716787D+02      0.106217D+02      0.118182D+02

 First dipole hyperpolarizability, Beta (input orientation).
 ||, _|_  parallel and perpendicular components, (z) with respect to z axis,
 vector components x,y,z.  Values do not include the 1/n! factor of 1/2.
 (esu units = statvolt**-1 cm**4 , SI units = C**3 m**3 J**-2)
 Beta(0;0,0):
               (au)            (10**-30 esu)      (10**-50 SI)
   || (z)    -0.142179D+02     -0.122831D+00     -0.455876D-01
   _|_(z)    -0.473929D+01     -0.409437D-01     -0.151959D-01
   x          0.199760D+04      0.172577D+02      0.640504D+01
   y         -0.842907D+03     -0.728206D+01     -0.270266D+01
   z         -0.710893D+02     -0.614156D+00     -0.227938D+00
   ||         0.433865D+03      0.374825D+01      0.139113D+01
   xxx        0.620873D+03      0.536385D+01      0.199074D+01
   xxy       -0.573764D+03     -0.495688D+01     -0.183970D+01
   yxy        0.292380D+03      0.252593D+01      0.937476D+00
   yyy        0.153513D+03      0.132623D+01      0.492217D+00
   xxz       -0.668460D+02     -0.577497D+00     -0.214332D+00
   yxz        0.133115D+03      0.115001D+01      0.426815D+00
   yyz       -0.116415D+01     -0.100574D-01     -0.373270D-02
   zxz       -0.247384D+03     -0.213721D+01     -0.793204D+00
   zyz        0.139283D+03      0.120330D+01      0.446591D+00
   zzz        0.443137D+02      0.382836D+00      0.142086D+00

 ----------------------------------------------------------------------

 Dipole orientation:
     6          0.37750133          0.41705112          1.37437245
     6         -1.97479413         -0.85460001          1.09819104
     6         -2.32969980         -1.15553086         -1.49387355
     1         -3.22161280         -1.45710331          2.60276782
     6         -0.17964794         -0.05494189         -2.66556392
     7          1.46351431          0.90257888         -0.85877125
     1          1.27552069          0.97310731          3.13068963
     6          0.42620862          0.15393039         -5.27660421
     1         -3.90685686         -2.03902965         -2.44453161
     8         -0.84325221         -0.61144881         -7.09944987
     1          2.25163849          1.12049976         -5.63621117

 Electric dipole moment (dipole orientation):
 (Debye = 10**-18 statcoulomb cm , SI units = C m)
                  (au)            (Debye)         (10**-30 SI)
   Tot        0.349452D+01      0.888219D+01      0.296278D+02
   x          0.000000D+00      0.000000D+00      0.000000D+00
   y          0.000000D+00      0.000000D+00      0.000000D+00
   z          0.349452D+01      0.888219D+01      0.296278D+02

 Dipole polarizability, Alpha (dipole orientation).
 (esu units = cm**3 , SI units = C**2 m**2 J**-1)
 Alpha(0;0):
               (au)            (10**-24 esu)      (10**-40 SI)
   iso        0.113870D+03      0.168738D+02      0.187747D+02
   aniso      0.918597D+02      0.136122D+02      0.151456D+02
   xx         0.981465D+02      0.145438D+02      0.161822D+02
   yx         0.179383D+02      0.265819D+01      0.295763D+01
   yy         0.739991D+02      0.109655D+02      0.122008D+02
   zx        -0.479863D+01     -0.711084D+00     -0.791188D+00
   zy         0.201428D+01      0.298485D+00      0.332110D+00
   zz         0.169465D+03      0.251121D+02      0.279410D+02

 First dipole hyperpolarizability, Beta (dipole orientation).
 ||, _|_  parallel and perpendicular components, (z) with respect to z axis,
 vector components x,y,z.  Values do not include the 1/n! factor of 1/2.
 (esu units = statvolt**-1 cm**4 , SI units = C**3 m**3 J**-2)
 Beta(0;0,0):
               (au)            (10**-30 esu)      (10**-50 SI)
   || (z)    -0.405566D+03     -0.350378D+01     -0.130039D+01
   _|_(z)    -0.135189D+03     -0.116793D+01     -0.433464D+00
   x          0.710884D+03      0.614148D+01      0.227935D+01
   y          0.297506D+03      0.257022D+01      0.953912D+00
   z         -0.202783D+04     -0.175189D+02     -0.650196D+01
   ||         0.433865D+03      0.374825D+01      0.139113D+01
   xxx       -0.469479D+02     -0.405593D+00     -0.150532D+00
   xxy        0.901885D+02      0.779158D+00      0.289177D+00
   yxy       -0.314815D+02     -0.271976D+00     -0.100941D+00
   yyy       -0.850815D+02     -0.735038D+00     -0.272802D+00
   xxz        0.186288D+03      0.160939D+01      0.597308D+00
   yxz       -0.411714D+02     -0.355688D+00     -0.132010D+00
   yyz        0.280167D+03      0.242042D+01      0.898316D+00
   zxz        0.315391D+03      0.272473D+01      0.101126D+01
   zyz        0.940618D+02      0.812620D+00      0.301596D+00
   zzz       -0.114240D+04     -0.986944D+01     -0.366294D+01

 ----------------------------------------------------------------------
 Unable to Open any file for archive entry.
 1\1\GINC-NODE0003\Freq\RB3LYP\6-311+G(d,p)\C5H4N1O1(1-)\SVICCHI\14-Dec
 -2023\0\\#p freq=raman scale=0.967 guess=read geom=allcheck b3lyp/6-31
 1+G(d,p) int=grid=ultrafine EmpiricalDispersion=GD3BJ SCRF=(Solvent=et
 hanol) scf=(xqc,intrep,maxconventionalcycle=350) nosymm\\PyrCHO-isolat
 ed\\-1,1\C,-0.335738184,0.6953075427,0.1462360474\C,-1.1816479848,-0.3
 311387216,-0.358261189\C,-0.3420390015,-1.4009784363,-0.6625408032\H,-
 2.2559502185,-0.2825880932,-0.4782858745\C,0.9710672745,-0.9739816442,
 -0.3285395001\N,0.9499497748,0.3220871595,0.1681775104\H,-0.6389003406
 ,1.6794279504,0.4865299816\C,2.205319946,-1.6732116271,-0.4371942691\H
 ,-0.6185009699,-2.3631765829,-1.0699118382\O,2.382008482,-2.8302167207
 ,-0.8566063481\H,3.080330222,-1.0811028266,-0.0985137172\\Version=ES64
 L-G16RevC.02\HF=-323.1393259\RMSD=2.242e-09\RMSF=2.145e-05\ZeroPoint=0
 .0756691\Thermal=0.0812678\ETot=-323.0580581\HTot=-323.057114\GTot=-32
 3.0930538\Dipole=-1.2846234,0.554813,0.0447763\DipoleDeriv=-0.3561601,
 0.7767792,0.2799486,-0.0032305,0.2329627,0.1704124,-0.0221724,0.272901
 3,-0.1075879,-0.2065039,0.0152918,0.0265782,0.6304608,-0.5783662,-0.00
 41408,0.2648589,-0.0840765,-0.3549048,0.7003518,-0.5561292,-0.0875914,
 -0.3696214,-0.0294197,0.0529913,-0.0161046,0.0301186,-0.279201,-0.2096
 893,0.0343645,-0.045424,0.0182421,0.1141886,-0.0467924,-0.050789,-0.04
 49642,0.2178064,-1.5920324,1.2373511,0.2876718,0.8223335,-0.4663988,-0
 .0170021,0.1298373,0.0343608,-0.1111503,-0.3166531,-0.7062557,-0.26079
 41,-0.8038133,-0.1011944,0.0102238,-0.298989,0.022764,-0.4315665,0.045
 ,0.0664905,0.0065074,0.1193308,-0.1600814,-0.1211654,0.0270244,-0.1284
 241,0.14786,2.1448297,-1.0254238,-0.1378156,-1.5383071,2.473836,0.6892
 219,-0.334449,0.7539609,0.4017364,0.088087,-0.0728351,-0.0468986,-0.08
 33775,-0.054718,-0.1246158,-0.0515201,-0.1258667,0.1820646,-1.0617446,
 0.3916571,0.0819469,1.4440106,-2.3649007,-0.5178556,0.4837502,-0.65012
 85,-0.7116563,-0.2354851,-0.1612903,-0.1041293,-0.2360279,-0.065908,-0
 .0912773,-0.1314465,-0.0806457,0.0465992\Polar=143.268719,-31.7677788,
 126.6632945,-2.0300236,19.8844471,71.678703\PolarDeriv=14.8463161,-21.
 8706432,0.2098999,-5.4296713,-3.249203,-4.4205672,10.870052,-10.380541
 2,15.1771603,-1.0053779,-2.3224116,5.2637964,7.7951924,-5.5696575,-2.0
 434647,-8.07073,7.7242486,7.5501201,-8.8066742,2.258396,-2.8526575,2.4
 20317,2.0389205,-7.6622008,-12.0324543,21.7343222,-6.7056112,10.703680
 1,-2.6809841,4.032597,-2.7952373,12.5637421,-5.8971701,-6.9437685,3.01
 9501,0.6745368,-7.4006872,15.000388,-6.2899598,5.2117771,-0.5321667,3.
 0652034,-5.5504261,-6.5733745,-1.8473887,-0.0635147,4.4769132,-6.11838
 54,-1.8148445,2.2565997,3.5429605,-4.0678938,-3.6000103,-8.3037555,-19
 .8140601,2.1806009,-1.2902729,-2.078668,-0.0663695,-0.3142137,1.767897
 7,-1.9133683,0.4565187,-1.4891577,0.3437363,-0.0625414,-2.5144082,-1.3
 097181,0.8151379,1.7347811,-0.9055106,-0.2063935,8.668648,-9.9271847,9
 .753626,-2.9151468,3.784631,-1.9712366,-4.0691092,5.1847328,-0.5261242
 ,-0.888231,-0.7107751,3.6329221,-1.6888607,-1.0023028,1.8733356,3.9908
 58,-0.9639612,1.4167298,-5.1723372,13.6765072,7.8743275,3.7067911,2.86
 907,5.2745149,10.7992809,-5.3547468,2.3193937,-1.442977,-0.0906575,-3.
 4442224,2.7854271,-1.7983279,-0.6828481,2.5988922,3.0730549,2.7395121,
 -2.9051566,3.9124469,-4.2665272,0.9500978,-0.8604801,-0.2624321,2.5804
 348,-5.4210573,13.8439493,-2.3968357,5.3797392,1.9191435,0.2157906,-2.
 0075031,6.2862994,0.8998509,0.3109611,-0.2909689,-0.3557801,0.5734125,
 -3.5094486,-1.9328689,-4.4340109,7.6804739,16.8118863,-36.1216213,19.7
 902365,-13.3143992,7.0987687,-5.7584636,4.7078589,-15.7829927,10.05924
 26,1.4003549,-1.4513607,-2.4421459,-1.3143359,-2.2156556,-2.6906625,-1
 .1292916,-1.3737237,-0.8126657,-1.975055,-4.3328957,-9.3103784,-2.2562
 848,-4.4047565,-2.4014779,-1.1608861,-2.4236685,-4.6754963,-0.1692236,
 -1.3045669,-0.2148013,9.2687984,-9.4790341,2.2127099,-2.5174307,1.1136
 385,-1.5640092,-27.5560504,38.8782046,-35.4586048,9.9851165,-7.6256736
 ,2.3848251,-9.9949598,13.4389425,-8.8125571,6.171757,-7.7178778,-3.023
 2473,12.985269,5.8907661,0.8489653,3.7140942,0.7096939,0.9871331,8.353
 5434,4.3003455,2.2608487,2.1679815,0.536101,0.5518066,4.4649276,1.6348
 863,-0.4654397,2.4551219,1.8155219,2.1004136\HyperPolar=620.8725197,-5
 73.7644236,292.3799427,153.5126307,-66.8459574,133.1150993,-1.1641549,
 -247.3843745,139.2828817,44.3136846\Quadrupole=-0.2362758,-5.9248953,6
 .1611711,9.5669489,3.0470344,-4.2428481\PG=C01 [X(C5H4N1O1)]\NImag=0\\
 0.58087925,-0.10300160,0.70676537,0.01818100,0.20864672,0.21346967,-0.
 15371941,-0.08544956,-0.04491698,0.80082244,-0.05354843,-0.18993450,-0
 .05613881,-0.05724470,0.48066398,-0.03260088,-0.06034986,-0.08971828,0
 .06710276,0.13496759,0.17318581,0.03310237,0.02058536,0.01060544,-0.19
 126582,0.09412887,0.01907296,0.53971636,-0.02629815,-0.06344260,-0.032
 70252,0.12509339,-0.23313374,-0.05111785,0.02442668,0.71615337,-0.0074
 7835,-0.02650353,0.00125524,0.03101523,-0.05522723,-0.07664588,0.06376
 378,0.23438048,0.21613018,-0.00640905,0.00719912,0.00228804,-0.3361520
 0,0.01361669,-0.03482843,-0.00703330,-0.00548164,-0.00303119,0.3546381
 7,-0.01864073,0.00892663,0.00206204,0.01311010,-0.05428760,-0.00939730
 ,0.02159242,0.00646903,0.00528768,-0.01509107,0.04423326,-0.00764798,0
 .00539846,-0.00158827,-0.03505382,-0.00933359,-0.03381453,0.00741462,0
 .00178604,0.00164818,0.03732083,0.00724568,0.02815609,-0.07142105,0.04
 202957,0.00582969,-0.06637905,0.06997234,0.01713242,-0.22722652,-0.066
 43514,-0.04646215,-0.00245353,0.00334914,0.00016738,0.71359433,0.07251
 427,-0.05805384,-0.01676778,0.00980699,-0.00503451,-0.00461787,-0.0588
 6017,-0.10024020,-0.02111325,0.00166645,-0.00424046,-0.00385689,-0.097
 75459,0.53318326,0.01759726,-0.02080883,0.00391274,-0.00603932,0.00319
 061,0.01063175,-0.04349604,-0.02202295,-0.07897942,-0.00049095,-0.0036
 3350,0.00484546,0.03749618,0.14192161,0.19105078,-0.32576755,0.0554918
 5,-0.01145156,-0.07334318,-0.04960329,-0.03117850,-0.03152345,-0.00738
 430,-0.00880185,-0.00251575,-0.00478752,-0.00295542,-0.06896201,-0.004
 32881,-0.00168736,0.52800624,0.07140854,-0.11281819,-0.00728967,0.0007
 4544,0.01434931,-0.00210250,-0.03325114,-0.05213204,-0.03009170,-0.001
 17890,-0.00204995,-0.00327996,-0.04941845,-0.21587681,-0.06278092,-0.0
 3653442,0.40240278,-0.00532785,-0.00933498,-0.07377180,-0.01176412,-0.
 00865532,0.01528423,-0.01883669,-0.02675091,0.00207282,-0.00156210,-0.
 00375034,0.00443617,-0.01901821,-0.05705483,-0.09456119,0.04017333,0.1
 0959574,0.15379418,-0.07314134,0.05939065,0.01709256,0.01057105,-0.014
 58744,-0.00434664,-0.00264510,-0.00292689,-0.00190964,-0.00008336,0.00
 090451,0.00055065,-0.00600233,0.00151204,-0.00125252,-0.00779852,0.031
 05156,0.01183081,0.07750080,0.06289906,-0.28140921,-0.08956611,0.00967
 158,-0.00863050,-0.00233357,-0.00239266,-0.00193450,-0.00237618,-0.000
 65379,-0.00023899,0.00046511,0.00257882,0.00159361,-0.00222219,0.00390
 787,-0.00529829,0.00103759,-0.07646582,0.29642175,0.01844953,-0.090008
 86,-0.06020680,0.00500297,-0.00546223,-0.00079110,-0.00170068,-0.00244
 645,0.00225863,-0.00004872,0.00066471,-0.00140900,-0.00084210,-0.00235
 695,0.00720859,0.00135982,0.00453433,-0.00475642,-0.02234070,0.0959112
 9,0.05598013,0.02679699,-0.00454298,0.00094589,-0.00075338,-0.02324198
 ,-0.00950090,-0.04287918,0.02269002,0.00343606,0.00039429,0.00046558,0
 .00005510,-0.25149261,0.06970223,0.00196139,-0.01357000,0.02426118,0.0
 0938788,0.00150515,-0.00087658,-0.00046522,0.58901717,-0.02823390,-0.0
 0817556,-0.00926814,-0.00859683,0.02407306,0.00705883,0.02008473,0.004
 08098,0.00483273,-0.00156598,0.00159248,-0.00008581,0.02825276,-0.1072
 5092,-0.01474479,0.05043835,-0.04914044,-0.00703317,0.00102332,0.00091
 617,-0.00046705,-0.04434359,0.72210345,-0.00818175,-0.00615941,0.00281
 804,-0.00379869,0.00507765,0.00449871,0.00241010,0.00511883,0.00074319
 ,-0.00071821,0.00016225,0.00128968,-0.01399461,-0.00924088,-0.06444561
 ,0.01941879,-0.01049269,-0.01553221,0.00027064,-0.00071273,0.00223023,
 0.03532161,0.19982666,0.26530832,-0.00367889,0.00375387,0.00034450,0.0
 1109231,0.01584833,0.00742309,-0.07573183,-0.06515401,-0.03153153,0.00
 020116,-0.00139668,-0.00008063,0.00527880,-0.02158362,-0.00746964,-0.0
 0493574,-0.00378573,-0.00280935,0.00102150,0.00070273,0.00027107,0.000
 60056,-0.00049691,0.00012346,0.06569951,0.00146830,-0.00228359,-0.0025
 6006,-0.01054551,-0.00857433,-0.00505152,-0.06441284,-0.28030034,-0.10
 645470,0.00021401,0.00004520,0.00133864,0.00124546,-0.00145234,0.00016
 126,0.00045719,-0.00011044,-0.00213071,-0.00063094,-0.00033884,-0.0006
 0014,0.00064642,-0.00251768,-0.00012884,0.07138133,0.29391291,-0.00053
 530,-0.00228068,0.00390301,-0.00277726,-0.00162240,-0.00002018,-0.0312
 8958,-0.10652525,-0.07139992,0.00054701,0.00112480,-0.00284001,0.00140
 035,-0.00274187,-0.00234675,-0.00118348,-0.00269257,0.00436132,-0.0002
 4143,-0.00043284,0.00080967,0.00061219,-0.00022266,-0.00192931,0.03344
 694,0.11482565,0.06905783,-0.00606529,0.00369833,0.00091841,0.00065189
 ,0.00510744,0.00203769,0.00695812,-0.00288786,0.00019444,-0.00027014,-
 0.00002005,-0.00007994,-0.00021720,0.04605394,0.01564412,-0.00256026,-
 0.00213755,-0.00238314,-0.00084861,0.00050293,0.00025080,-0.10339831,0
 .05095698,0.01410293,0.00056123,0.00033324,0.00008868,0.08737168,0.023
 08729,0.00003647,0.00389142,0.00282212,-0.02080089,-0.00779259,-0.0247
 0024,0.00573508,-0.00056448,0.00111861,-0.00017271,-0.00004174,0.05812
 989,-0.05146801,-0.01783329,-0.00850407,0.02052736,0.00314174,0.000805
 85,-0.00108972,0.00016385,0.03567017,-0.49105123,-0.15878880,0.0007911
 7,0.00152588,0.00050330,-0.07780193,0.57401481,0.00835107,0.00137343,-
 0.00061855,0.00113930,-0.00740977,-0.00245267,-0.00815870,0.00225160,-
 0.00168643,0.00035017,-0.00018170,0.00027247,0.02031569,-0.01948970,0.
 00997795,-0.00482866,0.00396877,0.01035503,0.00036049,0.00013892,-0.00
 116702,0.00817572,-0.15686888,-0.12263703,0.00030339,0.00052908,0.0005
 0878,-0.02172931,0.19959768,0.09980655,-0.00057604,0.00084540,0.000163
 01,-0.00152485,-0.00044782,-0.00031359,-0.00147166,0.00435791,0.000805
 21,-0.00031649,0.00051429,0.00030921,-0.02471883,-0.01872873,-0.012263
 11,0.00297023,-0.00116052,0.00030944,-0.00007923,0.00012586,0.00006324
 ,-0.20622068,-0.06751892,-0.04495425,-0.00010861,-0.00015665,-0.000068
 13,0.01781689,-0.01141886,-0.00427916,0.21422928,-0.00165465,0.0003890
 1,-0.00030709,0.00058699,0.00130972,0.00073664,0.00279899,-0.00125504,
 -0.00216984,0.00015650,-0.00027690,0.00036407,0.00805021,0.00884022,-0
 .00122702,0.00084715,0.00014669,0.00093519,-0.00007682,0.00000850,0.00
 006750,-0.08043046,-0.09463032,-0.02466204,-0.00006048,0.00009357,0.00
 006452,-0.02380548,-0.03725705,-0.02390943,0.09358806,0.12263160,-0.00
 080675,0.00002755,0.00054501,0.00008993,0.00061350,-0.00015784,0.00021
 480,-0.00197101,0.00460341,0.00017355,0.00041567,-0.00099624,-0.002024
 64,-0.00468160,0.01270569,0.00113489,0.00063116,-0.00168213,-0.0000142
 3,0.00009071,-0.00015691,-0.04992970,-0.02302773,-0.07234400,-0.000021
 29,0.00007134,-0.00010444,-0.00904470,-0.02227708,0.00764092,0.0602281
 4,0.05010748,0.04994654\\-0.00000465,-0.00001941,-0.00000325,-0.000018
 07,-0.00002016,-0.00000781,0.00002085,-0.00000161,0.00000057,-0.000000
 47,-0.00000084,-0.00000045,0.00007857,-0.00001244,0.00000630,-0.000020
 13,-0.00001840,-0.00000703,0.00000277,-0.00000052,-0.00000018,-0.00003
 762,0.00002017,-0.00001278,0.00000334,-0.00001213,-0.00000281,-0.00003
 474,0.00002035,0.00000672,0.00001015,0.00004500,0.00002074\\\@
 The archive entry for this job was punched.


 MANHOOD BEGINS BY TRYING TO SHAVE FACE,
 AND ENDS BY TRYING TO SAVE FACE.
 Job cpu time:       0 days  0 hours  9 minutes  2.7 seconds.
 Elapsed time:       0 days  0 hours  0 minutes 48.7 seconds.
 File lengths (MBytes):  RWF=     88 Int=      0 D2E=      0 Chk=     13 Scr=      1
 Normal termination of Gaussian 16 at Thu Dec 14 12:34:41 2023.
