 Entering Gaussian System, Link 0=g16
 Input=PDA-H_dissociation-site_index-5-freq.gjf
 Output=PDA-H_dissociation-site_index-5-freq.log
 Initial command:
 /software/commercial/gaussian/g16/AVX/g16/l1.exe "/scratch1/svicchi/G09-659892.pbs02/Gau-3138459.inp" -scrdir="/scratch1/svicchi/G09-659892.pbs02/"
 Entering Link 1 = /software/commercial/gaussian/g16/AVX/g16/l1.exe PID=   3138460.
  
 Copyright (c) 1988-2019, Gaussian, Inc.  All Rights Reserved.
  
 This is part of the Gaussian(R) 16 program.  It is based on
 the Gaussian(R) 09 system (copyright 2009, Gaussian, Inc.),
 the Gaussian(R) 03 system (copyright 2003, Gaussian, Inc.),
 the Gaussian(R) 98 system (copyright 1998, Gaussian, Inc.),
 the Gaussian(R) 94 system (copyright 1995, Gaussian, Inc.),
 the Gaussian 92(TM) system (copyright 1992, Gaussian, Inc.),
 the Gaussian 90(TM) system (copyright 1990, Gaussian, Inc.),
 the Gaussian 88(TM) system (copyright 1988, Gaussian, Inc.),
 the Gaussian 86(TM) system (copyright 1986, Carnegie Mellon
 University), and the Gaussian 82(TM) system (copyright 1983,
 Carnegie Mellon University). Gaussian is a federally registered
 trademark of Gaussian, Inc.
  
 This software contains proprietary and confidential information,
 including trade secrets, belonging to Gaussian, Inc.
  
 This software is provided under written license and may be
 used, copied, transmitted, or stored only in accord with that
 written license.
  
 The following legend is applicable only to US Government
 contracts under FAR:
  
                    RESTRICTED RIGHTS LEGEND
  
 Use, reproduction and disclosure by the US Government is
 subject to restrictions as set forth in subparagraphs (a)
 and (c) of the Commercial Computer Software - Restricted
 Rights clause in FAR 52.227-19.
  
 Gaussian, Inc.
 340 Quinnipiac St., Bldg. 40, Wallingford CT 06492
  
  
 ---------------------------------------------------------------
 Warning -- This program may not be used in any manner that
 competes with the business of Gaussian, Inc. or will provide
 assistance to any competitor of Gaussian, Inc.  The licensee
 of this program is prohibited from giving any competitor of
 Gaussian, Inc. access to this program.  By using this program,
 the user acknowledges that Gaussian, Inc. is engaged in the
 business of creating and licensing software in the field of
 computational chemistry and represents and warrants to the
 licensee that it is not a competitor of Gaussian, Inc. and that
 it will not use this program in any manner prohibited above.
 ---------------------------------------------------------------
  

 Cite this work as:
 Gaussian 16, Revision C.01,
 M. J. Frisch, G. W. Trucks, H. B. Schlegel, G. E. Scuseria, 
 M. A. Robb, J. R. Cheeseman, G. Scalmani, V. Barone, 
 G. A. Petersson, H. Nakatsuji, X. Li, M. Caricato, A. V. Marenich, 
 J. Bloino, B. G. Janesko, R. Gomperts, B. Mennucci, H. P. Hratchian, 
 J. V. Ortiz, A. F. Izmaylov, J. L. Sonnenberg, D. Williams-Young, 
 F. Ding, F. Lipparini, F. Egidi, J. Goings, B. Peng, A. Petrone, 
 T. Henderson, D. Ranasinghe, V. G. Zakrzewski, J. Gao, N. Rega, 
 G. Zheng, W. Liang, M. Hada, M. Ehara, K. Toyota, R. Fukuda, 
 J. Hasegawa, M. Ishida, T. Nakajima, Y. Honda, O. Kitao, H. Nakai, 
 T. Vreven, K. Throssell, J. A. Montgomery, Jr., J. E. Peralta, 
 F. Ogliaro, M. J. Bearpark, J. J. Heyd, E. N. Brothers, K. N. Kudin, 
 V. N. Staroverov, T. A. Keith, R. Kobayashi, J. Normand, 
 K. Raghavachari, A. P. Rendell, J. C. Burant, S. S. Iyengar, 
 J. Tomasi, M. Cossi, J. M. Millam, M. Klene, C. Adamo, R. Cammi, 
 J. W. Ochterski, R. L. Martin, K. Morokuma, O. Farkas, 
 J. B. Foresman, and D. J. Fox, Gaussian, Inc., Wallingford CT, 2019.
 
 ******************************************
 Gaussian 16:  ES64L-G16RevC.01  3-Jul-2019
                 2-Jun-2023 
 ******************************************
 %NProcShared=2
 Will use up to    2 processors via shared memory.
 %mem=55gb
 %chk=/scratch1/svicchi/G09-659892.pbs02/02-freq/PDA-H_dissociation-site_index-5-
 freq.chk
 ----------------------------------------------------------------------
 #p freq=raman scale=0.967 pop=(nbo,full,hirshfeld) guess=read geom=all
 check b3lyp/6-311+G(d,p) int=grid=ultrafine EmpiricalDispersion=GD3BJ 
 SCRF=(Solvent=ethanol) scf=(xqc,intrep,maxconventionalcycle=350) nosym
 m
 ----------------------------------------------------------------------
 1/10=4,29=7,30=1,38=1,114=967000/1,3;
 2/12=2,15=1,40=1/2;
 3/5=4,6=6,7=111,11=2,14=-4,25=1,30=1,70=2201,71=2,72=4,74=-5,75=-5,116=-2,124=41,140=1/1,2,3;
 4/5=1/1;
 5/5=2,8=3,13=1,17=20,38=6,53=4,85=350,98=1/2,8;
 8/6=4,10=90,11=11/1;
 10/13=10,15=4,31=1/2;
 11/6=3,8=1,9=11,15=111,16=1,31=1/1,2,10;
 10/6=1,31=1/2;
 6/7=3,28=1,40=1,79=1/1,7;
 7/8=1,10=1,25=1,30=1/1,2,3,16;
 1/10=4,30=1/3;
 99//99;
 Leave Link    1 at Fri Jun  2 12:38:31 2023, MaxMem=  7381975040 cpu:               3.7 elap:               5.7
 (Enter /software/commercial/gaussian/g16/AVX/g16/l101.exe)
 Structure from the checkpoint file:  "/scratch1/svicchi/G09-659892.pbs02/02-freq/PDA-H_dissociation-site_index-5-freq.chk"
 -----------------------------------
 PDA-H_dissociation-site_index-5.gjf
 -----------------------------------
 Charge = -1 Multiplicity = 1
 No Z-Matrix found in chk file; cartesian coordinates used.
  C                                                -3.452795644957      0.820428115991      0.104990829416
  C                                                -2.143226092301      1.612879280592      0.027298206546
  C                                                -0.887433295163      0.745016809507     -0.088019474605
  H                                                -2.066546238285      2.247922871136      0.919899540828
  H                                                -2.195976242454      2.296098196160     -0.831132400459
  N                                                -4.605399043540      1.701098055910      0.215574706070
  H                                                -3.334832574724      0.113215573152      0.959599991227
  H                                                -3.466762277327      0.156715892760     -0.792284646179
  H                                                -5.433268273174      1.104973251695      0.290918146975
  C                                                 0.412525531924      1.552033336629     -0.128061274543
  H                                                -0.954986472413      0.124029054885     -0.990564495454
  H                                                -0.849026192541      0.048256769750      0.759563301525
  C                                                 1.658561523271      0.677790139115     -0.236121135796
  N                                                 2.883834379651      1.496327801882     -0.256143594501
  H                                                 1.566885163911      0.031467993037     -1.122494165536
  H                                                 1.714231318683      0.015150735676      0.633798500535
  H                                                 0.492206263330      2.172494056428      0.772109990870
  H                                                 0.385770943254      2.243163318994     -0.980948364036
  H                                                 2.893398275634      2.077407246498     -1.090400740830
  H                                                 3.702756947221      0.898688500200     -0.319884922054
 Recover connectivity data from disk.
 ITRead=  0  0  0  0  0  0  0  0  0  0  0  0  0  0  0  0  0  0  0  0
 MicOpt= -1 -1 -1 -1 -1 -1 -1 -1 -1 -1 -1 -1 -1 -1 -1 -1 -1 -1 -1 -1
 NAtoms=     20 NQM=       20 NQMF=       0 NMMI=      0 NMMIF=      0
                NMic=       0 NMicF=      0.
                    Isotopes and Nuclear Properties:
 (Nuclear quadrupole moments (NQMom) in fm**2, nuclear magnetic moments (NMagM)
  in nuclear magnetons)

  Atom         1           2           3           4           5           6           7           8           9          10
 IAtWgt=          12          12          12           1           1          14           1           1           1          12
 AtmWgt=  12.0000000  12.0000000  12.0000000   1.0078250   1.0078250  14.0030740   1.0078250   1.0078250   1.0078250  12.0000000
 NucSpn=           0           0           0           1           1           2           1           1           1           0
 AtZEff=   3.6000000   3.6000000   3.6000000   1.0000000   1.0000000   4.5500000   1.0000000   1.0000000   1.0000000   3.6000000
 NQMom=    0.0000000   0.0000000   0.0000000   0.0000000   0.0000000   2.0440000   0.0000000   0.0000000   0.0000000   0.0000000
 NMagM=    0.0000000   0.0000000   0.0000000   2.7928460   2.7928460   0.4037610   2.7928460   2.7928460   2.7928460   0.0000000
 AtZNuc=   6.0000000   6.0000000   6.0000000   1.0000000   1.0000000   7.0000000   1.0000000   1.0000000   1.0000000   6.0000000

  Atom        11          12          13          14          15          16          17          18          19          20
 IAtWgt=           1           1          12          14           1           1           1           1           1           1
 AtmWgt=   1.0078250   1.0078250  12.0000000  14.0030740   1.0078250   1.0078250   1.0078250   1.0078250   1.0078250   1.0078250
 NucSpn=           1           1           0           2           1           1           1           1           1           1
 AtZEff=   1.0000000   1.0000000   3.6000000   4.5500000   1.0000000   1.0000000   1.0000000   1.0000000   1.0000000   1.0000000
 NQMom=    0.0000000   0.0000000   0.0000000   2.0440000   0.0000000   0.0000000   0.0000000   0.0000000   0.0000000   0.0000000
 NMagM=    2.7928460   2.7928460   0.0000000   0.4037610   2.7928460   2.7928460   2.7928460   2.7928460   2.7928460   2.7928460
 AtZNuc=   1.0000000   1.0000000   6.0000000   7.0000000   1.0000000   1.0000000   1.0000000   1.0000000   1.0000000   1.0000000
 Leave Link  101 at Fri Jun  2 12:38:37 2023, MaxMem=  7381975040 cpu:               0.6 elap:               4.4
 (Enter /software/commercial/gaussian/g16/AVX/g16/l103.exe)

 GradGradGradGradGradGradGradGradGradGradGradGradGradGradGradGradGradGrad
 Berny optimization.
 Initialization pass.
 Trust Radius=3.00D-01 FncErr=1.00D-07 GrdErr=1.00D-07 EigMax=2.50D+02 EigMin=1.00D-04
 Number of steps in this run=      2 maximum allowed number of steps=      2.
 GradGradGradGradGradGradGradGradGradGradGradGradGradGradGradGradGradGrad

 Leave Link  103 at Fri Jun  2 12:38:41 2023, MaxMem=  7381975040 cpu:               0.1 elap:               2.6
 (Enter /software/commercial/gaussian/g16/AVX/g16/l202.exe)
                          Input orientation:                          
 ---------------------------------------------------------------------
 Center     Atomic      Atomic             Coordinates (Angstroms)
 Number     Number       Type             X           Y           Z
 ---------------------------------------------------------------------
      1          6           0       -3.452796    0.820428    0.104991
      2          6           0       -2.143226    1.612879    0.027298
      3          6           0       -0.887433    0.745017   -0.088019
      4          1           0       -2.066546    2.247923    0.919900
      5          1           0       -2.195976    2.296098   -0.831132
      6          7           0       -4.605399    1.701098    0.215575
      7          1           0       -3.334833    0.113216    0.959600
      8          1           0       -3.466762    0.156716   -0.792285
      9          1           0       -5.433268    1.104973    0.290918
     10          6           0        0.412526    1.552033   -0.128061
     11          1           0       -0.954986    0.124029   -0.990564
     12          1           0       -0.849026    0.048257    0.759563
     13          6           0        1.658562    0.677790   -0.236121
     14          7           0        2.883834    1.496328   -0.256144
     15          1           0        1.566885    0.031468   -1.122494
     16          1           0        1.714231    0.015151    0.633799
     17          1           0        0.492206    2.172494    0.772110
     18          1           0        0.385771    2.243163   -0.980948
     19          1           0        2.893398    2.077407   -1.090401
     20          1           0        3.702757    0.898689   -0.319885
 ---------------------------------------------------------------------
                    Distance matrix (angstroms):
                    1          2          3          4          5
     1  C    0.000000
     2  C    1.532641   0.000000
     3  C    2.573718   1.530849   0.000000
     4  H    2.150234   1.098134   2.159846   0.000000
     5  H    2.152562   1.098396   2.161100   1.756470   0.000000
     6  N    1.454752   2.470936   3.850913   2.690885   2.693499
     7  H    1.115537   2.130283   2.736136   2.483365   3.044453
     8  H    1.116160   2.131637   2.737704   3.043900   2.488647
     9  H    2.009429   3.339437   4.575782   3.610647   3.627373
    10  C    3.940846   2.561192   1.530612   2.779979   2.802182
    11  H    2.815007   2.159776   1.097623   3.065349   2.506663
    12  H    2.793623   2.158520   1.097883   2.519245   3.065514
    13  C    5.124712   3.923948   2.551185   4.204537   4.222608
    14  N    6.382800   5.036394   3.849051   5.143369   5.174430
    15  H    5.227463   4.193782   2.757348   4.720791   4.401428
    16  H    5.256070   4.219071   2.796853   4.400160   4.757990
    17  H    4.223289   2.795249   2.163543   2.564127   3.132410
    18  H    4.235331   2.794574   2.159355   3.102758   2.586632
    19  H    6.578992   5.180021   4.132157   5.354571   5.100665
    20  H    7.168583   5.899671   4.598611   6.053293   6.083517
                    6          7          8          9         10
     6  N    0.000000
     7  H    2.165475   0.000000
     8  H    2.167346   1.757384   0.000000
     9  H    1.022941   2.415399   2.437143   0.000000
    10  C    5.031886   4.158834   4.175761   5.877815   0.000000
    11  H    4.155410   3.076837   2.519802   4.760195   2.157127
    12  H    4.139824   2.494688   3.045084   4.727743   2.154236
    13  C    6.363049   5.165509   5.181677   7.124206   1.525970
    14  N    7.506868   6.485588   6.512456   8.344257   2.475253
    15  H    6.532625   5.326222   5.046021   7.221655   2.152571
    16  H    6.554011   5.060515   5.375542   7.238234   2.153341
    17  H    5.149517   4.349943   4.710003   6.040066   1.096188
    18  H    5.161132   4.705879   4.385301   6.064185   1.098086
    19  H    7.620967   6.844809   6.650532   8.496296   2.712350
    20  H    8.363972   7.195951   7.223274   9.158744   3.359952
                   11         12         13         14         15
    11  H    0.000000
    12  H    1.754969   0.000000
    13  C    2.776053   2.770505   0.000000
    14  N    4.142357   4.130716   1.473668   0.000000
    15  H    2.527016   3.062523   1.100815   2.151914   0.000000
    16  H    3.126521   2.566554   1.094966   2.086589   1.762538
    17  H    3.065550   2.512259   2.147337   2.689682   3.054252
    18  H    2.507679   3.061326   2.150618   2.706183   2.511307
    19  H    4.316911   4.641719   2.052692   1.016725   2.438552
    20  H    4.769118   4.754700   2.057802   1.015810   2.440943
                   16         17         18         19         20
    16  H    0.000000
    17  H    2.483265   0.000000
    18  H    3.055529   1.757708   0.000000
    19  H    2.935336   3.040347   2.515482   0.000000
    20  H    2.375791   3.622522   3.639645   1.624233   0.000000
 Symmetry turned off by external request.
 Stoichiometry    C5H13N2(1-)
 Framework group  C1[X(C5H13N2)]
 Deg. of freedom    54
 Full point group                 C1      NOp   1
 Rotational constants (GHZ):          13.7601471           0.7333793           0.7129012
 Leave Link  202 at Fri Jun  2 12:38:45 2023, MaxMem=  7381975040 cpu:               0.0 elap:               3.6
 (Enter /software/commercial/gaussian/g16/AVX/g16/l301.exe)
 Standard basis: 6-311+G(d,p) (5D, 7F)
 Ernie: Thresh=  0.10000D-02 Tol=  0.10000D-05 Strict=F.
   232 basis functions,   356 primitive gaussians,   239 cartesian basis functions
    29 alpha electrons       29 beta electrons
       nuclear repulsion energy       298.2141896525 Hartrees.
 IExCor=  402 DFT=T Ex+Corr=B3LYP ExCW=0 ScaHFX=  0.200000
 ScaDFX=  0.800000  0.720000  1.000000  0.810000 ScalE2=  1.000000  1.000000
 IRadAn=      5 IRanWt=     -1 IRanGd=            0 ICorTp=0 IEmpDi=141
 NAtoms=   20 NActive=   20 NUniq=   20 SFac= 1.00D+00 NAtFMM=   60 NAOKFM=F Big=F
 Integral buffers will be    131072 words long.
 Raffenetti 2 integral format.
 Two-electron integral symmetry is turned off.
 R6Disp:  Grimme-D3(BJ) Dispersion energy=       -0.0250753206 Hartrees.
 Nuclear repulsion after empirical dispersion term =      298.1891143319 Hartrees.
 Force inversion solution in PCM.
 ------------------------------------------------------------------------------
 Polarizable Continuum Model (PCM)
 =================================
 Model                : PCM.
 Atomic radii         : UFF (Universal Force Field).
 Polarization charges : Total charges.
 Charge compensation  : None.
 Solution method      : Matrix inversion.
 Cavity type          : Scaled VdW (van der Waals Surface) (Alpha=1.100).
 Cavity algorithm     : GePol (No added spheres)
                        Default sphere list used, NSphG=   20.
                        Lebedev-Laikov grids with approx.  5.0 points / Ang**2.
                        Smoothing algorithm: York/Karplus (Gamma=1.0000).
                        Polarization charges: spherical gaussians, with
                                              point-specific exponents (IZeta= 3).
                        Self-potential: point-specific (ISelfS= 7).
                        Self-field    : sphere-specific E.n sum rule (ISelfD= 2).
 1st derivatives      : Analytical E(r).r(x)/FMM algorithm (CHGder, D1EAlg=3).
                        Cavity 1st derivative terms included.
 2nd derivatives      : Analytical E(r).r(xy)/FMM algorithm (CHGder, D2EAlg=3).
                        Cavity 2nd derivative terms included.
 Solvent              : Ethanol, Eps=  24.852000 Eps(inf)=   1.852593
 ------------------------------------------------------------------------------
 Spheres list:
 ISph  on   Nord     Re0    Alpha      Xe            Ye            Ze
    1   C      1    1.9255  1.100     -3.452796      0.820428      0.104991
    2   C      2    1.9255  1.100     -2.143226      1.612879      0.027298
    3   C      3    1.9255  1.100     -0.887433      0.745017     -0.088019
    4   H      4    1.4430  1.100     -2.066546      2.247923      0.919900
    5   H      5    1.4430  1.100     -2.195976      2.296098     -0.831132
    6   N      6    1.8300  1.100     -4.605399      1.701098      0.215575
    7   H      7    1.4430  1.100     -3.334833      0.113216      0.959600
    8   H      8    1.4430  1.100     -3.466762      0.156716     -0.792285
    9   H      9    1.4430  1.100     -5.433268      1.104973      0.290918
   10   C     10    1.9255  1.100      0.412526      1.552033     -0.128061
   11   H     11    1.4430  1.100     -0.954986      0.124029     -0.990564
   12   H     12    1.4430  1.100     -0.849026      0.048257      0.759563
   13   C     13    1.9255  1.100      1.658562      0.677790     -0.236121
   14   N     14    1.8300  1.100      2.883834      1.496328     -0.256144
   15   H     15    1.4430  1.100      1.566885      0.031468     -1.122494
   16   H     16    1.4430  1.100      1.714231      0.015151      0.633799
   17   H     17    1.4430  1.100      0.492206      2.172494      0.772110
   18   H     18    1.4430  1.100      0.385771      2.243163     -0.980948
   19   H     19    1.4430  1.100      2.893398      2.077407     -1.090401
   20   H     20    1.4430  1.100      3.702757      0.898689     -0.319885
 ------------------------------------------------------------------------------
 GePol: Number of generator spheres                  =      20
 GePol: Total number of spheres                      =      20
 GePol: Number of exposed spheres                    =      20 (100.00%)
 GePol: Number of points                             =    1516
 GePol: Average weight of points                     =       0.13
 GePol: Minimum weight of points                     =   0.94D-07
 GePol: Maximum weight of points                     =    0.20577
 GePol: Number of points with low weight             =      96
 GePol: Fraction of low-weight points (<1% of avg)   =       6.33%
 GePol: Cavity surface area                          =    202.005 Ang**2
 GePol: Cavity volume                                =    190.326 Ang**3
 Leave Link  301 at Fri Jun  2 12:38:52 2023, MaxMem=  7381975040 cpu:               1.1 elap:               5.1
 (Enter /software/commercial/gaussian/g16/AVX/g16/l302.exe)
 NPDir=0 NMtPBC=     1 NCelOv=     1 NCel=       1 NClECP=     1 NCelD=      1
         NCelK=      1 NCelE2=     1 NClLst=     1 CellRange=     0.0.
 One-electron integrals computed using PRISM.
 NBasis=   232 RedAO= T EigKep=  9.50D-06  NBF=   232
 NBsUse=   232 1.00D-06 EigRej= -1.00D+00 NBFU=   232
 Precomputing XC quadrature grid using
 IXCGrd= 4 IRadAn=           5 IRanWt=          -1 IRanGd=           0 AccXCQ= 0.00D+00.
 Generated NRdTot=       0 NPtTot=           0 NUsed=           0 NTot=          32
 NSgBfM=   239   239   239   239   239 MxSgAt=    20 MxSgA2=    20.
 Leave Link  302 at Fri Jun  2 12:38:56 2023, MaxMem=  7381975040 cpu:               1.0 elap:               3.0
 (Enter /software/commercial/gaussian/g16/AVX/g16/l303.exe)
 DipDrv:  MaxL=1.
 Leave Link  303 at Fri Jun  2 12:38:59 2023, MaxMem=  7381975040 cpu:               0.1 elap:               2.9
 (Enter /software/commercial/gaussian/g16/AVX/g16/l401.exe)
 Initial guess from the checkpoint file:  "/scratch1/svicchi/G09-659892.pbs02/02-freq/PDA-H_dissociation-site_index-5-freq.chk"
 B after Tr=     0.000000    0.000000    0.000000
         Rot=    1.000000    0.000000    0.000000    0.000000 Ang=   0.00 deg.
 Guess basis will be translated and rotated to current coordinates.
 JPrj=2 DoOrth=T DoCkMO=T.
 Leave Link  401 at Fri Jun  2 12:39:04 2023, MaxMem=  7381975040 cpu:               0.7 elap:               4.0
 (Enter /software/commercial/gaussian/g16/AVX/g16/l502.exe)
 Keep R1 ints in memory in canonical form, NReq=372183167.
 FoFCou: FMM=F IPFlag=           0 FMFlag=           0 FMFlg1=           0
         NFxFlg=           0 DoJE=F BraDBF=F KetDBF=F FulRan=T
         wScrn=  0.000000 ICntrl=       600 IOpCl=  0 I1Cent=           0 NGrid=           0
         NMat0=    1 NMatS0=  27028 NMatT0=    0 NMatD0=    1 NMtDS0=    0 NMtDT0=    0
 Symmetry not used in FoFCou.
 Two-electron integral symmetry not used.
 Closed shell SCF:
 Using DIIS extrapolation, IDIIS=  1040.
 NGot=  7381975040 LenX=  7016587017 LenY=  7016529455
 Requested convergence on RMS density matrix=1.00D-08 within 350 cycles.
 Requested convergence on MAX density matrix=1.00D-06.
 Requested convergence on             energy=1.00D-06.
 No special actions if energy rises.

 Cycle   1  Pass 1  IDiag  1:
 Inv3:  Mode=1 IEnd=     6894768.
 Iteration    1 A*A^-1 deviation from unit magnitude is 4.22D-15 for   1477.
 Iteration    1 A*A^-1 deviation from orthogonality  is 1.44D-15 for   1512   1419.
 Iteration    1 A^-1*A deviation from unit magnitude is 4.22D-15 for   1477.
 Iteration    1 A^-1*A deviation from orthogonality  is 1.10D-15 for   1477   1447.
 E= -308.041339592045    
 DIIS: error= 2.08D-09 at cycle   1 NSaved=   1.
 NSaved= 1 IEnMin= 1 EnMin= -308.041339592045     IErMin= 1 ErrMin= 2.08D-09
 ErrMax= 2.08D-09  0.00D+00 EMaxC= 1.00D-01 BMatC= 1.42D-15 BMatP= 1.42D-15
 IDIUse=1 WtCom= 1.00D+00 WtEn= 0.00D+00
 Coeff-Com:  0.100D+01
 Coeff:      0.100D+01
 Gap=     0.138 Goal=   None    Shift=    0.000
 RMSDP=9.64D-10 MaxDP=4.56D-08              OVMax= 1.57D-08

 Error on total polarization charges =  0.03315
 SCF Done:  E(RB3LYP) =  -308.041339592     A.U. after    1 cycles
            NFock=  1  Conv=0.96D-09     -V/T= 2.0050
 KE= 3.064985374771D+02 PE=-1.321072407382D+03 EE= 4.083434159811D+02
 Leave Link  502 at Fri Jun  2 12:39:31 2023, MaxMem=  7381975040 cpu:              42.5 elap:              26.2
 (Enter /software/commercial/gaussian/g16/AVX/g16/l508.exe)
 QCSCF skips out because SCF is already converged.
 Leave Link  508 at Fri Jun  2 12:39:36 2023, MaxMem=  7381975040 cpu:               0.0 elap:               3.3
 (Enter /software/commercial/gaussian/g16/AVX/g16/l801.exe)
 DoSCS=F DFT=T ScalE2(SS,OS)=  1.000000  1.000000
 Range of M.O.s used for correlation:     1   232
 NBasis=   232 NAE=    29 NBE=    29 NFC=     0 NFV=     0
 NROrb=    232 NOA=    29 NOB=    29 NVA=   203 NVB=   203

 **** Warning!!: The largest alpha MO coefficient is  0.87210436D+02

 Leave Link  801 at Fri Jun  2 12:39:38 2023, MaxMem=  7381975040 cpu:               0.4 elap:               1.4
 (Enter /software/commercial/gaussian/g16/AVX/g16/l1002.exe)
 Minotr:  Closed shell wavefunction.
 NEqPCM:  Using equilibrium solvation (IEInf=0, Eps=  24.8520, EpsInf=   1.8526)
          Direct CPHF calculation.
          Differentiating once with respect to electric field.
                with respect to dipole field.
          Electric field/nuclear overlap derivatives assumed to be zero.
          Requested convergence is 1.0D-08 RMS, and 1.0D-07 maximum.
          Secondary convergence is 1.0D-12 RMS, and 1.0D-12 maximum.
          NewPWx=F KeepS1=T KeepF1=T KeepIn=T MapXYZ=F SortEE=F KeepMc=T.
         6164 words used for storage of precomputed grid.
 Keep R1 ints in memory in canonical form, NReq=372191451.
 FoFCou: FMM=F IPFlag=           0 FMFlag=           0 FMFlg1=           0
         NFxFlg=           0 DoJE=F BraDBF=F KetDBF=F FulRan=T
         wScrn=  0.000000 ICntrl=       600 IOpCl=  0 I1Cent=           0 NGrid=           0
         NMat0=    1 NMatS0=  27028 NMatT0=    0 NMatD0=    1 NMtDS0=    0 NMtDT0=    0
 Symmetry not used in FoFCou.
 Two-electron integral symmetry not used.
          MDV=    7381975040 using IRadAn=       1.
          Solving linear equations simultaneously, MaxMat=       0.
          There are     3 degrees of freedom in the 1st order CPHF.  IDoFFX=0 NUNeed=     3.
      3 vectors produced by pass  0 Test12= 1.96D-13 3.33D-08 XBig12= 7.45D+01 2.43D+00.
 AX will form     3 AO Fock derivatives at one time.
      3 vectors produced by pass  1 Test12= 1.96D-13 3.33D-08 XBig12= 6.80D+00 8.31D-01.
      3 vectors produced by pass  2 Test12= 1.96D-13 3.33D-08 XBig12= 1.67D+00 2.81D-01.
      3 vectors produced by pass  3 Test12= 1.96D-13 3.33D-08 XBig12= 2.31D-01 1.19D-01.
      3 vectors produced by pass  4 Test12= 1.96D-13 3.33D-08 XBig12= 2.61D-02 3.66D-02.
      3 vectors produced by pass  5 Test12= 1.96D-13 3.33D-08 XBig12= 4.99D-03 1.91D-02.
      3 vectors produced by pass  6 Test12= 1.96D-13 3.33D-08 XBig12= 4.10D-04 4.60D-03.
      3 vectors produced by pass  7 Test12= 1.96D-13 3.33D-08 XBig12= 8.22D-05 1.26D-03.
      3 vectors produced by pass  8 Test12= 1.96D-13 3.33D-08 XBig12= 8.16D-06 4.40D-04.
      3 vectors produced by pass  9 Test12= 1.96D-13 3.33D-08 XBig12= 2.53D-07 8.55D-05.
      3 vectors produced by pass 10 Test12= 1.96D-13 3.33D-08 XBig12= 1.14D-08 1.50D-05.
      3 vectors produced by pass 11 Test12= 1.96D-13 3.33D-08 XBig12= 2.72D-10 2.04D-06.
      3 vectors produced by pass 12 Test12= 1.96D-13 3.33D-08 XBig12= 9.84D-12 4.51D-07.
      2 vectors produced by pass 13 Test12= 1.96D-13 3.33D-08 XBig12= 2.19D-13 7.11D-08.
 InvSVY:  IOpt=1 It=  1 EMax= 5.33D-15
 Solved reduced A of dimension    41 with     3 vectors.
 End of Minotr F.D. properties file   721 does not exist.
 End of Minotr F.D. properties file   722 does not exist.
 End of Minotr F.D. properties file   788 does not exist.
 Leave Link 1002 at Fri Jun  2 12:41:42 2023, MaxMem=  7381975040 cpu:             224.2 elap:             123.1
 (Enter /software/commercial/gaussian/g16/AVX/g16/l1101.exe)
 Using compressed storage, NAtomX=    20.
 Will process     21 centers per pass.
 R6Disp: Adding Grimme-D3(BJ) dispersion energy 1st derivatives to the gradient.
 Leave Link 1101 at Fri Jun  2 12:41:46 2023, MaxMem=  7381975040 cpu:               0.9 elap:               2.8
 (Enter /software/commercial/gaussian/g16/AVX/g16/l1102.exe)
 Symmetrizing basis deriv contribution to polar:
 IMax=3 JMax=2 DiffMx= 0.00D+00
 Leave Link 1102 at Fri Jun  2 12:41:50 2023, MaxMem=  7381975040 cpu:               0.2 elap:               3.2
 (Enter /software/commercial/gaussian/g16/AVX/g16/l1110.exe)
 Forming Gx(P) for the SCF density, NAtomX=    20.
 Integral derivatives from FoFJK, PRISM(SPDF).
 Do as many integral derivatives as possible in FoFJK.
 G2DrvN: MDV=    7381972844.
 G2DrvN: will do    21 centers at a time, making    1 passes.
 PxScal for G2LodP:  IOpCl= 0 ISclPx=1 IMOff=     1 NMtTot=     4 NTT=   27028 ScalPx= 4.75D+01
 Calling FoFCou, ICntrl=  3107 FMM=F I1Cent=   0 AccDes= 0.00D+00.
 FoFJK:  IHMeth= 1 ICntrl=    3107 DoSepK=F KAlg= 0 I1Cent=           0 FoldK=F
 IRaf=         0 NMat=       1 IRICut=       1 DoRegI=T DoRafI=F ISym2E= 0 IDoP0=0 IntGTp=1.
 FoFCou: FMM=F IPFlag=           0 FMFlag=      100000 FMFlg1=           0
         NFxFlg=           0 DoJE=F BraDBF=F KetDBF=F FulRan=T
         wScrn=  0.000000 ICntrl=      3107 IOpCl=  0 I1Cent=           0 NGrid=           0
         NMat0=    1 NMatS0=      1 NMatT0=    0 NMatD0=    4 NMtDS0=    3 NMtDT0=    0
 Symmetry not used in FoFCou.
 PxScal for G2LodP:  IOpCl= 0 ISclPx=0 IMOff=     1 NMtTot=     4 NTT=   27028 ScalPx= 1.00D+00
 NEqPCM:  Using equilibrium solvation (IEInf=0, Eps=  24.8520, EpsInf=   1.8526)
 G2PCM: DoFxE=T DoFxN=T DoGrad=T DoDP/DQ/DG/TGxP=TFFF NFrqRd=   0 IEInf=0 SqF1=F DoCFld=F IF1Alg=4.
 GePol: Maximum number of non-zero 1st derivatives   =     215
 End of G2Drv F.D. properties file   721 does not exist.
 End of G2Drv F.D. properties file   722 does not exist.
 End of G2Drv F.D. properties file   788 does not exist.
 Leave Link 1110 at Fri Jun  2 12:47:37 2023, MaxMem=  7381975040 cpu:             679.4 elap:             345.6
 (Enter /software/commercial/gaussian/g16/AVX/g16/l1002.exe)
 Minotr:  Closed shell wavefunction.
          IDoAtm=11111111111111111111
 NEqPCM:  Using equilibrium solvation (IEInf=0, Eps=  24.8520, EpsInf=   1.8526)
          Direct CPHF calculation.
          Differentiating once with respect to electric field.
                with respect to dipole field.
          Differentiating once with respect to nuclear coordinates.
          Requested convergence is 1.0D-08 RMS, and 1.0D-07 maximum.
          Secondary convergence is 1.0D-12 RMS, and 1.0D-12 maximum.
          NewPWx=T KeepS1=F KeepF1=F KeepIn=T MapXYZ=F SortEE=F KeepMc=T.
         6164 words used for storage of precomputed grid.
 Keep R1 ints in memory in canonical form, NReq=372191911.
 FoFCou: FMM=F IPFlag=           0 FMFlag=           0 FMFlg1=           0
         NFxFlg=           0 DoJE=F BraDBF=F KetDBF=F FulRan=T
         wScrn=  0.000000 ICntrl=       600 IOpCl=  0 I1Cent=           0 NGrid=           0
         NMat0=    1 NMatS0=  27028 NMatT0=    0 NMatD0=    1 NMtDS0=    0 NMtDT0=    0
 Symmetry not used in FoFCou.
 Two-electron integral symmetry not used.
          MDV=    7381975040 using IRadAn=       1.
          Solving linear equations simultaneously, MaxMat=       0.
          There are    63 degrees of freedom in the 1st order CPHF.  IDoFFX=5 NUNeed=    63.
 Will reuse    3 saved solutions.
     57 vectors produced by pass  0 Test12= 9.34D-15 1.59D-09 XBig12= 1.25D-01 1.27D-01.
 AX will form    57 AO Fock derivatives at one time.
     57 vectors produced by pass  1 Test12= 9.34D-15 1.59D-09 XBig12= 2.18D-02 3.14D-02.
     57 vectors produced by pass  2 Test12= 9.34D-15 1.59D-09 XBig12= 3.48D-04 3.06D-03.
     57 vectors produced by pass  3 Test12= 9.34D-15 1.59D-09 XBig12= 2.20D-06 2.35D-04.
     57 vectors produced by pass  4 Test12= 9.34D-15 1.59D-09 XBig12= 6.03D-09 1.60D-05.
     45 vectors produced by pass  5 Test12= 9.34D-15 1.59D-09 XBig12= 7.56D-12 3.44D-07.
      9 vectors produced by pass  6 Test12= 9.34D-15 1.59D-09 XBig12= 8.21D-15 1.24D-08.
 InvSVY:  IOpt=1 It=  1 EMax= 3.33D-16
 Solved reduced A of dimension   339 with    63 vectors.
 FullF1:  Do perturbations      1 to       3.
 Isotropic polarizability for W=    0.000000      123.86 Bohr**3.
 FullF1:  Do perturbations      1 to       6.
 End of Minotr F.D. properties file   721 does not exist.
 End of Minotr F.D. properties file   722 does not exist.
 End of Minotr F.D. properties file   788 does not exist.
 Leave Link 1002 at Fri Jun  2 12:53:31 2023, MaxMem=  7381975040 cpu:             662.1 elap:             353.1
 (Enter /software/commercial/gaussian/g16/AVX/g16/l601.exe)
 Copying SCF densities to generalized density rwf, IOpCl= 0 IROHF=0.

 **********************************************************************

            Population analysis using the SCF Density.

 **********************************************************************

 Alpha  occ. eigenvalues --  -14.29194 -14.18576 -10.18473 -10.15421 -10.14952
 Alpha  occ. eigenvalues --  -10.14522 -10.13487  -0.87921  -0.79155  -0.75963
 Alpha  occ. eigenvalues --   -0.69350  -0.61624  -0.57303  -0.53990  -0.48579
 Alpha  occ. eigenvalues --   -0.46411  -0.44344  -0.41840  -0.39653  -0.37185
 Alpha  occ. eigenvalues --   -0.36654  -0.35058  -0.32667  -0.31711  -0.30520
 Alpha  occ. eigenvalues --   -0.29618  -0.24574  -0.20022  -0.12919
 Alpha virt. eigenvalues --    0.00875   0.02008   0.02560   0.03605   0.03726
 Alpha virt. eigenvalues --    0.05132   0.06220   0.06664   0.07096   0.07694
 Alpha virt. eigenvalues --    0.08927   0.09675   0.10679   0.11013   0.11504
 Alpha virt. eigenvalues --    0.12908   0.15028   0.15729   0.16071   0.16791
 Alpha virt. eigenvalues --    0.17258   0.17643   0.18547   0.18983   0.19519
 Alpha virt. eigenvalues --    0.20737   0.21115   0.21499   0.22139   0.22276
 Alpha virt. eigenvalues --    0.22701   0.23643   0.23930   0.25008   0.25647
 Alpha virt. eigenvalues --    0.25947   0.26449   0.27314   0.28872   0.30360
 Alpha virt. eigenvalues --    0.31124   0.31986   0.32423   0.33130   0.33700
 Alpha virt. eigenvalues --    0.35398   0.37308   0.42369   0.43599   0.44175
 Alpha virt. eigenvalues --    0.46337   0.50681   0.50933   0.52280   0.53560
 Alpha virt. eigenvalues --    0.57211   0.59092   0.60655   0.62083   0.63086
 Alpha virt. eigenvalues --    0.63940   0.64872   0.65754   0.66670   0.67797
 Alpha virt. eigenvalues --    0.68962   0.69197   0.70714   0.71261   0.72735
 Alpha virt. eigenvalues --    0.74212   0.74577   0.76018   0.76949   0.79751
 Alpha virt. eigenvalues --    0.82511   0.83832   0.86960   0.88754   0.92758
 Alpha virt. eigenvalues --    0.93297   0.95657   0.98825   1.01053   1.01328
 Alpha virt. eigenvalues --    1.02186   1.03264   1.14477   1.15089   1.21010
 Alpha virt. eigenvalues --    1.22631   1.26966   1.28330   1.30038   1.31269
 Alpha virt. eigenvalues --    1.32599   1.38174   1.39019   1.43274   1.48568
 Alpha virt. eigenvalues --    1.51887   1.54386   1.55415   1.57516   1.58615
 Alpha virt. eigenvalues --    1.59374   1.61563   1.61832   1.64416   1.64787
 Alpha virt. eigenvalues --    1.66102   1.67967   1.68830   1.70048   1.70351
 Alpha virt. eigenvalues --    1.74123   1.74635   1.75775   1.77674   1.79218
 Alpha virt. eigenvalues --    1.81751   1.86150   1.86732   1.88731   1.90509
 Alpha virt. eigenvalues --    1.93513   1.96819   2.01892   2.02454   2.08946
 Alpha virt. eigenvalues --    2.11637   2.13051   2.14346   2.18910   2.19777
 Alpha virt. eigenvalues --    2.23149   2.26145   2.29490   2.31940   2.34233
 Alpha virt. eigenvalues --    2.37260   2.40302   2.42132   2.44750   2.46075
 Alpha virt. eigenvalues --    2.48053   2.50601   2.51671   2.55139   2.56418
 Alpha virt. eigenvalues --    2.57565   2.58305   2.61597   2.62211   2.63957
 Alpha virt. eigenvalues --    2.65691   2.67060   2.69922   2.71032   2.72859
 Alpha virt. eigenvalues --    2.73918   2.75264   2.76797   2.78513   2.79158
 Alpha virt. eigenvalues --    2.81387   2.83874   2.84003   2.87409   2.90023
 Alpha virt. eigenvalues --    2.95105   2.98009   2.99810   3.04017   3.10734
 Alpha virt. eigenvalues --    3.14967   3.18166   3.30399   3.42980   3.54638
 Alpha virt. eigenvalues --    3.61060   3.75367   3.78814   3.82684   3.85044
 Alpha virt. eigenvalues --    3.88109   3.99921   4.06931   4.09675   4.14618
 Alpha virt. eigenvalues --    4.25593   4.36943   4.48469   4.72503   4.84511
 Alpha virt. eigenvalues --    4.87897  23.85711  23.87403  23.90127  23.92501
 Alpha virt. eigenvalues --   23.93223  35.59142  35.61770
     Molecular Orbital Coefficients:
                           1         2         3         4         5
                           O         O         O         O         O
     Eigenvalues --   -14.29194 -14.18576 -10.18473 -10.15421 -10.14952
   1 1   C  1S         -0.00000   0.00001  -0.00000  -0.00009  -0.00027
   2        2S          0.00000  -0.00002  -0.00000  -0.00005  -0.00021
   3        2PX         0.00001  -0.00029   0.00001   0.00003   0.00006
   4        2PY         0.00001   0.00027   0.00001   0.00002   0.00003
   5        2PZ        -0.00000   0.00003  -0.00000  -0.00000  -0.00000
   6        3S         -0.00003   0.00007  -0.00001  -0.00028   0.00004
   7        3PX        -0.00006   0.00051  -0.00003  -0.00018  -0.00030
   8        3PY        -0.00003  -0.00075  -0.00005  -0.00011  -0.00016
   9        3PZ         0.00000  -0.00006   0.00000   0.00002   0.00001
  10        4S         -0.00007   0.00573   0.00000   0.00191  -0.00175
  11        4PX         0.00059  -0.00108   0.00008   0.00151  -0.00030
  12        4PY        -0.00025   0.00184   0.00007  -0.00014  -0.00067
  13        4PZ         0.00002   0.00014  -0.00003  -0.00009   0.00001
  14        5S         -0.00751   0.00112   0.00873   0.00773  -0.00103
  15        5PX        -0.00048   0.00170  -0.00017   0.00286   0.00128
  16        5PY        -0.00125  -0.00112   0.00207   0.00012  -0.00147
  17        5PZ         0.00001  -0.00019   0.00001  -0.00027  -0.00018
  18        6D 0        0.00001   0.00039   0.00001   0.00002   0.00005
  19        6D+1        0.00001   0.00008   0.00000   0.00001   0.00001
  20        6D-1       -0.00000  -0.00005   0.00000   0.00000   0.00001
  21        6D+2        0.00000  -0.00017  -0.00002   0.00001  -0.00010
  22        6D-2        0.00001   0.00050  -0.00001  -0.00001  -0.00018
  23 2   C  1S          0.00000   0.00000  -0.00002   0.00001   0.00419
  24        2S         -0.00000  -0.00000   0.00000   0.00001   0.00346
  25        2PX         0.00000  -0.00004   0.00002   0.00006   0.00038
  26        2PY        -0.00001  -0.00003  -0.00002  -0.00005  -0.00035
  27        2PZ        -0.00000   0.00000  -0.00000  -0.00001  -0.00004
  28        3S          0.00006   0.00019  -0.00024   0.00013   0.00001
  29        3PX         0.00000   0.00030  -0.00012  -0.00029  -0.00079
  30        3PY         0.00002   0.00015   0.00011   0.00023   0.00103
  31        3PZ        -0.00000  -0.00002   0.00001   0.00002   0.00009
  32        4S         -0.00044  -0.00329   0.00202  -0.00229   0.00658
  33        4PX        -0.00032   0.00002   0.00125  -0.00009   0.00225
  34        4PY         0.00003   0.00167  -0.00029   0.00094  -0.00193
  35        4PZ        -0.00012   0.00002  -0.00009  -0.00008  -0.00018
  36        5S         -0.00160   0.01182   0.01597  -0.01701  -0.00317
  37        5PX        -0.00729   0.01050   0.01304  -0.00085  -0.00212
  38        5PY        -0.00141  -0.00046  -0.00041   0.00418   0.00036
  39        5PZ         0.00034  -0.00071  -0.00079   0.00022   0.00021
  40        6D 0        0.00001   0.00004   0.00002   0.00007   0.00042
  41        6D+1       -0.00000   0.00001   0.00000   0.00002   0.00008
  42        6D-1       -0.00000   0.00001  -0.00000  -0.00002  -0.00006
  43        6D+2       -0.00001  -0.00010   0.00001  -0.00008  -0.00015
  44        6D-2        0.00001  -0.00016   0.00001   0.00019   0.00061
  45 3   C  1S         -0.00000  -0.00000  -0.00004   0.01312   0.56281
  46        2S          0.00001   0.00001  -0.00002   0.01080   0.46312
  47        2PX         0.00002  -0.00002   0.00006   0.00041   0.00009
  48        2PY         0.00001   0.00002   0.00005   0.00032   0.00016
  49        2PZ        -0.00000   0.00000  -0.00000  -0.00001   0.00000
  50        3S         -0.00027  -0.00025   0.00001   0.00033   0.01921
  51        3PX        -0.00011   0.00014  -0.00037  -0.00088  -0.00007
  52        3PY        -0.00010  -0.00012  -0.00023  -0.00097  -0.00176
  53        3PZ         0.00001  -0.00001   0.00002   0.00000  -0.00007
  54        4S          0.00272   0.00246  -0.00147   0.00638  -0.01844
  55        4PX         0.00143  -0.00144   0.00084   0.00245  -0.00018
  56        4PY         0.00034   0.00033  -0.00100   0.00181  -0.00317
  57        4PZ         0.00013   0.00015  -0.00013   0.00009  -0.00012
  58        5S         -0.00464  -0.00888  -0.02939   0.02622   0.00214
  59        5PX        -0.00100   0.00151  -0.00047   0.00227  -0.00051
  60        5PY        -0.00010  -0.00073  -0.00608   0.00532   0.00382
  61        5PZ         0.00022  -0.00011  -0.00027   0.00015   0.00020
  62        6D 0        0.00003   0.00004   0.00007   0.00043   0.00078
  63        6D+1        0.00001   0.00000   0.00000   0.00003   0.00012
  64        6D-1       -0.00001  -0.00000   0.00001   0.00001  -0.00003
  65        6D+2        0.00001  -0.00000  -0.00007  -0.00022  -0.00056
  66        6D-2        0.00000  -0.00000  -0.00017  -0.00060   0.00002
  67 4   H  1S          0.00000   0.00003   0.00001   0.00001  -0.00008
  68        2S          0.00005  -0.00009  -0.00025  -0.00006  -0.00091
  69        3S          0.00023  -0.00154  -0.00043  -0.00008   0.00076
  70        4PX         0.00001   0.00013  -0.00003  -0.00006   0.00007
  71        4PY         0.00000   0.00000   0.00002   0.00000   0.00014
  72        4PZ        -0.00001   0.00011   0.00006   0.00007   0.00026
  73 5   H  1S          0.00001   0.00003   0.00001   0.00002  -0.00008
  74        2S         -0.00002  -0.00010  -0.00025  -0.00013  -0.00090
  75        3S          0.00012  -0.00155  -0.00040  -0.00013   0.00084
  76        4PX         0.00001   0.00011  -0.00004  -0.00007   0.00003
  77        4PY         0.00001   0.00001   0.00002   0.00002   0.00016
  78        4PZ         0.00000  -0.00013  -0.00005  -0.00007  -0.00026
  79 6   N  1S         -0.00000   0.55744   0.00000   0.00000   0.00000
  80        2S          0.00000   0.46588   0.00000   0.00000   0.00001
  81        2PX         0.00000   0.00003   0.00001   0.00000   0.00003
  82        2PY        -0.00000  -0.00122  -0.00000  -0.00001  -0.00000
  83        2PZ        -0.00000  -0.00001  -0.00000  -0.00000  -0.00000
  84        3S         -0.00004   0.01501  -0.00001   0.00001  -0.00012
  85        3PX        -0.00000  -0.00034  -0.00003   0.00000  -0.00013
  86        3PY         0.00001  -0.00066   0.00001   0.00003   0.00003
  87        3PZ         0.00000   0.00003   0.00000  -0.00000   0.00001
  88        4S          0.00040  -0.01091  -0.00004   0.00009   0.00045
  89        4PX         0.00005  -0.00230   0.00019  -0.00004   0.00067
  90        4PY        -0.00016   0.00081  -0.00005  -0.00006  -0.00011
  91        4PZ        -0.00003   0.00021  -0.00001  -0.00000  -0.00006
  92        5S          0.00015   0.00928  -0.00059   0.00117   0.00232
  93        5PX        -0.00025   0.00255   0.00079  -0.00023  -0.00020
  94        5PY        -0.00028   0.00015   0.00090  -0.00070  -0.00037
  95        5PZ         0.00004  -0.00021  -0.00006   0.00002   0.00003
  96        6D 0       -0.00001  -0.00042  -0.00000   0.00001  -0.00000
  97        6D+1       -0.00000  -0.00009  -0.00000   0.00000  -0.00000
  98        6D-1        0.00000  -0.00004   0.00000   0.00000  -0.00000
  99        6D+2        0.00000   0.00024   0.00001  -0.00001   0.00002
 100        6D-2        0.00000   0.00042  -0.00001   0.00000   0.00001
 101 7   H  1S          0.00002  -0.00002   0.00001   0.00003  -0.00001
 102        2S         -0.00017  -0.00103  -0.00008  -0.00041   0.00003
 103        3S          0.00015  -0.00053   0.00022  -0.00024  -0.00057
 104        4PX        -0.00001   0.00017  -0.00001  -0.00003  -0.00007
 105        4PY         0.00001  -0.00034  -0.00001  -0.00001  -0.00001
 106        4PZ         0.00003   0.00022   0.00001   0.00008   0.00005
 107 8   H  1S          0.00002  -0.00002   0.00001   0.00003  -0.00001
 108        2S         -0.00015  -0.00102  -0.00008  -0.00040   0.00003
 109        3S          0.00022  -0.00054   0.00017  -0.00023  -0.00056
 110        4PX        -0.00002   0.00013  -0.00001  -0.00004  -0.00008
 111        4PY         0.00001  -0.00033  -0.00001  -0.00001  -0.00000
 112        4PZ        -0.00002  -0.00026  -0.00001  -0.00008  -0.00004
 113 9   H  1S          0.00000  -0.00003   0.00001  -0.00001  -0.00003
 114        2S         -0.00009  -0.00139  -0.00001   0.00006   0.00016
 115        3S         -0.00001   0.00074   0.00078  -0.00043  -0.00053
 116        4PX        -0.00001  -0.00122   0.00000   0.00004  -0.00004
 117        4PY        -0.00002  -0.00098   0.00002  -0.00002   0.00004
 118        4PZ         0.00000   0.00011  -0.00000  -0.00000   0.00000
 119 10  C  1S          0.00000   0.00000   0.00207   0.56281  -0.01314
 120        2S         -0.00000  -0.00000   0.00171   0.46313  -0.01081
 121        2PX         0.00005  -0.00000   0.00039   0.00001  -0.00040
 122        2PY        -0.00003  -0.00001  -0.00035  -0.00021  -0.00032
 123        2PZ        -0.00001  -0.00000  -0.00004  -0.00004   0.00001
 124        3S          0.00022   0.00004   0.00008   0.01924  -0.00057
 125        3PX        -0.00031  -0.00001  -0.00087   0.00013   0.00085
 126        3PY         0.00015   0.00003   0.00102   0.00180   0.00092
 127        3PZ         0.00003   0.00000   0.00011   0.00011  -0.00001
 128        4S         -0.00346  -0.00026   0.00482  -0.01801   0.00718
 129        4PX         0.00022   0.00031   0.00177   0.00020  -0.00245
 130        4PY         0.00167  -0.00005  -0.00105   0.00296  -0.00195
 131        4PZ        -0.00022  -0.00007  -0.00010  -0.00001   0.00001
 132        5S          0.00564  -0.00069   0.04514  -0.01895  -0.00196
 133        5PX        -0.00995   0.00738   0.01276   0.00454   0.00244
 134        5PY         0.00091  -0.00203  -0.01010   0.00047   0.00010
 135        5PZ         0.00056  -0.00052  -0.00132  -0.00033  -0.00016
 136        6D 0        0.00005   0.00001   0.00045   0.00079   0.00040
 137        6D+1        0.00001   0.00000   0.00009   0.00012   0.00002
 138        6D-1       -0.00001  -0.00000  -0.00006  -0.00002   0.00001
 139        6D+2       -0.00009  -0.00001  -0.00017  -0.00056  -0.00019
 140        6D-2        0.00014  -0.00001   0.00071   0.00002  -0.00058
 141 11  H  1S          0.00003   0.00004   0.00003  -0.00009   0.00010
 142        2S         -0.00038  -0.00044  -0.00027  -0.00081  -0.00260
 143        3S          0.00011   0.00010  -0.00009   0.00047   0.00425
 144        4PX        -0.00006   0.00006  -0.00011   0.00002  -0.00013
 145        4PY        -0.00002  -0.00003   0.00000  -0.00015  -0.00101
 146        4PZ        -0.00005  -0.00007  -0.00009  -0.00028  -0.00182
 147 12  H  1S          0.00004   0.00004   0.00003  -0.00008   0.00010
 148        2S         -0.00049  -0.00047  -0.00028  -0.00087  -0.00259
 149        3S         -0.00006   0.00007  -0.00001   0.00030   0.00421
 150        4PX        -0.00005   0.00007  -0.00009   0.00005   0.00008
 151        4PY        -0.00004  -0.00004  -0.00001  -0.00018  -0.00116
 152        4PZ         0.00007   0.00006   0.00010   0.00027   0.00173
 153 13  C  1S          0.00001  -0.00000   0.56303  -0.00209   0.00009
 154        2S         -0.00002   0.00000   0.46329  -0.00171   0.00009
 155        2PX         0.00027  -0.00001   0.00050  -0.00038  -0.00004
 156        2PY         0.00022   0.00001   0.00049   0.00035   0.00003
 157        2PZ         0.00000   0.00000  -0.00001   0.00003   0.00000
 158        3S         -0.00001  -0.00002   0.01874  -0.00018   0.00007
 159        3PX        -0.00041   0.00006  -0.00064   0.00079   0.00026
 160        3PY        -0.00061  -0.00003  -0.00211  -0.00102  -0.00018
 161        3PZ        -0.00003  -0.00000   0.00008  -0.00004  -0.00001
 162        4S          0.00583  -0.00021  -0.01461   0.00671  -0.00212
 163        4PX         0.00125  -0.00062   0.00113  -0.00187   0.00023
 164        4PY         0.00177  -0.00024  -0.00171   0.00191  -0.00079
 165        4PZ         0.00036   0.00004  -0.00024   0.00028   0.00005
 166        5S          0.00456  -0.00792  -0.04784  -0.00209  -0.00123
 167        5PX        -0.00178   0.00033   0.00517   0.00092  -0.00169
 168        5PY        -0.00017  -0.00136  -0.00628  -0.00008  -0.00161
 169        5PZ        -0.00005  -0.00007  -0.00035   0.00004   0.00002
 170        6D 0        0.00032   0.00001   0.00086   0.00043   0.00004
 171        6D+1        0.00002   0.00000   0.00018   0.00011   0.00002
 172        6D-1        0.00004   0.00000  -0.00004  -0.00007  -0.00001
 173        6D+2       -0.00018  -0.00000  -0.00062  -0.00017  -0.00006
 174        6D-2       -0.00039  -0.00002  -0.00015   0.00063   0.00015
 175 14  N  1S          0.55739   0.00000  -0.00002   0.00000   0.00000
 176        2S          0.46575   0.00000  -0.00005   0.00000   0.00001
 177        2PX        -0.00010  -0.00000  -0.00019  -0.00002  -0.00003
 178        2PY        -0.00072  -0.00000  -0.00014  -0.00004  -0.00000
 179        2PZ        -0.00098   0.00000  -0.00001  -0.00000   0.00001
 180        3S          0.01565  -0.00005   0.00040   0.00016  -0.00015
 181        3PX         0.00052   0.00001   0.00014   0.00006   0.00014
 182        3PY        -0.00005   0.00001   0.00013   0.00014   0.00003
 183        3PZ        -0.00071  -0.00001   0.00008   0.00001  -0.00003
 184        4S         -0.00924   0.00051   0.00030  -0.00170   0.00076
 185        4PX         0.00253  -0.00007  -0.00042   0.00065  -0.00079
 186        4PY         0.00089  -0.00018  -0.00020   0.00044  -0.00004
 187        4PZ        -0.00071  -0.00004   0.00013  -0.00008  -0.00014
 188        5S          0.00662   0.00026   0.01221   0.00068   0.00268
 189        5PX        -0.00247   0.00025  -0.00002  -0.00040   0.00023
 190        5PY         0.00044  -0.00031  -0.00275   0.00014  -0.00053
 191        5PZ         0.00045  -0.00007  -0.00073  -0.00025  -0.00000
 192        6D 0       -0.00005  -0.00001   0.00016   0.00005   0.00001
 193        6D+1       -0.00012  -0.00000  -0.00001   0.00002   0.00000
 194        6D-1       -0.00053  -0.00000   0.00004   0.00000  -0.00003
 195        6D+2        0.00005   0.00000  -0.00007  -0.00003   0.00001
 196        6D-2       -0.00049  -0.00000  -0.00032  -0.00009  -0.00001
 197 15  H  1S         -0.00002   0.00002   0.00010  -0.00006  -0.00001
 198        2S         -0.00096  -0.00014  -0.00285  -0.00094   0.00010
 199        3S         -0.00038   0.00018   0.00417   0.00084  -0.00062
 200        4PX        -0.00016   0.00002  -0.00018  -0.00011   0.00008
 201        4PY        -0.00030   0.00001  -0.00110  -0.00013   0.00000
 202        4PZ        -0.00025  -0.00002  -0.00179  -0.00025  -0.00005
 203 16  H  1S         -0.00002   0.00002   0.00007  -0.00007   0.00000
 204        2S         -0.00107  -0.00013  -0.00289  -0.00105   0.00003
 205        3S         -0.00054   0.00017   0.00426   0.00091  -0.00062
 206        4PX        -0.00004   0.00003   0.00011  -0.00007   0.00008
 207        4PY        -0.00024   0.00001  -0.00117  -0.00016  -0.00001
 208        4PZ         0.00021   0.00002   0.00182   0.00027   0.00004
 209 17  H  1S          0.00002   0.00000  -0.00010   0.00009  -0.00008
 210        2S         -0.00004   0.00002  -0.00074  -0.00266  -0.00080
 211        3S         -0.00119   0.00021  -0.00046   0.00453   0.00067
 212        4PX        -0.00012  -0.00001   0.00005   0.00013  -0.00002
 213        4PY        -0.00000   0.00001   0.00013   0.00103   0.00011
 214        4PZ         0.00012  -0.00000   0.00028   0.00185   0.00021
 215 18  H  1S          0.00004   0.00001  -0.00011   0.00011  -0.00008
 216        2S         -0.00019   0.00000  -0.00065  -0.00267  -0.00083
 217        3S         -0.00127   0.00015  -0.00059   0.00442   0.00066
 218        4PX        -0.00012  -0.00001   0.00003  -0.00007  -0.00005
 219        4PY         0.00002   0.00001   0.00014   0.00116   0.00013
 220        4PZ        -0.00011   0.00000  -0.00027  -0.00174  -0.00019
 221 19  H  1S         -0.00000  -0.00000  -0.00014   0.00001   0.00001
 222        2S         -0.00167  -0.00003   0.00055   0.00003  -0.00028
 223        3S          0.00037  -0.00009  -0.00118  -0.00058   0.00007
 224        4PX        -0.00012  -0.00000  -0.00014   0.00006   0.00002
 225        4PY         0.00091   0.00002  -0.00015   0.00000   0.00002
 226        4PZ        -0.00133  -0.00000   0.00007  -0.00001  -0.00004
 227 20  H  1S         -0.00000   0.00001  -0.00014  -0.00005  -0.00002
 228        2S         -0.00187  -0.00014   0.00049   0.00042   0.00015
 229        3S          0.00138  -0.00002  -0.00356  -0.00003  -0.00065
 230        4PX         0.00122   0.00002  -0.00001  -0.00014   0.00004
 231        4PY        -0.00107  -0.00002  -0.00004  -0.00002   0.00003
 232        4PZ        -0.00006   0.00000  -0.00001   0.00001   0.00002
                           6         7         8         9        10
                           O         O         O         O         O
     Eigenvalues --   -10.14522 -10.13487  -0.87921  -0.79155  -0.75963
   1 1   C  1S          0.56304  -0.00587  -0.00088  -0.05700  -0.04945
   2        2S          0.46331  -0.00481  -0.00136  -0.08802  -0.07650
   3        2PX        -0.00005   0.00040   0.00049  -0.00078  -0.02708
   4        2PY         0.00024   0.00031   0.00023   0.01719   0.01714
   5        2PZ         0.00001  -0.00002  -0.00003   0.00063   0.00262
   6        3S          0.01824  -0.00033   0.00351   0.23290   0.20461
   7        3PX         0.00046  -0.00083   0.00099  -0.00121  -0.04278
   8        3PY        -0.00177  -0.00086   0.00052   0.03269   0.03068
   9        3PZ        -0.00007   0.00004  -0.00006   0.00112   0.00421
  10        4S         -0.01459   0.00659   0.00273   0.09775   0.08312
  11        4PX        -0.00139   0.00199  -0.00062  -0.00078  -0.01468
  12        4PY        -0.00158   0.00169   0.00063  -0.00212  -0.00090
  13        4PZ         0.00006  -0.00008  -0.00009   0.00028   0.00109
  14        5S         -0.04726  -0.00134   0.01438   0.06262   0.15809
  15        5PX        -0.00535  -0.00091   0.00017   0.00489   0.02563
  16        5PY        -0.00607   0.00014   0.00227   0.00939   0.01752
  17        5PZ         0.00027   0.00004  -0.00001   0.00008  -0.00182
  18        6D 0        0.00062   0.00037  -0.00018  -0.00775  -0.00637
  19        6D+1        0.00012   0.00005  -0.00004  -0.00156  -0.00138
  20        6D-1       -0.00001   0.00004  -0.00000   0.00040   0.00084
  21        6D+2       -0.00052  -0.00024   0.00019   0.00578   0.00323
  22        6D-2       -0.00009  -0.00064   0.00005  -0.00282  -0.00845
  23 2   C  1S          0.00585   0.56292  -0.00265  -0.05773  -0.00035
  24        2S          0.00482   0.46323  -0.00407  -0.08905  -0.00056
  25        2PX        -0.00040   0.00024   0.00166   0.00032  -0.03142
  26        2PY        -0.00032  -0.00014  -0.00072  -0.01335   0.00085
  27        2PZ         0.00002  -0.00003  -0.00013  -0.00027   0.00231
  28        3S          0.00017   0.01917   0.01003   0.23040   0.00112
  29        3PX         0.00088  -0.00013   0.00273  -0.00015  -0.05103
  30        3PY         0.00098   0.00177  -0.00154  -0.02749   0.00119
  31        3PZ        -0.00004   0.00007  -0.00021  -0.00055   0.00375
  32        4S          0.00503  -0.01803   0.00826   0.13305   0.01576
  33        4PX        -0.00175  -0.00019   0.00396   0.00019  -0.01829
  34        4PY        -0.00111   0.00301  -0.00027  -0.01173  -0.00673
  35        4PZ         0.00011   0.00004   0.00005  -0.00066   0.00135
  36        5S          0.04036  -0.01966  -0.01276  -0.02882  -0.09755
  37        5PX        -0.01496  -0.00454   0.01206   0.01086   0.05004
  38        5PY        -0.00839   0.00081   0.00465   0.01079   0.02695
  39        5PZ         0.00078   0.00035  -0.00030  -0.00102  -0.00188
  40        6D 0        0.00046   0.00077  -0.00041  -0.00575  -0.00006
  41        6D+1        0.00006   0.00014  -0.00009  -0.00110   0.00009
  42        6D-1        0.00003  -0.00002   0.00004   0.00011  -0.00054
  43        6D+2       -0.00025  -0.00055   0.00054   0.00496   0.00067
  44        6D-2       -0.00065   0.00004  -0.00045  -0.00001   0.00700
  45 3   C  1S          0.00023  -0.00422  -0.00795  -0.05571   0.04621
  46        2S          0.00020  -0.00347  -0.01225  -0.08601   0.07140
  47        2PX        -0.00007  -0.00038   0.00480  -0.00431  -0.02132
  48        2PY         0.00005   0.00033   0.00187   0.01216  -0.00850
  49        2PZ         0.00001   0.00004  -0.00020   0.00092   0.00089
  50        3S          0.00004  -0.00026   0.03185   0.22413  -0.18617
  51        3PX         0.00038   0.00081   0.00830  -0.00702  -0.03399
  52        3PY        -0.00023  -0.00094   0.00442   0.02516  -0.01743
  53        3PZ        -0.00004  -0.00009  -0.00042   0.00170   0.00130
  54        4S         -0.00172   0.00699   0.00756   0.10852  -0.10996
  55        4PX        -0.00089  -0.00242   0.00067   0.00071  -0.01017
  56        4PY        -0.00110   0.00203  -0.00150   0.00276  -0.00662
  57        4PZ         0.00001   0.00032  -0.00080   0.00054  -0.00001
  58        5S         -0.02103   0.02656   0.06352  -0.01362   0.05557
  59        5PX         0.00101  -0.00215   0.00302  -0.00443   0.02573
  60        5PY        -0.00461   0.00550   0.00936  -0.01074   0.01612
  61        5PZ        -0.00024   0.00044  -0.00037   0.00016  -0.00171
  62        6D 0        0.00007   0.00039  -0.00126  -0.00517   0.00327
  63        6D+1        0.00002   0.00008  -0.00022  -0.00086   0.00024
  64        6D-1       -0.00001  -0.00006  -0.00004   0.00028   0.00011
  65        6D+2       -0.00007  -0.00014   0.00143   0.00395  -0.00198
  66        6D-2        0.00017   0.00060   0.00107  -0.00122  -0.00432
  67 4   H  1S         -0.00010   0.00011   0.00154   0.03523   0.00018
  68        2S         -0.00075  -0.00263   0.00103   0.04096   0.00032
  69        3S         -0.00032   0.00448  -0.00036  -0.00547   0.00330
  70        4PX        -0.00002   0.00017  -0.00001  -0.00065  -0.00165
  71        4PY         0.00015   0.00105  -0.00022  -0.00511   0.00010
  72        4PZ         0.00029   0.00180  -0.00025  -0.00680  -0.00014
  73 5   H  1S         -0.00010   0.00011   0.00152   0.03511   0.00023
  74        2S         -0.00075  -0.00265   0.00115   0.04072   0.00040
  75        3S         -0.00030   0.00445   0.00002  -0.00588   0.00375
  76        4PX        -0.00005  -0.00009   0.00003   0.00033  -0.00160
  77        4PY         0.00017   0.00114  -0.00025  -0.00544   0.00007
  78        4PZ        -0.00027  -0.00175   0.00025   0.00652   0.00039
  79 6   N  1S         -0.00003   0.00000  -0.00035  -0.04770  -0.06365
  80        2S         -0.00005   0.00000  -0.00055  -0.07476  -0.09989
  81        2PX         0.00021   0.00002   0.00020   0.01388   0.01085
  82        2PY        -0.00019  -0.00004  -0.00019  -0.02614  -0.03491
  83        2PZ        -0.00002  -0.00000  -0.00002  -0.00133  -0.00112
  84        3S          0.00046   0.00016   0.00153   0.20328   0.27315
  85        3PX        -0.00027  -0.00008   0.00031   0.02272   0.01832
  86        3PY         0.00032   0.00015  -0.00031  -0.04074  -0.05397
  87        3PZ         0.00003   0.00001  -0.00003  -0.00217  -0.00190
  88        4S          0.00003  -0.00169   0.00022   0.14419   0.19490
  89        4PX         0.00051  -0.00063   0.00024   0.01159   0.01000
  90        4PY        -0.00005   0.00048   0.00027  -0.01567  -0.02110
  91        4PZ        -0.00004   0.00005   0.00003  -0.00112  -0.00095
  92        5S          0.01184  -0.00036  -0.00005  -0.02095  -0.01820
  93        5PX        -0.00027   0.00029   0.00081  -0.00589  -0.00783
  94        5PY        -0.00340   0.00006   0.00069   0.00337   0.00534
  95        5PZ        -0.00000  -0.00001  -0.00013   0.00054   0.00067
  96        6D 0        0.00028   0.00006  -0.00004  -0.00577  -0.00706
  97        6D+1        0.00005   0.00001  -0.00001  -0.00110  -0.00128
  98        6D-1       -0.00004  -0.00001   0.00000   0.00032   0.00030
  99        6D+2       -0.00007  -0.00002   0.00004   0.00181   0.00125
 100        6D-2        0.00041   0.00009  -0.00006  -0.00321  -0.00272
 101 7   H  1S          0.00014  -0.00007   0.00048   0.03191   0.02671
 102        2S         -0.00253  -0.00083   0.00076   0.03874   0.03457
 103        3S          0.00405   0.00081  -0.00044  -0.00719  -0.00586
 104        4PX         0.00020   0.00016   0.00004  -0.00039  -0.00144
 105        4PY        -0.00111  -0.00009   0.00007   0.00565   0.00485
 106        4PZ         0.00159   0.00021  -0.00012  -0.00600  -0.00508
 107 8   H  1S          0.00014  -0.00007   0.00047   0.03175   0.02657
 108        2S         -0.00251  -0.00082   0.00074   0.03865   0.03443
 109        3S          0.00401   0.00081  -0.00071  -0.00706  -0.00599
 110        4PX        -0.00004   0.00012   0.00006   0.00052  -0.00062
 111        4PY        -0.00103  -0.00008   0.00005   0.00534   0.00457
 112        4PZ        -0.00165  -0.00024   0.00012   0.00627   0.00546
 113 9   H  1S         -0.00016  -0.00005   0.00020   0.03746   0.05500
 114        2S          0.00074   0.00043   0.00050   0.03547   0.05318
 115        3S         -0.00383   0.00012   0.00009   0.00332   0.00405
 116        4PX         0.00007   0.00015   0.00008   0.00759   0.01035
 117        4PY        -0.00005  -0.00003   0.00005   0.00285   0.00423
 118        4PZ        -0.00001  -0.00001  -0.00001  -0.00070  -0.00095
 119 10  C  1S          0.00008   0.00009  -0.02265  -0.03981   0.05884
 120        2S          0.00008   0.00008  -0.03484  -0.06144   0.09097
 121        2PX        -0.00002  -0.00005   0.01321  -0.01418   0.00716
 122        2PY        -0.00002  -0.00004  -0.00591  -0.00893   0.01231
 123        2PZ         0.00000   0.00000  -0.00142   0.00042   0.00014
 124        3S         -0.00024   0.00014   0.08863   0.15946  -0.23859
 125        3PX         0.00013   0.00027   0.02263  -0.02334   0.01225
 126        3PY         0.00010   0.00018  -0.01310  -0.01795   0.02448
 127        3PZ        -0.00000  -0.00001  -0.00231   0.00048   0.00050
 128        4S          0.00216  -0.00247   0.05634   0.08805  -0.12721
 129        4PX        -0.00131   0.00019   0.00817  -0.00897  -0.00106
 130        4PY        -0.00027   0.00099  -0.00801  -0.00387   0.00689
 131        4PZ         0.00001  -0.00000   0.00115  -0.00021   0.00053
 132        5S          0.01143  -0.01727  -0.09121   0.03046  -0.01844
 133        5PX        -0.01240   0.00109   0.02587  -0.00442   0.06004
 134        5PY         0.00106   0.00419   0.01539  -0.00260  -0.01659
 135        5PZ         0.00069   0.00005  -0.00014   0.00077  -0.00494
 136        6D 0        0.00002   0.00006  -0.00341  -0.00352   0.00396
 137        6D+1       -0.00000   0.00001  -0.00078  -0.00037   0.00039
 138        6D-1       -0.00001   0.00001   0.00030  -0.00011  -0.00003
 139        6D+2        0.00001  -0.00010   0.00355   0.00258  -0.00148
 140        6D-2       -0.00001  -0.00016  -0.00370   0.00294  -0.00131
 141 11  H  1S          0.00003  -0.00009   0.00453   0.03461  -0.02990
 142        2S         -0.00025  -0.00075   0.00576   0.04131  -0.03489
 143        3S         -0.00027   0.00032  -0.00203  -0.00751   0.00519
 144        4PX         0.00010  -0.00004   0.00035   0.00026  -0.00144
 145        4PY        -0.00001  -0.00012   0.00074   0.00501  -0.00401
 146        4PZ        -0.00011  -0.00022   0.00099   0.00665  -0.00535
 147 12  H  1S          0.00002  -0.00009   0.00449   0.03473  -0.02990
 148        2S         -0.00025  -0.00078   0.00608   0.04121  -0.03471
 149        3S         -0.00026   0.00018  -0.00159  -0.00782   0.00577
 150        4PX         0.00011  -0.00002   0.00021  -0.00052  -0.00083
 151        4PY        -0.00001  -0.00014   0.00088   0.00555  -0.00445
 152        4PZ         0.00009   0.00022  -0.00098  -0.00617   0.00513
 153 13  C  1S          0.00000   0.00001  -0.05620  -0.01088   0.02558
 154        2S          0.00001   0.00003  -0.08667  -0.01681   0.03960
 155        2PX        -0.00001  -0.00003   0.03045  -0.02131   0.03352
 156        2PY         0.00001   0.00002   0.02344   0.00078  -0.00251
 157        2PZ         0.00000   0.00000  -0.00221   0.00187  -0.00323
 158        3S         -0.00000  -0.00027   0.22689   0.04400  -0.10464
 159        3PX         0.00003   0.00016   0.05028  -0.03381   0.05205
 160        3PY        -0.00005  -0.00011   0.04404   0.00279  -0.00718
 161        3PZ         0.00000  -0.00001  -0.00410   0.00306  -0.00513
 162        4S         -0.00006   0.00198   0.08444   0.02651  -0.05987
 163        4PX        -0.00002  -0.00146   0.00964  -0.00821   0.01483
 164        4PY         0.00004   0.00002   0.00123   0.00044   0.00010
 165        4PZ         0.00007   0.00013  -0.00580   0.00069  -0.00020
 166        5S          0.00899   0.00805   0.06154  -0.00345  -0.10099
 167        5PX         0.00031  -0.00298  -0.00532   0.00235   0.01455
 168        5PY         0.00210   0.00031   0.00865  -0.00015  -0.01271
 169        5PZ         0.00010   0.00023   0.00036  -0.00131   0.00073
 170        6D 0        0.00001   0.00002  -0.01015  -0.00054   0.00112
 171        6D+1        0.00001   0.00000  -0.00194   0.00001  -0.00007
 172        6D-1       -0.00000  -0.00000  -0.00154   0.00048  -0.00073
 173        6D+2       -0.00002   0.00002   0.00701   0.00058  -0.00046
 174        6D-2        0.00001  -0.00000   0.01134  -0.00530   0.00807
 175 14  N  1S          0.00000   0.00000  -0.09944   0.01926  -0.02721
 176        2S          0.00000  -0.00000  -0.15617   0.03035  -0.04293
 177        2PX        -0.00001  -0.00000  -0.01030  -0.00710   0.01635
 178        2PY        -0.00000  -0.00000  -0.02449   0.00280  -0.00202
 179        2PZ         0.00000  -0.00000  -0.02874   0.00766  -0.01240
 180        3S         -0.00002   0.00002   0.42797  -0.08454   0.12007
 181        3PX         0.00004  -0.00000  -0.01977  -0.01008   0.02379
 182        3PY         0.00001   0.00002  -0.03997   0.00453  -0.00340
 183        3PZ        -0.00000   0.00000  -0.04348   0.01142  -0.01846
 184        4S         -0.00003   0.00006   0.29743  -0.06058   0.08752
 185        4PX        -0.00022   0.00010  -0.01414  -0.00458   0.01086
 186        4PY         0.00000  -0.00008  -0.01732   0.00282  -0.00176
 187        4PZ        -0.00005  -0.00003  -0.01516   0.00413  -0.00725
 188        5S         -0.00034   0.00144  -0.02881  -0.01011   0.02388
 189        5PX        -0.00081   0.00018   0.01797  -0.00192   0.00262
 190        5PY         0.00085  -0.00072   0.00036   0.00087  -0.00440
 191        5PZ         0.00009  -0.00011  -0.00284   0.00246  -0.00438
 192        6D 0       -0.00000   0.00001  -0.00394  -0.00007   0.00065
 193        6D+1        0.00000  -0.00000  -0.00014   0.00038  -0.00078
 194        6D-1       -0.00001   0.00000  -0.00402   0.00083  -0.00133
 195        6D+2        0.00001  -0.00001   0.00249   0.00050  -0.00107
 196        6D-2        0.00001  -0.00001   0.00193   0.00104  -0.00241
 197 15  H  1S          0.00001   0.00002   0.02800   0.00773  -0.01792
 198        2S         -0.00004  -0.00037   0.03436   0.00833  -0.01988
 199        3S          0.00016  -0.00025  -0.00983  -0.00186   0.00437
 200        4PX         0.00001   0.00003   0.00143  -0.00079   0.00114
 201        4PY        -0.00001  -0.00001   0.00539   0.00094  -0.00226
 202        4PZ        -0.00001  -0.00007   0.00654   0.00131  -0.00303
 203 16  H  1S          0.00001   0.00002   0.02807   0.00785  -0.01837
 204        2S         -0.00009  -0.00037   0.03735   0.00840  -0.02095
 205        3S          0.00011  -0.00031  -0.00597  -0.00151   0.00311
 206        4PX         0.00001   0.00005   0.00051  -0.00105   0.00170
 207        4PY        -0.00002  -0.00002   0.00581   0.00101  -0.00249
 208        4PZ         0.00001   0.00007  -0.00646  -0.00116   0.00280
 209 17  H  1S          0.00001   0.00002   0.01276   0.02461  -0.03773
 210        2S         -0.00024  -0.00007   0.01369   0.02840  -0.04558
 211        3S         -0.00037  -0.00011   0.00072  -0.00641   0.00866
 212        4PX         0.00005   0.00007   0.00055  -0.00107   0.00109
 213        4PY         0.00001   0.00000  -0.00188  -0.00351   0.00524
 214        4PZ         0.00005   0.00006  -0.00296  -0.00452   0.00691
 215 18  H  1S          0.00002   0.00002   0.01307   0.02469  -0.03780
 216        2S         -0.00029  -0.00009   0.01584   0.02805  -0.04544
 217        3S         -0.00035  -0.00013   0.00210  -0.00590   0.00745
 218        4PX         0.00004   0.00006   0.00116  -0.00050   0.00023
 219        4PY         0.00002   0.00001  -0.00233  -0.00383   0.00576
 220        4PZ        -0.00005  -0.00007   0.00279   0.00430  -0.00652
 221 19  H  1S          0.00001   0.00000   0.07762  -0.01768   0.02713
 222        2S         -0.00008   0.00001   0.07313  -0.01884   0.02918
 223        3S          0.00003  -0.00017  -0.00322   0.00310  -0.00472
 224        4PX         0.00001  -0.00001  -0.00093  -0.00040   0.00103
 225        4PY        -0.00000   0.00002  -0.01186   0.00257  -0.00375
 226        4PZ        -0.00001   0.00000   0.01295  -0.00289   0.00422
 227 20  H  1S          0.00000  -0.00000   0.07681  -0.01967   0.03096
 228        2S          0.00002   0.00000   0.07356  -0.01969   0.03260
 229        3S          0.00068  -0.00050  -0.00894   0.00404  -0.00799
 230        4PX        -0.00000  -0.00003  -0.01514   0.00313  -0.00458
 231        4PY         0.00002  -0.00002   0.00891  -0.00233   0.00381
 232        4PZ         0.00001   0.00000  -0.00064   0.00030  -0.00051
                          11        12        13        14        15
                           O         O         O         O         O
     Eigenvalues --    -0.69350  -0.61624  -0.57303  -0.53990  -0.48579
   1 1   C  1S         -0.00029  -0.03107  -0.01831  -0.06469   0.00765
   2        2S         -0.00037  -0.04832  -0.02855  -0.10102   0.01199
   3        2PX         0.05161   0.04871   0.01858   0.01895   0.00203
   4        2PY        -0.00626  -0.00482   0.00313  -0.06855   0.00916
   5        2PZ        -0.00416  -0.00389  -0.00138  -0.00335  -0.01102
   6        3S         -0.00039   0.13088   0.07746   0.27666  -0.03329
   7        3PX         0.07956   0.07329   0.02821   0.02407   0.00340
   8        3PY        -0.00803  -0.00330   0.00650  -0.09625   0.01308
   9        3PZ        -0.00636  -0.00582  -0.00206  -0.00452  -0.01642
  10        4S          0.00869   0.08530   0.07068   0.17785  -0.02702
  11        4PX         0.02586   0.02396   0.01355   0.01096   0.00177
  12        4PY         0.00017  -0.00087   0.00613  -0.05934   0.00701
  13        4PZ        -0.00229  -0.00203  -0.00034  -0.00238  -0.00702
  14        5S          0.11287   0.07286   0.06427   0.17486   0.05173
  15        5PX         0.02377   0.01978   0.00188   0.02638   0.00684
  16        5PY         0.00964   0.00199   0.01021   0.01942   0.00723
  17        5PZ        -0.00199  -0.00148   0.00024  -0.00173  -0.00123
  18        6D 0        0.00117   0.00087   0.00070   0.00846  -0.00127
  19        6D+1        0.00052   0.00060   0.00052   0.00148  -0.00186
  20        6D-1       -0.00096  -0.00077  -0.00034  -0.00018   0.00014
  21        6D+2        0.00003  -0.00245  -0.00306  -0.00496   0.00128
  22        6D-2        0.01191   0.01019   0.00510  -0.00177   0.00058
  23 2   C  1S         -0.06000  -0.04111  -0.01960   0.04769  -0.00517
  24        2S         -0.09298  -0.06395  -0.03058   0.07451  -0.00812
  25        2PX         0.01406  -0.03852  -0.02956  -0.03881  -0.00076
  26        2PY        -0.00868   0.00518   0.02783  -0.06996  -0.00112
  27        2PZ        -0.00133   0.00302   0.00309   0.00087  -0.02549
  28        3S          0.24632   0.17107   0.08349  -0.20302   0.02296
  29        3PX         0.02296  -0.05889  -0.04647  -0.05830  -0.00050
  30        3PY        -0.01834   0.00510   0.03938  -0.10028  -0.00187
  31        3PZ        -0.00232   0.00454   0.00475   0.00144  -0.03753
  32        4S          0.13287   0.11842   0.03418  -0.12833   0.01352
  33        4PX         0.00794  -0.01566  -0.01477  -0.03703  -0.00360
  34        4PY        -0.00408  -0.00019   0.02548  -0.05823  -0.00058
  35        4PZ        -0.00050   0.00178   0.00046   0.00087  -0.02019
  36        5S          0.09335  -0.07177   0.02244  -0.22839  -0.12661
  37        5PX         0.09230  -0.00272   0.05178   0.04405   0.01736
  38        5PY         0.00956   0.01085   0.00490   0.03497   0.02700
  39        5PZ        -0.00477  -0.00029  -0.00475  -0.00203  -0.00426
  40        6D 0       -0.00184   0.00178   0.00283  -0.00876   0.00094
  41        6D+1       -0.00024   0.00073   0.00057  -0.00105  -0.00213
  42        6D-1        0.00035  -0.00069  -0.00085  -0.00023  -0.00007
  43        6D+2       -0.00145  -0.00311   0.00078   0.00110  -0.00204
  44        6D-2       -0.00298   0.00879   0.00955   0.00804  -0.00205
  45 3   C  1S         -0.03408   0.04366   0.05323  -0.01112  -0.00452
  46        2S         -0.05285   0.06795   0.08305  -0.01735  -0.00706
  47        2PX        -0.04336  -0.03283   0.01219   0.02213  -0.01966
  48        2PY         0.00471   0.00435   0.05562  -0.04571  -0.02128
  49        2PZ         0.00277   0.00274   0.00094  -0.00333  -0.04615
  50        3S          0.13976  -0.18217  -0.22525   0.04692   0.01839
  51        3PX        -0.06729  -0.05096   0.01954   0.03496  -0.02942
  52        3PY         0.00985   0.00410   0.07861  -0.06636  -0.03110
  53        3PZ         0.00448   0.00407   0.00104  -0.00503  -0.06789
  54        4S          0.08896  -0.13625  -0.14043   0.02527   0.03084
  55        4PX        -0.02362  -0.02122   0.00564   0.01291  -0.01176
  56        4PY         0.00522  -0.00222   0.04909  -0.04131  -0.01403
  57        4PZ         0.00156   0.00016   0.00341  -0.00194  -0.04164
  58        5S         -0.07909   0.03439  -0.06394   0.17979   0.22728
  59        5PX         0.06499   0.02410  -0.00070  -0.00787  -0.01039
  60        5PY        -0.02267   0.01469  -0.00549   0.03328   0.04406
  61        5PZ        -0.00605  -0.00062   0.00091   0.00197   0.00428
  62        6D 0       -0.00065  -0.00197  -0.00734   0.00398   0.00288
  63        6D+1       -0.00041  -0.00074  -0.00089   0.00039  -0.00291
  64        6D-1        0.00066   0.00052   0.00003  -0.00101   0.00122
  65        6D+2       -0.00130   0.00362   0.00226   0.00282   0.00022
  66        6D-2       -0.00909  -0.00795   0.00492   0.00827  -0.00418
  67 4   H  1S          0.04184   0.03521   0.02857  -0.07240  -0.01179
  68        2S          0.05152   0.04205   0.03734  -0.09234  -0.01511
  69        3S         -0.00640   0.00510   0.00471  -0.01138  -0.00327
  70        4PX         0.00029  -0.00229  -0.00140  -0.00116  -0.00052
  71        4PY        -0.00542  -0.00338  -0.00155   0.00339   0.00115
  72        4PZ        -0.00713  -0.00502  -0.00393   0.00999   0.00009
  73 5   H  1S          0.04193   0.03519   0.02839  -0.07228   0.01948
  74        2S          0.05174   0.04233   0.03666  -0.09235   0.02549
  75        3S         -0.00586   0.00546   0.00283  -0.01151   0.00631
  76        4PX         0.00132  -0.00156  -0.00083  -0.00257   0.00041
  77        4PY        -0.00582  -0.00368  -0.00167   0.00393  -0.00213
  78        4PZ         0.00670   0.00510   0.00400  -0.00952   0.00100
  79 6   N  1S          0.04977   0.03882   0.01733   0.03726  -0.00419
  80        2S          0.07829   0.06122   0.02735   0.05896  -0.00665
  81        2PX         0.00702   0.02509   0.01955   0.03564  -0.00674
  82        2PY         0.02653   0.01769   0.00771  -0.00243   0.00158
  83        2PZ        -0.00047  -0.00215  -0.00170  -0.00364  -0.00179
  84        3S         -0.21607  -0.17030  -0.07598  -0.16565   0.01877
  85        3PX         0.00904   0.03620   0.02857   0.05158  -0.00976
  86        3PY         0.04049   0.02662   0.01154  -0.00306   0.00237
  87        3PZ        -0.00057  -0.00308  -0.00246  -0.00527  -0.00274
  88        4S         -0.16085  -0.13768  -0.06859  -0.13522   0.01706
  89        4PX         0.00259   0.01434   0.01018   0.02736  -0.00545
  90        4PY         0.01611   0.01196   0.00624  -0.00711   0.00131
  91        4PZ        -0.00004  -0.00123  -0.00101  -0.00286  -0.00194
  92        5S         -0.01143  -0.02819  -0.02143  -0.03556   0.00841
  93        5PX         0.00468  -0.00037   0.00312   0.00692   0.00258
  94        5PY         0.00427   0.00332   0.00558   0.00577   0.00010
  95        5PZ        -0.00054   0.00023  -0.00003  -0.00050   0.00055
  96        6D 0        0.00453   0.00263   0.00097   0.00143   0.00002
  97        6D+1        0.00073   0.00038   0.00012   0.00042  -0.00054
  98        6D-1        0.00003   0.00036   0.00029   0.00081   0.00030
  99        6D+2        0.00040   0.00075   0.00053  -0.00315   0.00054
 100        6D-2       -0.00087  -0.00431  -0.00318  -0.00829   0.00144
 101 7   H  1S          0.00397   0.02717   0.01360   0.08516  -0.01744
 102        2S          0.00385   0.03388   0.01534   0.10734  -0.02268
 103        3S         -0.00132   0.00090   0.00185   0.01884  -0.00823
 104        4PX         0.00211   0.00165   0.00027  -0.00004   0.00008
 105        4PY         0.00025   0.00319   0.00176   0.00541  -0.00127
 106        4PZ        -0.00060  -0.00424  -0.00189  -0.01121   0.00150
 107 8   H  1S          0.00406   0.02724   0.01365   0.08525  -0.00397
 108        2S          0.00381   0.03388   0.01565   0.10754  -0.00401
 109        3S         -0.00156   0.00087   0.00234   0.01871  -0.00211
 110        4PX         0.00217   0.00227   0.00056   0.00165   0.00049
 111        4PY         0.00022   0.00297   0.00169   0.00489   0.00019
 112        4PZ         0.00029   0.00408   0.00192   0.01136  -0.00118
 113 9   H  1S         -0.05297  -0.05388  -0.02976  -0.05502   0.00759
 114        2S         -0.05482  -0.05938  -0.03393  -0.06592   0.00916
 115        3S          0.00089  -0.00505  -0.00316  -0.00972   0.00241
 116        4PX        -0.00855  -0.00703  -0.00328  -0.00521   0.00046
 117        4PY        -0.00423  -0.00464  -0.00264  -0.00624   0.00094
 118        4PZ         0.00079   0.00065   0.00031   0.00046  -0.00025
 119 10  C  1S          0.04262   0.02594  -0.05562  -0.00932   0.01485
 120        2S          0.06608   0.04042  -0.08682  -0.01457   0.02329
 121        2PX        -0.03585   0.05153   0.01893   0.00291   0.02772
 122        2PY         0.00708  -0.01217   0.06629  -0.00959  -0.02057
 123        2PZ         0.00206  -0.00141  -0.00141  -0.00262  -0.07240
 124        3S         -0.17510  -0.10926   0.23575   0.03925  -0.06206
[...]
 0893815,-0.00511319,-0.01615203,-0.02276493,0.00106051,-0.00081699,-0.
 00084545,-0.00465707,-0.00349927,-0.00002765,0.00123128,0.00071596,0.0
 0049659,-0.00742154,0.02392133,0.02256250,0.00231608,-0.00097677,-0.00
 006490,0.05559799,-0.01599787,-0.10211417,-0.08199160,-0.00403251,-0.0
 1183075,-0.01742210,0.00114180,-0.00007908,-0.00062751,-0.00314605,-0.
 00230636,-0.00066737,0.00106548,0.00047440,0.00013527,0.01553455,-0.01
 828127,-0.01735743,0.00106001,0.00953692,0.01359952,0.00463081,0.12277
 878,-0.02008343,-0.08071566,-0.17520539,0.00064047,0.00008504,-0.00259
 367,0.00044005,-0.00014239,-0.00012749,-0.00011532,-0.00044702,0.00166
 414,-0.00024033,-0.00034493,0.00137208,0.01284793,-0.00916601,0.005076
 07,-0.00466815,-0.01167597,-0.02890854,0.01055731,0.10119881,0.1960978
 4,-0.02650395,-0.02716623,0.00186925,-0.00522830,0.00776151,0.00064888
 ,-0.00133075,-0.00232402,0.00014738,0.00047677,0.00025720,-0.00015686,
 0.00044854,0.00015545,0.00015361,-0.26426198,-0.14594743,0.02475669,0.
 00155849,-0.00021955,-0.00123460,0.00124055,0.00016753,0.00121604,0.29
 448492,0.02944711,0.00347921,-0.00251937,0.00062343,-0.00057614,-0.000
 07357,0.00068824,0.00066697,-0.00005502,0.00033887,0.00021244,0.000383
 00,0.00031090,0.00025121,-0.00043569,-0.19790189,-0.16549524,0.0175436
 7,-0.00010899,0.00091040,-0.00044250,0.00000035,0.00066852,0.00035041,
 0.16652908,0.15984271,0.00212035,0.00282314,-0.00450559,0.00023660,-0.
 00068563,0.00017204,0.00017638,0.00017001,0.00130884,0.00032535,0.0004
 9246,0.00029323,-0.00036565,-0.00050979,0.00025913,0.02469462,0.012802
 23,-0.00577087,0.00162177,-0.00214785,0.00147065,-0.00140415,0.0018548
 1,0.00144832,-0.02746559,-0.01476005,0.00539018,-0.00110914,0.00412815
 ,0.00005973,-0.03064965,-0.01439168,0.00121665,-0.14725010,-0.04875470
 ,0.00251816,0.00158486,-0.00111482,-0.00039134,0.00151037,-0.00100680,
 0.00004180,-0.00061472,-0.00102393,0.00005503,0.00004195,-0.00018210,0
 .00026177,0.00001142,-0.00013781,-0.00023135,-0.00056450,0.00028302,0.
 00006953,0.45545742,0.00115865,-0.00528397,-0.00015076,0.01609448,0.01
 519853,-0.00036458,-0.04821860,-0.11360318,0.00104129,0.00057566,0.000
 27546,-0.00001885,0.00057214,0.00021077,-0.00003738,0.00246705,0.00099
 621,-0.00020057,-0.00006562,0.00027606,-0.00041281,-0.00000454,0.00021
 947,0.00039607,0.00097381,-0.00016665,-0.00009552,0.00149866,0.5270186
 2,0.00010926,-0.00055251,-0.00112418,0.00252754,0.00162502,-0.00169715
 ,0.00208565,0.00065975,-0.07664320,0.00087286,0.00011882,0.00020299,-0
 .00092403,-0.00001323,0.00024375,0.00018046,0.00010294,0.00031569,0.00
 006500,-0.00048839,0.00041400,-0.00002371,0.00050770,0.00051297,0.0000
 9458,-0.00002304,0.00018156,0.00798204,0.00171130,0.57857249,0.0014145
 9,0.00072339,0.00082788,0.00026771,0.01529621,0.02343135,-0.04626069,-
 0.00848816,-0.01233965,-0.00409879,0.00296675,0.00034779,0.00115971,-0
 .00070851,-0.00053783,-0.00051914,-0.00013736,-0.00020846,-0.00008464,
 -0.00014156,-0.00001717,-0.00019260,-0.00023420,-0.00047819,-0.0000055
 0,-0.00012052,-0.00017674,-0.00408352,-0.01599731,-0.02437803,0.055564
 19,-0.00107563,-0.00017473,-0.00020035,0.00011424,-0.01202258,-0.01710
 099,-0.00877829,-0.12176729,-0.10981228,0.00323390,-0.00186815,-0.0004
 4433,-0.00072320,0.00042569,0.00028055,-0.00002619,0.00024897,0.000349
 32,0.00005412,0.00004496,0.00002152,0.00020943,0.00079537,0.00050566,0
 .00007870,0.00010099,0.00008962,-0.00253693,-0.01132929,-0.01571248,0.
 00968021,0.13399416,-0.00072864,-0.00038123,-0.00032236,0.00041458,-0.
 00148195,-0.00248953,-0.01304623,-0.11071564,-0.21781140,0.00050788,-0
 .00057260,0.00155506,0.00041575,-0.00012068,0.00099636,0.00013775,0.00
 034647,0.00023402,0.00014850,-0.00008145,0.00017849,0.00030924,0.00055
 701,0.00056356,0.00015592,0.00000446,-0.00009903,-0.00016813,0.0006904
 7,0.00045456,0.01386763,0.12506054,0.23550682,0.00132156,0.00093671,-0
 .00107406,-0.00279691,0.01722200,-0.02196765,-0.04558823,0.00525141,-0
 .00746967,0.00109867,-0.00068897,0.00047149,-0.00410118,0.00306752,0.0
 0065410,-0.00040540,-0.00024379,0.00027200,-0.00009532,-0.00034666,0.0
 0055748,-0.00008348,-0.00016955,0.00003709,0.00000596,-0.00012941,0.00
 014904,-0.00161862,-0.01819268,0.02312698,-0.00055897,0.00144049,-0.00
 172589,0.05502239,-0.00123399,-0.00010859,0.00041159,0.00234624,-0.013
 32035,0.01599286,0.00483770,-0.14125925,0.11635174,-0.00069242,0.00038
 018,-0.00024262,0.00320416,-0.00191331,-0.00029727,-0.00007755,0.00027
 946,-0.00037884,0.00017382,0.00086870,-0.00053314,0.00008724,0.0000313
 8,-0.00005565,0.00007977,0.00009865,-0.00006960,-0.00087291,-0.0126066
 7,0.01497142,-0.00039976,0.01174636,-0.01343181,-0.00555553,0.15593444
 ,0.00054217,0.00024421,-0.00022002,-0.00035434,-0.00141820,0.00162580,
 -0.00689276,0.11716357,-0.19832907,-0.00048216,0.00019243,0.00090460,0
 .00045008,-0.00000871,0.00155714,-0.00003591,-0.00032358,0.00018962,-0
 .00025616,-0.00052084,0.00051089,-0.00010141,0.00008875,0.00019104,-0.
 00017508,0.00002615,-0.00009964,0.00031426,0.00039125,-0.00106524,-0.0
 0085208,0.01629993,-0.02183523,0.00692532,-0.13197643,0.21358591,0.000
 11176,0.00084824,0.00005468,-0.00191518,-0.00222364,0.00010991,-0.0277
 0709,0.01154823,0.00203212,0.00006378,-0.00004042,0.00008859,0.0000613
 3,-0.00008058,-0.00005522,-0.00013133,-0.00016631,0.00000934,0.0000326
 4,-0.00005590,0.00006160,0.00002667,-0.00005473,-0.00007682,-0.0000592
 3,0.00002914,-0.00000327,-0.13768110,0.06155664,0.00550662,0.00111620,
 0.00109636,0.00045502,0.00130649,0.00104249,-0.00049205,0.45108362,-0.
 00060579,0.00191631,0.00008395,-0.00336438,-0.00474892,-0.00005415,-0.
 01418974,0.01452246,0.00154700,0.00022001,0.00014733,0.00034665,0.0000
 9750,0.00020455,-0.00034732,-0.00091263,-0.00037992,0.00006329,0.00003
 883,-0.00000419,0.00009217,0.00001986,-0.00000758,-0.00009605,-0.00038
 500,0.00004871,0.00003494,0.05019423,-0.12580064,-0.00507589,-0.000909
 39,0.00007555,-0.00019679,-0.00087286,0.00015242,0.00014322,-0.0115538
 5,0.53047405,0.00001570,0.00006261,0.00059014,-0.00012403,-0.00022622,
 -0.00057800,0.00080684,0.00008322,-0.00228075,0.00001278,0.00028337,0.
 00031491,0.00008857,-0.00027865,0.00025390,-0.00006411,-0.00001011,0.0
 0002397,-0.00008171,-0.00004965,-0.00001437,0.00006708,0.00005597,-0.0
 0002739,-0.00002668,0.00000177,-0.00001304,0.00687274,-0.00536098,-0.0
 7928400,-0.00126012,-0.00012671,0.00006688,0.00101443,-0.00004032,0.00
 015402,0.00957530,-0.02268947,0.58448416,0.00002324,0.00115119,0.00001
 392,-0.00093428,-0.00276374,0.00003375,-0.00372978,0.00616737,-0.00018
 538,-0.00001046,0.00014421,0.00016062,-0.00000678,0.00013534,-0.000157
 74,-0.00068170,-0.00019057,0.00006179,-0.00001814,-0.00002651,0.000056
 11,-0.00002475,-0.00001583,-0.00003975,-0.00024386,0.00002678,0.000018
 27,-0.03636711,-0.02169888,0.00145481,-0.00011905,0.00000229,-0.000053
 05,0.00007316,-0.00009980,0.00029132,-0.16122462,-0.06022368,-0.023866
 30,0.55956775,0.00012447,-0.00046828,-0.00003666,0.00098810,0.00113128
 ,-0.00005261,0.00287115,-0.00280506,-0.00023597,-0.00012008,0.00001281
 ,-0.00005732,-0.00008868,0.00002012,0.00005522,0.00018881,0.00009331,-
 0.00000931,-0.00000242,0.00001306,-0.00002770,0.00000308,0.00001577,0.
 00003005,0.00008800,-0.00001080,-0.00000607,0.01512559,0.01315002,0.00
 080527,0.00023927,0.00023172,0.00031873,0.00005908,0.00023812,-0.00028
 142,-0.04099292,-0.12887463,0.00151001,-0.10120191,0.47217611,-0.00000
 126,0.00004450,0.00001024,-0.00003813,-0.00012096,0.00045356,0.0000492
 8,0.00031730,0.00016013,-0.00008648,0.00004214,-0.00000417,0.00007854,
 -0.00003708,-0.00002851,-0.00002680,-0.00000598,0.00002771,0.00000127,
 -0.00000462,0.00000763,-0.00000180,0.00000244,0.00000763,-0.00001228,0
 .00000260,-0.00002396,-0.00017102,0.00092440,0.00063136,0.00035600,0.0
 0028571,0.00017800,-0.00017631,-0.00037398,0.00025623,0.01021712,0.024
 31397,-0.07181376,-0.02678266,-0.20157307,0.38411443,0.00002115,-0.000
 02020,-0.00006105,-0.00009572,0.00006166,0.00001512,0.00152152,0.00084
 913,0.00066758,-0.00005007,-0.00013830,-0.00015604,0.00001792,0.000002
 16,-0.00000899,-0.00000148,-0.00000710,-0.00000318,-0.00000290,-0.0000
 0264,0.00000092,-0.00002573,-0.00002557,-0.00001052,-0.00000577,0.0000
 0374,0.00000523,-0.00020322,0.01546825,0.02292837,-0.00027106,-0.00030
 317,-0.00041346,-0.00004792,-0.00009688,0.00002708,-0.04749133,-0.0049
 1160,-0.00972091,-0.01385635,-0.02585249,-0.02336500,0.06031507,0.0000
 2476,-0.00002315,0.00005117,0.00018554,0.00019750,0.00036555,-0.001097
 68,0.00013535,-0.00007045,-0.00017551,0.00010223,0.00006760,0.00000500
 ,-0.00003422,-0.00000629,0.00001756,0.00000440,0.00000493,0.00000289,0
 .00000407,-0.00000470,0.00002013,0.00001789,0.00000750,0.00001076,-0.0
 0000219,-0.00001089,0.00110651,-0.01205303,-0.01827486,0.00038062,0.00
 060675,0.00036463,0.00008851,0.00003731,0.00003277,-0.00364101,-0.1227
 6494,-0.10403541,-0.01286673,-0.01477162,-0.01432186,0.01156096,0.1373
 9694,0.00003082,-0.00011480,-0.00002162,0.00023876,0.00039645,0.000284
 54,-0.00033793,-0.00018730,0.00011245,-0.00016355,0.00006290,-0.000018
 89,-0.00000874,-0.00000369,-0.00001087,0.00005025,0.00002403,0.0000046
 2,0.00000326,0.00000447,-0.00000493,0.00000872,0.00001128,0.00001644,0
 .00002268,-0.00000432,-0.00000855,-0.00044566,-0.00154224,-0.00300076,
 0.00044174,0.00032797,0.00028762,-0.00000811,-0.00001767,0.00000244,-0
 .00822675,-0.10479070,-0.21078068,-0.00336929,-0.00032808,0.00686536,0
 .01290787,0.12075923,0.22389489,0.00001288,-0.00003255,0.00005241,-0.0
 0008445,0.00005973,0.00010202,0.00155363,0.00067665,-0.00082094,0.0000
 1464,0.00000420,0.00000331,0.00001799,-0.00016196,0.00013091,0.0000169
 8,-0.00000695,0.00000350,-0.00002213,-0.00002663,0.00001384,0.00000026
 ,-0.00000059,0.00000158,-0.00000117,0.00000317,-0.00000478,-0.00313704
 ,0.01657997,-0.02251553,-0.00006126,-0.00003617,0.00001891,-0.00023225
 ,-0.00041098,0.00049185,-0.04798723,0.01246969,-0.01683977,-0.00289877
 ,-0.02432111,0.02484264,0.00093919,0.00130951,-0.00065644,0.05931131,0
 .00000283,-0.00000255,-0.00005120,0.00003316,0.00014874,-0.00033299,-0
 .00112284,0.00033011,-0.00002373,0.00000904,-0.00004147,0.00000010,-0.
 00016148,0.00007798,-0.00002717,0.00001709,-0.00000071,-0.00000663,0.0
 0001759,0.00001176,-0.00000332,0.00000392,0.00000244,0.00000176,0.0000
 0962,-0.00000164,0.00000850,0.00304776,-0.01290318,0.01624359,0.000064
 69,0.00004634,-0.00005457,0.00035112,0.00058962,-0.00024262,0.00813009
 ,-0.13375968,0.11397984,-0.00272465,-0.01525378,0.01590627,-0.00084837
 ,0.01145179,-0.01416516,-0.00575341,0.15087307,-0.00001991,0.00011878,
 -0.00002512,-0.00015239,-0.00036034,0.00024639,0.00001643,0.00005305,0
 .00026036,-0.00000394,0.00000738,-0.00001307,0.00012556,-0.00001946,-0
 .00006364,-0.00005832,-0.00002120,0.00001093,-0.00000077,-0.00000510,0
 .00001255,-0.00000428,-0.00000419,-0.00000262,-0.00002386,0.00000379,-
 0.00000296,-0.00012317,-0.00189477,0.00201912,0.00003969,0.00002885,0.
 00001999,-0.00038259,-0.00023274,0.00014021,-0.01285556,0.11905767,-0.
 21438613,0.00217226,0.00081166,0.00198146,-0.00255871,0.01461477,-0.02
 245725,0.01289472,-0.13120325,0.22781560,-0.00006902,-0.00023917,-0.00
 005015,0.00169866,-0.00068859,-0.00103945,-0.00415841,-0.01576298,-0.0
 2388965,-0.00016593,0.00040383,0.00050837,-0.00005862,0.00005762,0.000
 01903,-0.00003750,0.00014106,0.00011290,0.00002454,-0.00000413,0.00001
 355,-0.00004798,0.00022681,0.00023436,0.00001824,-0.00001524,-0.000013
 06,-0.04674768,-0.00999437,-0.01545711,-0.00451206,-0.00312661,0.00027
 143,0.00118945,0.00067250,0.00047486,-0.00069989,0.01629166,0.02365597
 ,0.00195507,-0.00025989,0.00003959,-0.00426127,0.00312326,0.00058640,0
 .00113050,-0.00077774,-0.00040867,0.05499994,0.00003608,0.00008646,0.0
 0021891,0.00120155,0.00026579,0.00011590,-0.00255432,-0.01081830,-0.01
 488401,-0.00030092,0.00054987,0.00028905,-0.00003696,0.00005764,0.0000
 3933,-0.00012543,0.00003085,0.00004867,-0.00001004,-0.00004730,0.00001
 244,0.00012704,0.00013117,0.00009134,-0.00002083,-0.00001312,-0.000007
 27,-0.00881626,-0.12294182,-0.11209774,-0.00290122,-0.00146568,-0.0000
 3560,0.00069506,0.00031856,0.00007416,-0.00048036,-0.01372290,-0.01784
 342,-0.00109189,0.00153022,0.00084223,0.00340096,-0.00196381,-0.000526
 21,-0.00082006,0.00048991,0.00014526,0.01041018,0.13606507,-0.00004074
 ,0.00035981,0.00031264,0.00027856,-0.00000147,0.00022933,-0.00000667,0
 .00076413,0.00086072,-0.00040896,0.00028963,0.00019790,-0.00000024,-0.
 00003016,0.00001216,-0.00016256,-0.00007309,0.00000229,-0.00002743,0.0
 0000251,-0.00002993,0.00015466,0.00007008,-0.00005295,-0.00005002,0.00
 001213,0.00000531,-0.01442898,-0.11320767,-0.22085794,0.00036215,-0.00
 000681,0.00157266,-0.00044371,-0.00023804,0.00091442,-0.00057233,-0.00
 164814,-0.00258772,0.00016540,0.00074964,0.00033672,0.00043635,-0.0005
 1396,0.00154885,0.00043894,-0.00007068,0.00110106,0.01589203,0.1268615
 2,0.23790477,-0.00005345,-0.00025866,0.00009697,0.00180483,-0.00070185
 ,0.00072267,-0.00137327,-0.01811474,0.02322768,-0.00005910,0.00007541,
 0.00000274,-0.00018791,0.00038219,-0.00044657,-0.00005439,0.00015515,-
 0.00010320,-0.00009969,0.00023180,-0.00021426,0.00002611,-0.00000338,-
 0.00001767,0.00002353,-0.00001848,0.00000882,-0.04616715,0.00440211,-0
 .00523834,0.00120883,0.00073296,-0.00047915,-0.00465542,-0.00321592,0.
 00018623,-0.00373820,0.01825800,-0.02271865,0.00220427,0.00020430,-0.0
 0043486,0.00108896,-0.00095586,0.00035955,-0.00434829,0.00320607,0.000
 51218,-0.00051954,0.00133742,-0.00159115,0.05496235,-0.00000559,0.0001
 1649,-0.00022825,0.00121965,0.00030221,-0.00027265,-0.00111955,-0.0124
 6223,0.01463623,-0.00006238,0.00005635,-0.00002191,-0.00037805,0.00057
 600,-0.00020907,-0.00015396,0.00003622,-0.00003009,0.00012062,0.000141
 98,-0.00010200,-0.00001632,-0.00004258,-0.00001137,-0.00002384,-0.0000
 1349,0.00001306,0.00483567,-0.13992626,0.11631650,0.00063071,0.0003546
 9,-0.00020876,-0.00309874,-0.00148701,0.00010362,0.00146740,-0.0144101
 6,0.01692148,-0.00105214,0.00119598,-0.00065716,-0.00065850,0.00053003
 ,-0.00017641,0.00324986,-0.00166850,-0.00040871,-0.00041890,0.01142760
 ,-0.01345949,-0.00517919,0.15484790,0.00007260,-0.00035199,0.00023433,
 -0.00038944,0.00011720,0.00017658,0.00012321,0.00054127,-0.00112644,0.
 00001300,0.00002228,-0.00001140,0.00041751,-0.00028029,0.00014077,0.00
 018335,0.00005833,-0.00000799,-0.00013133,-0.00008162,-0.00001457,0.00
 001776,-0.00000376,-0.00002752,0.00005446,-0.00001117,-0.00000552,-0.0
 0507073,0.11734057,-0.20020181,0.00045793,0.00008838,0.00096696,0.0002
 8095,0.00021182,0.00159336,0.00063050,-0.00166505,0.00136349,-0.000508
 28,-0.00055388,0.00061612,-0.00062247,0.00026112,0.00107674,0.00062795
 ,-0.00021141,0.00160208,-0.00065982,0.01630721,-0.02156989,0.00546825,
 -0.13173033,0.21509873,0.00000296,-0.00005208,-0.00000989,0.00002285,0
 .00014734,-0.00008726,-0.00025827,-0.00007181,-0.00038323,0.00000440,-
 0.00000799,-0.00000600,-0.00003534,0.00001458,0.00000365,0.00003690,0.
 00001051,-0.00000358,0.00000516,0.00000134,-0.00000260,0.00000313,0.00
 000182,0.00000330,0.00001344,-0.00000120,0.00000153,0.00170845,-0.0008
 9142,0.00146058,0.00001613,0.00001887,0.00003258,0.00015436,0.00026640
 ,-0.00015910,-0.00084752,-0.02075189,0.02920787,-0.06051779,0.00400952
 ,-0.00032993,0.00094537,0.00035851,-0.00046868,-0.00516490,-0.00362448
 ,0.00031231,-0.00008289,0.00005458,-0.00010372,-0.00047291,0.00077445,
 -0.00081164,0.06417014,0.00000542,-0.00000849,0.00000543,0.00001469,0.
 00004964,-0.00006566,0.00023456,-0.00003217,-0.00015499,0.00000826,-0.
 00000341,-0.00000491,-0.00001003,-0.00000196,0.00001669,0.00000425,-0.
 00000188,-0.00000215,-0.00000294,-0.00000452,0.00000116,-0.00000042,-0
 .00000385,-0.00000372,0.00000101,-0.00000217,0.00000260,0.00047132,0.0
 0137269,-0.00077496,-0.00004227,-0.00009639,-0.00003353,0.00011490,-0.
 00000804,-0.00001245,-0.00264608,-0.01518322,0.01890737,0.00349336,-0.
 14151651,0.16197962,0.00161589,0.00046702,0.00014275,-0.00340868,-0.00
 096109,-0.00091978,0.00005220,-0.00005325,-0.00011516,-0.00039774,0.00
 033097,0.00020840,0.00070572,0.17046677,0.00000071,0.00000763,0.000006
 10,0.00002183,-0.00000373,0.00001131,0.00011256,-0.00013326,0.00025194
 ,-0.00000095,0.00000011,-0.00000586,0.00000641,0.00000541,0.00000295,-
 0.00000213,-0.00000370,-0.00000272,0.00000022,0.00000008,0.00000010,-0
 .00000069,-0.00000378,-0.00000328,-0.00000256,-0.00000078,-0.00000023,
 0.00017706,-0.00032953,0.00028274,-0.00000674,-0.00003077,-0.00002592,
 -0.00016637,-0.00005809,-0.00001766,-0.00347458,-0.00472130,-0.0024497
 7,-0.00061793,0.21147009,-0.29460113,-0.00006278,-0.00038194,0.0017758
 6,0.00096673,0.00026852,0.00175714,0.00007282,0.00001979,-0.00010969,0
 .00054193,-0.00017227,-0.00008590,0.00043458,-0.19999664,0.29388137,0.
 00000721,0.00034664,0.00000659,-0.00042882,-0.00079312,-0.00001216,-0.
 00070297,0.00205649,0.00020750,0.00002468,0.00001984,0.00003864,0.0000
 0997,0.00002739,-0.00004009,-0.00017550,-0.00006666,0.00001208,-0.0000
 0345,-0.00000859,0.00001597,-0.00000720,-0.00001070,-0.00001659,-0.000
 06544,0.00001190,0.00000573,-0.00412093,-0.00628398,0.00014199,0.00001
 993,-0.00005537,-0.00012067,0.00001164,-0.00005458,0.00009788,-0.02431
 976,0.02109104,0.00338499,-0.28319004,0.16893813,0.01584209,0.00146364
 ,0.00054228,-0.00096492,0.00094009,0.00011999,0.00051902,0.00034438,-0
 .00010457,0.00010841,0.00041045,-0.00013120,-0.00015376,0.00029632,-0.
 00021342,0.00199989,0.30948581,-0.00000485,0.00011424,0.00000460,-0.00
 024993,-0.00030514,0.00003079,-0.00094589,0.00081768,0.00015450,0.0000
 1237,-0.00000154,0.00001251,0.00001280,0.00000033,-0.00001620,-0.00006
 347,-0.00001765,0.00000362,-0.00000303,-0.00000482,0.00000786,-0.00000
 537,-0.00000645,-0.00000788,-0.00002554,0.00000164,0.00000129,-0.00185
 296,-0.00210314,-0.00004920,0.00009841,0.00005254,-0.00002770,0.000071
 40,0.00002803,0.00002419,-0.02378278,0.01211540,-0.00114472,0.19283581
 ,-0.18610783,0.01243354,-0.00009792,0.00066167,0.00012751,0.00062631,0
 .00057083,0.00022833,-0.00009150,0.00007307,0.00025521,-0.00013958,0.0
 0009381,-0.00026708,0.01903721,-0.01481013,-0.00593584,-0.18543151,0.1
 8882747,-0.00000884,-0.00011299,0.00000119,0.00011788,0.00025217,0.000
 05667,0.00027289,-0.00045816,0.00067269,-0.00000162,-0.00001605,-0.000
 01238,-0.00000238,-0.00000850,0.00001033,0.00007595,0.00001648,-0.0000
 1793,0.00000425,0.00001042,-0.00001016,0.00000325,-0.00000390,-0.00000
 124,0.00002803,-0.00000246,0.00000014,0.00146161,0.00112033,0.00004306
 ,0.00012285,0.00009667,0.00000248,-0.00007453,0.00000678,-0.00005882,-
 0.00298423,-0.00439800,-0.00303584,0.05115213,-0.01258858,-0.02917506,
 -0.00000542,0.00109111,0.00043372,0.00024816,-0.00001585,-0.00001612,-
 0.00036339,0.00032841,0.00020930,0.00011682,-0.00030243,0.00018187,-0.
 02909080,0.02081993,-0.00066736,-0.02107260,-0.00583534,0.03138345\\-0
 .00000827,-0.00000621,-0.00001904,0.00000528,0.00000136,-0.00000379,-0
 .00000167,-0.00000272,-0.00000356,-0.00000058,-0.00000178,-0.00000200,
 0.00000494,0.00000613,-0.00000312,0.00002191,0.00000805,-0.00002287,-0
 .00001041,0.00001233,-0.00002512,0.00000204,0.00001668,0.00000307,-0.0
 0001662,-0.00000035,-0.00000896,0.00000192,-0.00000638,0.00000989,0.00
 000163,0.00000511,0.00000013,-0.00000455,0.00000019,-0.00000627,-0.000
 00068,-0.00000737,0.00000987,-0.00000962,-0.00000938,0.00003006,0.0000
 0031,0.00000008,0.00000398,-0.00000138,-0.00000653,0.00000459,-0.00000
 047,-0.00000504,0.00000905,0.00000352,0.00000371,0.00000575,0.00000412
 ,0.00000336,0.00000518,0.00000859,-0.00001124,0.00001314\\\@
 The archive entry for this job was punched.


 HO!  SUCH BUGS AND GOBLINS IN MY LIFE!

                            -- HAMLET, ACT 5, SCENE 2
 Job cpu time:       0 days  0 hours 38 minutes 35.3 seconds.
 Elapsed time:       0 days  0 hours 20 minutes 53.1 seconds.
 File lengths (MBytes):  RWF=    173 Int=      0 D2E=      0 Chk=     20 Scr=      1
 Normal termination of Gaussian 16 at Fri Jun  2 12:59:43 2023.
