 Entering Gaussian System, Link 0=g16
 Input=benzim-H_dissociation-site_index-6-freq.gjf
 Output=benzim-H_dissociation-site_index-6-freq.log
 Initial command:
 /software/commercial/gaussian/g16/AVX/g16/l1.exe "/scratch1/svicchi/G09-659784.pbs02/Gau-2236928.inp" -scrdir="/scratch1/svicchi/G09-659784.pbs02/"
 Entering Link 1 = /software/commercial/gaussian/g16/AVX/g16/l1.exe PID=   2236929.
  
 Copyright (c) 1988-2019, Gaussian, Inc.  All Rights Reserved.
  
 This is part of the Gaussian(R) 16 program.  It is based on
 the Gaussian(R) 09 system (copyright 2009, Gaussian, Inc.),
 the Gaussian(R) 03 system (copyright 2003, Gaussian, Inc.),
 the Gaussian(R) 98 system (copyright 1998, Gaussian, Inc.),
 the Gaussian(R) 94 system (copyright 1995, Gaussian, Inc.),
 the Gaussian 92(TM) system (copyright 1992, Gaussian, Inc.),
 the Gaussian 90(TM) system (copyright 1990, Gaussian, Inc.),
 the Gaussian 88(TM) system (copyright 1988, Gaussian, Inc.),
 the Gaussian 86(TM) system (copyright 1986, Carnegie Mellon
 University), and the Gaussian 82(TM) system (copyright 1983,
 Carnegie Mellon University). Gaussian is a federally registered
 trademark of Gaussian, Inc.
  
 This software contains proprietary and confidential information,
 including trade secrets, belonging to Gaussian, Inc.
  
 This software is provided under written license and may be
 used, copied, transmitted, or stored only in accord with that
 written license.
  
 The following legend is applicable only to US Government
 contracts under FAR:
  
                    RESTRICTED RIGHTS LEGEND
  
 Use, reproduction and disclosure by the US Government is
 subject to restrictions as set forth in subparagraphs (a)
 and (c) of the Commercial Computer Software - Restricted
 Rights clause in FAR 52.227-19.
  
 Gaussian, Inc.
 340 Quinnipiac St., Bldg. 40, Wallingford CT 06492
  
  
 ---------------------------------------------------------------
 Warning -- This program may not be used in any manner that
 competes with the business of Gaussian, Inc. or will provide
 assistance to any competitor of Gaussian, Inc.  The licensee
 of this program is prohibited from giving any competitor of
 Gaussian, Inc. access to this program.  By using this program,
 the user acknowledges that Gaussian, Inc. is engaged in the
 business of creating and licensing software in the field of
 computational chemistry and represents and warrants to the
 licensee that it is not a competitor of Gaussian, Inc. and that
 it will not use this program in any manner prohibited above.
 ---------------------------------------------------------------
  

 Cite this work as:
 Gaussian 16, Revision C.01,
 M. J. Frisch, G. W. Trucks, H. B. Schlegel, G. E. Scuseria, 
 M. A. Robb, J. R. Cheeseman, G. Scalmani, V. Barone, 
 G. A. Petersson, H. Nakatsuji, X. Li, M. Caricato, A. V. Marenich, 
 J. Bloino, B. G. Janesko, R. Gomperts, B. Mennucci, H. P. Hratchian, 
 J. V. Ortiz, A. F. Izmaylov, J. L. Sonnenberg, D. Williams-Young, 
 F. Ding, F. Lipparini, F. Egidi, J. Goings, B. Peng, A. Petrone, 
 T. Henderson, D. Ranasinghe, V. G. Zakrzewski, J. Gao, N. Rega, 
 G. Zheng, W. Liang, M. Hada, M. Ehara, K. Toyota, R. Fukuda, 
 J. Hasegawa, M. Ishida, T. Nakajima, Y. Honda, O. Kitao, H. Nakai, 
 T. Vreven, K. Throssell, J. A. Montgomery, Jr., J. E. Peralta, 
 F. Ogliaro, M. J. Bearpark, J. J. Heyd, E. N. Brothers, K. N. Kudin, 
 V. N. Staroverov, T. A. Keith, R. Kobayashi, J. Normand, 
 K. Raghavachari, A. P. Rendell, J. C. Burant, S. S. Iyengar, 
 J. Tomasi, M. Cossi, J. M. Millam, M. Klene, C. Adamo, R. Cammi, 
 J. W. Ochterski, R. L. Martin, K. Morokuma, O. Farkas, 
 J. B. Foresman, and D. J. Fox, Gaussian, Inc., Wallingford CT, 2019.
 
 ******************************************
 Gaussian 16:  ES64L-G16RevC.01  3-Jul-2019
                 2-Jun-2023 
 ******************************************
 %NProcShared=2
 Will use up to    2 processors via shared memory.
 %mem=55gb
 %chk=/scratch1/svicchi/G09-659784.pbs02/02-freq/benzim-H_dissociation-site_index
 -6-freq.chk
 ----------------------------------------------------------------------
 #p freq=raman scale=0.967 pop=(nbo,full,hirshfeld) guess=read geom=all
 check b3lyp/6-311+G(d,p) int=grid=ultrafine EmpiricalDispersion=GD3BJ 
 SCRF=(Solvent=ethanol) scf=(xqc,intrep,maxconventionalcycle=350) nosym
 m
 ----------------------------------------------------------------------
 1/10=4,29=7,30=1,38=1,114=967000/1,3;
 2/12=2,15=1,40=1/2;
 3/5=4,6=6,7=111,11=2,14=-4,25=1,30=1,70=2201,71=2,72=4,74=-5,75=-5,116=-2,124=41,140=1/1,2,3;
 4/5=1/1;
 5/5=2,8=3,13=1,17=20,38=6,53=4,85=350,98=1/2,8;
 8/6=4,10=90,11=11/1;
 10/13=10,15=4,31=1/2;
 11/6=3,8=1,9=11,15=111,16=1,31=1/1,2,10;
 10/6=1,31=1/2;
 6/7=3,28=1,40=1,79=1/1,7;
 7/8=1,10=1,25=1,30=1/1,2,3,16;
 1/10=4,30=1/3;
 99//99;
 Leave Link    1 at Fri Jun  2 11:28:19 2023, MaxMem=  7381975040 cpu:               2.3 elap:               2.3
 (Enter /software/commercial/gaussian/g16/AVX/g16/l101.exe)
 Structure from the checkpoint file:  "/scratch1/svicchi/G09-659784.pbs02/02-freq/benzim-H_dissociation-site_index-6-freq.chk"
 --------------------------------------
 benzim-H_dissociation-site_index-6.gjf
 --------------------------------------
 Charge =  0 Multiplicity = 1
 No Z-Matrix found in chk file; cartesian coordinates used.
  C                                                -6.540948657636     -0.009563315389      0.000000000003
  C                                                -6.319954540044     -1.401320187393      0.000000000008
  C                                                -5.484574164598      0.895026415667     -0.000000000009
  C                                                -4.197916799213      0.356892204066     -0.000000000006
  C                                                -3.957884977401     -1.037987771363     -0.000000000012
  C                                                -5.035042584513     -1.930728492045     -0.000000000008
  N                                                -2.938555165498      0.928403161599      0.000000000004
  C                                                -2.029302464074     -0.095089920888      0.000000000005
  N                                                -2.587417181770     -1.283109443316     -0.000000000008
  H                                                -5.655953468261      1.964441008129     -0.000000000025
  H                                                -7.557925969387      0.364337105950      0.000000000008
  H                                                -7.172896594314     -2.069623972935      0.000000000031
  H                                                -4.864751898965     -3.000782203708     -0.000000000021
  H                                                -0.966761019655      0.097303643886      0.000000000017
  H                                                -2.719956514669      1.913191767739      0.000000000014
 Recover connectivity data from disk.
 ITRead=  0  0  0  0  0  0  0  0  0  0  0  0  0  0  0
 MicOpt= -1 -1 -1 -1 -1 -1 -1 -1 -1 -1 -1 -1 -1 -1 -1
 NAtoms=     15 NQM=       15 NQMF=       0 NMMI=      0 NMMIF=      0
                NMic=       0 NMicF=      0.
                    Isotopes and Nuclear Properties:
 (Nuclear quadrupole moments (NQMom) in fm**2, nuclear magnetic moments (NMagM)
  in nuclear magnetons)

  Atom         1           2           3           4           5           6           7           8           9          10
 IAtWgt=          12          12          12          12          12          12          14          12          14           1
 AtmWgt=  12.0000000  12.0000000  12.0000000  12.0000000  12.0000000  12.0000000  14.0030740  12.0000000  14.0030740   1.0078250
 NucSpn=           0           0           0           0           0           0           2           0           2           1
 AtZEff=   3.6000000   3.6000000   3.6000000   3.6000000   3.6000000   3.6000000   4.5500000   3.6000000   4.5500000   1.0000000
 NQMom=    0.0000000   0.0000000   0.0000000   0.0000000   0.0000000   0.0000000   2.0440000   0.0000000   2.0440000   0.0000000
 NMagM=    0.0000000   0.0000000   0.0000000   0.0000000   0.0000000   0.0000000   0.4037610   0.0000000   0.4037610   2.7928460
 AtZNuc=   6.0000000   6.0000000   6.0000000   6.0000000   6.0000000   6.0000000   7.0000000   6.0000000   7.0000000   1.0000000

  Atom        11          12          13          14          15
 IAtWgt=           1           1           1           1           1
 AtmWgt=   1.0078250   1.0078250   1.0078250   1.0078250   1.0078250
 NucSpn=           1           1           1           1           1
 AtZEff=   1.0000000   1.0000000   1.0000000   1.0000000   1.0000000
 NQMom=    0.0000000   0.0000000   0.0000000   0.0000000   0.0000000
 NMagM=    2.7928460   2.7928460   2.7928460   2.7928460   2.7928460
 AtZNuc=   1.0000000   1.0000000   1.0000000   1.0000000   1.0000000
 Leave Link  101 at Fri Jun  2 11:28:21 2023, MaxMem=  7381975040 cpu:               0.3 elap:               0.7
 (Enter /software/commercial/gaussian/g16/AVX/g16/l103.exe)

 GradGradGradGradGradGradGradGradGradGradGradGradGradGradGradGradGradGrad
 Berny optimization.
 Initialization pass.
 Trust Radius=3.00D-01 FncErr=1.00D-07 GrdErr=1.00D-07 EigMax=2.50D+02 EigMin=1.00D-04
 Number of steps in this run=      2 maximum allowed number of steps=      2.
 GradGradGradGradGradGradGradGradGradGradGradGradGradGradGradGradGradGrad

 Leave Link  103 at Fri Jun  2 11:28:23 2023, MaxMem=  7381975040 cpu:               0.1 elap:               0.7
 (Enter /software/commercial/gaussian/g16/AVX/g16/l202.exe)
                          Input orientation:                          
 ---------------------------------------------------------------------
 Center     Atomic      Atomic             Coordinates (Angstroms)
 Number     Number       Type             X           Y           Z
 ---------------------------------------------------------------------
      1          6           0       -6.540949   -0.009563    0.000000
      2          6           0       -6.319955   -1.401320    0.000000
      3          6           0       -5.484574    0.895026   -0.000000
      4          6           0       -4.197917    0.356892   -0.000000
      5          6           0       -3.957885   -1.037988   -0.000000
      6          6           0       -5.035043   -1.930728   -0.000000
      7          7           0       -2.938555    0.928403    0.000000
      8          6           0       -2.029302   -0.095090    0.000000
      9          7           0       -2.587417   -1.283109   -0.000000
     10          1           0       -5.655953    1.964441   -0.000000
     11          1           0       -7.557926    0.364337    0.000000
     12          1           0       -7.172897   -2.069624    0.000000
     13          1           0       -4.864752   -3.000782   -0.000000
     14          1           0       -0.966761    0.097304    0.000000
     15          1           0       -2.719957    1.913192    0.000000
 ---------------------------------------------------------------------
                    Distance matrix (angstroms):
                    1          2          3          4          5
     1  C    0.000000
     2  C    1.409193   0.000000
     3  C    1.390759   2.443577   0.000000
     4  C    2.371516   2.755786   1.394660   0.000000
     5  C    2.780265   2.389850   2.463194   1.415382   0.000000
     6  C    2.441030   1.389702   2.861288   2.435978   1.399019
     7  N    3.722502   4.106272   2.546238   1.382974   2.214887
     8  C    4.512457   4.485079   3.594333   2.215215   2.146739
     9  N    4.153593   3.734409   3.624610   2.298546   1.392216
    10  H    2.163310   3.430633   1.083060   2.170273   3.449350
    11  H    1.083533   2.156413   2.140191   3.360017   3.863523
    12  H    2.154810   1.083577   3.411684   3.839074   3.376473
    13  H    3.428852   2.162381   3.944807   3.423251   2.162168
    14  H    5.575212   5.559007   4.587701   3.241567   3.199329
    15  H    4.277496   4.893463   2.946145   2.146261   3.200301
                    6          7          8          9         10
     6  C    0.000000
     7  N    3.545405   0.000000
     8  C    3.521937   1.369043   0.000000
     9  N    2.531853   2.239215   1.312586   0.000000
    10  H    3.944347   2.908200   4.170643   4.467941   0.000000
    11  H    3.410611   4.653682   5.547680   5.236415   2.485524
    12  H    2.142361   5.188238   5.509569   4.652443   4.309849
    13  H    1.083519   4.375926   4.059904   2.852482   5.027866
    14  H    4.545748   2.139789   1.079819   2.128865   5.047250
    15  H    4.487243   1.008759   2.123723   3.199048   2.936444
                   11         12         13         14         15
    11  H    0.000000
    12  H    2.464227   0.000000
    13  H    4.310129   2.488893   0.000000
    14  H    6.596572   6.573560   4.979204   0.000000
    15  H    5.079852   5.974236   5.361650   2.524113   0.000000
 Symmetry turned off by external request.
 Stoichiometry    C7H6N2
 Framework group  CS[SG(C7H6N2)]
 Deg. of freedom    27
 Full point group                 CS      NOp   2
 Rotational constants (GHZ):           3.9430017           1.6750232           1.1756123
 Leave Link  202 at Fri Jun  2 11:28:25 2023, MaxMem=  7381975040 cpu:               0.0 elap:               0.7
 (Enter /software/commercial/gaussian/g16/AVX/g16/l301.exe)
 Standard basis: 6-311+G(d,p) (5D, 7F)
 Ernie: Thresh=  0.10000D-02 Tol=  0.10000D-05 Strict=F.
   234 basis functions,   372 primitive gaussians,   243 cartesian basis functions
    31 alpha electrons       31 beta electrons
       nuclear repulsion energy       404.0650345587 Hartrees.
 IExCor=  402 DFT=T Ex+Corr=B3LYP ExCW=0 ScaHFX=  0.200000
 ScaDFX=  0.800000  0.720000  1.000000  0.810000 ScalE2=  1.000000  1.000000
 IRadAn=      5 IRanWt=     -1 IRanGd=            0 ICorTp=0 IEmpDi=141
 NAtoms=   15 NActive=   15 NUniq=   15 SFac= 1.00D+00 NAtFMM=   60 NAOKFM=F Big=F
 Integral buffers will be    131072 words long.
 Raffenetti 2 integral format.
 Two-electron integral symmetry is turned off.
 R6Disp:  Grimme-D3(BJ) Dispersion energy=       -0.0276634963 Hartrees.
 Nuclear repulsion after empirical dispersion term =      404.0373710624 Hartrees.
 Force inversion solution in PCM.
 ------------------------------------------------------------------------------
 Polarizable Continuum Model (PCM)
 =================================
 Model                : PCM.
 Atomic radii         : UFF (Universal Force Field).
 Polarization charges : Total charges.
 Charge compensation  : None.
 Solution method      : Matrix inversion.
 Cavity type          : Scaled VdW (van der Waals Surface) (Alpha=1.100).
 Cavity algorithm     : GePol (No added spheres)
                        Default sphere list used, NSphG=   15.
                        Lebedev-Laikov grids with approx.  5.0 points / Ang**2.
                        Smoothing algorithm: York/Karplus (Gamma=1.0000).
                        Polarization charges: spherical gaussians, with
                                              point-specific exponents (IZeta= 3).
                        Self-potential: point-specific (ISelfS= 7).
                        Self-field    : sphere-specific E.n sum rule (ISelfD= 2).
 1st derivatives      : Analytical E(r).r(x)/FMM algorithm (CHGder, D1EAlg=3).
                        Cavity 1st derivative terms included.
 2nd derivatives      : Analytical E(r).r(xy)/FMM algorithm (CHGder, D2EAlg=3).
                        Cavity 2nd derivative terms included.
 Solvent              : Ethanol, Eps=  24.852000 Eps(inf)=   1.852593
 ------------------------------------------------------------------------------
 Spheres list:
 ISph  on   Nord     Re0    Alpha      Xe            Ye            Ze
    1   C      1    1.9255  1.100     -6.540949     -0.009563      0.000000
    2   C      2    1.9255  1.100     -6.319955     -1.401320      0.000000
    3   C      3    1.9255  1.100     -5.484574      0.895026     -0.000000
    4   C      4    1.9255  1.100     -4.197917      0.356892     -0.000000
    5   C      5    1.9255  1.100     -3.957885     -1.037988     -0.000000
    6   C      6    1.9255  1.100     -5.035043     -1.930728     -0.000000
    7   N      7    1.8300  1.100     -2.938555      0.928403      0.000000
    8   C      8    1.9255  1.100     -2.029302     -0.095090      0.000000
    9   N      9    1.8300  1.100     -2.587417     -1.283109     -0.000000
   10   H     10    1.4430  1.100     -5.655953      1.964441     -0.000000
   11   H     11    1.4430  1.100     -7.557926      0.364337      0.000000
   12   H     12    1.4430  1.100     -7.172897     -2.069624      0.000000
   13   H     13    1.4430  1.100     -4.864752     -3.000782     -0.000000
   14   H     14    1.4430  1.100     -0.966761      0.097304      0.000000
   15   H     15    1.4430  1.100     -2.719957      1.913192      0.000000
 ------------------------------------------------------------------------------
 GePol: Number of generator spheres                  =      15
 GePol: Total number of spheres                      =      15
 GePol: Number of exposed spheres                    =      15 (100.00%)
 GePol: Number of points                             =    1330
 GePol: Average weight of points                     =       0.13
 GePol: Minimum weight of points                     =   0.69D-10
 GePol: Maximum weight of points                     =    0.20577
 GePol: Number of points with low weight             =      92
 GePol: Fraction of low-weight points (<1% of avg)   =       6.92%
 GePol: Cavity surface area                          =    173.216 Ang**2
 GePol: Cavity volume                                =    170.497 Ang**3
 Leave Link  301 at Fri Jun  2 11:28:28 2023, MaxMem=  7381975040 cpu:               1.4 elap:               2.5
 (Enter /software/commercial/gaussian/g16/AVX/g16/l302.exe)
 NPDir=0 NMtPBC=     1 NCelOv=     1 NCel=       1 NClECP=     1 NCelD=      1
         NCelK=      1 NCelE2=     1 NClLst=     1 CellRange=     0.0.
 One-electron integrals computed using PRISM.
 NBasis=   234 RedAO= T EigKep=  1.52D-06  NBF=   234
 NBsUse=   234 1.00D-06 EigRej= -1.00D+00 NBFU=   234
 Precomputing XC quadrature grid using
 IXCGrd= 4 IRadAn=           5 IRanWt=          -1 IRanGd=           0 AccXCQ= 0.00D+00.
 Generated NRdTot=       0 NPtTot=           0 NUsed=           0 NTot=          32
 NSgBfM=   243   243   243   243   243 MxSgAt=    15 MxSgA2=    15.
 Leave Link  302 at Fri Jun  2 11:28:30 2023, MaxMem=  7381975040 cpu:               0.7 elap:               1.2
 (Enter /software/commercial/gaussian/g16/AVX/g16/l303.exe)
 DipDrv:  MaxL=1.
 Leave Link  303 at Fri Jun  2 11:28:32 2023, MaxMem=  7381975040 cpu:               0.3 elap:               1.4
 (Enter /software/commercial/gaussian/g16/AVX/g16/l401.exe)
 Initial guess from the checkpoint file:  "/scratch1/svicchi/G09-659784.pbs02/02-freq/benzim-H_dissociation-site_index-6-freq.chk"
 B after Tr=     0.000000    0.000000    0.000000
         Rot=    1.000000    0.000000    0.000000    0.000000 Ang=   0.00 deg.
 Guess basis will be translated and rotated to current coordinates.
 JPrj=2 DoOrth=T DoCkMO=T.
 Leave Link  401 at Fri Jun  2 11:28:35 2023, MaxMem=  7381975040 cpu:               1.0 elap:               1.4
 (Enter /software/commercial/gaussian/g16/AVX/g16/l502.exe)
 Keep R1 ints in memory in canonical form, NReq=385265625.
 FoFCou: FMM=F IPFlag=           0 FMFlag=           0 FMFlg1=           0
         NFxFlg=           0 DoJE=F BraDBF=F KetDBF=F FulRan=T
         wScrn=  0.000000 ICntrl=       600 IOpCl=  0 I1Cent=           0 NGrid=           0
         NMat0=    1 NMatS0=  27495 NMatT0=    0 NMatD0=    1 NMtDS0=    0 NMtDT0=    0
 Symmetry not used in FoFCou.
 Two-electron integral symmetry not used.
 Closed shell SCF:
 Using DIIS extrapolation, IDIIS=  1040.
 NGot=  7381975040 LenX=  7003852063 LenY=  7003792573
 Requested convergence on RMS density matrix=1.00D-08 within 350 cycles.
 Requested convergence on MAX density matrix=1.00D-06.
 Requested convergence on             energy=1.00D-06.
 No special actions if energy rises.

 Cycle   1  Pass 1  IDiag  1:
 Inv3:  Mode=1 IEnd=     5306700.
 Iteration    1 A*A^-1 deviation from unit magnitude is 4.88D-15 for   1322.
 Iteration    1 A*A^-1 deviation from orthogonality  is 2.50D-15 for   1325   1163.
 Iteration    1 A^-1*A deviation from unit magnitude is 4.66D-15 for   1313.
 Iteration    1 A^-1*A deviation from orthogonality  is 1.40D-15 for   1010    600.
 E= -380.006097434751    
 DIIS: error= 1.59D-08 at cycle   1 NSaved=   1.
 NSaved= 1 IEnMin= 1 EnMin= -380.006097434751     IErMin= 1 ErrMin= 1.59D-08
 ErrMax= 1.59D-08  0.00D+00 EMaxC= 1.00D-01 BMatC= 3.16D-14 BMatP= 3.16D-14
 IDIUse=1 WtCom= 1.00D+00 WtEn= 0.00D+00
 Coeff-Com:  0.100D+01
 Coeff:      0.100D+01
 Gap=     0.206 Goal=   None    Shift=    0.000
 RMSDP=6.06D-09 MaxDP=4.01D-07              OVMax= 1.39D-07

 Error on total polarization charges =  0.01491
 SCF Done:  E(RB3LYP) =  -380.006097435     A.U. after    1 cycles
            NFock=  1  Conv=0.61D-08     -V/T= 2.0044
 KE= 3.783353752230D+02 PE=-1.691675327160D+03 EE= 5.292964834396D+02
 Leave Link  502 at Fri Jun  2 11:28:57 2023, MaxMem=  7381975040 cpu:              36.4 elap:              21.3
 (Enter /software/commercial/gaussian/g16/AVX/g16/l508.exe)
 QCSCF skips out because SCF is already converged.
 Leave Link  508 at Fri Jun  2 11:28:59 2023, MaxMem=  7381975040 cpu:               0.0 elap:               0.8
 (Enter /software/commercial/gaussian/g16/AVX/g16/l801.exe)
 DoSCS=F DFT=T ScalE2(SS,OS)=  1.000000  1.000000
 Range of M.O.s used for correlation:     1   234
 NBasis=   234 NAE=    31 NBE=    31 NFC=     0 NFV=     0
 NROrb=    234 NOA=    31 NOB=    31 NVA=   203 NVB=   203

 **** Warning!!: The largest alpha MO coefficient is  0.28496051D+03

 Leave Link  801 at Fri Jun  2 11:29:01 2023, MaxMem=  7381975040 cpu:               0.1 elap:               0.5
 (Enter /software/commercial/gaussian/g16/AVX/g16/l1002.exe)
 Minotr:  Closed shell wavefunction.
 NEqPCM:  Using equilibrium solvation (IEInf=0, Eps=  24.8520, EpsInf=   1.8526)
          Direct CPHF calculation.
          Differentiating once with respect to electric field.
                with respect to dipole field.
          Electric field/nuclear overlap derivatives assumed to be zero.
          Requested convergence is 1.0D-08 RMS, and 1.0D-07 maximum.
          Secondary convergence is 1.0D-12 RMS, and 1.0D-12 maximum.
          NewPWx=F KeepS1=T KeepF1=T KeepIn=T MapXYZ=F SortEE=F KeepMc=T.
         4604 words used for storage of precomputed grid.
 Keep R1 ints in memory in canonical form, NReq=385272050.
 FoFCou: FMM=F IPFlag=           0 FMFlag=           0 FMFlg1=           0
         NFxFlg=           0 DoJE=F BraDBF=F KetDBF=F FulRan=T
         wScrn=  0.000000 ICntrl=       600 IOpCl=  0 I1Cent=           0 NGrid=           0
         NMat0=    1 NMatS0=  27495 NMatT0=    0 NMatD0=    1 NMtDS0=    0 NMtDT0=    0
 Symmetry not used in FoFCou.
 Two-electron integral symmetry not used.
          MDV=    7381975040 using IRadAn=       1.
          Solving linear equations simultaneously, MaxMat=       0.
          There are     3 degrees of freedom in the 1st order CPHF.  IDoFFX=0 NUNeed=     3.
      3 vectors produced by pass  0 Test12= 2.10D-13 3.33D-08 XBig12= 1.72D+02 8.16D+00.
 AX will form     3 AO Fock derivatives at one time.
      3 vectors produced by pass  1 Test12= 2.10D-13 3.33D-08 XBig12= 5.95D+01 1.70D+00.
      3 vectors produced by pass  2 Test12= 2.10D-13 3.33D-08 XBig12= 6.31D+00 6.68D-01.
      3 vectors produced by pass  3 Test12= 2.10D-13 3.33D-08 XBig12= 3.74D+00 6.35D-01.
      3 vectors produced by pass  4 Test12= 2.10D-13 3.33D-08 XBig12= 2.97D-01 1.47D-01.
      3 vectors produced by pass  5 Test12= 2.10D-13 3.33D-08 XBig12= 6.13D-02 7.34D-02.
      3 vectors produced by pass  6 Test12= 2.10D-13 3.33D-08 XBig12= 1.27D-02 3.08D-02.
      3 vectors produced by pass  7 Test12= 2.10D-13 3.33D-08 XBig12= 1.11D-03 9.81D-03.
      3 vectors produced by pass  8 Test12= 2.10D-13 3.33D-08 XBig12= 2.97D-04 5.73D-03.
      3 vectors produced by pass  9 Test12= 2.10D-13 3.33D-08 XBig12= 1.95D-05 1.27D-03.
      2 vectors produced by pass 10 Test12= 2.10D-13 3.33D-08 XBig12= 9.51D-07 1.99D-04.
      2 vectors produced by pass 11 Test12= 2.10D-13 3.33D-08 XBig12= 2.56D-07 1.68D-04.
      2 vectors produced by pass 12 Test12= 2.10D-13 3.33D-08 XBig12= 1.30D-08 1.53D-05.
      2 vectors produced by pass 13 Test12= 2.10D-13 3.33D-08 XBig12= 3.32D-10 2.70D-06.
      2 vectors produced by pass 14 Test12= 2.10D-13 3.33D-08 XBig12= 5.40D-12 5.93D-07.
      1 vectors produced by pass 15 Test12= 2.10D-13 3.33D-08 XBig12= 1.02D-13 5.37D-08.
 InvSVY:  IOpt=1 It=  1 EMax= 2.12D-15
 Solved reduced A of dimension    41 with     3 vectors.
 End of Minotr F.D. properties file   721 does not exist.
 End of Minotr F.D. properties file   722 does not exist.
 End of Minotr F.D. properties file   788 does not exist.
 Leave Link 1002 at Fri Jun  2 11:31:01 2023, MaxMem=  7381975040 cpu:             220.8 elap:             119.1
 (Enter /software/commercial/gaussian/g16/AVX/g16/l1101.exe)
 Using compressed storage, NAtomX=    15.
 Will process     16 centers per pass.
 R6Disp: Adding Grimme-D3(BJ) dispersion energy 1st derivatives to the gradient.
 Leave Link 1101 at Fri Jun  2 11:31:03 2023, MaxMem=  7381975040 cpu:               0.7 elap:               1.2
 (Enter /software/commercial/gaussian/g16/AVX/g16/l1102.exe)
 Symmetrizing basis deriv contribution to polar:
 IMax=3 JMax=2 DiffMx= 0.00D+00
 Leave Link 1102 at Fri Jun  2 11:31:06 2023, MaxMem=  7381975040 cpu:               0.1 elap:               1.8
 (Enter /software/commercial/gaussian/g16/AVX/g16/l1110.exe)
 Forming Gx(P) for the SCF density, NAtomX=    15.
 Integral derivatives from FoFJK, PRISM(SPDF).
 Do as many integral derivatives as possible in FoFJK.
 G2DrvN: MDV=    7381973389.
 G2DrvN: will do    16 centers at a time, making    1 passes.
 PxScal for G2LodP:  IOpCl= 0 ISclPx=1 IMOff=     1 NMtTot=     4 NTT=   27495 ScalPx= 2.91D+01
 Calling FoFCou, ICntrl=  3107 FMM=F I1Cent=   0 AccDes= 0.00D+00.
 FoFJK:  IHMeth= 1 ICntrl=    3107 DoSepK=F KAlg= 0 I1Cent=           0 FoldK=F
 IRaf=         0 NMat=       1 IRICut=       1 DoRegI=T DoRafI=F ISym2E= 0 IDoP0=0 IntGTp=1.
 FoFCou: FMM=F IPFlag=           0 FMFlag=      100000 FMFlg1=           0
         NFxFlg=           0 DoJE=F BraDBF=F KetDBF=F FulRan=T
         wScrn=  0.000000 ICntrl=      3107 IOpCl=  0 I1Cent=           0 NGrid=           0
         NMat0=    1 NMatS0=      1 NMatT0=    0 NMatD0=    4 NMtDS0=    3 NMtDT0=    0
 Symmetry not used in FoFCou.
 PxScal for G2LodP:  IOpCl= 0 ISclPx=0 IMOff=     1 NMtTot=     4 NTT=   27495 ScalPx= 1.00D+00
 NEqPCM:  Using equilibrium solvation (IEInf=0, Eps=  24.8520, EpsInf=   1.8526)
 G2PCM: DoFxE=T DoFxN=T DoGrad=T DoDP/DQ/DG/TGxP=TFFF NFrqRd=   0 IEInf=0 SqF1=F DoCFld=F IF1Alg=4.
 GePol: Maximum number of non-zero 1st derivatives   =     199
 End of G2Drv F.D. properties file   721 does not exist.
 End of G2Drv F.D. properties file   722 does not exist.
 End of G2Drv F.D. properties file   788 does not exist.
 Leave Link 1110 at Fri Jun  2 11:35:39 2023, MaxMem=  7381975040 cpu:             535.9 elap:             271.5
 (Enter /software/commercial/gaussian/g16/AVX/g16/l1002.exe)
 Minotr:  Closed shell wavefunction.
          IDoAtm=111111111111111
 NEqPCM:  Using equilibrium solvation (IEInf=0, Eps=  24.8520, EpsInf=   1.8526)
          Direct CPHF calculation.
          Differentiating once with respect to electric field.
                with respect to dipole field.
          Differentiating once with respect to nuclear coordinates.
          Requested convergence is 1.0D-08 RMS, and 1.0D-07 maximum.
          Secondary convergence is 1.0D-12 RMS, and 1.0D-12 maximum.
          NewPWx=T KeepS1=F KeepF1=F KeepIn=T MapXYZ=F SortEE=F KeepMc=T.
         4604 words used for storage of precomputed grid.
 Keep R1 ints in memory in canonical form, NReq=385272395.
 FoFCou: FMM=F IPFlag=           0 FMFlag=           0 FMFlg1=           0
         NFxFlg=           0 DoJE=F BraDBF=F KetDBF=F FulRan=T
         wScrn=  0.000000 ICntrl=       600 IOpCl=  0 I1Cent=           0 NGrid=           0
         NMat0=    1 NMatS0=  27495 NMatT0=    0 NMatD0=    1 NMtDS0=    0 NMtDT0=    0
 Symmetry not used in FoFCou.
 Two-electron integral symmetry not used.
          MDV=    7381975040 using IRadAn=       1.
          Solving linear equations simultaneously, MaxMat=       0.
          There are    48 degrees of freedom in the 1st order CPHF.  IDoFFX=5 NUNeed=    48.
 Will reuse    3 saved solutions.
     42 vectors produced by pass  0 Test12= 1.31D-14 2.08D-09 XBig12= 2.30D-01 1.45D-01.
 AX will form    42 AO Fock derivatives at one time.
     42 vectors produced by pass  1 Test12= 1.31D-14 2.08D-09 XBig12= 6.51D-02 7.11D-02.
     42 vectors produced by pass  2 Test12= 1.31D-14 2.08D-09 XBig12= 6.78D-04 6.99D-03.
     42 vectors produced by pass  3 Test12= 1.31D-14 2.08D-09 XBig12= 2.10D-06 2.58D-04.
     42 vectors produced by pass  4 Test12= 1.31D-14 2.08D-09 XBig12= 4.56D-09 1.10D-05.
     42 vectors produced by pass  5 Test12= 1.31D-14 2.08D-09 XBig12= 8.40D-12 3.86D-07.
     18 vectors produced by pass  6 Test12= 1.31D-14 2.08D-09 XBig12= 1.24D-14 1.53D-08.
 InvSVY:  IOpt=1 It=  1 EMax= 2.11D-15
 Solved reduced A of dimension   270 with    42 vectors.
 FullF1:  Do perturbations      1 to       3.
 Isotropic polarizability for W=    0.000000      125.87 Bohr**3.
 FullF1:  Do perturbations      1 to       6.
 End of Minotr F.D. properties file   721 does not exist.
 End of Minotr F.D. properties file   722 does not exist.
 End of Minotr F.D. properties file   788 does not exist.
 Leave Link 1002 at Fri Jun  2 11:40:28 2023, MaxMem=  7381975040 cpu:             553.7 elap:             288.4
 (Enter /software/commercial/gaussian/g16/AVX/g16/l601.exe)
 Copying SCF densities to generalized density rwf, IOpCl= 0 IROHF=0.

 **********************************************************************

            Population analysis using the SCF Density.

 **********************************************************************

 Alpha  occ. eigenvalues --  -14.37594 -14.31179 -10.24780 -10.22009 -10.20527
 Alpha  occ. eigenvalues --  -10.18698 -10.18202 -10.18132 -10.17844  -1.02972
 Alpha  occ. eigenvalues --   -0.89085  -0.85628  -0.75554  -0.74877  -0.64318
 Alpha  occ. eigenvalues --   -0.62881  -0.60984  -0.55654  -0.51104  -0.49223
 Alpha  occ. eigenvalues --   -0.45540  -0.45369  -0.44638  -0.42704  -0.37759
 Alpha  occ. eigenvalues --   -0.36832  -0.35630  -0.32192  -0.29478  -0.24543
 Alpha  occ. eigenvalues --   -0.24202
 Alpha virt. eigenvalues --   -0.03625  -0.00055   0.00495   0.01608   0.02494
 Alpha virt. eigenvalues --    0.02555   0.03875   0.04142   0.04914   0.05057
 Alpha virt. eigenvalues --    0.07123   0.07566   0.08003   0.08369   0.09687
 Alpha virt. eigenvalues --    0.10958   0.12284   0.12400   0.12496   0.13323
 Alpha virt. eigenvalues --    0.14767   0.15253   0.15786   0.17045   0.17142
 Alpha virt. eigenvalues --    0.17593   0.18233   0.18674   0.18688   0.19325
 Alpha virt. eigenvalues --    0.19447   0.20805   0.21468   0.21575   0.22351
 Alpha virt. eigenvalues --    0.22798   0.23200   0.24367   0.24907   0.25129
 Alpha virt. eigenvalues --    0.25444   0.26203   0.27067   0.27329   0.27785
 Alpha virt. eigenvalues --    0.30058   0.31341   0.33401   0.33730   0.34878
 Alpha virt. eigenvalues --    0.38372   0.40887   0.42668   0.43589   0.48071
 Alpha virt. eigenvalues --    0.51582   0.52050   0.52316   0.53487   0.54106
 Alpha virt. eigenvalues --    0.54791   0.56133   0.56690   0.58754   0.60355
 Alpha virt. eigenvalues --    0.61606   0.62319   0.64764   0.66572   0.68391
 Alpha virt. eigenvalues --    0.68591   0.70761   0.71698   0.73946   0.74864
 Alpha virt. eigenvalues --    0.75375   0.77558   0.80057   0.82608   0.82914
 Alpha virt. eigenvalues --    0.84060   0.84265   0.84842   0.85232   0.89332
 Alpha virt. eigenvalues --    0.89629   0.90497   0.91278   0.94201   0.96397
 Alpha virt. eigenvalues --    0.96810   0.98135   0.99154   1.00988   1.02206
 Alpha virt. eigenvalues --    1.07565   1.08179   1.09857   1.14587   1.14598
 Alpha virt. eigenvalues --    1.15730   1.17053   1.25500   1.28255   1.28445
 Alpha virt. eigenvalues --    1.41426   1.47052   1.48830   1.48934   1.51472
 Alpha virt. eigenvalues --    1.54420   1.56027   1.58411   1.59005   1.61981
 Alpha virt. eigenvalues --    1.64842   1.68421   1.69090   1.71245   1.73098
 Alpha virt. eigenvalues --    1.74209   1.77112   1.77981   1.79830   1.85809
 Alpha virt. eigenvalues --    1.86319   1.87748   1.89949   1.91682   1.93640
 Alpha virt. eigenvalues --    1.94214   1.96540   2.00245   2.01007   2.01014
 Alpha virt. eigenvalues --    2.05468   2.13358   2.18495   2.25177   2.25511
 Alpha virt. eigenvalues --    2.26789   2.28210   2.33312   2.39764   2.41959
 Alpha virt. eigenvalues --    2.45810   2.47546   2.51781   2.57599   2.58486
 Alpha virt. eigenvalues --    2.61327   2.61657   2.66597   2.68397   2.69420
 Alpha virt. eigenvalues --    2.70880   2.72542   2.74162   2.76520   2.78944
 Alpha virt. eigenvalues --    2.80356   2.81165   2.81224   2.81559   2.86211
 Alpha virt. eigenvalues --    2.89754   2.91199   2.91902   2.97866   3.00038
 Alpha virt. eigenvalues --    3.05079   3.06915   3.14739   3.27000   3.34462
 Alpha virt. eigenvalues --    3.41419   3.44648   3.50271   3.50426   3.58259
 Alpha virt. eigenvalues --    3.65781   3.67809   3.81931   3.86238   3.92971
 Alpha virt. eigenvalues --    3.96002   4.03126   4.10591   4.17949   4.48436
 Alpha virt. eigenvalues --    4.79271   4.82573   4.95114   5.28432  23.59547
 Alpha virt. eigenvalues --   23.91224  23.91565  23.96753  24.04076  24.09958
 Alpha virt. eigenvalues --   24.18188  35.56720  35.71177
     Molecular Orbital Coefficients:
                           1         2         3         4         5
                           O         O         O         O         O
     Eigenvalues --   -14.37594 -14.31179 -10.24780 -10.22009 -10.20527
   1 1   C  1S         -0.00000  -0.00001  -0.00001  -0.00004  -0.00017
   2        2S          0.00002   0.00003   0.00001   0.00004  -0.00007
   3        2PX         0.00006   0.00000   0.00002   0.00010  -0.00001
   4        2PY         0.00003  -0.00002   0.00001   0.00013  -0.00003
   5        2PZ        -0.00000  -0.00000  -0.00000   0.00000  -0.00000
   6        3S         -0.00012  -0.00035  -0.00015  -0.00024  -0.00064
   7        3PX        -0.00035  -0.00005  -0.00012  -0.00098  -0.00017
   8        3PY        -0.00015   0.00013  -0.00006  -0.00081   0.00026
   9        3PZ         0.00000   0.00000   0.00000  -0.00000   0.00000
  10        4S         -0.00663   0.00523   0.00204  -0.00632   0.00882
  11        4PX        -0.00215   0.00343   0.00087  -0.00276   0.00454
  12        4PY         0.00058  -0.00133   0.00035   0.00163  -0.00108
  13        4PZ        -0.00000  -0.00000  -0.00000   0.00000  -0.00000
  14        5S         -0.02609   0.03246  -0.00009  -0.01492  -0.00973
  15        5PX        -0.00477   0.00606   0.00186  -0.00363   0.00443
  16        5PY        -0.00103   0.00120  -0.00345  -0.01057   0.01479
  17        5PZ         0.00000   0.00000   0.00000   0.00000   0.00000
  18        6D 0       -0.00004  -0.00005  -0.00003  -0.00000  -0.00010
  19        6D+1        0.00000  -0.00000  -0.00000   0.00000  -0.00000
  20        6D-1       -0.00000   0.00000  -0.00000  -0.00000   0.00000
  21        6D+2       -0.00007   0.00005  -0.00000  -0.00001   0.00017
  22        6D-2       -0.00006  -0.00002  -0.00000  -0.00065  -0.00000
  23 2   C  1S         -0.00001  -0.00000  -0.00001  -0.00010  -0.00002
  24        2S          0.00004   0.00002   0.00001  -0.00001   0.00004
  25        2PX         0.00001   0.00008   0.00005  -0.00000   0.00014
  26        2PY         0.00002  -0.00000  -0.00001   0.00002  -0.00009
  27        2PZ         0.00000  -0.00000  -0.00000  -0.00000   0.00000
  28        3S         -0.00036  -0.00002  -0.00006  -0.00062  -0.00012
  29        3PX        -0.00012  -0.00047  -0.00027  -0.00017  -0.00121
  30        3PY        -0.00013   0.00003   0.00007  -0.00028   0.00044
  31        3PZ        -0.00000   0.00000   0.00000   0.00000   0.00000
  32        4S          0.00321  -0.00922  -0.00220   0.00670  -0.00837
  33        4PX         0.00160  -0.00336  -0.00090   0.00303  -0.00322
  34        4PY         0.00237  -0.00092  -0.00080   0.00231  -0.00262
  35        4PZ         0.00000   0.00000   0.00000  -0.00000   0.00000
  36        5S          0.01501  -0.03613  -0.01358  -0.00342  -0.00619
  37        5PX         0.00290  -0.00724  -0.00135   0.00371  -0.01138
  38        5PY         0.00163  -0.00245   0.00246  -0.00278   0.01809
  39        5PZ        -0.00000  -0.00000  -0.00000  -0.00000  -0.00000
  40        6D 0       -0.00006  -0.00001  -0.00002  -0.00009   0.00002
  41        6D+1        0.00000   0.00000  -0.00000  -0.00000   0.00000
  42        6D-1        0.00000   0.00000   0.00000   0.00000  -0.00000
  43        6D+2        0.00000  -0.00012  -0.00004   0.00012  -0.00040
  44        6D-2        0.00005   0.00002   0.00002   0.00012   0.00048
  45 3   C  1S         -0.00001  -0.00000  -0.00001   0.00448  -0.00022
  46        2S          0.00003   0.00002   0.00001   0.00390  -0.00015
  47        2PX        -0.00000   0.00008  -0.00002   0.00075   0.00009
  48        2PY         0.00007  -0.00008  -0.00002  -0.00027  -0.00008
  49        2PZ         0.00000  -0.00000   0.00000   0.00000   0.00000
  50        3S         -0.00049   0.00006  -0.00023  -0.00037   0.00008
  51        3PX         0.00009  -0.00055   0.00001  -0.00340  -0.00072
  52        3PY        -0.00030   0.00048   0.00016   0.00117   0.00067
  53        3PZ        -0.00000  -0.00000  -0.00000  -0.00000   0.00000
  54        4S          0.01588  -0.01131   0.00179   0.00938  -0.00953
  55        4PX         0.00322  -0.00248   0.00234   0.00253  -0.00009
  56        4PY        -0.00740   0.00430   0.00009  -0.00599   0.00663
  57        4PZ         0.00000  -0.00000   0.00000  -0.00000  -0.00000
  58        5S          0.04351  -0.04067  -0.06214  -0.06433   0.01210
  59        5PX        -0.00037   0.00281  -0.01896  -0.02876   0.01656
  60        5PY        -0.00873   0.00887   0.00147   0.00040   0.00530
  61        5PZ        -0.00000  -0.00000  -0.00000  -0.00000  -0.00000
  62        6D 0       -0.00013   0.00006  -0.00008   0.00062   0.00002
  63        6D+1       -0.00000   0.00000  -0.00000  -0.00000  -0.00000
  64        6D-1       -0.00000   0.00000  -0.00000   0.00000   0.00000
  65        6D+2       -0.00023  -0.00012   0.00001  -0.00129  -0.00028
  66        6D-2       -0.00006   0.00014   0.00004   0.00157   0.00033
  67 4   C  1S          0.00001  -0.00001  -0.00001   0.56280  -0.00904
  68        2S          0.00000   0.00005  -0.00004   0.46313  -0.00730
  69        2PX         0.00038  -0.00003  -0.00003   0.00075   0.00013
  70        2PY         0.00025  -0.00004   0.00002   0.00053  -0.00076
  71        2PZ         0.00000   0.00000  -0.00000  -0.00000  -0.00000
  72        3S          0.00071  -0.00066   0.00008   0.01929  -0.00061
  73        3PX        -0.00082  -0.00001   0.00013  -0.00121  -0.00058
  74        3PY        -0.00071   0.00052   0.00002  -0.00092   0.00283
  75        3PZ         0.00000  -0.00000  -0.00000   0.00000  -0.00000
  76        4S          0.00479   0.00994  -0.00195  -0.01513   0.01024
  77        4PX         0.02105  -0.01051   0.00077   0.01059  -0.00730
  78        4PY         0.00026  -0.00219  -0.00337   0.00382  -0.00760
  79        4PZ        -0.00000  -0.00000   0.00000   0.00000   0.00000
  80        5S         -0.04161   0.05738   0.07235   0.02212   0.07398
  81        5PX         0.01261  -0.01205  -0.01762  -0.04034   0.02539
  82        5PY         0.00693  -0.01500   0.02380   0.03321  -0.03676
  83        5PZ         0.00000   0.00000  -0.00000   0.00000   0.00000
  84        6D 0        0.00016  -0.00018  -0.00010  -0.00175   0.00056
  85        6D+1       -0.00000   0.00000   0.00000  -0.00000   0.00000
  86        6D-1       -0.00000  -0.00000  -0.00000  -0.00000  -0.00000
  87        6D+2       -0.00057   0.00046   0.00014   0.00068   0.00150
  88        6D-2       -0.00053   0.00004  -0.00007  -0.00094   0.00048
  89 5   C  1S         -0.00001   0.00002   0.00002   0.00895   0.56278
  90        2S          0.00004  -0.00003  -0.00002   0.00751   0.46314
  91        2PX        -0.00006   0.00043   0.00000  -0.00009   0.00051
  92        2PY         0.00000  -0.00014  -0.00002   0.00077  -0.00012
  93        2PZ         0.00000   0.00000  -0.00000   0.00000   0.00000
  94        3S         -0.00056   0.00083   0.00027   0.00005   0.01936
  95        3PX         0.00020  -0.00102   0.00006   0.00025  -0.00138
  96        3PY        -0.00047   0.00046   0.00003  -0.00294   0.00054
  97        3PZ        -0.00000   0.00000  -0.00000   0.00000  -0.00000
  98        4S          0.00172  -0.00030  -0.00493   0.00460  -0.01989
  99        4PX        -0.00944   0.01972   0.00796  -0.00863   0.01138
 100        4PY        -0.00581  -0.00098   0.00241   0.00157  -0.00450
 101        4PZ         0.00000  -0.00000  -0.00000  -0.00000  -0.00000
 102        5S          0.04606  -0.10161   0.05383   0.07149   0.00852
 103        5PX        -0.01487   0.02675  -0.00948  -0.00707  -0.04581
 104        5PY        -0.00410   0.00471  -0.02924   0.00919  -0.07332
 105        5PZ        -0.00000  -0.00000   0.00000  -0.00000  -0.00000
 106        6D 0       -0.00021   0.00010  -0.00008   0.00055  -0.00161
 107        6D+1        0.00000  -0.00000  -0.00000   0.00000   0.00000
 108        6D-1        0.00000   0.00000   0.00000  -0.00000  -0.00000
 109        6D+2        0.00039  -0.00067   0.00010   0.00155  -0.00002
 110        6D-2        0.00038   0.00022   0.00016   0.00051   0.00085
 111 6   C  1S         -0.00001  -0.00001  -0.00002   0.00001   0.00624
 112        2S          0.00004   0.00005   0.00001   0.00005   0.00533
 113        2PX         0.00006   0.00004  -0.00003   0.00009   0.00063
 114        2PY         0.00007  -0.00007  -0.00002   0.00010   0.00046
 115        2PZ        -0.00000   0.00000   0.00000   0.00000   0.00000
 116        3S         -0.00014  -0.00056  -0.00041  -0.00004  -0.00021
 117        3PX        -0.00043  -0.00018   0.00011  -0.00058  -0.00275
 118        3PY        -0.00056   0.00031   0.00009  -0.00084  -0.00192
 119        3PZ         0.00000  -0.00000  -0.00000  -0.00000  -0.00000
 120        4S         -0.00938   0.01487   0.00850  -0.00848   0.00954
 121        4PX        -0.00248  -0.00209   0.00141   0.00060  -0.00098
 122        4PY        -0.00263   0.00885   0.00443  -0.00466   0.00736
 123        4PZ        -0.00000   0.00000   0.00000   0.00000   0.00000
 124        5S         -0.03886   0.08941  -0.04679  -0.03092  -0.09961
 125        5PX        -0.00277   0.00361  -0.01819  -0.00070  -0.04274
 126        5PY        -0.00565   0.01505  -0.00399  -0.00630  -0.01440
 127        5PZ         0.00000   0.00000   0.00000   0.00000   0.00000
 128        6D 0        0.00004  -0.00009  -0.00011   0.00002   0.00058
 129        6D+1        0.00000  -0.00000   0.00000  -0.00000   0.00000
 130        6D-1        0.00000  -0.00000   0.00000   0.00000   0.00000
 131        6D+2       -0.00008  -0.00021   0.00004  -0.00008  -0.00017
 132        6D-2       -0.00019  -0.00013  -0.00002  -0.00049  -0.00191
 133 7   N  1S          0.55736   0.00010  -0.00005  -0.00005   0.00000
 134        2S          0.46556   0.00015  -0.00008  -0.00009   0.00002
 135        2PX        -0.00001   0.00004   0.00021  -0.00031  -0.00008
 136        2PY         0.00000  -0.00008  -0.00033  -0.00029   0.00003
 137        2PZ         0.00000   0.00000   0.00000  -0.00000   0.00000
 138        3S          0.01738  -0.00036   0.00087   0.00129  -0.00014
 139        3PX        -0.00011  -0.00019  -0.00029   0.00054   0.00048
 140        3PY        -0.00015   0.00052   0.00073   0.00083  -0.00004
 141        3PZ        -0.00000  -0.00000  -0.00000   0.00000  -0.00000
 142        4S         -0.02196   0.00237  -0.00134  -0.00782   0.00165
 143        4PX         0.00481  -0.00065  -0.00157   0.00339  -0.00182
 144        4PY         0.00899   0.00250   0.00302   0.00284   0.00188
 145        4PZ         0.00000   0.00000   0.00000   0.00000   0.00000
 146        5S         -0.00630  -0.00204   0.00029   0.00739  -0.00285
 147        5PX        -0.00100   0.00149   0.00371  -0.00145  -0.00234
 148        5PY        -0.00178   0.00515  -0.01081  -0.00407   0.00155
 149        5PZ        -0.00000  -0.00000  -0.00000  -0.00000  -0.00000
 150        6D 0       -0.00068   0.00003   0.00053   0.00060  -0.00001
 151        6D+1       -0.00000  -0.00000   0.00000  -0.00000   0.00000
 152        6D-1       -0.00000   0.00000   0.00000  -0.00000   0.00000
 153        6D+2       -0.00057  -0.00005   0.00005  -0.00031  -0.00025
 154        6D-2        0.00025   0.00024   0.00071  -0.00062  -0.00006
 155 8   C  1S          0.00001  -0.00000   0.56293   0.00001  -0.00002
 156        2S          0.00002   0.00010   0.46321  -0.00001  -0.00005
 157        2PX        -0.00017  -0.00012  -0.00036   0.00015   0.00011
 158        2PY         0.00031  -0.00045   0.00046  -0.00004   0.00006
 159        2PZ        -0.00000  -0.00000   0.00000  -0.00000   0.00000
 160        3S          0.00045   0.00022   0.01966   0.00008   0.00020
 161        3PX         0.00015   0.00039   0.00005  -0.00070  -0.00066
 162        3PY        -0.00057   0.00141  -0.00100   0.00031  -0.00033
 163        3PZ         0.00000   0.00000  -0.00000   0.00000  -0.00000
 164        4S          0.00697   0.00733  -0.00961   0.00157   0.00149
 165        4PX        -0.00530  -0.00431   0.00250  -0.00208  -0.00244
 166        4PY         0.00019  -0.00266   0.00064  -0.00202   0.00136
 167        4PZ        -0.00000  -0.00000  -0.00000  -0.00000  -0.00000
 168        5S          0.00429  -0.00159  -0.00683   0.01572   0.01647
 169        5PX        -0.00177  -0.00052   0.00100  -0.00333  -0.00285
 170        5PY        -0.00001  -0.00009   0.00160   0.00130  -0.00264
 171        5PZ         0.00000   0.00000   0.00000  -0.00000   0.00000
 172        6D 0        0.00012   0.00022  -0.00177  -0.00009  -0.00008
 173        6D+1        0.00000  -0.00000   0.00000   0.00000   0.00000
 174        6D-1       -0.00000  -0.00000   0.00000   0.00000   0.00000
 175        6D+2        0.00027   0.00098   0.00046   0.00029   0.00008
 176        6D-2        0.00086  -0.00091   0.00081  -0.00019   0.00019
 177 9   N  1S         -0.00010   0.55737  -0.00008   0.00000  -0.00004
 178        2S         -0.00001   0.46572  -0.00002   0.00003  -0.00009
 179        2PX         0.00000  -0.00066   0.00020  -0.00010  -0.00035
 180        2PY         0.00007   0.00128   0.00050  -0.00003   0.00018
 181        2PZ         0.00000   0.00000   0.00000   0.00000  -0.00000
 182        3S         -0.00040   0.01688   0.00080  -0.00019   0.00128
 183        3PX        -0.00002  -0.00020  -0.00068   0.00052   0.00059
 184        3PY        -0.00045   0.00107  -0.00160   0.00010  -0.00058
 185        3PZ        -0.00000  -0.00000  -0.00000  -0.00000  -0.00000
 186        4S          0.00075  -0.02464  -0.00665   0.00120  -0.00814
 187        4PX        -0.00073   0.00536   0.00067  -0.00157   0.00352
 188        4PY        -0.00061  -0.00392  -0.00272  -0.00077  -0.00057
 189        4PZ        -0.00000   0.00000   0.00000   0.00000   0.00000
 190        5S         -0.00252   0.00069   0.00378  -0.00002   0.01099
 191        5PX         0.00192  -0.00210   0.00334  -0.00097  -0.00220
 192        5PY        -0.00061  -0.00035   0.00700  -0.00085   0.00487
 193        5PZ         0.00000   0.00000  -0.00000   0.00000   0.00000
 194        6D 0        0.00006  -0.00030   0.00087   0.00004   0.00061
 195        6D+1        0.00000  -0.00000  -0.00000  -0.00000  -0.00000
 196        6D-1       -0.00000  -0.00000  -0.00000   0.00000   0.00000
 197        6D+2        0.00014  -0.00010   0.00080  -0.00020  -0.00052
 198        6D-2       -0.00004   0.00036  -0.00071   0.00010   0.00040
 199 10  H  1S         -0.00016   0.00001   0.00002  -0.00023   0.00003
 200        2S          0.00095  -0.00042  -0.00034   0.00002  -0.00124
 201        3S          0.00167  -0.00066   0.00125   0.00254  -0.00133
 202        4PX        -0.00000   0.00002  -0.00006  -0.00024  -0.00009
 203        4PY        -0.00000   0.00008   0.00002   0.00041   0.00020
 204        4PZ        -0.00000  -0.00000  -0.00000   0.00000   0.00000
 205 11  H  1S         -0.00003  -0.00008  -0.00003  -0.00008  -0.00009
 206        2S          0.00005   0.00044   0.00003  -0.00061   0.00023
 207        3S          0.00001   0.00092   0.00005   0.00002   0.00161
 208        4PX         0.00002  -0.00003  -0.00001  -0.00020  -0.00009
 209        4PY         0.00001   0.00001   0.00000   0.00004   0.00003
 210        4PZ         0.00000  -0.00000   0.00000  -0.00000  -0.00000
 211 12  H  1S         -0.00008  -0.00003  -0.00002  -0.00009  -0.00006
 212        2S          0.00036  -0.00002  -0.00008   0.00020  -0.00068
 213        3S          0.00078  -0.00019  -0.00023   0.00142  -0.00036
 214        4PX        -0.00002   0.00003   0.00001  -0.00008  -0.00017
 215        4PY        -0.00004  -0.00002  -0.00002  -0.00007  -0.00010
 216        4PZ        -0.00000   0.00000   0.00000   0.00000   0.00000
 217 13  H  1S         -0.00003  -0.00020  -0.00004  -0.00001  -0.00024
 218        2S         -0.00002   0.00145   0.00029  -0.00089   0.00030
 219        3S          0.00016   0.00147   0.00185  -0.00054   0.00299
 220        4PX         0.00005   0.00002  -0.00006  -0.00001  -0.00007
 221        4PY        -0.00007   0.00002   0.00002  -0.00021  -0.00042
 222        4PZ        -0.00000  -0.00000  -0.00000  -0.00000  -0.00000
 223 14  H  1S         -0.00018  -0.00018   0.00007  -0.00014  -0.00012
 224        2S          0.00029  -0.00018  -0.00404   0.00098   0.00092
 225        3S          0.00188   0.00216   0.00011   0.00005   0.00008
 226        4PX         0.00027   0.00032   0.00238  -0.00013  -0.00013
 227        4PY        -0.00017   0.00041   0.00037   0.00009  -0.00010
 228        4PZ         0.00000   0.00000   0.00000   0.00000  -0.00000
 229 15  H  1S          0.00019  -0.00002   0.00012   0.00009   0.00001
 230        2S         -0.00453  -0.00134  -0.00195  -0.00120  -0.00100
 231        3S          0.00250  -0.00214   0.00482   0.00056   0.00027
 232        4PX         0.00030   0.00010   0.00016  -0.00004   0.00008
 233        4PY         0.00190   0.00032   0.00024   0.00018   0.00015
 234        4PZ        -0.00000  -0.00000  -0.00000  -0.00000   0.00000
                           6         7         8         9        10
                           O         O         O         O         O
     Eigenvalues --   -10.18698 -10.18202 -10.18132 -10.17844  -1.02972
   1 1   C  1S          0.02768   0.01340   0.56002  -0.04788   0.00287
   2        2S          0.02296   0.01107   0.46081  -0.03925   0.00441
   3        2PX         0.00055   0.00001  -0.00010   0.00005  -0.00260
   4        2PY         0.00052  -0.00021  -0.00007  -0.00074  -0.00003
   5        2PZ        -0.00000   0.00000  -0.00000   0.00000   0.00000
   6        3S          0.00054   0.00050   0.01952  -0.00198  -0.01178
   7        3PX        -0.00215  -0.00024   0.00038  -0.00008  -0.00434
   8        3PY        -0.00208   0.00128   0.00058   0.00277   0.00018
   9        3PZ         0.00000  -0.00000   0.00000  -0.00000  -0.00000
  10        4S          0.01012  -0.00753  -0.01812   0.01318  -0.00989
  11        4PX         0.00752  -0.00405  -0.00818   0.00815   0.00290
  12        4PY        -0.00180   0.00109   0.00307  -0.00389  -0.00125
  13        4PZ        -0.00000   0.00000  -0.00000  -0.00000   0.00000
  14        5S          0.02711  -0.04476   0.01105  -0.00242  -0.06558
  15        5PX         0.00367  -0.00486   0.00367   0.00063  -0.00408
  16        5PY        -0.01228   0.00917   0.00009  -0.00185  -0.01318
  17        5PZ         0.00000  -0.00000   0.00000  -0.00000  -0.00000
  18        6D 0        0.00055   0.00003  -0.00183   0.00070   0.00049
  19        6D+1        0.00000   0.00000   0.00000  -0.00000   0.00000
  20        6D-1        0.00000  -0.00000   0.00000   0.00000  -0.00000
  21        6D+2       -0.00043   0.00065   0.00024   0.00134  -0.00070
  22        6D-2       -0.00154   0.00019   0.00022   0.00055   0.00010
  23 2   C  1S          0.00058   0.04555   0.04658   0.55912   0.00265
  24        2S          0.00051   0.03767   0.03847   0.46004   0.00407
  25        2PX        -0.00004   0.00068  -0.00021  -0.00013  -0.00220
  26        2PY         0.00018  -0.00031   0.00073  -0.00004  -0.00090
  27        2PZ         0.00000  -0.00000   0.00000  -0.00000  -0.00000
  28        3S          0.00011   0.00115   0.00134   0.01962  -0.01084
  29        3PX         0.00010  -0.00267   0.00093   0.00051  -0.00368
  30        3PY        -0.00118   0.00126  -0.00278  -0.00006  -0.00181
  31        3PZ        -0.00000   0.00000  -0.00000   0.00000   0.00000
  32        4S         -0.00834   0.00913   0.00858  -0.02122  -0.01484
  33        4PX        -0.00388   0.00643   0.00466  -0.00850  -0.00181
  34        4PY        -0.00282   0.00364   0.00481  -0.00687   0.00494
  35        4PZ         0.00000  -0.00000   0.00000  -0.00000  -0.00000
  36        5S         -0.04249   0.02974  -0.00535   0.00521  -0.00830
  37        5PX        -0.00237  -0.00062  -0.00035   0.00233  -0.00014
  38        5PY        -0.00905   0.01445   0.00149   0.00085   0.01754
  39        5PZ        -0.00000   0.00000  -0.00000   0.00000   0.00000
  40        6D 0        0.00006   0.00051   0.00037  -0.00193   0.00048
  41        6D+1       -0.00000   0.00000  -0.00000  -0.00000  -0.00000
  42        6D-1        0.00000  -0.00000   0.00000   0.00000  -0.00000
  43        6D+2        0.00058  -0.00121   0.00151   0.00016  -0.00027
  44        6D-2        0.00022   0.00102   0.00032  -0.00012  -0.00025
  45 3   C  1S          0.56219  -0.00007  -0.02775   0.00173   0.00821
  46        2S          0.46257   0.00001  -0.02265   0.00143   0.01236
  47        2PX         0.00019  -0.00002  -0.00067  -0.00003  -0.00735
  48        2PY         0.00004  -0.00004  -0.00048  -0.00008   0.00338
  49        2PZ         0.00000   0.00000   0.00000  -0.00000   0.00000
  50        3S          0.02009  -0.00044  -0.00134   0.00033  -0.03142
  51        3PX        -0.00004   0.00010   0.00275   0.00034  -0.00917
  52        3PY        -0.00019   0.00037   0.00194   0.00076   0.00425
  53        3PZ        -0.00000   0.00000  -0.00000   0.00000   0.00000
  54        4S         -0.02492   0.00491   0.00902  -0.01353   0.00672
  55        4PX        -0.00360  -0.00029   0.00043  -0.00210   0.00188
  56        4PY         0.01202  -0.00329  -0.00633   0.00756  -0.00655
  57        4PZ         0.00000  -0.00000   0.00000  -0.00000  -0.00000
  58        5S         -0.07599   0.04317  -0.01545  -0.01506  -0.18116
  59        5PX        -0.02079   0.00753   0.00054  -0.00550  -0.07296
  60        5PY         0.00578  -0.00587   0.00232   0.00158  -0.00129
  61        5PZ        -0.00000  -0.00000  -0.00000   0.00000   0.00000
  62        6D 0       -0.00179   0.00000   0.00073   0.00002   0.00094
  63        6D+1        0.00000   0.00000   0.00000  -0.00000   0.00000
  64        6D-1        0.00000   0.00000   0.00000  -0.00000  -0.00000
  65        6D+2       -0.00033  -0.00005  -0.00019  -0.00008  -0.00190
  66        6D-2       -0.00013  -0.00012  -0.00172  -0.00033  -0.00026
  67 4   C  1S         -0.00460   0.00009   0.00025   0.00006   0.04362
  68        2S         -0.00361   0.00012   0.00026   0.00011   0.06695
  69        2PX        -0.00075  -0.00001  -0.00008  -0.00002  -0.03866
  70        2PY         0.00032  -0.00009   0.00005  -0.00003   0.00136
  71        2PZ        -0.00000   0.00000  -0.00000   0.00000  -0.00000
  72        3S         -0.00051  -0.00004  -0.00014  -0.00060  -0.17064
  73        3PX         0.00293   0.00008   0.00082   0.00022  -0.05720
  74        3PY        -0.00129   0.00068  -0.00031   0.00023   0.00093
  75        3PZ         0.00000  -0.00000   0.00000  -0.00000  -0.00000
  76        4S          0.01047  -0.00753  -0.00715   0.00836  -0.04031
  77        4PX        -0.01226   0.00141   0.00312  -0.00870   0.02525
  78        4PY        -0.00316   0.00318   0.00120  -0.00278  -0.00614
  79        4PZ        -0.00000   0.00000  -0.00000   0.00000  -0.00000
  80        5S          0.04595  -0.01392   0.01829   0.00012   0.13774
  81        5PX        -0.04020   0.01883  -0.00425  -0.00734  -0.08208
  82        5PY         0.01853  -0.00664  -0.00412   0.00694   0.09799
  83        5PZ         0.00000   0.00000   0.00000  -0.00000  -0.00000
  84        6D 0        0.00070   0.00007   0.00003  -0.00006   0.01212
  85        6D+1       -0.00000  -0.00000   0.00000   0.00000  -0.00000
  86        6D-1        0.00000  -0.00000  -0.00000  -0.00000   0.00000
  87        6D+2       -0.00120   0.00043  -0.00028   0.00009  -0.00888
  88        6D-2        0.00087   0.00011   0.00030   0.00003  -0.00188
  89 5   C  1S          0.00015  -0.00633   0.00034   0.00050   0.03613
  90        2S          0.00017  -0.00503   0.00035   0.00044   0.05548
  91        2PX        -0.00006  -0.00062  -0.00004  -0.00004  -0.02550
  92        2PY         0.00010  -0.00053   0.00002  -0.00006  -0.01690
  93        2PZ        -0.00000  -0.00000   0.00000  -0.00000  -0.00000
  94        3S          0.00005  -0.00055  -0.00057   0.00005  -0.14056
  95        3PX         0.00038   0.00235   0.00040   0.00056  -0.03882
  96        3PY        -0.00069   0.00211  -0.00012   0.00050  -0.02533
  97        3PZ        -0.00000   0.00000  -0.00000   0.00000   0.00000
  98        4S         -0.00692   0.01046   0.00573  -0.00921  -0.06326
  99        4PX         0.00506  -0.01184  -0.00683   0.00663   0.00305
 100        4PY        -0.00127  -0.00005   0.00011  -0.00035  -0.02697
 101        4PZ         0.00000  -0.00000   0.00000  -0.00000   0.00000
 102        5S         -0.00600   0.05621  -0.01128   0.01618   0.36730
 103        5PX         0.01220  -0.03937  -0.00301  -0.00487  -0.11715
 104        5PY         0.01020  -0.03392  -0.00802  -0.00077  -0.11212
 105        5PZ        -0.00000  -0.00000  -0.00000   0.00000   0.00000
 106        6D 0        0.00007   0.00070  -0.00007   0.00003   0.01035
 107        6D+1        0.00000   0.00000  -0.00000  -0.00000   0.00000
 108        6D-1        0.00000   0.00000   0.00000  -0.00000   0.00000
 109        6D+2        0.00043  -0.00047   0.00007  -0.00009  -0.00394
 110        6D-2        0.00022  -0.00141   0.00000  -0.00037  -0.00428
 111 6   C  1S         -0.00066   0.56084  -0.01719  -0.04438   0.00660
 112        2S         -0.00048   0.46148  -0.01409  -0.03633   0.00994
 113        2PX        -0.00002   0.00005  -0.00019  -0.00077  -0.00424
 114        2PY         0.00001  -0.00002   0.00010   0.00023  -0.00478
 115        2PZ        -0.00000   0.00000  -0.00000   0.00000   0.00000
 116        3S         -0.00051   0.01999  -0.00049  -0.00201  -0.02526
 117        3PX         0.00014   0.00006   0.00113   0.00312  -0.00527
 118        3PY        -0.00022   0.00014  -0.00073  -0.00087  -0.00618
 119        3PZ         0.00000  -0.00000   0.00000  -0.00000   0.00000
 120        4S          0.00747  -0.02417  -0.00961   0.01310  -0.00998
 121        4PX        -0.00079   0.00034  -0.00001  -0.00161  -0.01408
 122        4PY         0.00409  -0.01203  -0.00543   0.00840   0.00660
 123        4PZ        -0.00000   0.00000  -0.00000   0.00000   0.00000
 124        5S          0.03618  -0.08930  -0.00743  -0.01357  -0.33578
 125        5PX         0.00362  -0.02134  -0.00392  -0.00080  -0.07961
 126        5PY         0.00659  -0.01394  -0.00177  -0.00113  -0.04667
 127        5PZ         0.00000  -0.00000   0.00000  -0.00000  -0.00000
 128        6D 0       -0.00003  -0.00176   0.00017   0.00077   0.00086
 129        6D+1        0.00000   0.00000  -0.00000   0.00000  -0.00000
 130        6D-1        0.00000   0.00000  -0.00000  -0.00000  -0.00000
 131        6D+2       -0.00008  -0.00030  -0.00046  -0.00110  -0.00080
 132        6D-2        0.00002  -0.00007   0.00045   0.00124  -0.00061
 133 7   N  1S          0.00000   0.00000   0.00000   0.00000   0.07801
 134        2S          0.00003   0.00003   0.00002   0.00003   0.12232
 135        2PX        -0.00005  -0.00003  -0.00004  -0.00002   0.00328
 136        2PY        -0.00001  -0.00002  -0.00000  -0.00001   0.03348
 137        2PZ        -0.00000   0.00000   0.00000  -0.00000  -0.00000
 138        3S         -0.00026  -0.00027  -0.00011  -0.00029  -0.33216
 139        3PX         0.00024   0.00016   0.00019   0.00012   0.00464
 140        3PY         0.00011   0.00014   0.00004   0.00008   0.05005
 141        3PZ         0.00000  -0.00000  -0.00000   0.00000  -0.00000
 142        4S          0.00402   0.00015  -0.00042   0.00329  -0.23808
 143        4PX        -0.00102  -0.00022  -0.00032  -0.00098   0.01208
 144        4PY        -0.00043  -0.00161   0.00006  -0.00053   0.03774
 145        4PZ        -0.00000   0.00000   0.00000  -0.00000   0.00000
 146        5S          0.00742   0.00079   0.00014   0.00463   0.04019
 147        5PX        -0.00113  -0.00083  -0.00064  -0.00121  -0.00335
 148        5PY        -0.00180  -0.00166   0.00164  -0.00187  -0.04652
 149        5PZ        -0.00000  -0.00000  -0.00000   0.00000   0.00000
 150        6D 0       -0.00002  -0.00000  -0.00001  -0.00001   0.01088
 151        6D+1       -0.00000   0.00000  -0.00000   0.00000  -0.00000
 152        6D-1       -0.00000  -0.00000  -0.00000  -0.00000   0.00000
 153        6D+2       -0.00023  -0.00005  -0.00009  -0.00005   0.00235
 154        6D-2        0.00000  -0.00005   0.00000  -0.00003   0.00012
 155 8   C  1S          0.00000   0.00001   0.00001   0.00000   0.05685
 156        2S          0.00002   0.00004   0.00002   0.00001   0.08708
 157        2PX         0.00002  -0.00000  -0.00002  -0.00001   0.04746
 158        2PY         0.00000   0.00001  -0.00001   0.00000  -0.00018
 159        2PZ        -0.00000  -0.00000  -0.00000  -0.00000  -0.00000
 160        3S         -0.00018  -0.00026  -0.00014  -0.00006  -0.22482
 161        3PX        -0.00006   0.00012   0.00009   0.00009   0.06892
 162        3PY        -0.00003  -0.00003   0.00005  -0.00004  -0.00338
 163        3PZ         0.00000   0.00000   0.00000   0.00000   0.00000
 164        4S          0.00001  -0.00120   0.00037  -0.00005  -0.07558
 165        4PX        -0.00109  -0.00049  -0.00065  -0.00019  -0.00681
 166        4PY        -0.00045   0.00012   0.00021  -0.00038  -0.00477
 167        4PZ        -0.00000  -0.00000  -0.00000  -0.00000  -0.00000
 168        5S          0.01202   0.01475   0.00740   0.00774   0.04444
 169        5PX        -0.00322  -0.00312  -0.00199  -0.00202  -0.01003
 170        5PY         0.00170  -0.00248  -0.00038  -0.00010   0.00334
 171        5PZ        -0.00000  -0.00000  -0.00000  -0.00000   0.00000
 172        6D 0       -0.00002  -0.00001  -0.00003  -0.00001   0.01544
 173        6D+1       -0.00000  -0.00000  -0.00000  -0.00000   0.00000
 174        6D-1       -0.00000   0.00000  -0.00000   0.00000  -0.00000
 175        6D+2        0.00002   0.00005   0.00001  -0.00000  -0.00214
 176        6D-2        0.00004   0.00001  -0.00001   0.00002   0.00226
 177 9   N  1S          0.00000   0.00000   0.00000   0.00000   0.05084
 178        2S          0.00002   0.00004   0.00003   0.00001   0.07941
 179        2PX        -0.00004  -0.00005  -0.00002  -0.00004   0.01303
 180        2PY         0.00001  -0.00002  -0.00000  -0.00001  -0.04128
 181        2PZ        -0.00000  -0.00000  -0.00000  -0.00000  -0.00000
 182        3S         -0.00007  -0.00034  -0.00025  -0.00000  -0.21298
 183        3PX         0.00018   0.00023   0.00012   0.00015   0.02003
 184        3PY        -0.00008   0.00004  -0.00001   0.00003  -0.06183
 185        3PZ         0.00000   0.00000   0.00000   0.00000  -0.00000
 186        4S         -0.00169   0.00389   0.00229  -0.00178  -0.14555
 187        4PX         0.00030  -0.00112  -0.00086   0.00017   0.01366
 188        4PY         0.00015   0.00072   0.00028  -0.00013  -0.02431
 189        4PZ        -0.00000   0.00000  -0.00000   0.00000   0.00000
 190        5S         -0.00145   0.00717   0.00458  -0.00185   0.02701
 191        5PX        -0.00025  -0.00132  -0.00156   0.00002   0.00362
 192        5PY        -0.00010   0.00124   0.00101  -0.00091   0.01655
 193        5PZ         0.00000   0.00000   0.00000   0.00000  -0.00000
 194        6D 0        0.00001   0.00002   0.00001  -0.00000   0.00775
 195        6D+1        0.00000  -0.00000   0.00000  -0.00000   0.00000
 196        6D-1       -0.00000   0.00000  -0.00000   0.00000  -0.00000
 197        6D+2       -0.00007  -0.00017  -0.00004  -0.00004   0.00356
 198        6D-2        0.00001  -0.00003   0.00002  -0.00003   0.00049
 199 10  H  1S          0.00039  -0.00007  -0.00024   0.00004  -0.00307
 200        2S         -0.00566   0.00025   0.00043  -0.00124  -0.00281
 201        3S          0.00018   0.00079   0.00210  -0.00156   0.00452
 202        4PX        -0.00032   0.00001   0.00006   0.00001  -0.00024
 203        4PY         0.00240   0.00010   0.00025   0.00020   0.00093
 204        4PZ        -0.00000   0.00000  -0.00000  -0.00000  -0.00000
 205 11  H  1S         -0.00021  -0.00002   0.00038  -0.00026  -0.00073
 206        2S          0.00036  -0.00097  -0.00511   0.00106   0.00110
 207        3S          0.00260  -0.00004   0.00099   0.00260   0.00358
 208        4PX        -0.00042  -0.00025  -0.00216  -0.00005   0.00007
 209        4PY         0.00005   0.00011   0.00080   0.00009  -0.00010
 210        4PZ         0.00000  -0.00000   0.00000  -0.00000   0.00000
 211 12  H  1S         -0.00002  -0.00020  -0.00018   0.00044  -0.00070
 212        2S         -0.00095   0.00019   0.00010  -0.00531   0.00101
 213        3S         -0.00026   0.00264   0.00260   0.00034   0.00296
 214        4PX        -0.00016  -0.00045  -0.00032  -0.00177   0.00003
 215        4PY        -0.00014  -0.00022  -0.00034  -0.00139  -0.00002
 216        4PZ        -0.00000  -0.00000  -0.00000   0.00000  -0.00000
 217 13  H  1S         -0.00008   0.00039  -0.00002  -0.00026  -0.00231
 218        2S          0.00033  -0.00557  -0.00087   0.00087   0.00002
 219        3S          0.00101   0.00036  -0.00099   0.00253   0.00643
 220        4PX         0.00003   0.00042   0.00008   0.00011   0.00018
 221        4PY        -0.00007  -0.00236  -0.00016  -0.00012  -0.00044
 222        4PZ         0.00000  -0.00000   0.00000  -0.00000   0.00000
 223 14  H  1S         -0.00008  -0.00007  -0.00003  -0.00003  -0.01472
 224        2S          0.00054   0.00037   0.00013   0.00009  -0.00891
 225        3S         -0.00016  -0.00038   0.00019  -0.00001   0.00246
 226        4PX        -0.00005  -0.00001   0.00001   0.00000   0.00199
 227        4PY        -0.00001  -0.00000  -0.00002   0.00002   0.00009
 228        4PZ         0.00000   0.00000   0.00000   0.00000  -0.00000
 229 15  H  1S         -0.00002  -0.00005  -0.00001  -0.00001  -0.03843
 230        2S         -0.00043   0.00061  -0.00008  -0.00015  -0.04356
 231        3S          0.00020   0.00060  -0.00071   0.00037   0.02273
 232        4PX         0.00004   0.00002   0.00007   0.00003   0.00177
 233        4PY         0.00016  -0.00005   0.00004   0.00006   0.01012
 234        4PZ         0.00000   0.00000  -0.00000   0.00000  -0.00000
                          11        12        13        14        15
                           O         O         O         O         O
     Eigenvalues --    -0.89085  -0.85628  -0.75554  -0.74877  -0.64318
   1 1   C  1S         -0.00151  -0.05492   0.01025   0.06674   0.02818
   2        2S         -0.00238  -0.08455   0.01587   0.10332   0.04390
   3        2PX         0.00028   0.02841  -0.01951  -0.00827   0.03639
   4        2PY        -0.00335  -0.00806  -0.04689   0.00404   0.05876
   5        2PZ         0.00000  -0.00000   0.00000  -0.00000  -0.00000
   6        3S          0.00635   0.21802  -0.04179  -0.27195  -0.11798
   7        3PX        -0.00007   0.04212  -0.02838  -0.01314   0.05131
   8        3PY        -0.00509  -0.01234  -0.06892   0.00705   0.08363
   9        3PZ         0.00000  -0.00000   0.00000   0.00000   0.00000
  10        4S         -0.00721   0.10669  -0.01738  -0.14276  -0.08015
  11        4PX        -0.00473   0.01278  -0.00385  -0.00135   0.02233
  12        4PY        -0.00537  -0.00292  -0.01961   0.00261   0.02955
  13        4PZ        -0.00000  -0.00000   0.00000  -0.00000  -0.00000
  14        5S         -0.08128   0.03047   0.17385   0.08989   0.05655
  15        5PX        -0.03233  -0.00952   0.03071   0.01435   0.02724
  16        5PY        -0.07660  -0.00331  -0.01806  -0.05199   0.02299
  17        5PZ         0.00000   0.00000  -0.00000   0.00000   0.00000
  18        6D 0       -0.00033  -0.00969   0.00128   0.00830   0.00230
  19        6D+1       -0.00000  -0.00000  -0.00000  -0.00000  -0.00000
  20        6D-1       -0.00000   0.00000   0.00000  -0.00000  -0.00000
  21        6D+2       -0.00154  -0.00084  -0.00729   0.00432   0.00732
  22        6D-2       -0.00041   0.00142  -0.01019  -0.00319   0.00573
  23 2   C  1S         -0.00678  -0.05260  -0.05742   0.03533   0.04254
  24        2S         -0.01035  -0.08098  -0.08885   0.05465   0.06633
  25        2PX         0.00542   0.02208   0.02895   0.02103   0.04633
  26        2PY        -0.00052   0.01817  -0.01963  -0.03371  -0.02967
  27        2PZ        -0.00000   0.00000  -0.00000   0.00000  -0.00000
  28        3S          0.02624   0.20871   0.23337  -0.14352  -0.17776
  29        3PX         0.00786   0.03239   0.04274   0.03036   0.06513
  30        3PY        -0.00057   0.02730  -0.02802  -0.05039  -0.04288
  31        3PZ         0.00000  -0.00000  -0.00000  -0.00000  -0.00000
  32        4S          0.02442   0.09403   0.11652  -0.08427  -0.12082
  33        4PX         0.00729   0.00583   0.00737   0.00554   0.02220
  34        4PY        -0.00450   0.00827  -0.00733  -0.01570  -0.01144
  35        4PZ        -0.00000   0.00000  -0.00000   0.00000   0.00000
  36        5S          0.02072   0.00630  -0.15315  -0.08003   0.01499
  37        5PX         0.04320   0.00803  -0.02477   0.01455  -0.00756
  38        5PY        -0.05139  -0.03309  -0.03962  -0.04195   0.04168
  39        5PZ        -0.00000  -0.00000   0.00000  -0.00000  -0.00000
  40        6D 0       -0.00122  -0.00931  -0.00730   0.00436   0.00387
  41        6D+1       -0.00000   0.00000  -0.00000   0.00000   0.00000
  42        6D-1        0.00000   0.00000   0.00000   0.00000  -0.00000
  43        6D+2        0.00154  -0.00073   0.00698   0.00993   0.00758
  44        6D-2        0.00067  -0.00145  -0.00634   0.00029   0.00183
  45 3   C  1S          0.00700  -0.05501   0.06370   0.02888  -0.04740
  46        2S          0.01075  -0.08474   0.09857   0.04474  -0.07424
  47        2PX        -0.00851   0.00362  -0.01796   0.04461   0.01161
  48        2PY        -0.00197  -0.03116   0.01060   0.01311   0.00798
  49        2PZ         0.00000  -0.00000   0.00000   0.00000  -0.00000
  50        3S         -0.02826   0.21862  -0.25878  -0.11770   0.19940
  51        3PX        -0.01232   0.00515  -0.02687   0.06412   0.02077
  52        3PY        -0.00309  -0.04461   0.01507   0.01952   0.00983
  53        3PZ        -0.00000   0.00000  -0.00000  -0.00000  -0.00000
  54        4S          0.01223   0.10516  -0.15316  -0.07364   0.13248
  55        4PX        -0.00307   0.00637  -0.01149   0.01974   0.00636
  56        4PY        -0.01341  -0.00908   0.00990   0.00887   0.00113
  57        4PZ         0.00000  -0.00000   0.00000   0.00000   0.00000
  58        5S         -0.02932   0.32038  -0.34243  -0.15644  -0.02235
  59        5PX        -0.11876   0.05942  -0.04409  -0.07022   0.04040
  60        5PY        -0.04578  -0.03418   0.03885  -0.00551   0.03793
  61        5PZ        -0.00000  -0.00000   0.00000  -0.00000  -0.00000
  62        6D 0        0.00083  -0.00965   0.00810   0.00358  -0.00567
  63        6D+1        0.00000  -0.00000   0.00000   0.00000  -0.00000
  64        6D-1       -0.00000   0.00000  -0.00000  -0.00000   0.00000
  65        6D+2       -0.00422   0.00045  -0.00454   0.00241   0.00177
  66        6D-2       -0.00117   0.00033   0.00342  -0.01050  -0.00513
  67 4   C  1S          0.02151  -0.04441   0.04819  -0.04272   0.01691
  68        2S          0.03312  -0.06860   0.07486  -0.06639   0.02659
  69        2PX        -0.02468  -0.03430   0.03381   0.02745  -0.08941
  70        2PY        -0.03608  -0.01011  -0.01425  -0.02698   0.01807
  71        2PZ        -0.00000  -0.00000   0.00000  -0.00000  -0.00000
  72        3S         -0.08615   0.17975  -0.20180   0.18010  -0.07542
  73        3PX        -0.03847  -0.04773   0.04645   0.04163  -0.12518
  74        3PY        -0.05778  -0.01425  -0.02272  -0.03945   0.02300
  75        3PZ         0.00000   0.00000   0.00000   0.00000   0.00000
  76        4S         -0.06148   0.09265  -0.09130   0.08326  -0.00493
  77        4PX         0.01941  -0.01154   0.00670  -0.00677  -0.01521
  78        4PY         0.00519  -0.01011  -0.00914  -0.01664   0.01392
  79        4PZ        -0.00000  -0.00000   0.00000  -0.00000  -0.00000
  80        5S         -0.46182  -0.28485   0.25738  -0.08228   0.31571
  81        5PX        -0.13385   0.15118  -0.16064  -0.09956   0.08313
  82        5PY         0.25256  -0.01663   0.00067   0.12714  -0.13091
  83        5PZ         0.00000   0.00000  -0.00000   0.00000   0.00000
  84        6D 0        0.00456  -0.00772   0.00621  -0.00570   0.00429
  85        6D+1       -0.00000  -0.00000   0.00000  -0.00000  -0.00000
  86        6D-1        0.00000  -0.00000  -0.00000  -0.00000   0.00000
  87        6D+2       -0.01137   0.00051  -0.00580  -0.00822  -0.00508
  88        6D-2       -0.01223  -0.00076   0.00834   0.00088  -0.00178
  89 5   C  1S         -0.04313  -0.03443  -0.00700  -0.05823  -0.00567
  90        2S         -0.06655  -0.05309  -0.01082  -0.09038  -0.00869
  91        2PX         0.03718  -0.04148  -0.03237  -0.01966  -0.05331
  92        2PY        -0.01413   0.00603  -0.04228   0.00953  -0.05950
  93        2PZ         0.00000   0.00000  -0.00000   0.00000   0.00000
  94        3S          0.17274   0.13850   0.02896   0.24306   0.02310
  95        3PX         0.05820  -0.05946  -0.04615  -0.02508  -0.07444
  96        3PY        -0.02389   0.00952  -0.06301   0.01422  -0.08402
  97        3PZ        -0.00000  -0.00000   0.00000  -0.00000  -0.00000
  98        4S          0.08831   0.06469   0.00974   0.12931   0.01484
  99        4PX        -0.01985  -0.00220  -0.00356   0.01215  -0.04551
 100        4PY         0.00971   0.00191  -0.02352   0.01563  -0.05385
 101        4PZ         0.00000   0.00000  -0.00000   0.00000   0.00000
 102        5S          0.53841  -0.25913  -0.28864  -0.02915  -0.18256
 103        5PX         0.05902   0.18891   0.14812   0.14479  -0.00717
 104        5PY         0.22940   0.15796   0.08311   0.16614  -0.15411
 105        5PZ        -0.00000  -0.00000   0.00000  -0.00000  -0.00000
 106        6D 0       -0.00953  -0.00563  -0.00037  -0.00717   0.00164
 107        6D+1       -0.00000   0.00000   0.00000   0.00000   0.00000
 108        6D-1        0.00000   0.00000   0.00000   0.00000   0.00000
 109        6D+2        0.01749  -0.00304   0.00488  -0.00680   0.00312
 110        6D-2        0.00115  -0.00050   0.00953   0.00186  -0.00041
 111 6   C  1S         -0.01700  -0.04836  -0.06772  -0.02780  -0.04221
 112        2S         -0.02600  -0.07451  -0.10482  -0.04307  -0.06606
 113        2PX         0.00944  -0.00882  -0.02235   0.03769   0.03996
 114        2PY         0.00761   0.02794   0.01178   0.01188  -0.00021
 115        2PZ         0.00000  -0.00000  -0.00000  -0.00000  -0.00000
 116        3S          0.06684   0.19180   0.27524   0.11302   0.17745
 117        3PX         0.01271  -0.01232  -0.03143   0.05621   0.05826
 118        3PY         0.00940   0.04087   0.01799   0.01826   0.00070
 119        3PZ        -0.00000   0.00000   0.00000   0.00000   0.00000
 120        4S          0.01213   0.10320   0.15771   0.08305   0.09243
 121        4PX         0.01288  -0.00278  -0.01389   0.01948   0.00635
 122        4PY        -0.00586   0.01633   0.01051   0.01426  -0.00109
 123        4PZ         0.00000  -0.00000   0.00000  -0.00000  -0.00000
 124        5S          0.03171   0.43330   0.35103   0.32307  -0.12166
 125        5PX         0.08434   0.10073   0.05528   0.08471  -0.06722
 126        5PY        -0.00037   0.06988   0.04765   0.04832  -0.02298
 127        5PZ         0.00000   0.00000  -0.00000   0.00000   0.00000
 128        6D 0       -0.00248  -0.00871  -0.00863  -0.00369  -0.00480
 129        6D+1        0.00000   0.00000   0.00000   0.00000   0.00000
 130        6D-1        0.00000  -0.00000   0.00000  -0.00000  -0.00000
 131        6D+2        0.00409  -0.00013   0.00441  -0.00210  -0.00061
 132        6D-2        0.00127  -0.00037  -0.00288   0.01067   0.00750
 133 7   N  1S          0.07458   0.01094  -0.02221   0.00269   0.00035
 134        2S          0.11761   0.01735  -0.03528   0.00426   0.00057
 135        2PX         0.00781  -0.02674   0.04710  -0.05918   0.08217
 136        2PY        -0.01436   0.00665   0.01007  -0.00123   0.05438
 137        2PZ        -0.00000   0.00000   0.00000   0.00000   0.00000
 138        3S         -0.32743  -0.04921   0.10041  -0.01364  -0.00038
 139        3PX         0.01247  -0.03900   0.06900  -0.08875   0.12147
 140        3PY        -0.02105   0.01039   0.01356  -0.00183   0.07818
 141        3PZ        -0.00000  -0.00000   0.00000  -0.00000  -0.00000
 142        4S         -0.24536  -0.03071   0.08248   0.00808  -0.02431
 143        4PX         0.00939  -0.02046   0.03913  -0.04692   0.07661
 144        4PY        -0.01211   0.00861   0.00613  -0.00822   0.06419
 145        4PZ         0.00000   0.00000  -0.00000   0.00000   0.00000
 146        5S          0.05867  -0.03337   0.02750   0.01058  -0.03681
 147        5PX        -0.01130   0.01856  -0.00777   0.01217  -0.00172
 148        5PY        -0.05440  -0.00621   0.02458  -0.02033   0.02400
 149        5PZ        -0.00000  -0.00000   0.00000  -0.00000  -0.00000
 150        6D 0        0.00655   0.00111  -0.00128  -0.00065   0.00112
 151        6D+1       -0.00000  -0.00000   0.00000  -0.00000  -0.00000
 152        6D-1       -0.00000  -0.00000   0.00000  -0.00000   0.00000
 153        6D+2       -0.00214   0.00265  -0.00350   0.00240  -0.00024
 154        6D-2       -0.00201   0.00361  -0.00327   0.00926  -0.00867
 155 8   C  1S         -0.01703   0.02965  -0.01374   0.05090  -0.03630
 156        2S         -0.02615   0.04574  -0.02136   0.07896  -0.05665
 157        2PX        -0.00581   0.01195   0.00117  -0.00385   0.05123
 158        2PY        -0.08048   0.00726   0.03527   0.01023   0.01991
 159        2PZ        -0.00000   0.00000   0.00000  -0.00000   0.00000
[...]
 GradGradGradGradGradGradGradGradGradGradGradGradGradGradGradGradGradGrad

 Leave Link  103 at Fri Jun  2 11:46:10 2023, MaxMem=  7381975040 cpu:               2.1 elap:               2.3
 (Enter /software/commercial/gaussian/g16/AVX/g16/l9999.exe)

 ----------------------------------------------------------------------

 Electric dipole moment (input orientation):
 (Debye = 10**-18 statcoulomb cm , SI units = C m)
                  (au)            (Debye)         (10**-30 SI)
   Tot        0.193235D+01      0.491155D+01      0.163832D+02
   x          0.707218D-01      0.179757D+00      0.599604D+00
   y          0.193106D+01      0.490826D+01      0.163722D+02
   z          0.000000D+00      0.000000D+00      0.000000D+00

 Dipole polarizability, Alpha (input orientation).
 (esu units = cm**3 , SI units = C**2 m**2 J**-1)
 Alpha(0;0):
               (au)            (10**-24 esu)      (10**-40 SI)
   iso        0.125873D+03      0.186525D+02      0.207537D+02
   aniso      0.911268D+02      0.135036D+02      0.150248D+02
   xx         0.172537D+03      0.255673D+02      0.284475D+02
   yx         0.579378D+01      0.858550D+00      0.955266D+00
   yy         0.135728D+03      0.201129D+02      0.223786D+02
   zx         0.000000D+00      0.000000D+00      0.000000D+00
   zy         0.000000D+00      0.000000D+00      0.000000D+00
   zz         0.693549D+02      0.102773D+02      0.114351D+02

 First dipole hyperpolarizability, Beta (input orientation).
 ||, _|_  parallel and perpendicular components, (z) with respect to z axis,
 vector components x,y,z.  Values do not include the 1/n! factor of 1/2.
 (esu units = statvolt**-1 cm**4 , SI units = C**3 m**3 J**-2)
 Beta(0;0,0):
               (au)            (10**-30 esu)      (10**-50 SI)
   || (z)     0.000000D+00      0.000000D+00      0.000000D+00
   _|_(z)     0.000000D+00      0.000000D+00      0.000000D+00
   x         -0.651970D+03     -0.563251D+01     -0.209045D+01
   y         -0.661749D+03     -0.571700D+01     -0.212181D+01
   z          0.000000D+00      0.000000D+00      0.000000D+00
   ||         0.185793D+03      0.160511D+01      0.595720D+00
   xxx       -0.788861D+02     -0.681514D+00     -0.252937D+00
   xxy       -0.612575D+02     -0.529217D+00     -0.196414D+00
   yxy       -0.235189D+02     -0.203185D+00     -0.754102D-01
   yyy       -0.111105D+03     -0.959862D+00     -0.356243D+00
   xxz        0.000000D+00      0.000000D+00      0.000000D+00
   yxz        0.000000D+00      0.000000D+00      0.000000D+00
   yyz        0.000000D+00      0.000000D+00      0.000000D+00
   zxz       -0.114918D+03     -0.992804D+00     -0.368469D+00
   zyz       -0.482205D+02     -0.416587D+00     -0.154612D+00
   zzz        0.000000D+00      0.000000D+00      0.000000D+00

 ----------------------------------------------------------------------

 Dipole orientation:
     6        -12.34338388          0.45205617         -0.47044339
     6        -11.83013306          0.43325920         -3.08343635
     6        -10.41232044          0.38133414          1.31089891
     6         -7.94695387          0.29104414          0.38364141
     6         -7.39755933          0.27092346         -2.23393272
     6         -9.36866352          0.34311192         -3.99433604
     7         -5.60979325          0.20544947          1.55001669
     6         -3.82311705          0.14001538         -0.31992363
     7         -4.79427783          0.17558255         -2.60205126
     1        -10.80965961          0.39588603          3.31859279
     1        -14.28846055          0.52329140          0.16531670
     1        -13.39361085          0.49051900         -4.40449233
     1         -8.97333460          0.32863364         -6.00331216
     1         -1.83119163          0.06706439          0.11689116
     1         -5.26531907          0.19283366          3.42486933

 Electric dipole moment (dipole orientation):
 (Debye = 10**-18 statcoulomb cm , SI units = C m)
                  (au)            (Debye)         (10**-30 SI)
   Tot        0.193235D+01      0.491155D+01      0.163832D+02
   x          0.000000D+00      0.000000D+00      0.000000D+00
   y          0.000000D+00      0.000000D+00      0.000000D+00
   z          0.193235D+01      0.491155D+01      0.163832D+02

 Dipole polarizability, Alpha (dipole orientation).
 (esu units = cm**3 , SI units = C**2 m**2 J**-1)
 Alpha(0;0):
               (au)            (10**-24 esu)      (10**-40 SI)
   iso        0.125873D+03      0.186525D+02      0.207537D+02
   aniso      0.911268D+02      0.135036D+02      0.150248D+02
   xx         0.171926D+03      0.254768D+02      0.283468D+02
   yx        -0.375650D+01     -0.556656D+00     -0.619363D+00
   yy         0.694925D+02      0.102977D+02      0.114578D+02
   zx         0.711973D+01      0.105504D+01      0.117389D+01
   zy        -0.260749D+00     -0.386390D-01     -0.429916D-01
   zz         0.136201D+03      0.201830D+02      0.224566D+02

 First dipole hyperpolarizability, Beta (dipole orientation).
 ||, _|_  parallel and perpendicular components, (z) with respect to z axis,
 vector components x,y,z.  Values do not include the 1/n! factor of 1/2.
 (esu units = statvolt**-1 cm**4 , SI units = C**3 m**3 J**-2)
 Beta(0;0,0):
               (au)            (10**-30 esu)      (10**-50 SI)
   || (z)    -0.137033D+03     -0.118386D+01     -0.439379D+00
   _|_(z)    -0.456778D+02     -0.394621D+00     -0.146460D+00
   x         -0.626893D+03     -0.541587D+01     -0.201005D+01
   y          0.229589D+02      0.198347D+00      0.736147D-01
   z         -0.685167D+03     -0.591931D+01     -0.219689D+01
   ||         0.185793D+03      0.160511D+01      0.595720D+00
   xxx       -0.724090D+02     -0.625558D+00     -0.232170D+00
   xxy       -0.562506D+01     -0.485962D-01     -0.180360D-01
   yxy       -0.112643D+03     -0.973148D+00     -0.361174D+00
   yyy        0.124023D+02      0.107146D+00      0.397662D-01
   xxz       -0.622711D+02     -0.537974D+00     -0.199664D+00
   yxz        0.361731D+00      0.312507D-02      0.115984D-02
   yyz       -0.524073D+02     -0.452758D+00     -0.168037D+00
   zxz       -0.239123D+02     -0.206584D+00     -0.766715D-01
   zyz        0.875749D+00      0.756579D-02      0.280797D-02
   zzz       -0.113711D+03     -0.982371D+00     -0.364597D+00

 ----------------------------------------------------------------------
 Unable to Open any file for archive entry.
 1\1\GINC-NODE1795\Freq\RB3LYP\6-311+G(d,p)\C7H6N2\SVICCHI\02-Jun-2023\
 0\\#p freq=raman scale=0.967 pop=(nbo,full,hirshfeld) guess=read geom=
 allcheck b3lyp/6-311+G(d,p) int=grid=ultrafine EmpiricalDispersion=GD3
 BJ SCRF=(Solvent=ethanol) scf=(xqc,intrep,maxconventionalcycle=350) no
 symm\\benzim-H_dissociation-site_index-6.gjf\\0,1\C,-6.5409486576,-0.0
 095633154,0.\C,-6.31995454,-1.4013201874,0.\C,-5.4845741646,0.89502641
 57,0.\C,-4.1979167992,0.3568922041,0.\C,-3.9578849774,-1.0379877714,0.
 \C,-5.0350425845,-1.930728492,0.\N,-2.9385551655,0.9284031616,0.\C,-2.
 0293024641,-0.0950899209,0.\N,-2.5874171818,-1.2831094433,0.\H,-5.6559
 534683,1.9644410081,0.\H,-7.5579259694,0.364337106,0.\H,-7.1728965943,
 -2.0696239729,0.\H,-4.864751899,-3.0007822037,0.\H,-0.9667610197,0.097
 3036439,0.\H,-2.7199565147,1.9131917677,0.\\Version=ES64L-G16RevC.01\H
 F=-380.0060974\RMSD=6.062e-09\RMSF=5.019e-05\ZeroPoint=0.1141951\Therm
 al=0.1204183\ETot=-379.8856791\HTot=-379.8847349\GTot=-379.9221652\Dip
 ole=0.0707218,1.9310568,0.\DipoleDeriv=-0.11846,-0.0019033,0.,-0.18240
 52,0.0819151,0.,0.,0.,-0.2063202,-0.1694372,0.0278005,0.,0.1887457,0.0
 112745,0.,0.,0.,-0.2198568,0.1549968,-0.1172666,0.,0.0166085,0.0302764
 ,0.,0.,0.,-0.1905802,0.4572707,0.2666736,0.,0.6192741,0.0659527,0.,0.,
 0.,0.0907133,0.5845712,0.0505392,0.,-0.2919233,-0.08822,0.,0.,0.,0.027
 0786,0.1945727,0.0313559,0.,0.0139228,0.1211115,0.,0.,0.,-0.1775017,-0
 .6707421,0.1575308,0.,-0.2342153,-0.9247333,0.,0.,0.,-0.299067,0.06764
 31,-0.2097585,0.,-0.2209448,1.2481974,0.,0.,0.,0.0565158,-0.7423481,-0
 .2424927,0.,0.040388,-0.8337912,0.,0.,0.,-0.400592,0.0828162,0.0158998
 ,0.,0.0386943,-0.0968634,0.,0.,0.,0.1930159,-0.1125763,0.0772974,0.,0.
 0730207,0.0661222,0.,0.,0.,0.1828839,-0.0591047,-0.1147366,0.,-0.11684
 34,0.0019521,0.,0.,0.,0.1849476,0.0947582,0.0450486,0.,0.0185496,-0.10
 47633,0.,0.,0.,0.182967,0.0102222,-0.0363736,0.,-0.0284982,0.0955626,0
 .,0.,0.,0.1729125,0.2258172,0.0503856,0.,0.0656265,0.3260067,0.,0.,0.,
 0.4028833\Polar=172.5367693,5.7937849,135.7282927,0.,0.,69.354931\Pola
 rDeriv=-8.4593828,1.2618481,-7.3164138,0.,0.,-5.0009804,8.4580868,0.57
 32922,-13.8641328,0.,0.,1.5607212,0.,0.,0.,-8.7361152,1.5286126,0.,1.4
 304411,-2.1697616,-12.4123988,0.,0.,-4.5274048,-12.7137376,-1.3830761,
 11.2713957,0.,0.,-2.9914667,0.,0.,0.,-7.1945761,-3.7806999,0.,10.52071
 89,1.3454802,7.5166715,0.,0.,0.6233724,4.1037983,-1.234943,5.4100584,0
 .,0.,4.7486063,0.0000001,0.,-0.0000001,-1.3229814,7.3273461,0.,1.60329
 12,2.1804834,2.0483706,0.,0.,3.2347452,38.2868948,5.2769862,1.8081155,
 0.,0.,1.5429204,-0.0000002,0.,0.0000002,0.8406281,2.8221772,0.,32.1603
 058,-0.5737188,-0.7245664,0.,0.,2.4087718,-33.0312748,-2.7963837,-3.36
 32627,0.,0.,-0.8349288,0.0000002,0.,-0.0000001,2.3318385,-2.2412984,0.
 ,-1.4825856,1.6132021,9.681453,0.,0.,2.421324,-4.2159115,-1.0767758,-3
 .0668622,0.,0.,-4.3243722,0.,0.,0.0000001,0.1340059,-7.5914884,0.,-19.
 6460341,-3.6838577,-1.07366,0.,0.,-1.2132271,-4.4313124,3.2209124,-4.1
 418271,0.,0.,0.8259652,0.,0.,0.,1.335003,2.7975217,0.,25.1784971,1.954
 5306,5.8274432,0.,0.,3.1446032,17.1798098,-2.6517869,2.4922895,0.,0.,2
 .2290925,0.,0.,0.,8.8809834,2.0559468,0.,-32.6076317,-6.1635306,-0.630
 787,0.,0.,-1.216044,-20.4445593,4.5645507,-7.7936629,0.,0.,-3.8581956,
 0.,0.,0.,1.9838811,-3.4616269,0.,-1.1368978,2.5397369,-2.3734647,0.,0.
 ,-0.1820968,2.1915565,-3.4535069,16.6568168,0.,0.,0.8468104,0.,0.,0.,0
 .1813658,-0.495429,0.,-16.6849049,4.3590863,-2.4656141,0.,0.,-0.586843
 9,4.9610762,-3.3791195,1.667459,0.,0.,0.2246306,0.,0.,0.,0.928537,0.11
 72099,0.,-11.3376931,-6.217885,-4.7876766,0.,0.,-0.4676263,-6.2777661,
 -5.6204449,-5.506918,0.,0.,-0.390379,0.,0.,0.,0.882542,0.2125301,0.,0.
 7373095,-1.9429583,2.4649261,0.,0.,0.1382012,-1.1734366,0.976215,-17.2
 168119,0.,0.,-0.8587445,0.,0.,0.,0.140402,0.3667133,0.,17.7327946,2.99
 66437,1.6270863,0.,0.,0.9661531,2.4981085,2.7903675,1.2714419,0.,0.,0.
 0979036,0.,0.,0.,-0.3942663,-0.1285708,0.,1.9917719,2.5007007,2.618630
 7,0.,0.,0.2570522,4.6086672,4.1937127,14.3759007,0.,0.,1.1814366,0.,0.
 ,0.,0.0087521,0.4710558,0.\HyperPolar=-78.8860697,-61.2574636,-23.5189
 186,-111.10511,-0.0000004,0.,0.,-114.9182145,-48.2204844,0.\Quadrupole
 =2.7835664,1.643728,-4.4272944,-8.6301309,0.,0.\PG=CS [SG(C7H6N2)]\NIm
 ag=0\\0.72879393,-0.01431215,0.63918917,0.,0.,0.13196405,-0.12835029,-
 0.00419888,0.,0.71328442,0.05693038,-0.29200345,0.,0.03785862,0.655085
 17,0.,0.,-0.06299567,0.,0.,0.13136168,-0.24754803,-0.07956979,0.,0.039
 85015,-0.06015025,0.,0.64679140,-0.13653776,-0.21868394,0.,-0.01661481
 ,-0.04202197,0.,-0.01208798,0.74759157,0.,0.,-0.05847281,0.,0.,0.00669
 724,0.,0.,0.12404635,-0.06450784,-0.04279942,0.,-0.02217808,0.03690454
 ,0.,-0.27983153,0.11108079,0.,0.80375259,-0.00407863,0.05241895,0.,0.0
 2438504,-0.03359053,0.,0.06664656,-0.16847664,0.,-0.07785246,0.6180446
 7,0.,0.,0.00403423,0.,0.,-0.00343609,0.,0.,-0.05306147,0.,0.,0.1415474
 6,-0.00626182,-0.02901346,0.,-0.06550511,0.00742647,0.,0.01748987,0.03
 134357,0.,-0.11389107,0.04446846,0.,0.70230821,-0.01503367,-0.04856025
 ,0.,-0.03132461,0.05302479,0.,0.06393765,-0.00256835,0.,-0.00400922,-0
 .25150402,0.,0.11866292,0.67665324,0.,0.,-0.00375811,0.,0.,0.00440757,
 0.,0.,0.00260616,0.,0.,-0.07975690,0.,0.,0.15695674,0.01021115,0.07813
 768,0.,-0.31140473,0.04865874,0.,-0.05472824,-0.01204380,0.,0.04362461
 ,-0.04838340,0.,-0.21424694,-0.08365417,0.,0.65661991,0.03378511,-0.01
 211907,0.,0.10581281,-0.15840087,0.,-0.00484718,-0.00110882,0.,-0.0189
 2583,-0.03307167,0.,-0.11899994,-0.22510004,0.,-0.02185708,0.74119635,
 0.,0.,0.00618997,0.,0.,-0.05965187,0.,0.,-0.00043576,0.,0.,0.00240782,
 0.,0.,-0.05672222,0.,0.,0.12986609,0.00639710,0.01144223,0.,-0.0023206
 1,-0.00858859,0.,-0.04197641,-0.02073843,0.,-0.24047894,-0.06401184,0.
 ,-0.01295868,-0.04904694,0.,0.00013782,0.00223314,0.,0.60064976,0.0066
 4114,0.00570704,0.,0.00516413,-0.00618664,0.,0.00149010,0.01922596,0.,
 -0.05512009,-0.16190948,0.,-0.00867285,-0.05676540,0.,-0.00469575,-0.0
 0659186,0.,0.07193006,0.94844933,0.,0.,0.00572379,0.,0.,-0.00115823,0.
 ,0.,-0.00160633,0.,0.,-0.05039015,0.,0.,0.00831286,0.,0.,0.00235926,0.
 ,0.,0.07256071,-0.00625909,-0.00646668,0.,-0.00504877,0.00608751,0.,0.
 00843147,-0.00507005,0.,-0.09860452,0.00787281,0.,-0.08586699,-0.04204
 792,0.,0.00210412,0.00692179,0.,-0.20873519,0.09033338,0.,0.88283129,0
 .00201852,-0.00784234,0.,-0.01121571,0.00506630,0.,-0.00345164,-0.0052
 2661,0.,0.03988814,0.01635876,0.,-0.07852698,-0.01500696,0.,0.02000954
 ,0.00470713,0.,0.08180946,-0.20346759,0.,0.10898393,0.63838227,0.,0.,0
 .00084257,0.,0.,0.00054559,0.,0.,0.00234817,0.,0.,0.01185779,0.,0.,0.0
 0890831,0.,0.,0.00476462,0.,0.,-0.05595993,0.,0.,0.14433206,-0.0000616
 9,0.01408108,0.,0.01509515,-0.01524049,0.,-0.00491579,0.00360520,0.,-0
 .03083159,0.05051163,0.,-0.21721634,0.06776250,0.,-0.05021551,-0.00452
 679,0.,0.00359228,-0.01740987,0.,-0.16324090,-0.13225729,0.,0.45647801
 ,-0.00227624,0.00182764,0.,0.00057072,-0.00477822,0.,0.00020618,-0.005
 41570,0.,0.01588028,-0.02252513,0.,0.02675330,-0.11090237,0.,-0.028154
 93,0.01492974,0.,0.02988250,-0.10573860,0.,-0.10865622,-0.35317306,0.,
 0.05920668,0.58482626,0.,0.,-0.00157432,0.,0.,0.00607272,0.,0.,0.00344
 940,0.,0.,0.01400711,0.,0.,-0.06820938,0.,0.,-0.00332470,0.,0.,0.02435
 251,0.,0.,-0.07438376,0.,0.,0.09799049,0.00884652,-0.02430500,0.,-0.00
 322948,-0.00271863,0.,-0.06643480,0.04556423,0.,0.00042570,0.02999787,
 0.,-0.00394474,-0.00041332,0.,-0.00125056,-0.00024258,0.,0.00281380,-0
 .00123874,0.,0.00016947,0.00095225,0.,-0.00156349,0.00169023,0.,0.0636
 7076,0.00570233,-0.01434300,0.,-0.00366786,0.00022514,0.,0.04508157,-0
 .33101396,0.,-0.00082051,-0.00720146,0.,0.00083504,0.00199610,0.,0.000
 11335,0.00035938,0.,-0.00017846,0.00100851,0.,0.00047626,-0.00039328,0
 .,0.00047829,-0.00034288,0.,-0.04897354,0.34971657,0.,0.,0.00303581,0.
 ,0.,0.00751106,0.,0.,-0.03395135,0.,0.,0.00354611,0.,0.,0.00634602,0.,
 0.,-0.00105080,0.,0.,-0.00290387,0.,0.,-0.00046621,0.,0.,-0.00002646,0
 .,0.,0.02325773,-0.30363069,0.09015045,0.,-0.00079382,-0.00094197,0.,-
 0.01794929,0.00994960,0.,-0.00120429,-0.00363158,0.,0.00031375,-0.0005
 3680,0.,0.00168998,0.00058763,0.,-0.00112494,0.00094467,0.,-0.00030260
 ,-0.00078468,0.,0.00004504,0.00033980,0.,0.00102915,-0.00004435,0.,0.3
 2139002,0.09068675,-0.09125768,0.,0.02992748,-0.00638883,0.,-0.0205628
 8,0.00990008,0.,-0.00337727,-0.00239913,0.,-0.00097870,-0.00090162,0.,
 -0.00014103,-0.00538820,0.,-0.00085318,0.00102614,0.,-0.00020479,-0.00
 046379,0.,0.00033305,0.00032676,0.,0.00065731,0.00095130,0.,-0.0964272
 6,0.09374072,0.,0.,-0.03481739,0.,0.,0.00254645,0.,0.,0.00310846,0.,0.
 ,0.00676235,0.,0.,-0.00091918,0.,0.,0.00586509,0.,0.,0.00126707,0.,0.,
 -0.00036739,0.,0.,-0.00012672,0.,0.,-0.00464192,0.,0.,0.02501707,0.007
 10433,0.00545537,0.,-0.23038129,-0.13517441,0.,0.00115295,0.00149764,0
 .,-0.00023035,0.00074408,0.,-0.00300129,0.00386089,0.,-0.01869811,-0.0
 1957965,0.,0.00021272,-0.00034906,0.,-0.00072741,0.00039905,0.,-0.0008
 3162,-0.00140901,0.,0.00019663,0.00027789,0.,0.00074930,-0.00042849,0.
 ,0.24328257,-0.02562176,-0.01470180,0.,-0.13542949,-0.16392538,0.,0.00
 224770,-0.00486624,0.,0.00117271,-0.00025955,0.,0.00288505,-0.00034076
 ,0.,0.01142283,0.01067768,0.,-0.00020660,0.00006731,0.,0.00011426,0.00
 004065,0.,0.00018851,0.00051783,0.,-0.00119912,-0.00081875,0.,0.000298
 98,0.00116992,0.,0.14465791,0.17155348,0.,0.,0.00222935,0.,0.,-0.03445
 553,0.,0.,0.00564603,0.,0.,-0.00067545,0.,0.,0.00734435,0.,0.,0.002851
 37,0.,0.,-0.00017274,0.,0.,-0.00065582,0.,0.,0.00117870,0.,0.,0.000316
 45,0.,0.,-0.00364152,0.,0.,0.02498324,-0.00478691,0.00108804,0.,0.0009
 2323,0.02918084,0.,-0.00103567,-0.00019869,0.,-0.00330997,-0.00203364,
 0.,0.00895385,-0.02441243,0.,-0.06478530,0.04095693,0.,-0.00008399,-0.
 00163208,0.,0.00042031,-0.00016825,0.,0.00172614,0.00173713,0.,0.00016
 700,0.00003587,0.,-0.00015945,0.00139025,0.,0.00122083,-0.00057287,0.,
 0.06118781,0.00195578,0.00179956,0.,-0.00077565,-0.00644211,0.,-0.0006
 0648,0.00022978,0.,-0.00264084,0.00018346,0.,0.00636514,-0.01569134,0.
 ,0.04109420,-0.33114237,0.,0.00006302,-0.00107157,0.,-0.00016178,-0.00
 021752,0.,0.00021748,0.00145990,0.,0.00006074,-0.00012140,0.,-0.000072
 81,-0.00043915,0.,0.00017420,0.00078838,0.,-0.04537107,0.35054651,0.,0
 .,0.00783046,0.,0.,0.00323121,0.,0.,-0.00113481,0.,0.,0.00640377,0.,0.
 ,0.00391755,0.,0.,-0.03524207,0.,0.,-0.00022772,0.,0.,-0.00046153,0.,0
 .,-0.00324800,0.,0.,-0.00117913,0.,0.,0.00022037,0.,0.,-0.00469581,0.,
 0.,0.02417133,0.00001833,0.00055426,0.,0.00016188,-0.00046234,0.,-0.00
 065786,-0.00058450,0.,0.00119269,0.00285417,0.,0.00146563,-0.00147520,
 0.,-0.00048819,0.00008535,0.,-0.01368641,-0.00506838,0.,-0.34210924,-0
 .04531883,0.,-0.00553884,-0.00358810,0.,-0.00000643,0.00002559,0.,-0.0
 0005625,-0.00004032,0.,-0.00003080,0.00000537,0.,-0.00002692,-0.000042
 28,0.,0.36000609,0.00023919,-0.00053080,0.,-0.00038846,-0.00033696,0.,
 0.00095743,0.00142399,0.,0.00126910,-0.00503548,0.,-0.00209313,-0.0047
 7446,0.,-0.00101395,0.00126711,0.,0.02805389,0.00802618,0.,-0.04947484
 ,-0.06638423,0.,-0.02972405,-0.00138006,0.,-0.00007767,0.00000448,0.,0
 .00009433,0.00010462,0.,-0.00015454,0.00007795,0.,0.00005925,-0.000031
 28,0.,0.05279823,0.06719909,0.,0.,-0.00018460,0.,0.,-0.00042120,0.,0.,
 0.00174475,0.,0.,0.00290456,0.,0.,0.00787121,0.,0.,0.00113921,0.,0.,0.
 00125994,0.,0.,-0.03317906,0.,0.,-0.00268791,0.,0.,0.00019613,0.,0.,-0
 .00038683,0.,0.,-0.00026316,0.,0.,0.00022708,0.,0.,0.02332905,0.000034
 99,-0.00024375,0.,-0.00010265,0.00022959,0.,0.00136176,0.00083499,0.,0
 .00607258,-0.02748910,0.,-0.00763834,-0.00226969,0.,0.00142998,-0.0014
 0371,0.,-0.09243831,-0.08231666,0.,0.01693804,0.01766250,0.,-0.0025208
 5,0.00781768,0.,-0.00088954,0.00065854,0.,0.00000407,0.00001908,0.,-0.
 00001846,0.00003654,0.,-0.00041098,-0.00025965,0.,-0.00024367,-0.00054
 479,0.,0.07842140,-0.00009898,-0.00090005,0.,-0.00010333,0.00067355,0.
 ,0.00070900,0.00101086,0.,-0.00064992,-0.00103274,0.,-0.00045490,0.000
 44143,0.,0.00050779,-0.00021447,0.,-0.08179026,-0.44177931,0.,-0.00870
 766,-0.01237972,0.,0.00277406,0.00036790,0.,0.00024596,-0.00002676,0.,
 0.00007399,0.00001885,0.,0.00002813,0.00001928,0.,-0.00005928,0.000149
 14,0.,0.00025697,0.00036986,0.,0.08726844,0.45328219,0.,0.,-0.00004733
 ,0.,0.,-0.00025494,0.,0.,-0.00098404,0.,0.,-0.00615115,0.,0.,0.0026950
 1,0.,0.,0.00098399,0.,0.,-0.00341717,0.,0.,-0.00812542,0.,0.,0.0065303
 0,0.,0.,0.00001042,0.,0.,0.00011408,0.,0.,0.00001053,0.,0.,0.00018730,
 0.,0.,-0.00154919,0.,0.,0.00999761\\-0.00000061,-0.00000347,0.,0.00000
 357,-0.00000549,0.,-0.00000272,-0.00000959,0.,0.00000248,0.00000545,0.
 ,0.00003373,-0.00000257,0.,0.00000391,0.00001577,0.,0.00008535,-0.0000
 7565,0.,-0.00022721,-0.00006725,0.,0.00009105,0.00018253,0.,-0.0000127
 4,0.00000769,0.,-0.00000283,-0.00000464,0.,0.00000342,-0.00000423,0.,0
 .00001119,-0.00001399,0.,0.00000785,-0.00001302,0.,0.00000357,-0.00001
 155,0.\\\@
 The archive entry for this job was punched.


 DON'T WORRY CHARLIE BROWN...WE LEARN MORE FROM LOSING 
 THAN WE DO FROM WINNING.
 THEN THAT MAKES ME THE SMARTEST PERSON IN THE WORLD...
 CHARLES SCHULZ 'PEANUTS'
 Job cpu time:       0 days  0 hours 33 minutes 25.4 seconds.
 Elapsed time:       0 days  0 hours 17 minutes 30.4 seconds.
 File lengths (MBytes):  RWF=    125 Int=      0 D2E=      0 Chk=     19 Scr=      1
 Normal termination of Gaussian 16 at Fri Jun  2 11:46:13 2023.
