 Entering Gaussian System, Link 0=g16
 Input=2CNPyr-H_dissociation-site_index-3-freq.gjf
 Output=2CNPyr-H_dissociation-site_index-3-freq.log
 Initial command:
 /software/commercial/gaussian/g16/AVX/g16/l1.exe "/scratch1/svicchi/G09-659802.pbs02/Gau-2049548.inp" -scrdir="/scratch1/svicchi/G09-659802.pbs02/"
 Entering Link 1 = /software/commercial/gaussian/g16/AVX/g16/l1.exe PID=   2049549.
  
 Copyright (c) 1988-2019, Gaussian, Inc.  All Rights Reserved.
  
 This is part of the Gaussian(R) 16 program.  It is based on
 the Gaussian(R) 09 system (copyright 2009, Gaussian, Inc.),
 the Gaussian(R) 03 system (copyright 2003, Gaussian, Inc.),
 the Gaussian(R) 98 system (copyright 1998, Gaussian, Inc.),
 the Gaussian(R) 94 system (copyright 1995, Gaussian, Inc.),
 the Gaussian 92(TM) system (copyright 1992, Gaussian, Inc.),
 the Gaussian 90(TM) system (copyright 1990, Gaussian, Inc.),
 the Gaussian 88(TM) system (copyright 1988, Gaussian, Inc.),
 the Gaussian 86(TM) system (copyright 1986, Carnegie Mellon
 University), and the Gaussian 82(TM) system (copyright 1983,
 Carnegie Mellon University). Gaussian is a federally registered
 trademark of Gaussian, Inc.
  
 This software contains proprietary and confidential information,
 including trade secrets, belonging to Gaussian, Inc.
  
 This software is provided under written license and may be
 used, copied, transmitted, or stored only in accord with that
 written license.
  
 The following legend is applicable only to US Government
 contracts under FAR:
  
                    RESTRICTED RIGHTS LEGEND
  
 Use, reproduction and disclosure by the US Government is
 subject to restrictions as set forth in subparagraphs (a)
 and (c) of the Commercial Computer Software - Restricted
 Rights clause in FAR 52.227-19.
  
 Gaussian, Inc.
 340 Quinnipiac St., Bldg. 40, Wallingford CT 06492
  
  
 ---------------------------------------------------------------
 Warning -- This program may not be used in any manner that
 competes with the business of Gaussian, Inc. or will provide
 assistance to any competitor of Gaussian, Inc.  The licensee
 of this program is prohibited from giving any competitor of
 Gaussian, Inc. access to this program.  By using this program,
 the user acknowledges that Gaussian, Inc. is engaged in the
 business of creating and licensing software in the field of
 computational chemistry and represents and warrants to the
 licensee that it is not a competitor of Gaussian, Inc. and that
 it will not use this program in any manner prohibited above.
 ---------------------------------------------------------------
  

 Cite this work as:
 Gaussian 16, Revision C.01,
 M. J. Frisch, G. W. Trucks, H. B. Schlegel, G. E. Scuseria, 
 M. A. Robb, J. R. Cheeseman, G. Scalmani, V. Barone, 
 G. A. Petersson, H. Nakatsuji, X. Li, M. Caricato, A. V. Marenich, 
 J. Bloino, B. G. Janesko, R. Gomperts, B. Mennucci, H. P. Hratchian, 
 J. V. Ortiz, A. F. Izmaylov, J. L. Sonnenberg, D. Williams-Young, 
 F. Ding, F. Lipparini, F. Egidi, J. Goings, B. Peng, A. Petrone, 
 T. Henderson, D. Ranasinghe, V. G. Zakrzewski, J. Gao, N. Rega, 
 G. Zheng, W. Liang, M. Hada, M. Ehara, K. Toyota, R. Fukuda, 
 J. Hasegawa, M. Ishida, T. Nakajima, Y. Honda, O. Kitao, H. Nakai, 
 T. Vreven, K. Throssell, J. A. Montgomery, Jr., J. E. Peralta, 
 F. Ogliaro, M. J. Bearpark, J. J. Heyd, E. N. Brothers, K. N. Kudin, 
 V. N. Staroverov, T. A. Keith, R. Kobayashi, J. Normand, 
 K. Raghavachari, A. P. Rendell, J. C. Burant, S. S. Iyengar, 
 J. Tomasi, M. Cossi, J. M. Millam, M. Klene, C. Adamo, R. Cammi, 
 J. W. Ochterski, R. L. Martin, K. Morokuma, O. Farkas, 
 J. B. Foresman, and D. J. Fox, Gaussian, Inc., Wallingford CT, 2019.
 
 ******************************************
 Gaussian 16:  ES64L-G16RevC.01  3-Jul-2019
                 2-Jun-2023 
 ******************************************
 %NProcShared=2
 Will use up to    2 processors via shared memory.
 %mem=55gb
 %chk=/scratch1/svicchi/G09-659802.pbs02/02-freq/2CNPyr-H_dissociation-site_index
 -3-freq.chk
 ----------------------------------------------------------------------
 #p freq=raman scale=0.967 pop=(nbo,full,hirshfeld) guess=read geom=all
 check b3lyp/6-311+G(d,p) int=grid=ultrafine EmpiricalDispersion=GD3BJ 
 SCRF=(Solvent=ethanol) scf=(xqc,intrep,maxconventionalcycle=350) nosym
 m
 ----------------------------------------------------------------------
 1/10=4,29=7,30=1,38=1,114=967000/1,3;
 2/12=2,15=1,40=1/2;
 3/5=4,6=6,7=111,11=2,14=-4,25=1,30=1,70=2201,71=2,72=4,74=-5,75=-5,116=-2,124=41,140=1/1,2,3;
 4/5=1/1;
 5/5=2,8=3,13=1,17=20,38=6,53=4,85=350,98=1/2,8;
 8/6=4,10=90,11=11/1;
 10/13=10,15=4,31=1/2;
 11/6=3,8=1,9=11,15=111,16=1,31=1/1,2,10;
 10/6=1,31=1/2;
 6/7=3,28=1,40=1,79=1/1,7;
 7/8=1,10=1,25=1,30=1/1,2,3,16;
 1/10=4,30=1/3;
 99//99;
 Leave Link    1 at Fri Jun  2 11:17:10 2023, MaxMem=  7381975040 cpu:               1.5 elap:               1.5
 (Enter /software/commercial/gaussian/g16/AVX/g16/l101.exe)
 Structure from the checkpoint file:  "/scratch1/svicchi/G09-659802.pbs02/02-freq/2CNPyr-H_dissociation-site_index-3-freq.chk"
 --------------------------------------
 2CNPyr-H_dissociation-site_index-3.gjf
 --------------------------------------
 Charge =  0 Multiplicity = 1
 No Z-Matrix found in chk file; cartesian coordinates used.
  C                                                -1.428684183305     -0.777387159695     -0.027834364034
  C                                                -0.400434355398      0.158010139078      0.018950109074
  C                                                -2.331918062319      1.287571636650      0.085276643248
  N                                                -0.977103022239      1.412447390972      0.087721600467
  C                                                -2.644963739251     -0.060565271127      0.014343047175
  H                                                -3.639333268502     -0.476630471535     -0.004720216535
  H                                                -2.967358504103      2.156435945327      0.133627439173
  H                                                -1.296005762189     -1.845723442895     -0.085327095664
  C                                                 0.992965469353     -0.035243502404      0.004634881900
  N                                                 2.139307747901     -0.205075824560     -0.007926147568
  H                                                -0.470100319948      2.283659560189      0.131491102764
 Recover connectivity data from disk.
 ITRead=  0  0  0  0  0  0  0  0  0  0  0
 MicOpt= -1 -1 -1 -1 -1 -1 -1 -1 -1 -1 -1
 NAtoms=     11 NQM=       11 NQMF=       0 NMMI=      0 NMMIF=      0
                NMic=       0 NMicF=      0.
                    Isotopes and Nuclear Properties:
 (Nuclear quadrupole moments (NQMom) in fm**2, nuclear magnetic moments (NMagM)
  in nuclear magnetons)

  Atom         1           2           3           4           5           6           7           8           9          10
 IAtWgt=          12          12          12          14          12           1           1           1          12          14
 AtmWgt=  12.0000000  12.0000000  12.0000000  14.0030740  12.0000000   1.0078250   1.0078250   1.0078250  12.0000000  14.0030740
 NucSpn=           0           0           0           2           0           1           1           1           0           2
 AtZEff=   3.6000000   3.6000000   3.6000000   4.5500000   3.6000000   1.0000000   1.0000000   1.0000000   3.6000000   4.5500000
 NQMom=    0.0000000   0.0000000   0.0000000   2.0440000   0.0000000   0.0000000   0.0000000   0.0000000   0.0000000   2.0440000
 NMagM=    0.0000000   0.0000000   0.0000000   0.4037610   0.0000000   2.7928460   2.7928460   2.7928460   0.0000000   0.4037610
 AtZNuc=   6.0000000   6.0000000   6.0000000   7.0000000   6.0000000   1.0000000   1.0000000   1.0000000   6.0000000   7.0000000

  Atom        11
 IAtWgt=           1
 AtmWgt=   1.0078250
 NucSpn=           1
 AtZEff=   1.0000000
 NQMom=    0.0000000
 NMagM=    2.7928460
 AtZNuc=   1.0000000
 Leave Link  101 at Fri Jun  2 11:17:13 2023, MaxMem=  7381975040 cpu:               0.8 elap:               1.4
 (Enter /software/commercial/gaussian/g16/AVX/g16/l103.exe)

 GradGradGradGradGradGradGradGradGradGradGradGradGradGradGradGradGradGrad
 Berny optimization.
 Initialization pass.
 Trust Radius=3.00D-01 FncErr=1.00D-07 GrdErr=1.00D-07 EigMax=2.50D+02 EigMin=1.00D-04
 Number of steps in this run=      2 maximum allowed number of steps=      2.
 GradGradGradGradGradGradGradGradGradGradGradGradGradGradGradGradGradGrad

 Leave Link  103 at Fri Jun  2 11:17:16 2023, MaxMem=  7381975040 cpu:               0.1 elap:               1.3
 (Enter /software/commercial/gaussian/g16/AVX/g16/l202.exe)
                          Input orientation:                          
 ---------------------------------------------------------------------
 Center     Atomic      Atomic             Coordinates (Angstroms)
 Number     Number       Type             X           Y           Z
 ---------------------------------------------------------------------
      1          6           0       -1.428684   -0.777387   -0.027834
      2          6           0       -0.400434    0.158010    0.018950
      3          6           0       -2.331918    1.287572    0.085277
      4          7           0       -0.977103    1.412447    0.087722
      5          6           0       -2.644964   -0.060565    0.014343
      6          1           0       -3.639333   -0.476630   -0.004720
      7          1           0       -2.967359    2.156436    0.133627
      8          1           0       -1.296006   -1.845723   -0.085327
      9          6           0        0.992965   -0.035244    0.004635
     10          7           0        2.139308   -0.205076   -0.007926
     11          1           0       -0.470100    2.283660    0.131491
 ---------------------------------------------------------------------
                    Distance matrix (angstroms):
                    1          2          3          4          5
     1  C    0.000000
     2  C    1.390847   0.000000
     3  C    2.256697   2.238512   0.000000
     4  N    2.238896   1.382349   1.360560   0.000000
     5  C    1.412426   2.255152   1.385822   2.226412   0.000000
     6  H    2.231134   3.300575   2.197690   3.265675   1.078074
     7  H    3.316761   3.255143   1.077519   2.125263   2.243493
     8  H    1.078078   2.197241   3.304506   3.278311   2.239735
     9  C    2.533026   1.406810   3.579273   2.446197   3.638030
    10  N    3.613655   2.565705   4.714716   3.512484   4.786505
    11  H    3.211584   2.129766   2.112035   1.008949   3.199866
                    6          7          8          9         10
     6  H    0.000000
     7  H    2.720979   0.000000
     8  H    2.715161   4.342654   0.000000
     9  C    4.653289   4.528163   2.919815   0.000000
    10  N    5.785019   5.628038   3.807768   1.158923   0.000000
    11  H    4.204972   2.500498   4.216744   2.744807   3.608636
                   11
    11  H    0.000000
 Symmetry turned off by external request.
 Stoichiometry    C5H4N2
 Framework group  C1[X(C5H4N2)]
 Deg. of freedom    27
 Full point group                 C1      NOp   1
 Rotational constants (GHZ):           8.9194978           1.9954907           1.6306728
 Leave Link  202 at Fri Jun  2 11:17:17 2023, MaxMem=  7381975040 cpu:               0.1 elap:               0.7
 (Enter /software/commercial/gaussian/g16/AVX/g16/l301.exe)
 Standard basis: 6-311+G(d,p) (5D, 7F)
 Ernie: Thresh=  0.10000D-02 Tol=  0.10000D-05 Strict=F.
   178 basis functions,   284 primitive gaussians,   185 cartesian basis functions
    24 alpha electrons       24 beta electrons
       nuclear repulsion energy       250.4822475285 Hartrees.
 IExCor=  402 DFT=T Ex+Corr=B3LYP ExCW=0 ScaHFX=  0.200000
 ScaDFX=  0.800000  0.720000  1.000000  0.810000 ScalE2=  1.000000  1.000000
 IRadAn=      5 IRanWt=     -1 IRanGd=            0 ICorTp=0 IEmpDi=141
 NAtoms=   11 NActive=   11 NUniq=   11 SFac= 1.00D+00 NAtFMM=   60 NAOKFM=F Big=F
 Integral buffers will be    131072 words long.
 Raffenetti 2 integral format.
 Two-electron integral symmetry is turned off.
 R6Disp:  Grimme-D3(BJ) Dispersion energy=       -0.0173104079 Hartrees.
 Nuclear repulsion after empirical dispersion term =      250.4649371206 Hartrees.
 Force inversion solution in PCM.
 ------------------------------------------------------------------------------
 Polarizable Continuum Model (PCM)
 =================================
 Model                : PCM.
 Atomic radii         : UFF (Universal Force Field).
 Polarization charges : Total charges.
 Charge compensation  : None.
 Solution method      : Matrix inversion.
 Cavity type          : Scaled VdW (van der Waals Surface) (Alpha=1.100).
 Cavity algorithm     : GePol (No added spheres)
                        Default sphere list used, NSphG=   11.
                        Lebedev-Laikov grids with approx.  5.0 points / Ang**2.
                        Smoothing algorithm: York/Karplus (Gamma=1.0000).
                        Polarization charges: spherical gaussians, with
                                              point-specific exponents (IZeta= 3).
                        Self-potential: point-specific (ISelfS= 7).
                        Self-field    : sphere-specific E.n sum rule (ISelfD= 2).
 1st derivatives      : Analytical E(r).r(x)/FMM algorithm (CHGder, D1EAlg=3).
                        Cavity 1st derivative terms included.
 2nd derivatives      : Analytical E(r).r(xy)/FMM algorithm (CHGder, D2EAlg=3).
                        Cavity 2nd derivative terms included.
 Solvent              : Ethanol, Eps=  24.852000 Eps(inf)=   1.852593
 ------------------------------------------------------------------------------
 Spheres list:
 ISph  on   Nord     Re0    Alpha      Xe            Ye            Ze
    1   C      1    1.9255  1.100     -1.428684     -0.777387     -0.027834
    2   C      2    1.9255  1.100     -0.400434      0.158010      0.018950
    3   C      3    1.9255  1.100     -2.331918      1.287572      0.085277
    4   N      4    1.8300  1.100     -0.977103      1.412447      0.087722
    5   C      5    1.9255  1.100     -2.644964     -0.060565      0.014343
    6   H      6    1.4430  1.100     -3.639333     -0.476630     -0.004720
    7   H      7    1.4430  1.100     -2.967359      2.156436      0.133627
    8   H      8    1.4430  1.100     -1.296006     -1.845723     -0.085327
    9   C      9    1.9255  1.100      0.992965     -0.035244      0.004635
   10   N     10    1.8300  1.100      2.139308     -0.205076     -0.007926
   11   H     11    1.4430  1.100     -0.470100      2.283660      0.131491
 ------------------------------------------------------------------------------
 GePol: Number of generator spheres                  =      11
 GePol: Total number of spheres                      =      11
 GePol: Number of exposed spheres                    =      11 (100.00%)
 GePol: Number of points                             =    1129
 GePol: Average weight of points                     =       0.13
 GePol: Minimum weight of points                     =   0.25D-11
 GePol: Maximum weight of points                     =    0.20577
 GePol: Number of points with low weight             =      52
 GePol: Fraction of low-weight points (<1% of avg)   =       4.61%
 GePol: Cavity surface area                          =    151.682 Ang**2
 GePol: Cavity volume                                =    141.165 Ang**3
 Leave Link  301 at Fri Jun  2 11:17:20 2023, MaxMem=  7381975040 cpu:               1.4 elap:               1.9
 (Enter /software/commercial/gaussian/g16/AVX/g16/l302.exe)
 NPDir=0 NMtPBC=     1 NCelOv=     1 NCel=       1 NClECP=     1 NCelD=      1
         NCelK=      1 NCelE2=     1 NClLst=     1 CellRange=     0.0.
 One-electron integrals computed using PRISM.
 NBasis=   178 RedAO= T EigKep=  4.11D-06  NBF=   178
 NBsUse=   178 1.00D-06 EigRej= -1.00D+00 NBFU=   178
 Precomputing XC quadrature grid using
 IXCGrd= 4 IRadAn=           5 IRanWt=          -1 IRanGd=           0 AccXCQ= 0.00D+00.
 Generated NRdTot=       0 NPtTot=           0 NUsed=           0 NTot=          32
 NSgBfM=   185   185   185   185   185 MxSgAt=    11 MxSgA2=    11.
 Leave Link  302 at Fri Jun  2 11:17:23 2023, MaxMem=  7381975040 cpu:               0.9 elap:               2.0
 (Enter /software/commercial/gaussian/g16/AVX/g16/l303.exe)
 DipDrv:  MaxL=1.
 Leave Link  303 at Fri Jun  2 11:17:25 2023, MaxMem=  7381975040 cpu:               0.4 elap:               1.3
 (Enter /software/commercial/gaussian/g16/AVX/g16/l401.exe)
 Initial guess from the checkpoint file:  "/scratch1/svicchi/G09-659802.pbs02/02-freq/2CNPyr-H_dissociation-site_index-3-freq.chk"
 B after Tr=     0.000000    0.000000    0.000000
         Rot=    1.000000    0.000000    0.000000    0.000000 Ang=   0.00 deg.
 Guess basis will be translated and rotated to current coordinates.
 JPrj=2 DoOrth=T DoCkMO=T.
 Leave Link  401 at Fri Jun  2 11:17:28 2023, MaxMem=  7381975040 cpu:               1.0 elap:               1.8
 (Enter /software/commercial/gaussian/g16/AVX/g16/l502.exe)
 Keep R1 ints in memory in canonical form, NReq=130124518.
 FoFCou: FMM=F IPFlag=           0 FMFlag=           0 FMFlg1=           0
         NFxFlg=           0 DoJE=F BraDBF=F KetDBF=F FulRan=T
         wScrn=  0.000000 ICntrl=       600 IOpCl=  0 I1Cent=           0 NGrid=           0
         NMat0=    1 NMatS0=  15931 NMatT0=    0 NMatD0=    1 NMtDS0=    0 NMtDT0=    0
 Symmetry not used in FoFCou.
 Two-electron integral symmetry not used.
 Closed shell SCF:
 Using DIIS extrapolation, IDIIS=  1040.
 NGot=  7381975040 LenX=  7254997471 LenY=  7254962805
 Requested convergence on RMS density matrix=1.00D-08 within 350 cycles.
 Requested convergence on MAX density matrix=1.00D-06.
 Requested convergence on             energy=1.00D-06.
 No special actions if energy rises.

 Cycle   1  Pass 1  IDiag  1:
 Inv3:  Mode=1 IEnd=     3823923.
 Iteration    1 A*A^-1 deviation from unit magnitude is 4.00D-15 for   1120.
 Iteration    1 A*A^-1 deviation from orthogonality  is 1.83D-15 for   1121   1035.
 Iteration    1 A^-1*A deviation from unit magnitude is 4.22D-15 for   1120.
 Iteration    1 A^-1*A deviation from orthogonality  is 1.62D-15 for   1113    134.
 E= -302.528102400889    
 DIIS: error= 1.78D-08 at cycle   1 NSaved=   1.
 NSaved= 1 IEnMin= 1 EnMin= -302.528102400889     IErMin= 1 ErrMin= 1.78D-08
 ErrMax= 1.78D-08  0.00D+00 EMaxC= 1.00D-01 BMatC= 5.62D-14 BMatP= 5.62D-14
 IDIUse=1 WtCom= 1.00D+00 WtEn= 0.00D+00
 Coeff-Com:  0.100D+01
 Coeff:      0.100D+01
 Gap=     0.203 Goal=   None    Shift=    0.000
 RMSDP=5.88D-09 MaxDP=3.32D-07              OVMax= 2.42D-07

 Error on total polarization charges =  0.01325
 SCF Done:  E(RB3LYP) =  -302.528102401     A.U. after    1 cycles
            NFock=  1  Conv=0.59D-08     -V/T= 2.0043
 KE= 3.012274433082D+02 PE=-1.204294141865D+03 EE= 3.500736590358D+02
 Leave Link  502 at Fri Jun  2 11:17:43 2023, MaxMem=  7381975040 cpu:              20.2 elap:              13.4
 (Enter /software/commercial/gaussian/g16/AVX/g16/l508.exe)
 QCSCF skips out because SCF is already converged.
 Leave Link  508 at Fri Jun  2 11:17:45 2023, MaxMem=  7381975040 cpu:               0.0 elap:               0.8
 (Enter /software/commercial/gaussian/g16/AVX/g16/l801.exe)
 DoSCS=F DFT=T ScalE2(SS,OS)=  1.000000  1.000000
 Range of M.O.s used for correlation:     1   178
 NBasis=   178 NAE=    24 NBE=    24 NFC=     0 NFV=     0
 NROrb=    178 NOA=    24 NOB=    24 NVA=   154 NVB=   154

 **** Warning!!: The largest alpha MO coefficient is  0.16826714D+03

 Leave Link  801 at Fri Jun  2 11:17:47 2023, MaxMem=  7381975040 cpu:               0.3 elap:               0.7
 (Enter /software/commercial/gaussian/g16/AVX/g16/l1002.exe)
 Minotr:  Closed shell wavefunction.
 NEqPCM:  Using equilibrium solvation (IEInf=0, Eps=  24.8520, EpsInf=   1.8526)
          Direct CPHF calculation.
          Differentiating once with respect to electric field.
                with respect to dipole field.
          Electric field/nuclear overlap derivatives assumed to be zero.
          Requested convergence is 1.0D-08 RMS, and 1.0D-07 maximum.
          Secondary convergence is 1.0D-12 RMS, and 1.0D-12 maximum.
          NewPWx=F KeepS1=T KeepF1=T KeepIn=T MapXYZ=F SortEE=F KeepMc=T.
         3370 words used for storage of precomputed grid.
 Keep R1 ints in memory in canonical form, NReq=131267271.
 FoFCou: FMM=F IPFlag=           0 FMFlag=           0 FMFlg1=           0
         NFxFlg=           0 DoJE=F BraDBF=F KetDBF=F FulRan=T
         wScrn=  0.000000 ICntrl=       600 IOpCl=  0 I1Cent=           0 NGrid=           0
         NMat0=    1 NMatS0=  15931 NMatT0=    0 NMatD0=    1 NMtDS0=    0 NMtDT0=    0
 Symmetry not used in FoFCou.
 Two-electron integral symmetry not used.
          MDV=    7381975040 using IRadAn=       1.
          Solving linear equations simultaneously, MaxMat=       0.
          There are     3 degrees of freedom in the 1st order CPHF.  IDoFFX=0 NUNeed=     3.
      3 vectors produced by pass  0 Test12= 1.23D-13 3.33D-08 XBig12= 1.55D+02 1.00D+01.
 AX will form     3 AO Fock derivatives at one time.
      3 vectors produced by pass  1 Test12= 1.23D-13 3.33D-08 XBig12= 6.24D+01 1.67D+00.
      3 vectors produced by pass  2 Test12= 1.23D-13 3.33D-08 XBig12= 2.36D+01 1.84D+00.
      3 vectors produced by pass  3 Test12= 1.23D-13 3.33D-08 XBig12= 1.10D+01 9.73D-01.
      3 vectors produced by pass  4 Test12= 1.23D-13 3.33D-08 XBig12= 9.97D-01 2.08D-01.
      3 vectors produced by pass  5 Test12= 1.23D-13 3.33D-08 XBig12= 2.93D-01 2.56D-01.
      3 vectors produced by pass  6 Test12= 1.23D-13 3.33D-08 XBig12= 4.53D-02 3.95D-02.
      3 vectors produced by pass  7 Test12= 1.23D-13 3.33D-08 XBig12= 6.32D-03 1.70D-02.
      3 vectors produced by pass  8 Test12= 1.23D-13 3.33D-08 XBig12= 1.31D-04 2.23D-03.
      3 vectors produced by pass  9 Test12= 1.23D-13 3.33D-08 XBig12= 3.58D-06 2.98D-04.
      3 vectors produced by pass 10 Test12= 1.23D-13 3.33D-08 XBig12= 1.33D-07 8.59D-05.
      2 vectors produced by pass 11 Test12= 1.23D-13 3.33D-08 XBig12= 3.15D-09 1.13D-05.
      2 vectors produced by pass 12 Test12= 1.23D-13 3.33D-08 XBig12= 8.77D-11 1.94D-06.
      1 vectors produced by pass 13 Test12= 1.23D-13 3.33D-08 XBig12= 1.97D-12 2.45D-07.
      1 vectors produced by pass 14 Test12= 1.23D-13 3.33D-08 XBig12= 7.68D-14 4.91D-08.
 InvSVY:  IOpt=1 It=  1 EMax= 3.55D-15
 Solved reduced A of dimension    39 with     3 vectors.
 End of Minotr F.D. properties file   721 does not exist.
 End of Minotr F.D. properties file   722 does not exist.
 End of Minotr F.D. properties file   788 does not exist.
 Leave Link 1002 at Fri Jun  2 11:18:48 2023, MaxMem=  7381975040 cpu:             105.4 elap:              60.1
 (Enter /software/commercial/gaussian/g16/AVX/g16/l1101.exe)
 Using compressed storage, NAtomX=    11.
 Will process     12 centers per pass.
 R6Disp: Adding Grimme-D3(BJ) dispersion energy 1st derivatives to the gradient.
 Leave Link 1101 at Fri Jun  2 11:18:52 2023, MaxMem=  7381975040 cpu:               0.9 elap:               2.6
 (Enter /software/commercial/gaussian/g16/AVX/g16/l1102.exe)
 Symmetrizing basis deriv contribution to polar:
 IMax=3 JMax=2 DiffMx= 0.00D+00
 Leave Link 1102 at Fri Jun  2 11:18:54 2023, MaxMem=  7381975040 cpu:               0.1 elap:               1.3
 (Enter /software/commercial/gaussian/g16/AVX/g16/l1110.exe)
 Forming Gx(P) for the SCF density, NAtomX=    11.
 Integral derivatives from FoFJK, PRISM(SPDF).
 Do as many integral derivatives as possible in FoFJK.
 G2DrvN: MDV=    7381973793.
 G2DrvN: will do    12 centers at a time, making    1 passes.
 PxScal for G2LodP:  IOpCl= 0 ISclPx=1 IMOff=     1 NMtTot=     4 NTT=   15931 ScalPx= 2.22D+01
 Calling FoFCou, ICntrl=  3107 FMM=F I1Cent=   0 AccDes= 0.00D+00.
 FoFJK:  IHMeth= 1 ICntrl=    3107 DoSepK=F KAlg= 0 I1Cent=           0 FoldK=F
 IRaf=         0 NMat=       1 IRICut=       1 DoRegI=T DoRafI=F ISym2E= 0 IDoP0=0 IntGTp=1.
 FoFCou: FMM=F IPFlag=           0 FMFlag=      100000 FMFlg1=           0
         NFxFlg=           0 DoJE=F BraDBF=F KetDBF=F FulRan=T
         wScrn=  0.000000 ICntrl=      3107 IOpCl=  0 I1Cent=           0 NGrid=           0
         NMat0=    1 NMatS0=      1 NMatT0=    0 NMatD0=    4 NMtDS0=    3 NMtDT0=    0
 Symmetry not used in FoFCou.
 PxScal for G2LodP:  IOpCl= 0 ISclPx=0 IMOff=     1 NMtTot=     4 NTT=   15931 ScalPx= 1.00D+00
 NEqPCM:  Using equilibrium solvation (IEInf=0, Eps=  24.8520, EpsInf=   1.8526)
 G2PCM: DoFxE=T DoFxN=T DoGrad=T DoDP/DQ/DG/TGxP=TFFF NFrqRd=   0 IEInf=0 SqF1=F DoCFld=F IF1Alg=4.
 GePol: Maximum number of non-zero 1st derivatives   =     237
 End of G2Drv F.D. properties file   721 does not exist.
 End of G2Drv F.D. properties file   722 does not exist.
 End of G2Drv F.D. properties file   788 does not exist.
 Leave Link 1110 at Fri Jun  2 11:21:07 2023, MaxMem=  7381975040 cpu:             255.9 elap:             131.4
 (Enter /software/commercial/gaussian/g16/AVX/g16/l1002.exe)
 Minotr:  Closed shell wavefunction.
          IDoAtm=11111111111
 NEqPCM:  Using equilibrium solvation (IEInf=0, Eps=  24.8520, EpsInf=   1.8526)
          Direct CPHF calculation.
          Differentiating once with respect to electric field.
                with respect to dipole field.
          Differentiating once with respect to nuclear coordinates.
          Requested convergence is 1.0D-08 RMS, and 1.0D-07 maximum.
          Secondary convergence is 1.0D-12 RMS, and 1.0D-12 maximum.
          NewPWx=T KeepS1=F KeepF1=F KeepIn=T MapXYZ=F SortEE=F KeepMc=T.
         3370 words used for storage of precomputed grid.
 Keep R1 ints in memory in canonical form, NReq=131267524.
 FoFCou: FMM=F IPFlag=           0 FMFlag=           0 FMFlg1=           0
         NFxFlg=           0 DoJE=F BraDBF=F KetDBF=F FulRan=T
         wScrn=  0.000000 ICntrl=       600 IOpCl=  0 I1Cent=           0 NGrid=           0
         NMat0=    1 NMatS0=  15931 NMatT0=    0 NMatD0=    1 NMtDS0=    0 NMtDT0=    0
 Symmetry not used in FoFCou.
 Two-electron integral symmetry not used.
          MDV=    7381975040 using IRadAn=       1.
          Solving linear equations simultaneously, MaxMat=       0.
          There are    36 degrees of freedom in the 1st order CPHF.  IDoFFX=5 NUNeed=    36.
 Will reuse    3 saved solutions.
     30 vectors produced by pass  0 Test12= 1.03D-14 2.78D-09 XBig12= 2.13D-01 1.66D-01.
 AX will form    30 AO Fock derivatives at one time.
     30 vectors produced by pass  1 Test12= 1.03D-14 2.78D-09 XBig12= 5.77D-02 6.21D-02.
     30 vectors produced by pass  2 Test12= 1.03D-14 2.78D-09 XBig12= 2.26D-03 9.44D-03.
     30 vectors produced by pass  3 Test12= 1.03D-14 2.78D-09 XBig12= 9.99D-06 5.69D-04.
     30 vectors produced by pass  4 Test12= 1.03D-14 2.78D-09 XBig12= 2.50D-08 2.53D-05.
     30 vectors produced by pass  5 Test12= 1.03D-14 2.78D-09 XBig12= 5.89D-11 1.02D-06.
     12 vectors produced by pass  6 Test12= 1.03D-14 2.78D-09 XBig12= 1.18D-13 5.08D-08.
 InvSVY:  IOpt=1 It=  1 EMax= 2.00D-15
 Solved reduced A of dimension   192 with    30 vectors.
 FullF1:  Do perturbations      1 to       3.
 Isotropic polarizability for W=    0.000000       92.84 Bohr**3.
 FullF1:  Do perturbations      1 to       6.
 End of Minotr F.D. properties file   721 does not exist.
 End of Minotr F.D. properties file   722 does not exist.
 End of Minotr F.D. properties file   788 does not exist.
 Leave Link 1002 at Fri Jun  2 11:23:13 2023, MaxMem=  7381975040 cpu:             229.4 elap:             125.1
 (Enter /software/commercial/gaussian/g16/AVX/g16/l601.exe)
 Copying SCF densities to generalized density rwf, IOpCl= 0 IROHF=0.

 **********************************************************************

            Population analysis using the SCF Density.

 **********************************************************************

 Alpha  occ. eigenvalues --  -14.38678 -14.32772 -10.24166 -10.23100 -10.22088
 Alpha  occ. eigenvalues --  -10.19156 -10.18026  -1.01131  -0.92571  -0.80534
 Alpha  occ. eigenvalues --   -0.77558  -0.63902  -0.61266  -0.59823  -0.48438
 Alpha  occ. eigenvalues --   -0.46287  -0.44907  -0.42818  -0.41281  -0.38949
 Alpha  occ. eigenvalues --   -0.37171  -0.35667  -0.27842  -0.24483
 Alpha virt. eigenvalues --   -0.04177  -0.00609   0.00308   0.02219   0.02896
 Alpha virt. eigenvalues --    0.03087   0.04630   0.04776   0.05263   0.05975
 Alpha virt. eigenvalues --    0.08094   0.08169   0.09000   0.09472   0.10554
 Alpha virt. eigenvalues --    0.12008   0.14224   0.14367   0.14681   0.14744
 Alpha virt. eigenvalues --    0.15531   0.15956   0.17829   0.19176   0.20050
 Alpha virt. eigenvalues --    0.20342   0.20742   0.21054   0.22491   0.23257
 Alpha virt. eigenvalues --    0.23486   0.24018   0.25251   0.25624   0.26745
 Alpha virt. eigenvalues --    0.27238   0.30591   0.31036   0.33933   0.38110
 Alpha virt. eigenvalues --    0.42734   0.44157   0.46530   0.50690   0.53422
 Alpha virt. eigenvalues --    0.54116   0.56945   0.56991   0.58250   0.60960
 Alpha virt. eigenvalues --    0.61768   0.63543   0.64856   0.66974   0.69639
 Alpha virt. eigenvalues --    0.71741   0.74198   0.75612   0.77647   0.79071
 Alpha virt. eigenvalues --    0.82751   0.83232   0.83542   0.84544   0.87871
 Alpha virt. eigenvalues --    0.88984   0.89187   0.93451   0.95186   0.98682
 Alpha virt. eigenvalues --    1.01072   1.03082   1.05698   1.08289   1.08627
 Alpha virt. eigenvalues --    1.12589   1.14943   1.15805   1.26675   1.28507
 Alpha virt. eigenvalues --    1.29233   1.42019   1.48583   1.52720   1.54549
 Alpha virt. eigenvalues --    1.55118   1.56415   1.58104   1.62837   1.68297
 Alpha virt. eigenvalues --    1.70254   1.72770   1.78493   1.78723   1.79118
 Alpha virt. eigenvalues --    1.85016   1.89869   1.93823   1.94890   1.96441
 Alpha virt. eigenvalues --    1.96553   2.04249   2.07162   2.08139   2.08680
 Alpha virt. eigenvalues --    2.20365   2.23570   2.35779   2.37453   2.41537
 Alpha virt. eigenvalues --    2.43956   2.45751   2.53544   2.63992   2.65468
 Alpha virt. eigenvalues --    2.67563   2.67919   2.71100   2.73396   2.75291
 Alpha virt. eigenvalues --    2.78725   2.79555   2.83411   2.87293   2.90167
 Alpha virt. eigenvalues --    2.91628   2.95708   3.00708   3.04321   3.09325
 Alpha virt. eigenvalues --    3.16520   3.26512   3.26876   3.35789   3.45936
 Alpha virt. eigenvalues --    3.50169   3.63922   3.75883   3.84663   3.97610
 Alpha virt. eigenvalues --    4.01166   4.06113   4.07043   4.25902   4.59849
 Alpha virt. eigenvalues --    4.89711   5.09541  23.65983  23.87512  24.04662
 Alpha virt. eigenvalues --   24.15362  24.52249  35.60366  35.87787
     Molecular Orbital Coefficients:
                           1         2         3         4         5
                           O         O         O         O         O
     Eigenvalues --   -14.38678 -14.32772 -10.24166 -10.23100 -10.22088
   1 1   C  1S         -0.00001  -0.00000   0.00306  -0.00020   0.00002
   2        2S          0.00004   0.00001   0.00273  -0.00007   0.00003
   3        2PX         0.00009   0.00001   0.00064   0.00025  -0.00012
   4        2PY         0.00005  -0.00006   0.00059   0.00001   0.00002
   5        2PZ         0.00000  -0.00000   0.00003   0.00000   0.00000
   6        3S         -0.00033  -0.00009  -0.00006  -0.00049   0.00014
   7        3PX        -0.00059  -0.00006  -0.00297  -0.00142   0.00082
   8        3PY        -0.00086   0.00035  -0.00279  -0.00044  -0.00048
   9        3PZ        -0.00004   0.00002  -0.00014  -0.00002  -0.00003
  10        4S         -0.00330   0.00261  -0.00327   0.00899  -0.01099
  11        4PX         0.00217   0.00038   0.00309  -0.00000  -0.00040
  12        4PY        -0.00475   0.00193  -0.00263   0.00542  -0.00666
  13        4PZ        -0.00026   0.00010  -0.00015   0.00029  -0.00035
  14        5S          0.00792  -0.01142   0.03360   0.01168   0.07460
  15        5PX        -0.00054  -0.00392  -0.00334  -0.00089   0.00975
  16        5PY         0.00022  -0.00140   0.00444   0.00240   0.01048
  17        5PZ         0.00001  -0.00006   0.00025   0.00013   0.00053
  18        6D 0       -0.00018  -0.00003   0.00073   0.00002  -0.00002
  19        6D+1       -0.00002   0.00001  -0.00011  -0.00004   0.00002
  20        6D-1        0.00003   0.00000  -0.00006   0.00004   0.00003
  21        6D+2       -0.00024   0.00001   0.00004  -0.00068  -0.00047
  22        6D-2       -0.00035   0.00010  -0.00212  -0.00078   0.00035
  23 2   C  1S          0.00001   0.00002   0.56280  -0.01190   0.00007
  24        2S         -0.00001  -0.00009   0.46305  -0.00934   0.00005
  25        2PX        -0.00017  -0.00010   0.00059   0.00116  -0.00003
  26        2PY         0.00044   0.00002   0.00078  -0.00015  -0.00002
  27        2PZ         0.00002   0.00000   0.00004  -0.00001  -0.00000
  28        3S          0.00073  -0.00013   0.01931  -0.00232   0.00013
  29        3PX         0.00041   0.00137  -0.00100  -0.00676   0.00044
  30        3PY        -0.00106  -0.00023  -0.00139   0.00058   0.00020
  31        3PZ        -0.00006  -0.00002  -0.00007   0.00005   0.00001
  32        4S         -0.00101   0.03009  -0.01519   0.02096  -0.00730
  33        4PX        -0.01658   0.02125  -0.00931   0.02791  -0.01903
  34        4PY         0.00714  -0.00233   0.00387  -0.00204  -0.00060
  35        4PZ         0.00043  -0.00018   0.00023  -0.00019   0.00002
  36        5S          0.01976   0.00530   0.08622   0.05193  -0.01344
  37        5PX         0.01156  -0.00280   0.05749   0.03139   0.05054
  38        5PY         0.00048  -0.00616  -0.00514  -0.00289   0.01895
  39        5PZ        -0.00001  -0.00032  -0.00045  -0.00025   0.00085
  40        6D 0        0.00013  -0.00039  -0.00176   0.00090  -0.00003
  41        6D+1        0.00003  -0.00001   0.00002   0.00006  -0.00001
  42        6D-1       -0.00004  -0.00001   0.00011   0.00006   0.00000
  43        6D+2        0.00049   0.00079   0.00092  -0.00275   0.00002
  44        6D-2        0.00066  -0.00020   0.00067   0.00091  -0.00022
  45 3   C  1S          0.00001  -0.00000  -0.00007  -0.00029   0.56291
  46        2S          0.00003   0.00002  -0.00007  -0.00016   0.46313
  47        2PX         0.00041  -0.00003  -0.00013   0.00001   0.00068
  48        2PY         0.00014   0.00001   0.00003   0.00003   0.00037
  49        2PZ         0.00001   0.00000   0.00000   0.00000   0.00002
  50        3S          0.00054  -0.00039   0.00004  -0.00087   0.02010
  51        3PX        -0.00086   0.00005   0.00074  -0.00021  -0.00042
  52        3PY        -0.00057   0.00003   0.00003   0.00002  -0.00097
  53        3PZ        -0.00003   0.00000  -0.00000   0.00000  -0.00005
  54        4S          0.00767   0.00109   0.00255   0.00197  -0.01289
  55        4PX         0.00413   0.00077   0.00048   0.00174  -0.00240
  56        4PY        -0.00331  -0.00037  -0.00252  -0.00308   0.00523
  57        4PZ        -0.00019  -0.00002  -0.00014  -0.00017   0.00029
  58        5S          0.00560   0.00078   0.00003   0.00436   0.00063
  59        5PX         0.00119   0.00110   0.00658   0.00173   0.00130
  60        5PY        -0.00170   0.00016   0.00315  -0.00062  -0.00023
  61        5PZ        -0.00010   0.00001   0.00015  -0.00004  -0.00002
  62        6D 0        0.00017  -0.00009  -0.00006  -0.00015  -0.00184
  63        6D+1       -0.00001  -0.00000  -0.00001  -0.00001  -0.00004
  64        6D-1        0.00004   0.00001  -0.00001   0.00002   0.00023
  65        6D+2       -0.00104   0.00003   0.00032  -0.00007  -0.00110
  66        6D-2       -0.00019  -0.00007  -0.00021  -0.00016  -0.00070
  67 4   N  1S          0.55737   0.00002  -0.00005   0.00000  -0.00006
  68        2S          0.46559   0.00003  -0.00009   0.00008  -0.00008
  69        2PX         0.00007   0.00000   0.00006   0.00011  -0.00039
  70        2PY        -0.00004   0.00003  -0.00039  -0.00014  -0.00015
  71        2PZ        -0.00000   0.00000  -0.00002  -0.00001  -0.00001
  72        3S          0.01692  -0.00018   0.00123  -0.00040   0.00094
  73        3PX        -0.00015  -0.00003   0.00009  -0.00043   0.00070
  74        3PY        -0.00007  -0.00014   0.00082   0.00074   0.00057
  75        3PZ        -0.00000  -0.00001   0.00004   0.00004   0.00003
  76        4S         -0.01720   0.00060  -0.00590   0.00147  -0.00323
  77        4PX         0.00375  -0.00077   0.00094  -0.00177   0.00369
  78        4PY         0.00816  -0.00132   0.00425  -0.00158   0.00167
  79        4PZ         0.00042  -0.00007   0.00022  -0.00008   0.00008
  80        5S         -0.00580   0.00261   0.00234   0.00267   0.00216
  81        5PX        -0.00039   0.00221  -0.00152  -0.00087  -0.01103
  82        5PY         0.00008  -0.00017  -0.00636  -0.00159  -0.00736
  83        5PZ         0.00001  -0.00002  -0.00033  -0.00008  -0.00035
  84        6D 0       -0.00076  -0.00003   0.00054   0.00011   0.00052
  85        6D+1        0.00002  -0.00001   0.00002   0.00003  -0.00000
  86        6D-1        0.00008   0.00001  -0.00007  -0.00002  -0.00001
  87        6D+2       -0.00022  -0.00005   0.00042   0.00008  -0.00067
  88        6D-2        0.00053  -0.00010   0.00043   0.00049  -0.00016
  89 5   C  1S         -0.00001  -0.00000  -0.00001  -0.00007   0.00397
  90        2S          0.00004   0.00002   0.00001   0.00002   0.00346
  91        2PX        -0.00003  -0.00003   0.00003   0.00005   0.00014
  92        2PY         0.00013  -0.00001  -0.00012  -0.00003   0.00081
  93        2PZ         0.00001  -0.00000  -0.00001  -0.00000   0.00004
  94        3S         -0.00013  -0.00035  -0.00007  -0.00059   0.00012
  95        3PX        -0.00029   0.00009  -0.00057  -0.00046  -0.00051
  96        3PY        -0.00102   0.00004   0.00067   0.00013  -0.00360
  97        3PZ        -0.00005   0.00000   0.00004   0.00001  -0.00019
  98        4S         -0.00086   0.00107   0.00024  -0.00369   0.00503
  99        4PX        -0.00219   0.00139  -0.00010   0.00032   0.00223
 100        4PY        -0.00216   0.00034  -0.00259   0.00003   0.00201
 101        4PZ        -0.00011   0.00001  -0.00014   0.00000   0.00010
 102        5S         -0.00505  -0.00039   0.00578   0.00208   0.00199
 103        5PX        -0.00117  -0.00013  -0.00210   0.00062   0.00006
 104        5PY         0.00069   0.00145   0.00703   0.00111   0.00063
 105        5PZ         0.00004   0.00008   0.00038   0.00006   0.00003
 106        6D 0       -0.00004  -0.00008  -0.00003  -0.00004   0.00082
 107        6D+1       -0.00000   0.00000   0.00003   0.00001  -0.00006
 108        6D-1       -0.00002   0.00000   0.00000   0.00001  -0.00016
 109        6D+2        0.00046   0.00006  -0.00007  -0.00008   0.00160
 110        6D-2        0.00002   0.00002   0.00059   0.00017  -0.00116
 111 6   H  1S          0.00001  -0.00004  -0.00006  -0.00008  -0.00012
 112        2S         -0.00125   0.00025  -0.00056   0.00036  -0.00023
 113        3S         -0.00068   0.00061  -0.00066   0.00055   0.00056
 114        4PX        -0.00031   0.00001  -0.00023  -0.00003  -0.00023
 115        4PY        -0.00009   0.00002   0.00002   0.00003  -0.00031
 116        4PZ        -0.00000   0.00000   0.00000   0.00000  -0.00002
 117 7   H  1S         -0.00017  -0.00001  -0.00007  -0.00014   0.00011
 118        2S          0.00032  -0.00004   0.00060   0.00071  -0.00471
 119        3S          0.00172   0.00059   0.00090   0.00129   0.00013
 120        4PX        -0.00032  -0.00003   0.00014  -0.00001  -0.00162
 121        4PY         0.00002   0.00001  -0.00001   0.00002   0.00190
 122        4PZ         0.00000   0.00000  -0.00000   0.00000   0.00011
 123 8   H  1S         -0.00001   0.00002  -0.00008  -0.00020  -0.00005
 124        2S         -0.00159   0.00023  -0.00144   0.00010  -0.00095
 125        3S         -0.00160   0.00096  -0.00120   0.00159  -0.00245
 126        4PX         0.00001  -0.00006  -0.00021  -0.00000   0.00011
 127        4PY        -0.00039   0.00009  -0.00060  -0.00030  -0.00025
 128        4PZ        -0.00002   0.00001  -0.00003  -0.00002  -0.00001
 129 9   C  1S         -0.00002  -0.00006   0.01173   0.56263   0.00028
 130        2S          0.00009   0.00054   0.00997   0.46249   0.00030
 131        2PX         0.00003   0.00025  -0.00055  -0.00024   0.00006
 132        2PY         0.00004  -0.00004   0.00009   0.00003  -0.00006
 133        2PZ         0.00000  -0.00000   0.00001   0.00000  -0.00000
 134        3S         -0.00064   0.00007  -0.00010   0.02354  -0.00069
 135        3PX        -0.00014  -0.00313   0.00176   0.00407  -0.00042
 136        3PY        -0.00013   0.00047  -0.00031  -0.00063   0.00025
 137        3PZ        -0.00001   0.00003  -0.00002  -0.00005   0.00001
 138        4S          0.00930  -0.00531   0.00366  -0.01456   0.01164
 139        4PX        -0.01141   0.04029  -0.00925   0.03260  -0.01405
 140        4PY         0.00026  -0.00599   0.00055  -0.00510   0.00246
 141        4PZ         0.00005  -0.00044   0.00006  -0.00037   0.00017
 142        5S         -0.02881   0.00870  -0.13036  -0.07076  -0.06858
 143        5PX         0.00628  -0.00013   0.03175   0.01957   0.01130
 144        5PY        -0.00129   0.00104  -0.00460  -0.00325  -0.00605
 145        5PZ        -0.00009   0.00006  -0.00033  -0.00023  -0.00035
 146        6D 0        0.00008   0.00178   0.00109  -0.00376   0.00003
 147        6D+1        0.00002   0.00006   0.00004  -0.00014  -0.00000
 148        6D-1       -0.00000  -0.00001  -0.00002   0.00002   0.00000
 149        6D+2       -0.00012  -0.00294  -0.00155   0.00631  -0.00006
 150        6D-2        0.00031   0.00088   0.00060  -0.00185  -0.00008
 151 10  N  1S         -0.00002   0.55732  -0.00000  -0.00032   0.00000
 152        2S         -0.00000   0.46559  -0.00006   0.00016   0.00002
 153        2PX         0.00003  -0.00112   0.00003  -0.00090   0.00003
 154        2PY         0.00003   0.00017   0.00001   0.00014  -0.00002
 155        2PZ         0.00000   0.00001   0.00000   0.00001  -0.00000
 156        3S         -0.00024   0.01903   0.00056  -0.00217  -0.00032
 157        3PX        -0.00021  -0.00378  -0.00068   0.00681  -0.00015
 158        3PY        -0.00011   0.00055   0.00001  -0.00104   0.00008
 159        3PZ        -0.00001   0.00004   0.00000  -0.00008   0.00000
 160        4S          0.00523  -0.03460   0.00366  -0.02756   0.00640
 161        4PX        -0.00118   0.00993  -0.00015   0.00829  -0.00163
 162        4PY         0.00068  -0.00143   0.00034  -0.00115   0.00001
 163        4PZ         0.00004  -0.00011   0.00002  -0.00009   0.00001
 164        5S          0.00476  -0.01149   0.00803  -0.00391   0.00677
 165        5PX        -0.00182   0.00313  -0.00536  -0.00154  -0.00181
 166        5PY         0.00033  -0.00056   0.00057   0.00032   0.00071
 167        5PZ         0.00002  -0.00004   0.00004   0.00002   0.00004
 168        6D 0       -0.00004  -0.00070  -0.00010   0.00147  -0.00004
 169        6D+1       -0.00000  -0.00003  -0.00000   0.00006  -0.00000
 170        6D-1       -0.00000   0.00000   0.00000  -0.00001   0.00000
 171        6D+2        0.00007   0.00117   0.00013  -0.00246   0.00006
 172        6D-2       -0.00001  -0.00036  -0.00003   0.00075  -0.00002
 173 11  H  1S          0.00018  -0.00005   0.00013  -0.00009   0.00015
 174        2S         -0.00469   0.00070  -0.00197   0.00045  -0.00218
 175        3S          0.00169  -0.00045   0.00276   0.00088   0.00598
 176        4PX         0.00105  -0.00009   0.00017   0.00006   0.00007
 177        4PY         0.00172  -0.00011   0.00018   0.00007   0.00029
 178        4PZ         0.00009  -0.00001   0.00001   0.00000   0.00001
                           6         7         8         9        10
                           O         O         O         O         O
     Eigenvalues --   -10.19156 -10.18026  -1.01131  -0.92571  -0.80534
   1 1   C  1S          0.56276  -0.01198  -0.02526   0.00016   0.07510
   2        2S          0.46304  -0.00971  -0.03867   0.00038   0.11604
   3        2PX         0.00011  -0.00060   0.00315   0.00482   0.00847
   4        2PY        -0.00002   0.00039   0.02463  -0.00210  -0.03438
   5        2PZ        -0.00000   0.00002   0.00131  -0.00013  -0.00187
   6        3S          0.01987  -0.00048   0.09724  -0.00122  -0.30275
   7        3PX         0.00025   0.00213   0.00610   0.00400   0.01344
   8        3PY         0.00036  -0.00142   0.03554  -0.00510  -0.04777
   9        3PZ         0.00002  -0.00008   0.00188  -0.00028  -0.00260
  10        4S         -0.02148   0.00313   0.05596   0.00023  -0.15974
  11        4PX         0.00128  -0.00058  -0.00777   0.00402   0.00489
  12        4PY        -0.01098   0.00271   0.02464  -0.00227  -0.01630
  13        4PZ        -0.00059   0.00015   0.00134  -0.00013  -0.00089
  14        5S          0.03941   0.05868  -0.33778   0.00394   0.31753
  15        5PX         0.00069   0.00710  -0.00499  -0.01151   0.01888
  16        5PY         0.00676   0.00936  -0.05062  -0.00004   0.05912
  17        5PZ         0.00036   0.00048  -0.00270   0.00004   0.00310
  18        6D 0       -0.00193   0.00067  -0.00625   0.00043   0.01190
  19        6D+1       -0.00001   0.00008   0.00008  -0.00003   0.00026
  20        6D-1        0.00023  -0.00005   0.00077  -0.00006  -0.00110
  21        6D+2       -0.00101  -0.00033  -0.00357   0.00038  -0.00040
  22        6D-2       -0.00008   0.00145   0.00183  -0.00064   0.00371
  23 2   C  1S         -0.00319   0.00007  -0.05220  -0.00951   0.03130
  24        2S         -0.00245   0.00008  -0.08009  -0.01377   0.04862
  25        2PX        -0.00064   0.00000  -0.02674   0.02183   0.02747
  26        2PY        -0.00051  -0.00010   0.03415  -0.00764   0.05500
  27        2PZ        -0.00003  -0.00001   0.00191  -0.00047   0.00284
  28        3S         -0.00005   0.00001   0.20487   0.03611  -0.12893
  29        3PX         0.00266   0.00038  -0.04101   0.01404   0.03823
  30        3PY         0.00192   0.00063   0.05339  -0.00896   0.08223
  31        3PZ         0.00009   0.00003   0.00298  -0.00052   0.00426
  32        4S         -0.00169  -0.00951   0.09437  -0.04988  -0.07875
  33        4PX        -0.01523  -0.00674   0.04368  -0.03029  -0.00471
  34        4PY        -0.00057   0.00108  -0.01214   0.00443   0.02087
  35        4PZ         0.00001   0.00008  -0.00077   0.00032   0.00112
  36        5S         -0.00309  -0.02520  -0.06061  -0.38018  -0.05554
  37        5PX         0.01471   0.03066  -0.27331  -0.18051   0.17509
  38        5PY         0.00590   0.01573  -0.02267   0.01293   0.04008
  39        5PZ         0.00027   0.00074  -0.00035   0.00122   0.00161
  40        6D 0        0.00082   0.00000  -0.01356   0.00192   0.00543
  41        6D+1       -0.00008  -0.00002  -0.00060   0.00021  -0.00043
  42        6D-1       -0.00005  -0.00001   0.00145   0.00003   0.00031
  43        6D+2       -0.00043   0.00018  -0.00300  -0.00405  -0.01473
  44        6D-2       -0.00154  -0.00041  -0.01001   0.00347  -0.00954
  45 3   C  1S         -0.00012  -0.00410  -0.04756   0.01016   0.01055
  46        2S         -0.00009  -0.00320  -0.07285   0.01563   0.01645
  47        2PX        -0.00015  -0.00022   0.04733  -0.00853   0.03054
  48        2PY        -0.00009  -0.00076  -0.01055   0.00158   0.05090
  49        2PZ        -0.00000  -0.00004  -0.00071   0.00011   0.00262
  50        3S          0.00019   0.00004   0.18518  -0.04039  -0.04224
  51        3PX         0.00066   0.00091   0.06915  -0.01257   0.04739
  52        3PY         0.00089   0.00302  -0.01417   0.00213   0.07441
  53        3PZ         0.00005   0.00016  -0.00098   0.00015   0.00382
  54        4S         -0.00410   0.00250   0.07005  -0.01418  -0.02320
  55        4PX        -0.00186   0.00096   0.00491  -0.00141   0.00769
  56        4PY         0.00233  -0.00365   0.00538  -0.00196   0.00958
  57        4PZ         0.00013  -0.00020   0.00027  -0.00010   0.00048
  58        5S         -0.00914  -0.00861   0.01164  -0.03550  -0.04284
  59        5PX         0.00194   0.00075  -0.02481  -0.00309   0.01655
  60        5PY         0.00381   0.00233  -0.01375   0.00603   0.01991
  61        5PZ         0.00020   0.00012  -0.00065   0.00033   0.00101
  62        6D 0        0.00003   0.00087  -0.01285   0.00234   0.00249
  63        6D+1       -0.00003  -0.00002  -0.00024   0.00002   0.00037
  64        6D-1       -0.00002  -0.00017   0.00061  -0.00012  -0.00115
  65        6D+2        0.00035   0.00166   0.01101  -0.00189   0.01670
  66        6D-2       -0.00051  -0.00042  -0.00254  -0.00008   0.00768
  67 4   N  1S          0.00000   0.00000  -0.09498   0.01275  -0.05694
  68        2S          0.00002   0.00002  -0.14914   0.02014  -0.09021
  69        2PX         0.00002  -0.00005  -0.01434   0.00943   0.01623
  70        2PY        -0.00004   0.00000  -0.02710  -0.00083   0.04839
  71        2PZ        -0.00000   0.00000  -0.00143  -0.00007   0.00249
  72        3S          0.00002   0.00006   0.40842  -0.05576   0.25727
  73        3PX        -0.00007   0.00036  -0.02157   0.01320   0.02435
  74        3PY         0.00033   0.00011  -0.04157   0.00049   0.07169
  75        3PZ         0.00002   0.00000  -0.00219  -0.00001   0.00369
  76        4S         -0.00193  -0.00247   0.28422  -0.04136   0.18597
  77        4PX         0.00059   0.00148  -0.01061   0.00838   0.01555
  78        4PY         0.00151   0.00074  -0.03153   0.00380   0.03875
  79        4PZ         0.00008   0.00004  -0.00165   0.00018   0.00199
  80        5S         -0.00089  -0.00090  -0.05976   0.01412   0.02129
  81        5PX        -0.00183  -0.00804   0.03488   0.00129  -0.01911
  82        5PY        -0.00440  -0.00500   0.05353  -0.00216  -0.02329
  83        5PZ        -0.00023  -0.00024   0.00271  -0.00012  -0.00118
  84        6D 0        0.00002   0.00003  -0.01234   0.00164  -0.00288
  85        6D+1        0.00001   0.00001  -0.00001  -0.00002  -0.00005
  86        6D-1       -0.00000   0.00001   0.00116  -0.00014   0.00014
  87        6D+2       -0.00004  -0.00026  -0.00051  -0.00009   0.00217
  88        6D-2        0.00024   0.00015   0.00116  -0.00049  -0.00045
  89 5   C  1S          0.01188   0.56275  -0.02419   0.00476   0.06513
  90        2S          0.00992   0.46301  -0.03700   0.00732   0.10055
  91        2PX         0.00060  -0.00009   0.02034  -0.00280  -0.03694
  92        2PY        -0.00036  -0.00007   0.01334  -0.00351   0.00216
  93        2PZ        -0.00002  -0.00000   0.00065  -0.00018   0.00023
  94        3S          0.00034   0.01994   0.09213  -0.01819  -0.26037
  95        3PX        -0.00212   0.00049   0.02793  -0.00466  -0.05272
  96        3PY         0.00140   0.00071   0.02008  -0.00508   0.00674
  97        3PZ         0.00008   0.00004   0.00098  -0.00026   0.00053
  98        4S          0.00814  -0.01486   0.03744  -0.01383  -0.14021
  99        4PX         0.00546  -0.00707   0.00875  -0.00535  -0.01701
 100        4PY         0.00085  -0.00342   0.01049  -0.00350  -0.00463
 101        4PZ         0.00003  -0.00016   0.00054  -0.00017  -0.00019
 102        5S         -0.00280   0.00667   0.00188  -0.05504   0.01915
 103        5PX        -0.00266   0.00092   0.01389  -0.01636  -0.00556
 104        5PY         0.00451   0.00238  -0.03075   0.00670   0.02587
 105        5PZ         0.00025   0.00012  -0.00169   0.00041   0.00140
 106        6D 0        0.00060  -0.00197  -0.00631   0.00121   0.01062
 107        6D+1        0.00007   0.00003   0.00018  -0.00003   0.00030
 108        6D-1       -0.00000   0.00015   0.00053  -0.00012  -0.00068
 109        6D+2       -0.00111   0.00050   0.00079   0.00014  -0.00600
 110        6D-2        0.00113   0.00084   0.00403  -0.00065   0.00408
 111 6   H  1S         -0.00009   0.00022   0.00453  -0.00125  -0.03129
 112        2S          0.00018  -0.00531   0.00557  -0.00246  -0.03526
 113        3S          0.00187   0.00056   0.00275  -0.00004  -0.00003
 114        4PX        -0.00030  -0.00235   0.00040  -0.00027  -0.00580
 115        4PY         0.00011  -0.00097   0.00029  -0.00021  -0.00110
 116        4PZ         0.00001  -0.00004   0.00001  -0.00001  -0.00004
 117 7   H  1S         -0.00002  -0.00011   0.01339  -0.00382   0.00283
 118        2S         -0.00077   0.00043   0.01026  -0.00362   0.00693
 119        3S         -0.00027   0.00068  -0.00388   0.00191   0.00045
 120        4PX        -0.00007   0.00012   0.00255  -0.00064   0.00385
 121        4PY         0.00018   0.00025  -0.00090   0.00049  -0.00058
 122        4PZ         0.00001   0.00001  -0.00006   0.00003  -0.00004
 123 8   H  1S          0.00024  -0.00010   0.00508   0.00105  -0.03791
 124        2S         -0.00573   0.00018   0.00814  -0.00056  -0.04256
 125        3S         -0.00025   0.00059   0.00874   0.00063  -0.00044
 126        4PX         0.00032   0.00021   0.00030   0.00020   0.00134
 127        4PY        -0.00260  -0.00015   0.00096  -0.00033  -0.00705
 128        4PZ        -0.00014  -0.00001   0.00005  -0.00002  -0.00038
 129 9   C  1S          0.00012   0.00005  -0.01556  -0.08517   0.00429
 130        2S          0.00018   0.00011  -0.02383  -0.12976   0.00658
 131        2PX        -0.00002  -0.00000  -0.00734   0.10068   0.02122
 132        2PY        -0.00003  -0.00002   0.00339  -0.01526   0.00445
 133        2PZ        -0.00000  -0.00000   0.00020  -0.00112   0.00017
 134        3S         -0.00050  -0.00063   0.06183   0.32686  -0.01823
 135        3PX         0.00006   0.00008  -0.01151   0.09156   0.02410
 136        3PY         0.00013   0.00007   0.00537  -0.01414   0.00873
 137        3PZ         0.00001   0.00000   0.00032  -0.00104   0.00039
 138        4S          0.00813   0.00499  -0.00568   0.13126   0.00071
 139        4PX        -0.00946  -0.00880   0.02823  -0.06556  -0.00530
 140        4PY         0.00193   0.00108   0.00230   0.00915   0.00343
 141        4PZ         0.00013   0.00008   0.00004   0.00068   0.00020
 142        5S         -0.02615  -0.03409   0.42921   0.48115  -0.24355
 143        5PX         0.00625   0.00444  -0.08907  -0.11337   0.05067
 144        5PY        -0.00243  -0.00419   0.02053   0.01819  -0.01368
 145        5PZ        -0.00015  -0.00023   0.00131   0.00128  -0.00087
 146        6D 0        0.00008  -0.00001  -0.00332  -0.01626  -0.00004
 147        6D+1       -0.00001   0.00000  -0.00024  -0.00055  -0.00022
 148        6D-1        0.00001   0.00000   0.00006   0.00015   0.00009
 149        6D+2       -0.00032  -0.00002   0.00484   0.02587  -0.00149
 150        6D-2       -0.00016   0.00001  -0.00383  -0.00726  -0.00415
 151 10  N  1S          0.00000   0.00000  -0.00670  -0.09833  -0.00621
 152        2S          0.00001   0.00002  -0.01040  -0.15404  -0.00984
 153        2PX         0.00002   0.00001  -0.00697  -0.09642  -0.00494
 154        2PY        -0.00003  -0.00000   0.00125   0.01429   0.00224
 155        2PZ        -0.00000  -0.00000   0.00009   0.00106   0.00013
 156        3S         -0.00016  -0.00027   0.02739   0.41174   0.02734
 157        3PX        -0.00015  -0.00001  -0.00796  -0.12701  -0.00649
 158        3PY         0.00013   0.00000   0.00230   0.01861   0.00402
 159        3PZ         0.00001  -0.00000   0.00015   0.00138   0.00023
 160        4S          0.00422   0.00431   0.00463   0.31318   0.02131
 161        4PX        -0.00093  -0.00119  -0.00153  -0.06072  -0.00243
 162        4PY        -0.00009   0.00018  -0.00156   0.00930   0.00152
 163        4PZ        -0.00000   0.00001  -0.00008   0.00068   0.00009
 164        5S          0.00405   0.00472  -0.02293  -0.03624   0.00929
 165        5PX        -0.00196  -0.00112   0.01166   0.02283  -0.00581
 166        5PY         0.00043   0.00055  -0.00174  -0.00371  -0.00088
 167        5PZ         0.00003   0.00003  -0.00011  -0.00026  -0.00003
 168        6D 0       -0.00002  -0.00001  -0.00063  -0.01175  -0.00070
 169        6D+1       -0.00000  -0.00000  -0.00004  -0.00042  -0.00009
 170        6D-1        0.00000   0.00000   0.00002   0.00009   0.00003
 171        6D+2        0.00004   0.00001   0.00085   0.01892   0.00077
 172        6D-2       -0.00006  -0.00001  -0.00069  -0.00562  -0.00151
 173 11  H  1S          0.00001   0.00003   0.05217  -0.00750   0.07710
 174        2S         -0.00093  -0.00095   0.05567  -0.00972   0.07213
 175        3S          0.00330   0.00507  -0.03395   0.00060   0.00794
 176        4PX         0.00013  -0.00001  -0.00697   0.00159  -0.00795
 177        4PY         0.00004   0.00011  -0.01161   0.00179  -0.01289
 178        4PZ         0.00000   0.00001  -0.00058   0.00009  -0.00064
                          11        12        13        14        15
                           O         O         O         O         O
     Eigenvalues --    -0.77558  -0.63902  -0.61266  -0.59823  -0.48438
   1 1   C  1S          0.01597   0.05322  -0.01727  -0.04731   0.01029
   2        2S          0.02453   0.08323  -0.02675  -0.07404   0.01621
   3        2PX        -0.04513   0.01941  -0.05142   0.06242  -0.07740
   4        2PY        -0.00215  -0.00013  -0.05097  -0.04573  -0.00898
   5        2PZ         0.00002  -0.00006  -0.00257  -0.00264  -0.00020
   6        3S         -0.06428  -0.22434   0.07169   0.19992  -0.04515
   7        3PX        -0.06723   0.02772  -0.07632   0.08926  -0.11130
   8        3PY        -0.00386  -0.00002  -0.06866  -0.06160  -0.01412
   9        3PZ         0.00000  -0.00008  -0.00344  -0.00357  -0.00035
  10        4S         -0.04091  -0.13973   0.07565   0.14042  -0.06261
  11        4PX        -0.01157   0.01134  -0.02538   0.04179  -0.04448
  12        4PY        -0.01017   0.00522  -0.02288  -0.03335  -0.01168
  13        4PZ        -0.00051   0.00024  -0.00115  -0.00191  -0.00046
  14        5S         -0.17077   0.06553  -0.05410   0.05095  -0.00304
  15        5PX        -0.05117   0.02618   0.02481  -0.04289  -0.01604
  16        5PY        -0.02169   0.01847  -0.01178  -0.00954  -0.00768
  17        5PZ        -0.00101   0.00091  -0.00071  -0.00037  -0.00036
  18        6D 0        0.00124   0.00590   0.00090  -0.00355   0.00035
  19        6D+1       -0.00067   0.00001  -0.00054   0.00035  -0.00070
  20        6D-1        0.00006  -0.00095  -0.00061   0.00025  -0.00064
  21        6D+2       -0.00254   0.00756   0.01030   0.00103   0.01218
  22        6D-2       -0.01276  -0.00005  -0.00955   0.00700  -0.01255
  23 2   C  1S          0.07708  -0.02684   0.01841   0.00305   0.02111
  24        2S          0.11976  -0.04205   0.02906   0.00484   0.03331
  25        2PX        -0.03453   0.11606   0.08228   0.00943   0.09817
  26        2PY        -0.00217  -0.01149  -0.01181  -0.11949  -0.02062
  27        2PZ        -0.00002  -0.00094  -0.00090  -0.00641  -0.00133
  28        3S         -0.32283   0.11381  -0.08262  -0.01668  -0.09837
  29        3PX        -0.05445   0.16538   0.11526   0.01360   0.13704
  30        3PY        -0.00695  -0.01580  -0.01832  -0.17136  -0.03318
  31        3PZ        -0.00022  -0.00131  -0.00137  -0.00920  -0.00207
  32        4S         -0.19110   0.11810  -0.02077   0.03264  -0.07996
  33        4PX        -0.02546   0.07544   0.06077   0.01646   0.04224
  34        4PY         0.00797   0.00458   0.00106  -0.05781  -0.00741
  35        4PZ         0.00050   0.00003  -0.00013  -0.00313  -0.00046
  36        5S          0.68892  -0.82457  -0.27531  -0.46585  -0.26686
  37        5PX         0.22987  -0.45596  -0.18496  -0.17294  -0.15069
  38        5PY        -0.13622   0.10450   0.01133   0.00629  -0.00479
  39        5PZ        -0.00792   0.00692   0.00118   0.00084   0.00019
  40        6D 0        0.01134  -0.00346   0.00362   0.00326  -0.00019
  41        6D+1       -0.00002  -0.00037   0.00070   0.00046  -0.00064
  42        6D-1       -0.00099  -0.00057  -0.00016  -0.00060  -0.00129
  43        6D+2       -0.00116   0.01698  -0.00407   0.00500   0.02509
  44        6D-2       -0.00149  -0.00578   0.01245   0.00858  -0.01055
  45 3   C  1S         -0.06719  -0.06027   0.01237  -0.02763   0.01801
  46        2S         -0.10410  -0.09416   0.01952  -0.04315   0.02849
  47        2PX         0.01133  -0.04345  -0.06083   0.03405   0.15907
  48        2PY        -0.01548   0.00195   0.01044   0.09491  -0.05040
  49        2PZ        -0.00086   0.00025   0.00073   0.00495  -0.00314
  50        3S          0.27850   0.25721  -0.05571   0.11925  -0.06990
  51        3PX         0.01701  -0.05731  -0.08502   0.04958   0.22416
  52        3PY        -0.02123   0.00303   0.01362   0.13268  -0.06604
  53        3PZ        -0.00118   0.00036   0.00096   0.00692  -0.00416
  54        4S          0.13926   0.19333   0.00015   0.07586  -0.11284
  55        4PX        -0.00085  -0.01579  -0.01625   0.00791   0.09636
  56        4PY        -0.00401  -0.00740  -0.00532   0.05046  -0.04138
  57        4PZ        -0.00021  -0.00034  -0.00024   0.00267  -0.00248
  58        5S          0.06269  -0.07543  -0.04825  -0.07588   0.03989
  59        5PX         0.03488  -0.03851  -0.00986   0.02526   0.02112
  60        5PY         0.00844   0.01307   0.00673   0.03142  -0.01582
  61        5PZ         0.00034   0.00083   0.00039   0.00160  -0.00090
  62        6D 0       -0.00993  -0.00463   0.00472  -0.00292  -0.00144
  63        6D+1        0.00011   0.00007   0.00096   0.00017   0.00050
  64        6D-1        0.00101   0.00069   0.00011  -0.00016  -0.00081
  65        6D+2       -0.00182  -0.00495  -0.01124   0.00789   0.01704
  66        6D-2        0.00302   0.00133   0.01701   0.00402   0.01019
  67 4   N  1S         -0.00013   0.02584  -0.00983   0.00379  -0.00919
  68        2S         -0.00022   0.04121  -0.01557   0.00614  -0.01485
  69        2PX        -0.08458  -0.03809   0.09256  -0.09582  -0.14003
  70        2PY         0.03359  -0.01261   0.13941   0.09810   0.02843
  71        2PZ         0.00206  -0.00050   0.00704   0.00551   0.00206
  72        3S          0.00095  -0.11809   0.04319  -0.01816   0.04517
  73        3PX        -0.12646  -0.05554   0.13425  -0.14063  -0.20423
  74        3PY         0.05074  -0.01808   0.20275   0.14446   0.04351
  75        3PZ         0.00311  -0.00072   0.01024   0.00812   0.00312
  76        4S         -0.00474  -0.11860   0.04112  -0.01851   0.04272
  77        4PX        -0.06717  -0.02530   0.08961  -0.09547  -0.13564
  78        4PY         0.02499  -0.00005   0.12711   0.09509   0.02600
  79        4PZ         0.00154   0.00011   0.00641   0.00534   0.00193
  80        5S          0.02481  -0.05526   0.03028   0.02787  -0.01763
  81        5PX         0.04247  -0.00387   0.00508   0.02873   0.00430
  82        5PY        -0.00820   0.00887   0.01572  -0.02083  -0.00284
  83        5PZ        -0.00059   0.00050   0.00080  -0.00121  -0.00016
  84        6D 0        0.00006   0.00138   0.00025   0.00091  -0.00014
  85        6D+1        0.00043  -0.00034   0.00019   0.00012   0.00030
  86        6D-1       -0.00054  -0.00065  -0.00001  -0.00054  -0.00077
  87        6D+2        0.00947   0.01012  -0.00089   0.00820   0.01415
  88        6D-2        0.00856  -0.00597   0.00375   0.00256   0.00630
  89 5   C  1S         -0.04412  -0.00826  -0.05111   0.04859  -0.01732
  90        2S         -0.06810  -0.01277  -0.07965   0.07613  -0.02750
  91        2PX         0.00357  -0.04162  -0.04211   0.02158   0.03498
  92        2PY         0.03385   0.06984  -0.04380  -0.01491  -0.04766
  93        2PZ         0.00179   0.00386  -0.00221  -0.00087  -0.00263
  94        3S          0.17695   0.03444   0.21429  -0.20460   0.07728
  95        3PX         0.00293  -0.05983  -0.05537   0.03128   0.04995
  96        3PY         0.04886   0.10050  -0.06210  -0.02181  -0.06481
  97        3PZ         0.00260   0.00556  -0.00315  -0.00127  -0.00358
  98        4S          0.10944   0.01003   0.14272  -0.13553   0.07800
  99        4PX         0.01260  -0.02936  -0.03552   0.01739   0.03463
 100        4PY         0.01344   0.02904  -0.02823  -0.00977  -0.04001
 101        4PZ         0.00068   0.00165  -0.00140  -0.00058  -0.00222
 102        5S          0.07367  -0.16135   0.00462  -0.01340  -0.11506
 103        5PX         0.00868  -0.03810  -0.01564  -0.01701  -0.03185
 104        5PY         0.02015  -0.02715  -0.01033   0.05472   0.00611
 105        5PZ         0.00104  -0.00133  -0.00050   0.00298   0.00042
 106        6D 0       -0.00602   0.00006  -0.00223   0.00527  -0.00196
 107        6D+1        0.00028   0.00047  -0.00038  -0.00029   0.00054
 108        6D-1        0.00092   0.00056   0.00029  -0.00044  -0.00016
 109        6D+2       -0.00718  -0.01113  -0.00120  -0.00054   0.00582
 110        6D-2        0.00540   0.00817  -0.00690  -0.00598   0.01048
 111 6   H  1S          0.02503   0.01404   0.08194  -0.05628   0.01039
 112        2S          0.03018   0.01442   0.10045  -0.07065   0.01289
 113        3S         -0.00069   0.00302   0.00418  -0.00650   0.00965
 114        4PX         0.00384   0.00061   0.01360  -0.00733   0.00066
 115        4PY         0.00351   0.00460   0.00461  -0.00427  -0.00252
 116        4PZ         0.00018   0.00024   0.00020  -0.00020  -0.00014
 117 7   H  1S          0.04195   0.07223   0.01527   0.06218  -0.12632
 118        2S          0.04683   0.09064   0.02307   0.07859  -0.17468
 119        3S          0.00114   0.01137   0.00549   0.01448  -0.03998
 120        4PX         0.00416   0.00587   0.00073   0.00896  -0.00519
 121        4PY        -0.00649  -0.01089  -0.00551  -0.00587   0.01563
 122        4PZ        -0.00036  -0.00060  -0.00030  -0.00034   0.00085
 123 8   H  1S         -0.01358  -0.04735   0.04319   0.07936  -0.01200
 124        2S         -0.01893  -0.05696   0.05519   0.09951  -0.01319
 125        3S         -0.00274  -0.00108   0.00323   0.00765  -0.00749
 126        4PX        -0.00197   0.00123  -0.00393   0.00127  -0.00490
 127        4PY        -0.00408  -0.00662   0.00809   0.01350  -0.00053
 128        4PZ        -0.00021  -0.00036   0.00044   0.00072  -0.00001
 129 9   C  1S          0.02584  -0.04594  -0.01632  -0.00715  -0.03711
 130        2S          0.04134  -0.07327  -0.02646  -0.01150  -0.05927
 131        2PX         0.09653  -0.10953  -0.03673  -0.01975  -0.05876
 132        2PY        -0.01541   0.01603   0.00999  -0.02483   0.00172
 133        2PZ        -0.00111   0.00118   0.00063  -0.00127   0.00029
 134        3S         -0.11546   0.20639   0.07534   0.03235   0.17006
 135        3PX         0.11643  -0.13376  -0.04631  -0.02626  -0.07399
 136        3PY        -0.01865   0.01997   0.01278  -0.03791   0.00161
 137        3PZ        -0.00134   0.00146   0.00081  -0.00195   0.00035
 138        4S         -0.08811   0.15394   0.06094   0.02102   0.16865
 139        4PX         0.00525  -0.01647   0.01408   0.01583  -0.04959
 140        4PY        -0.00408   0.00007   0.00107  -0.02294  -0.00027
 141        4PZ        -0.00023   0.00005   0.00001  -0.00128   0.00015
 142        5S         -0.67349   1.04080   0.38809   0.51382   0.35426
 143        5PX         0.17568  -0.24320  -0.08557  -0.12747  -0.08440
 144        5PY        -0.00512   0.02405   0.02673   0.00764   0.01833
 145        5PZ        -0.00077   0.00195   0.00164   0.00076   0.00122
 146        6D 0        0.00681  -0.00769  -0.00446  -0.00167  -0.00233
 147        6D+1        0.00022  -0.00030  -0.00009   0.00035  -0.00014
 148        6D-1       -0.00008   0.00006   0.00012  -0.00008  -0.00001
 149        6D+2       -0.01049   0.01249   0.00551   0.00407   0.00444
 150        6D-2        0.00290  -0.00420  -0.00095   0.00701  -0.00211
 151 10  N  1S         -0.02731   0.02485   0.00921   0.00404   0.02014
 152        2S         -0.04356   0.04002   0.01486   0.00651   0.03250
 153        2PX        -0.02089   0.00848   0.00216  -0.00094  -0.01967
 154        2PY         0.00284  -0.00138   0.00156  -0.00973  -0.00118
 155        2PZ         0.00022  -0.00010   0.00007  -0.00052   0.00001
 156        3S          0.12374  -0.11709  -0.04327  -0.01877  -0.09616
 157        3PX        -0.03344   0.01799   0.00638  -0.00058  -0.02450
 158        3PY         0.00458  -0.00272   0.00123  -0.01605  -0.00228
 159        3PZ         0.00035  -0.00020   0.00004  -0.00086  -0.00003
 160        4S          0.10456  -0.11500  -0.05916  -0.02976  -0.09897
 161        4PX        -0.01384   0.00844   0.00737   0.00273  -0.01736
 162        4PY         0.00313  -0.00100   0.00098  -0.00781  -0.00053
 163        4PZ         0.00021  -0.00008   0.00003  -0.00043   0.00004
 164        5S          0.03011  -0.05166  -0.02888  -0.03863  -0.02805
 165        5PX        -0.02540   0.03179   0.01382   0.02169   0.01099
 166        5PY         0.00129  -0.00253  -0.00720   0.00197  -0.00276
 167        5PZ         0.00014  -0.00022  -0.00041   0.00005  -0.00018
 168        6D 0       -0.00391   0.00310   0.00125   0.00045   0.00015
 169        6D+1       -0.00015   0.00011   0.00004   0.00020   0.00003
 170        6D-1        0.00003  -0.00002  -0.00001  -0.00007  -0.00002
 171        6D+2        0.00633  -0.00500  -0.00207   0.00039   0.00012
 172        6D-2       -0.00200   0.00141   0.00041   0.00377   0.00064
 173 11  H  1S         -0.00764  -0.04780   0.12841   0.02192  -0.02664
 174        2S         -0.00394  -0.06041   0.14311   0.02410  -0.03481
 175        3S         -0.01278   0.00315   0.00134  -0.00009  -0.00518
 176        4PX        -0.00335   0.00240  -0.00822  -0.00822  -0.00614
 177        4PY         0.00317   0.00732  -0.01558   0.00126   0.00670
 178        4PZ         0.00018   0.00037  -0.00078   0.00010   0.00038
                          16        17        18        19        20
                           O         O         O         O         O
     Eigenvalues --    -0.46287  -0.44907  -0.42818  -0.41281  -0.38949
   1 1   C  1S          0.00461  -0.00000   0.01764  -0.00583  -0.00093
   2        2S          0.00706  -0.00001   0.02785  -0.00922  -0.00151
   3        2PX         0.03774   0.00035   0.11092  -0.09043   0.03296
   4        2PY         0.14203  -0.00317   0.03492   0.13077   0.00009
   5        2PZ         0.00727   0.06891   0.00152   0.00725  -0.00010
   6        3S         -0.01504   0.00003  -0.07478   0.03214   0.00424
   7        3PX         0.05316   0.00053   0.16179  -0.12677   0.04563
   8        3PY         0.19532  -0.00506   0.04884   0.17643  -0.00001
   9        3PZ         0.00995   0.10769   0.00210   0.00979  -0.00014
  10        4S         -0.06046  -0.00013  -0.13014  -0.01459   0.00102
  11        4PX         0.03335   0.00032   0.07325  -0.08163   0.03024
  12        4PY         0.10065  -0.00305   0.00782   0.10010  -0.00472
  13        4PZ         0.00509   0.06389   0.00019   0.00558  -0.00034
  14        5S         -0.06362  -0.00113   0.50305  -0.12480  -0.03376
  15        5PX        -0.04841  -0.00022  -0.01461   0.00137  -0.04294
  16        5PY         0.00738   0.00003   0.08304  -0.01142  -0.00254
  17        5PZ         0.00054  -0.00244   0.00448  -0.00061   0.00000
  18        6D 0       -0.00090   0.00133   0.00133   0.00103  -0.00035
  19        6D+1        0.00003   0.00364   0.00136   0.00009   0.00027
  20        6D-1       -0.00021   0.01451  -0.00091  -0.00104   0.00029
  21        6D+2        0.00455   0.00080   0.01305   0.01735  -0.00502
  22        6D-2        0.00115  -0.00014   0.02607   0.00271   0.00471
  23 2   C  1S         -0.00503  -0.00001  -0.02219  -0.01110   0.00643
  24        2S         -0.00812  -0.00002  -0.03529  -0.01788   0.01070
  25        2PX        -0.02696   0.00023  -0.06071  -0.01593  -0.05579
  26        2PY        -0.11044  -0.00699  -0.07644   0.00270  -0.00060
  27        2PZ        -0.00621   0.12396  -0.00391   0.00016   0.00015
  28        3S          0.01885   0.00005   0.10226   0.05335  -0.03122
  29        3PX        -0.03462   0.00040  -0.08274  -0.02465  -0.08823
  30        3PY        -0.16268  -0.01102  -0.10607   0.00838   0.00047
  31        3PZ        -0.00921   0.19606  -0.00542   0.00047   0.00031
  32        4S          0.00465   0.00006   0.13376   0.10196  -0.03192
  33        4PX        -0.04478   0.00018  -0.03919  -0.03562  -0.03809
  34        4PY        -0.06891  -0.00648  -0.08507   0.03062  -0.00751
  35        4PZ        -0.00390   0.11740  -0.00443   0.00171  -0.00028
  36        5S         -0.07109   0.00042  -0.35139   0.29632  -0.33259
  37        5PX        -0.10007  -0.00052   0.14296   0.07286  -0.13480
  38        5PY        -0.03274  -0.00059   0.07272  -0.04024  -0.03453
  39        5PZ        -0.00142   0.00381   0.00344  -0.00237  -0.00146
  40        6D 0        0.00049   0.00115   0.00146  -0.00067   0.00232
  41        6D+1        0.00080  -0.00671  -0.00041   0.00023   0.00003
  42        6D-1       -0.00084   0.01194   0.00014  -0.00098   0.00044
  43        6D+2        0.01297   0.00064  -0.00475   0.01910  -0.01219
  44        6D-2        0.01518   0.00046  -0.00815   0.00540  -0.00045
  45 3   C  1S          0.00448   0.00002   0.01845   0.01167   0.00247
  46        2S          0.00689   0.00003   0.02955   0.01859   0.00396
  47        2PX        -0.02152   0.00011   0.04402  -0.00014  -0.01516
  48        2PY        -0.08216  -0.00498   0.03217   0.15895   0.00021
  49        2PZ        -0.00462   0.08984   0.00158   0.00845   0.00005
  50        3S         -0.02007  -0.00011  -0.08234  -0.05908  -0.01269
  51        3PX        -0.03636   0.00018   0.05831   0.00226  -0.02263
  52        3PY        -0.11473  -0.00775   0.04543   0.21777  -0.00020
  53        3PZ        -0.00649   0.14026   0.00225   0.01156   0.00005
  54        4S         -0.04439  -0.00013  -0.14347  -0.03156  -0.01969
  55        4PX        -0.00397   0.00018   0.00795  -0.00013  -0.01781
  56        4PY        -0.04128  -0.00423   0.03092   0.14083   0.00283
  57        4PZ        -0.00244   0.07852   0.00163   0.00748   0.00020
  58        5S          0.02470   0.00004   0.00818   0.09139  -0.03336
  59        5PX        -0.01297  -0.00000   0.02662   0.01317   0.00885
  60        5PY        -0.02065  -0.00089   0.01123  -0.00780   0.01412
  61        5PZ        -0.00111   0.01575   0.00051  -0.00046   0.00073
  62        6D 0       -0.00006  -0.00078   0.00099  -0.00148   0.00017
  63        6D+1        0.00043   0.01938   0.00083  -0.00073  -0.00001
  64        6D-1        0.00098  -0.00730  -0.00120   0.00016  -0.00007
  65        6D+2       -0.01839  -0.00040   0.01968   0.00042   0.00104
  66        6D-2        0.00832  -0.00103   0.01669  -0.01334  -0.00004
  67 4   N  1S          0.01015   0.00001  -0.01041   0.00834  -0.00362
  68        2S          0.01655   0.00002  -0.01672   0.01334  -0.00579
  69        2PX         0.03663   0.00076  -0.05546  -0.01550   0.01580
  70        2PY         0.12853  -0.00831   0.00352   0.00331  -0.01268
  71        2PZ         0.00610   0.16538   0.00036   0.00019  -0.00074
  72        3S         -0.05555  -0.00008   0.05083  -0.03876   0.01737
  73        3PX         0.05088   0.00114  -0.07950  -0.01962   0.02217
  74        3PY         0.18591  -0.01268   0.00504   0.00534  -0.01802
  75        3PZ         0.00878   0.25156   0.00052   0.00030  -0.00105
  76        4S         -0.04708  -0.00008   0.07747  -0.07441   0.02643
  77        4PX         0.02853   0.00088  -0.07968  -0.02825   0.01155
  78        4PY         0.11355  -0.01063   0.00387   0.03096  -0.01757
  79        4PZ         0.00520   0.20839   0.00045   0.00169  -0.00099
  80        5S          0.03232   0.00018   0.07886  -0.09578   0.06035
  81        5PX         0.04609   0.00028  -0.01741   0.00268   0.02051
  82        5PY         0.05205   0.00034  -0.04672   0.00698  -0.01113
  83        5PZ         0.00259  -0.00150  -0.00243   0.00037  -0.00067
  84        6D 0       -0.00146  -0.00107   0.00152  -0.00075   0.00053
  85        6D+1        0.00092  -0.00410   0.00009  -0.00067   0.00013
  86        6D-1        0.00044  -0.01163   0.00002   0.00017   0.00016
  87        6D+2       -0.00622  -0.00066  -0.00304  -0.00102  -0.00403
  88        6D-2        0.01696   0.00023   0.00130  -0.01254   0.00209
  89 5   C  1S         -0.01054  -0.00004  -0.00755  -0.00240   0.00293
  90        2S         -0.01682  -0.00006  -0.01197  -0.00380   0.00469
  91        2PX         0.07322   0.00043  -0.16439   0.04835  -0.02990
  92        2PY         0.07671  -0.00297  -0.04174  -0.15636   0.00908
  93        2PZ         0.00368   0.05978  -0.00170  -0.00852   0.00058
  94        3S          0.04859   0.00016   0.02662   0.00934  -0.01478
  95        3PX         0.10230   0.00063  -0.22229   0.07176  -0.04167
  96        3PY         0.10505  -0.00464  -0.05508  -0.22350   0.01313
  97        3PZ         0.00500   0.09253  -0.00222  -0.01220   0.00083
  98        4S          0.05456   0.00026   0.09571   0.03692  -0.00148
  99        4PX         0.06471   0.00042  -0.11967   0.04160  -0.02169
 100        4PY         0.06987  -0.00285  -0.02428  -0.10750   0.00935
 101        4PZ         0.00335   0.05800  -0.00091  -0.00589   0.00057
 102        5S         -0.10287   0.00000  -0.16144   0.02748  -0.03521
 103        5PX         0.00224   0.00008  -0.05782   0.01075  -0.01586
 104        5PY         0.00249   0.00029   0.02991  -0.01616   0.02304
 105        5PZ         0.00015  -0.00537   0.00179  -0.00090   0.00128
 106        6D 0       -0.00188   0.00053  -0.00138  -0.00061  -0.00019
 107        6D+1        0.00019   0.01113   0.00080  -0.00089   0.00008
 108        6D-1       -0.00024   0.00643  -0.00077  -0.00116  -0.00002
 109        6D+2        0.00706   0.00041   0.01580   0.02352   0.00061
 110        6D-2        0.00476  -0.00057   0.01605  -0.01506   0.00153
 111 6   H  1S         -0.06313  -0.00020   0.15139   0.01750   0.01796
 112        2S         -0.08812  -0.00028   0.21639   0.02532   0.02720
 113        3S         -0.01469  -0.00004   0.07619   0.01256   0.01197
 114        4PX        -0.00961  -0.00002   0.01383   0.00520   0.00122
 115        4PY        -0.00181  -0.00023   0.00722  -0.00962   0.00189
 116        4PZ        -0.00008   0.00425   0.00034  -0.00053   0.00010
 117 7   H  1S         -0.04642  -0.00006  -0.02783   0.09728   0.00482
 118        2S         -0.06709  -0.00011  -0.03724   0.14177   0.00681
 119        3S         -0.01519  -0.00002  -0.02275   0.04863   0.00299
 120        4PX        -0.00753   0.00000   0.00323   0.01031  -0.00004
 121        4PY         0.00234  -0.00038   0.00215  -0.00443  -0.00083
 122        4PZ         0.00012   0.00707   0.00010  -0.00027  -0.00004
 123 8   H  1S         -0.11333  -0.00039  -0.04230  -0.11595   0.00553
 124        2S         -0.15863  -0.00056  -0.05771  -0.16966   0.00582
 125        3S         -0.04031  -0.00015  -0.03079  -0.06239   0.00532
 126        4PX         0.00462   0.00003   0.00825  -0.00305   0.00244
 127        4PY        -0.01382  -0.00032  -0.00089  -0.01195   0.00000
 128        4PZ        -0.00077   0.00518  -0.00007  -0.00063  -0.00001
 129 9   C  1S         -0.00051   0.00002   0.01700  -0.00716  -0.03396
 130        2S         -0.00055   0.00003   0.02728  -0.01115  -0.05364
 131        2PX        -0.00544   0.00023  -0.00026   0.00149   0.12457
 132        2PY        -0.03424  -0.00407  -0.06537   0.02114  -0.03452
 133        2PZ        -0.00202   0.07405  -0.00349   0.00109  -0.00216
 134        3S         -0.00002  -0.00010  -0.07838   0.03277   0.15538
 135        3PX        -0.00758   0.00035  -0.00125   0.00421   0.14719
[...]
    Y6       -0.90070  -0.00001   0.00000  -0.00016  -0.00009  -0.90079
    Z6       -0.00892   0.00000   0.00000  -0.00001  -0.00001  -0.00893
    X7       -5.60749  -0.00001   0.00000  -0.00020  -0.00015  -5.60764
    Y7        4.07507  -0.00001   0.00000  -0.00009  -0.00004   4.07503
    Z7        0.25252  -0.00001   0.00000  -0.00001  -0.00000   0.25252
    X8       -2.44910   0.00001   0.00000   0.00024   0.00018  -2.44891
    Y8       -3.48791  -0.00000   0.00000   0.00009   0.00009  -3.48782
    Z8       -0.16124   0.00001   0.00000   0.00001   0.00001  -0.16124
    X9        1.87643  -0.00005   0.00000   0.00003   0.00002   1.87646
    Y9       -0.06660   0.00004   0.00000   0.00019   0.00012  -0.06648
    Z9        0.00876   0.00001   0.00000   0.00001   0.00001   0.00877
   X10        4.04271   0.00006   0.00000  -0.00002  -0.00004   4.04267
   Y10       -0.38754   0.00000   0.00000  -0.00052  -0.00062  -0.38816
   Z10       -0.01498   0.00001   0.00000  -0.00003  -0.00004  -0.01502
   X11       -0.88836  -0.00001   0.00000  -0.00018  -0.00013  -0.88849
   Y11        4.31549   0.00000   0.00000   0.00018   0.00015   4.31565
   Z11        0.24848  -0.00001   0.00000   0.00000   0.00000   0.24849
         Item               Value     Threshold  Converged?
 Maximum Force            0.000061     0.000450     YES
 RMS     Force            0.000017     0.000300     YES
 Maximum Displacement     0.000620     0.001800     YES
 RMS     Displacement     0.000135     0.001200     YES
 Predicted change in Energy=-1.225377D-09
 Optimization completed.
    -- Stationary point found.
 GradGradGradGradGradGradGradGradGradGradGradGradGradGradGradGradGradGrad

 Leave Link  103 at Fri Jun  2 11:26:11 2023, MaxMem=  7381975040 cpu:               2.0 elap:               2.9
 (Enter /software/commercial/gaussian/g16/AVX/g16/l9999.exe)

 ----------------------------------------------------------------------

 Electric dipole moment (input orientation):
 (Debye = 10**-18 statcoulomb cm , SI units = C m)
                  (au)            (Debye)         (10**-30 SI)
   Tot        0.232704D+01      0.591474D+01      0.197295D+02
   x         -0.201753D+01     -0.512806D+01     -0.171054D+02
   y          0.115767D+01      0.294250D+01      0.981513D+01
   z          0.668322D-01      0.169871D+00      0.566627D+00

 Dipole polarizability, Alpha (input orientation).
 (esu units = cm**3 , SI units = C**2 m**2 J**-1)
 Alpha(0;0):
               (au)            (10**-24 esu)      (10**-40 SI)
   iso        0.928363D+02      0.137569D+02      0.153066D+02
   aniso      0.823639D+02      0.122051D+02      0.135800D+02
   xx         0.143217D+03      0.212225D+02      0.236132D+02
   yx        -0.980194D+01     -0.145250D+01     -0.161612D+01
   yy         0.837043D+02      0.124037D+02      0.138010D+02
   zx        -0.802865D+00     -0.118972D+00     -0.132374D+00
   zy         0.174269D+01      0.258241D+00      0.287332D+00
   zz         0.515878D+02      0.764452D+01      0.850567D+01

 First dipole hyperpolarizability, Beta (input orientation).
 ||, _|_  parallel and perpendicular components, (z) with respect to z axis,
 vector components x,y,z.  Values do not include the 1/n! factor of 1/2.
 (esu units = statvolt**-1 cm**4 , SI units = C**3 m**3 J**-2)
 Beta(0;0,0):
               (au)            (10**-30 esu)      (10**-50 SI)
   || (z)    -0.874493D+01     -0.755494D-01     -0.280394D-01
   _|_(z)    -0.291498D+01     -0.251831D-01     -0.934647D-02
   x          0.205486D+04      0.177524D+02      0.658862D+01
   y         -0.695372D+03     -0.600747D+01     -0.222961D+01
   z         -0.437247D+02     -0.377747D+00     -0.140197D+00
   ||         0.433954D+03      0.374902D+01      0.139141D+01
   xxx        0.935489D+03      0.808190D+01      0.299952D+01
   xxy       -0.219686D+03     -0.189791D+01     -0.704392D+00
   yxy       -0.781044D+02     -0.674761D+00     -0.250431D+00
   yyy        0.173912D+02      0.150247D+00      0.557626D-01
   xxz       -0.158133D+02     -0.136614D+00     -0.507030D-01
   yxz        0.582874D+01      0.503558D-01      0.186890D-01
   yyz        0.432450D+01      0.373603D-01      0.138659D-01
   zxz       -0.172432D+03     -0.148968D+01     -0.552879D+00
   zyz       -0.294961D+02     -0.254823D+00     -0.945751D-01
   zzz       -0.308612D+01     -0.266617D-01     -0.989523D-02

 ----------------------------------------------------------------------

 Dipole orientation:
     6         -1.38861108         -2.22142675          1.60839408
     6         -0.04754238         -0.10832803          0.80564173
     6         -0.02684927         -0.08001019          5.03567166
     7          0.76557453          1.17034463          2.93349180
     6         -1.37053155         -2.19605506          4.27731144
     1         -2.23746369         -3.56308228          5.51428978
     1          0.41740455          0.61796217          6.89622243
     1         -2.26174807         -3.59541276          0.38353927
     6          0.48499800          0.73181023         -1.65974187
     7          0.91323996          1.40816272         -3.69823601
     1          1.78558147          2.78117243          2.92423850

 Electric dipole moment (dipole orientation):
 (Debye = 10**-18 statcoulomb cm , SI units = C m)
                  (au)            (Debye)         (10**-30 SI)
   Tot        0.232704D+01      0.591474D+01      0.197295D+02
   x          0.000000D+00      0.000000D+00      0.000000D+00
   y          0.000000D+00      0.000000D+00      0.000000D+00
   z          0.232704D+01      0.591474D+01      0.197295D+02

 Dipole polarizability, Alpha (dipole orientation).
 (esu units = cm**3 , SI units = C**2 m**2 J**-1)
 Alpha(0;0):
               (au)            (10**-24 esu)      (10**-40 SI)
   iso        0.928363D+02      0.137569D+02      0.153066D+02
   aniso      0.823639D+02      0.122051D+02      0.135800D+02
   xx         0.625575D+02      0.927006D+01      0.103143D+02
   yx         0.174440D+02      0.258494D+01      0.287613D+01
   yy         0.789937D+02      0.117057D+02      0.130243D+02
   zx        -0.110751D+02     -0.164116D+01     -0.182603D+01
   zy        -0.175147D+02     -0.259540D+01     -0.288778D+01
   zz         0.136958D+03      0.202950D+02      0.225813D+02

 First dipole hyperpolarizability, Beta (dipole orientation).
 ||, _|_  parallel and perpendicular components, (z) with respect to z axis,
 vector components x,y,z.  Values do not include the 1/n! factor of 1/2.
 (esu units = statvolt**-1 cm**4 , SI units = C**3 m**3 J**-2)
 Beta(0;0,0):
               (au)            (10**-30 esu)      (10**-50 SI)
   || (z)    -0.425750D+03     -0.367815D+01     -0.136511D+01
   _|_(z)    -0.141917D+03     -0.122605D+01     -0.455036D+00
   x          0.223916D+03      0.193446D+01      0.717957D+00
   y          0.355230D+03      0.306891D+01      0.113900D+01
   z         -0.212875D+04     -0.183907D+02     -0.682554D+01
   ||         0.433954D+03      0.374902D+01      0.139141D+01
   xxx       -0.143778D+03     -0.124213D+01     -0.461005D+00
   xxy       -0.379124D+02     -0.327534D+00     -0.121561D+00
   yxy        0.292856D+02      0.253005D+00      0.939002D-01
   yyy       -0.143117D+03     -0.123642D+01     -0.458886D+00
   xxz        0.849376D+02      0.733794D+00      0.272340D+00
   yxz       -0.790176D+02     -0.682650D+00     -0.253359D+00
   yyz        0.102120D+02      0.882242D-01      0.327435D-01
   zxz        0.189131D+03      0.163395D+01      0.606423D+00
   zyz        0.299440D+03      0.258693D+01      0.960112D+00
   zzz       -0.804732D+03     -0.695226D+01     -0.258026D+01

 ----------------------------------------------------------------------
 Unable to Open any file for archive entry.
 1\1\GINC-NODE1925\Freq\RB3LYP\6-311+G(d,p)\C5H4N2\SVICCHI\02-Jun-2023\
 0\\#p freq=raman scale=0.967 pop=(nbo,full,hirshfeld) guess=read geom=
 allcheck b3lyp/6-311+G(d,p) int=grid=ultrafine EmpiricalDispersion=GD3
 BJ SCRF=(Solvent=ethanol) scf=(xqc,intrep,maxconventionalcycle=350) no
 symm\\2CNPyr-H_dissociation-site_index-3.gjf\\0,1\C,-1.4286841833,-0.7
 773871597,-0.027834364\C,-0.4004343554,0.1580101391,0.0189501091\C,-2.
 3319180623,1.2875716367,0.0852766432\N,-0.9771030222,1.412447391,0.087
 7216005\C,-2.6449637393,-0.0605652711,0.0143430472\H,-3.6393332685,-0.
 4766304715,-0.0047202165\H,-2.9673585041,2.1564359453,0.1336274392\H,-
 1.2960057622,-1.8457234429,-0.0853270957\C,0.9929654694,-0.0352435024,
 0.0046348819\N,2.1393077479,-0.2050758246,-0.0079261476\H,-0.470100319
 9,2.2836595602,0.1314911028\\Version=ES64L-G16RevC.01\HF=-302.5281024\
 RMSD=5.875e-09\RMSF=1.717e-05\ZeroPoint=0.0786716\Thermal=0.0843469\ET
 ot=-302.4437555\HTot=-302.4428114\GTot=-302.4788078\Dipole=-2.0175339,
 1.157669,0.0668322\DipoleDeriv=0.5808921,-0.200688,-0.0129986,0.048808
 3,-0.0719188,0.0063467,0.0002478,0.0068411,-0.1956877,-1.0387803,0.230
 5426,0.0155849,0.1145265,0.6012288,0.0313342,0.0101004,0.0312198,0.020
 3221,-0.239313,0.538284,0.0293664,0.0906836,0.3328185,0.0231333,0.0036
 967,0.0226262,-0.1058632,0.029604,-0.6139257,-0.0342795,-0.5824312,-0.
 6907538,-0.021783,-0.0334068,-0.0227304,-0.2599788,-0.2300536,0.061476
 2,0.003028,0.3631357,-0.3089438,-0.0018894,0.0200864,-0.0012577,-0.292
 0295,-0.037957,-0.0465917,-0.0016479,-0.0373654,0.1085478,-0.0058964,-
 0.0008955,-0.0058686,0.2207015,0.0876345,0.027428,0.0018652,0.0444625,
 0.0396279,-0.0098254,0.0033604,-0.0102937,0.2193006,0.1280972,0.039345
 9,0.0023954,0.0268507,-0.005827,-0.0118038,0.0016279,-0.0120427,0.2142
 265,1.7718227,-0.1917739,-0.0151808,-0.2368724,0.0717848,-0.0066624,-0
 .0165202,-0.0054162,0.2142083,-1.3119762,0.1110768,0.0085382,0.1372821
 ,-0.4340885,-0.0009857,0.0099467,-0.0008747,-0.4249872,0.2600295,0.044
 8258,0.0033288,0.0309196,0.357524,-0.0019682,0.0017562,-0.0022031,0.38
 97874\Polar=143.2167105,-9.8019387,83.7043114,-0.8028646,1.7426949,51.
 5877527\PolarDeriv=-38.0113332,14.1683108,1.8192306,0.8623207,-0.05617
 69,1.7175229,-13.7466144,-3.3247644,-2.3631075,-0.0096173,0.512033,-5.
 4656314,-0.6118689,-0.090385,0.5238465,-2.8261678,-5.806649,-0.9740126
 ,73.6122073,-11.9369456,2.7868079,-0.8229362,0.1913083,-0.092144,5.432
 5444,-1.1907972,0.5125589,-0.4012495,-0.0888044,2.8489512,0.0898306,-0
 .3670757,0.0846418,6.1950139,-0.8615474,0.0938982,8.3009615,-4.6551731
 ,-4.1690689,-0.2987855,-0.1469307,-0.6927873,21.7583283,-13.4176355,4.
 3370618,-0.3434891,-0.4064912,5.860312,1.0438562,-0.2592852,-0.465622,
 -7.732923,6.5854701,0.9522491,-12.2843408,4.139856,4.7254487,0.2718895
 ,0.1543197,1.5162384,7.5912837,-0.1077499,-0.6348045,-0.1041791,-0.160
 1872,-0.8836078,0.4513553,-0.0880598,-0.403447,1.419909,3.515884,0.319
 8928,10.1308015,-8.9998118,-4.4646583,-0.5661084,0.0760046,-5.4410778,
 -28.4702689,16.6049565,-2.6887147,1.3182839,0.1110584,-2.7041748,-1.60
 07279,1.2486497,0.152165,-6.7072964,-2.5913315,-0.2644477,-14.6533585,
 -3.8574606,-2.4089873,-0.1625436,-0.0744112,-0.7912753,-4.6625234,-2.9
 48058,-2.3842566,-0.1732332,-0.111935,-0.3126036,-0.1648958,-0.164119,
 -0.1386437,0.580576,0.2061069,0.013211,-7.1584713,4.8622246,-4.7001571
 ,0.2868499,-0.2351631,-0.692336,5.2199956,-5.9002792,9.0676048,-0.3828
 459,0.4895528,0.7359376,0.3074071,-0.3908118,0.5545554,1.1390489,-0.58
 91073,-0.0298004,-0.61904,-1.2935315,1.2314387,-0.0651136,0.0673194,0.
 108383,-0.8480991,-0.2577594,-13.5138742,-0.0476486,-0.6946421,-0.9832
 523,-0.0413376,-0.0433388,-0.7729983,0.6033634,0.2004786,-0.0392153,-1
 08.0222518,15.9213907,-4.1921346,1.1662004,-0.3272284,0.9660561,14.770
 1233,-4.9486949,1.5807866,-0.1682002,0.0679302,0.0412285,1.1250837,-0.
 1514221,0.0774848,-2.8257248,0.4603627,0.0829939,85.926276,-11.0514137
 ,4.9751244,-0.8109985,0.1518841,2.7123566,-9.7662952,12.4827575,-3.966
 4016,0.1603177,-0.1556651,-0.3969799,-0.7207648,0.1604969,-0.0833895,1
 0.1410985,-1.3710196,-0.2385714,2.7785492,2.7025543,4.3969559,0.139225
 3,0.1990743,0.6890633,2.7215257,3.0080246,10.0531468,0.1518613,0.43715
 07,1.2598205,0.1220621,0.1453508,0.4714069,0.0131022,0.2513526,0.08380
 25\HyperPolar=935.4892328,-219.6858193,-78.1044167,17.3912431,-15.8132
 668,5.8287388,4.3245033,-172.431959,-29.4960918,-3.0861248\Quadrupole=
 -4.3556798,7.2887111,-2.9330313,-0.7162163,-0.0699288,0.5657656\PG=C01
  [X(C5H4N2)]\NImag=0\\0.55702806,-0.01165297,0.84806411,-0.00206475,0.
 03878692,0.12375611,-0.19840500,-0.12707358,-0.00635544,0.80640454,-0.
 12176923,-0.21585707,-0.00770486,-0.00203105,0.57200205,-0.00606384,-0
 .00768080,-0.06357990,-0.00224497,0.02425490,0.11659109,0.02329742,0.0
 1399721,0.00070900,-0.08698754,0.04899235,0.00291169,0.66830766,0.0683
 5799,-0.05380255,-0.00363730,0.01792476,-0.02672572,-0.00228013,-0.128
 50809,0.79971157,0.00363334,-0.00347878,0.01017030,0.00125873,-0.00237
 856,0.01482875,-0.00855685,0.03641808,0.12513403,-0.02063398,-0.003472
 73,-0.00007593,-0.11796627,0.07018145,0.00405397,-0.32496064,-0.008807
 95,0.00035481,0.72667912,-0.03492498,-0.08420331,-0.00521212,0.0548867
 9,-0.25937379,-0.01123558,-0.01422740,-0.11859533,-0.00327361,0.155706
 63,0.86450676,-0.00180411,-0.00530957,0.01503643,0.00323004,-0.0111528
 1,-0.05181944,0.00017102,-0.00321548,-0.05654021,0.00575018,0.04058919
 ,0.08348228,-0.25040443,0.09483585,0.00571980,-0.07472450,-0.02882390,
 -0.00126336,-0.12140561,-0.06676502,-0.00340618,-0.04195665,-0.0278980
 5,-0.00129681,0.78839485,0.06064584,-0.15803055,-0.00539340,0.03197497
 ,0.02260157,0.00049903,-0.03942896,-0.33633532,-0.01434007,-0.07600794
 ,-0.04039700,-0.00266864,0.12418325,0.62175863,0.00390825,-0.00550873,
 -0.06131289,0.00198746,0.00068613,0.01135444,-0.00193009,-0.01428090,-
 0.06572511,-0.00389883,-0.00276473,0.01293742,0.00444646,0.02650441,0.
 11974525,-0.01179282,-0.01209344,-0.00060586,-0.00285522,0.00270666,0.
 00016481,0.00137500,0.00249371,0.00012569,0.00106259,0.00016979,0.0000
 2012,-0.31034709,-0.10786870,-0.00485687,0.32228405,0.01556077,0.01174
 701,0.00057304,0.00345577,-0.00241628,-0.00035712,-0.02570253,-0.00108
 827,0.00006078,-0.00162653,-0.00618762,-0.00055136,-0.10595093,-0.1015
 1040,-0.00360306,0.11533140,0.09738617,0.00086247,0.00066184,0.0001025
 4,0.00020837,-0.00035279,0.00406967,-0.00137945,-0.00003034,-0.0007180
 4,-0.00007045,-0.00055959,0.00424597,-0.00475433,-0.00359693,-0.027679
 02,0.00520163,0.00363290,0.02239857,-0.00002995,-0.00283017,-0.0001365
 9,-0.00357434,-0.00381888,-0.00018511,-0.15838870,0.13543799,0.0076545
 0,-0.01620131,0.02892999,0.00158161,0.01123720,-0.00646468,-0.00037017
 ,-0.00016669,0.00080977,0.00003357,0.16629161,-0.00155410,-0.00485148,
 -0.00048598,-0.00249260,0.00011558,-0.00012239,0.14584998,-0.26021562,
 -0.01283384,-0.00735354,0.00994546,0.00059470,0.01716025,-0.00658379,-
 0.00055572,-0.00045247,0.00048213,0.00018782,-0.15293335,0.26061895,-0
 .00007406,-0.00048306,0.00432379,-0.00010301,-0.00011970,0.00255131,0.
 00822921,-0.01278460,-0.02780474,-0.00035493,0.00048796,-0.00086528,0.
 00089337,-0.00048582,0.00276487,-0.00003343,0.00018578,-0.00301433,-0.
 00863637,0.01320085,0.02161243,-0.06172733,0.03772792,0.00213037,0.008
 11620,-0.02155582,-0.00117498,-0.00531649,0.00286082,0.00018181,-0.004
 01638,-0.00386133,-0.00018076,0.00613792,0.02336359,0.00123100,0.00069
 209,-0.00120628,-0.00007521,0.00083827,0.00112630,0.00006033,0.0535394
 3,0.03432884,-0.35157377,-0.01733575,0.00667454,-0.00862051,-0.0004938
 5,0.00150904,-0.00058358,-0.00025976,-0.00195299,-0.00101345,-0.000235
 74,-0.00301733,-0.00400263,-0.00027164,0.00022925,0.00014428,0.0001549
 6,-0.00022169,-0.00015678,-0.00004937,-0.03808831,0.36590501,0.0019358
 1,-0.01733517,-0.02994883,0.00033820,-0.00040349,0.00024908,0.00011530
 ,-0.00026246,0.00418568,-0.00008784,-0.00022925,0.00353329,-0.00017337
 ,-0.00036191,0.00126653,0.00000111,0.00015932,-0.00275202,-0.00001212,
 -0.00005320,0.00076383,-0.00215476,0.01846782,0.02334719,-0.05381752,-
 0.00169396,0.00007003,-0.30328352,0.04021127,0.00288208,0.01901672,0.0
 0940256,0.00046528,-0.04135157,0.01890935,0.00107575,0.00500236,-0.020
 88420,-0.00113087,-0.00019682,0.00036804,0.00002483,-0.00080212,0.0000
 5232,0.00000656,0.00085099,0.00057496,0.00003112,1.50590234,-0.0119785
 3,0.01513559,0.00096359,0.02311970,-0.09006362,-0.00259676,-0.00377517
 ,-0.01045619,-0.00063052,0.04487616,-0.00251933,0.00026777,-0.00698427
 ,-0.00006221,-0.00021937,-0.00084190,0.00116891,-0.00003295,0.00140187
 ,0.00067190,-0.00012624,0.00035481,-0.00016523,0.00016344,-0.21036570,
 0.14855560,-0.00047817,0.00093460,-0.00212675,0.00195362,-0.00268549,-
 0.04320813,-0.00028175,-0.00066500,0.00156212,0.00251853,0.00035811,-0
 .00763397,-0.00036207,-0.00016730,0.00450005,-0.00003814,-0.00003519,0
 .00184261,0.00008751,-0.00012234,0.00294727,0.00001551,0.00017257,-0.0
 0345685,-0.01548579,0.00364084,0.08924098,0.01786732,0.00706849,0.0003
 1816,-0.04147609,0.00274874,0.00033290,-0.01102161,-0.00343026,-0.0001
 6374,0.01054103,-0.00995260,-0.00054860,-0.00507764,0.00986521,0.00055
 017,-0.00035930,0.00021882,0.00001259,0.00002361,-0.00016154,-0.000006
 26,-0.00003252,-0.00046859,-0.00002418,-1.13304031,0.16396237,0.012057
 59,1.16327937,-0.00146848,-0.00364327,-0.00030553,0.00941553,0.0210440
 8,0.00026531,0.00180633,0.00210504,0.00011546,-0.00508891,0.00041380,-
 0.00013298,0.00189524,-0.00079432,-0.00001015,0.00017110,-0.00027746,0
 .00001157,-0.00018570,-0.00012356,0.00003340,0.00004471,0.00016017,-0.
 00001737,0.16325594,-0.06250787,-0.00157421,-0.16968177,0.04353980,-0.
 00012626,-0.00033225,0.00214894,0.00066754,0.00028956,0.01552952,0.000
 12810,0.00012946,-0.00011725,-0.00029259,-0.00011784,0.00319699,0.0001
 1347,-0.00003297,-0.00073817,0.00000852,0.00001184,-0.00051041,-0.0000
 1238,0.00003382,-0.00074723,0.00000452,-0.00001602,0.00048727,0.012026
 46,-0.00158866,-0.04217660,-0.01251186,0.00162500,0.02281174,-0.001381
 76,0.00518737,0.00029120,0.01475173,0.01315842,0.00058682,-0.00391622,
 -0.02896652,-0.00154739,-0.17119596,-0.16773820,-0.00799843,-0.0068564
 0,0.00062163,0.00006349,0.00030420,-0.00125830,-0.00006401,0.00077242,
 0.00075874,0.00001858,0.00091782,0.00043228,0.00003073,0.00171943,0.00
 023066,0.00001318,-0.00070385,-0.00016396,-0.00000551,0.16558860,0.004
 45483,-0.00298471,-0.00024861,-0.01585483,-0.01270628,-0.00025261,-0.0
 0051277,0.00598597,0.00060082,-0.16645364,-0.36257618,-0.01818509,0.00
 136492,0.00335602,0.00002376,0.00015460,0.00055152,-0.00007650,-0.0001
 2513,0.00009722,0.00014080,-0.00076640,-0.00009351,-0.00012773,0.00016
 942,0.00024244,0.00014341,-0.00016888,0.00008359,-0.00000193,0.1777378
 8,0.36804394,0.00027132,-0.00025501,0.00143025,-0.00094052,-0.00043287
 ,-0.00656638,-0.00011618,0.00060867,-0.00497553,-0.00789692,-0.0180425
 4,-0.00557348,0.00008302,0.00004359,0.00288664,0.00001242,-0.00007693,
 0.00201445,-0.00000444,0.00015628,-0.00253192,-0.00003781,-0.00013322,
 0.00232483,0.00003456,0.00015884,-0.00149074,-0.00001677,-0.00001050,0
 .00011519,0.00861133,0.01798368,0.01236669\\-0.00000872,0.00000640,-0.
 00001114,-0.00000119,-0.00000401,-0.00000261,0.00001027,0.00000924,0.0
 0001341,0.00000684,0.00000072,0.00001325,-0.00000110,0.00001514,-0.000
 00101,-0.00000162,0.00000858,-0.00000165,0.00000650,0.00000623,0.00000
 994,-0.00000603,0.00000246,-0.00000959,0.00005069,-0.00004060,-0.00000
 884,-0.00006092,-0.00000384,-0.00001066,0.00000527,-0.00000031,0.00000
 889\\\@
 The archive entry for this job was punched.


 When I told the people of Northern Ireland that I was
 an atheist, a woman in the audience stood up and said,
 "Yes, but is it the God of the Catholics or the God
 of the Protestants in whom you don't believe?"
                               -- Quentin Crisp
 Job cpu time:       0 days  0 hours 15 minutes 24.8 seconds.
 Elapsed time:       0 days  0 hours  8 minutes 40.9 seconds.
 File lengths (MBytes):  RWF=     88 Int=      0 D2E=      0 Chk=     13 Scr=      1
 Normal termination of Gaussian 16 at Fri Jun  2 11:26:15 2023.
