 Entering Gaussian System, Link 0=g16
 Input=2ethylimidazolide-H_dissociation-site_index-0-freq.gjf
 Output=2ethylimidazolide-H_dissociation-site_index-0-freq.log
 Initial command:
 /software/commercial/gaussian/g16/AVX/g16/l1.exe "/scratch1/svicchi/G09-659783.pbs02/Gau-246843.inp" -scrdir="/scratch1/svicchi/G09-659783.pbs02/"
 Entering Link 1 = /software/commercial/gaussian/g16/AVX/g16/l1.exe PID=    246844.
  
 Copyright (c) 1988-2019, Gaussian, Inc.  All Rights Reserved.
  
 This is part of the Gaussian(R) 16 program.  It is based on
 the Gaussian(R) 09 system (copyright 2009, Gaussian, Inc.),
 the Gaussian(R) 03 system (copyright 2003, Gaussian, Inc.),
 the Gaussian(R) 98 system (copyright 1998, Gaussian, Inc.),
 the Gaussian(R) 94 system (copyright 1995, Gaussian, Inc.),
 the Gaussian 92(TM) system (copyright 1992, Gaussian, Inc.),
 the Gaussian 90(TM) system (copyright 1990, Gaussian, Inc.),
 the Gaussian 88(TM) system (copyright 1988, Gaussian, Inc.),
 the Gaussian 86(TM) system (copyright 1986, Carnegie Mellon
 University), and the Gaussian 82(TM) system (copyright 1983,
 Carnegie Mellon University). Gaussian is a federally registered
 trademark of Gaussian, Inc.
  
 This software contains proprietary and confidential information,
 including trade secrets, belonging to Gaussian, Inc.
  
 This software is provided under written license and may be
 used, copied, transmitted, or stored only in accord with that
 written license.
  
 The following legend is applicable only to US Government
 contracts under FAR:
  
                    RESTRICTED RIGHTS LEGEND
  
 Use, reproduction and disclosure by the US Government is
 subject to restrictions as set forth in subparagraphs (a)
 and (c) of the Commercial Computer Software - Restricted
 Rights clause in FAR 52.227-19.
  
 Gaussian, Inc.
 340 Quinnipiac St., Bldg. 40, Wallingford CT 06492
  
  
 ---------------------------------------------------------------
 Warning -- This program may not be used in any manner that
 competes with the business of Gaussian, Inc. or will provide
 assistance to any competitor of Gaussian, Inc.  The licensee
 of this program is prohibited from giving any competitor of
 Gaussian, Inc. access to this program.  By using this program,
 the user acknowledges that Gaussian, Inc. is engaged in the
 business of creating and licensing software in the field of
 computational chemistry and represents and warrants to the
 licensee that it is not a competitor of Gaussian, Inc. and that
 it will not use this program in any manner prohibited above.
 ---------------------------------------------------------------
  

 Cite this work as:
 Gaussian 16, Revision C.01,
 M. J. Frisch, G. W. Trucks, H. B. Schlegel, G. E. Scuseria, 
 M. A. Robb, J. R. Cheeseman, G. Scalmani, V. Barone, 
 G. A. Petersson, H. Nakatsuji, X. Li, M. Caricato, A. V. Marenich, 
 J. Bloino, B. G. Janesko, R. Gomperts, B. Mennucci, H. P. Hratchian, 
 J. V. Ortiz, A. F. Izmaylov, J. L. Sonnenberg, D. Williams-Young, 
 F. Ding, F. Lipparini, F. Egidi, J. Goings, B. Peng, A. Petrone, 
 T. Henderson, D. Ranasinghe, V. G. Zakrzewski, J. Gao, N. Rega, 
 G. Zheng, W. Liang, M. Hada, M. Ehara, K. Toyota, R. Fukuda, 
 J. Hasegawa, M. Ishida, T. Nakajima, Y. Honda, O. Kitao, H. Nakai, 
 T. Vreven, K. Throssell, J. A. Montgomery, Jr., J. E. Peralta, 
 F. Ogliaro, M. J. Bearpark, J. J. Heyd, E. N. Brothers, K. N. Kudin, 
 V. N. Staroverov, T. A. Keith, R. Kobayashi, J. Normand, 
 K. Raghavachari, A. P. Rendell, J. C. Burant, S. S. Iyengar, 
 J. Tomasi, M. Cossi, J. M. Millam, M. Klene, C. Adamo, R. Cammi, 
 J. W. Ochterski, R. L. Martin, K. Morokuma, O. Farkas, 
 J. B. Foresman, and D. J. Fox, Gaussian, Inc., Wallingford CT, 2019.
 
 ******************************************
 Gaussian 16:  ES64L-G16RevC.01  3-Jul-2019
                 2-Jun-2023 
 ******************************************
 %NProcShared=2
 Will use up to    2 processors via shared memory.
 %mem=55gb
 %chk=/scratch1/svicchi/G09-659783.pbs02/02-freq/2ethylimidazolide-H_dissociation
 -site_index-0-freq.chk
 ----------------------------------------------------------------------
 #p freq=raman scale=0.967 pop=(nbo,full,hirshfeld) guess=read geom=all
 check b3lyp/6-311+G(d,p) int=grid=ultrafine EmpiricalDispersion=GD3BJ 
 SCRF=(Solvent=ethanol) scf=(xqc,intrep,maxconventionalcycle=350) nosym
 m
 ----------------------------------------------------------------------
 1/10=4,29=7,30=1,38=1,114=967000/1,3;
 2/12=2,15=1,40=1/2;
 3/5=4,6=6,7=111,11=2,14=-4,25=1,30=1,70=2201,71=2,72=4,74=-5,75=-5,116=-2,124=41,140=1/1,2,3;
 4/5=1/1;
 5/5=2,8=3,13=1,17=20,38=6,53=4,85=350,98=1/2,8;
 8/6=4,10=90,11=11/1;
 10/13=10,15=4,31=1/2;
 11/6=3,8=1,9=11,15=111,16=1,31=1/1,2,10;
 10/6=1,31=1/2;
 6/7=3,28=1,40=1,79=1/1,7;
 7/8=1,10=1,25=1,30=1/1,2,3,16;
 1/10=4,30=1/3;
 99//99;
 Leave Link    1 at Fri Jun  2 12:06:06 2023, MaxMem=  7381975040 cpu:               0.8 elap:               1.1
 (Enter /software/commercial/gaussian/g16/AVX/g16/l101.exe)
 Structure from the checkpoint file:  "/scratch1/svicchi/G09-659783.pbs02/02-freq/2ethylimidazolide-H_dissociation-site_index-0-freq.chk"
 -------------------------------------------------
 2ethylimidazolide-H_dissociation-site_index-0.gjf
 -------------------------------------------------
 Charge =  0 Multiplicity = 1
 No Z-Matrix found in chk file; cartesian coordinates used.
  N                                                -0.666691305178     -0.561946549759     -0.779412447719
  N                                                 0.400053459017     -0.693868729383      1.148386280155
  C                                                -0.461838772570     -1.302810258488      0.350175528101
  C                                                -1.101245945351     -2.632760970656      0.584587184351
  C                                                 0.105179806116      0.578827416740     -0.693201365099
  C                                                 0.757511340567      0.478126309117      0.506543881531
  H                                                 0.109204016655      1.328919993672     -1.465456615731
  H                                                 1.454439712301      1.174916061432      0.945255237667
  C                                                -0.442403003870     -3.767124095934     -0.218439509266
  H                                                -2.165648980053     -2.576000502894      0.335457004133
  H                                                -1.032940721243     -2.844633433671      1.653196129211
  H                                                -0.516169072345     -3.585371606738     -1.293653143189
  H                                                -0.930450124780     -4.720578864431     -0.002794946697
  H                                                 0.615787092483     -3.857843333949      0.038274223351
  H                                                -1.281794501748     -0.801122435059     -1.542148440799
 Recover connectivity data from disk.
 ITRead=  0  0  0  0  0  0  0  0  0  0  0  0  0  0  0
 MicOpt= -1 -1 -1 -1 -1 -1 -1 -1 -1 -1 -1 -1 -1 -1 -1
 NAtoms=     15 NQM=       15 NQMF=       0 NMMI=      0 NMMIF=      0
                NMic=       0 NMicF=      0.
                    Isotopes and Nuclear Properties:
 (Nuclear quadrupole moments (NQMom) in fm**2, nuclear magnetic moments (NMagM)
  in nuclear magnetons)

  Atom         1           2           3           4           5           6           7           8           9          10
 IAtWgt=          14          14          12          12          12          12           1           1          12           1
 AtmWgt=  14.0030740  14.0030740  12.0000000  12.0000000  12.0000000  12.0000000   1.0078250   1.0078250  12.0000000   1.0078250
 NucSpn=           2           2           0           0           0           0           1           1           0           1
 AtZEff=   4.5500000   4.5500000   3.6000000   3.6000000   3.6000000   3.6000000   1.0000000   1.0000000   3.6000000   1.0000000
 NQMom=    2.0440000   2.0440000   0.0000000   0.0000000   0.0000000   0.0000000   0.0000000   0.0000000   0.0000000   0.0000000
 NMagM=    0.4037610   0.4037610   0.0000000   0.0000000   0.0000000   0.0000000   2.7928460   2.7928460   0.0000000   2.7928460
 AtZNuc=   7.0000000   7.0000000   6.0000000   6.0000000   6.0000000   6.0000000   1.0000000   1.0000000   6.0000000   1.0000000

  Atom        11          12          13          14          15
 IAtWgt=           1           1           1           1           1
 AtmWgt=   1.0078250   1.0078250   1.0078250   1.0078250   1.0078250
 NucSpn=           1           1           1           1           1
 AtZEff=   1.0000000   1.0000000   1.0000000   1.0000000   1.0000000
 NQMom=    0.0000000   0.0000000   0.0000000   0.0000000   0.0000000
 NMagM=    2.7928460   2.7928460   2.7928460   2.7928460   2.7928460
 AtZNuc=   1.0000000   1.0000000   1.0000000   1.0000000   1.0000000
 Leave Link  101 at Fri Jun  2 12:06:08 2023, MaxMem=  7381975040 cpu:               0.3 elap:               1.3
 (Enter /software/commercial/gaussian/g16/AVX/g16/l103.exe)

 GradGradGradGradGradGradGradGradGradGradGradGradGradGradGradGradGradGrad
 Berny optimization.
 Initialization pass.
 Trust Radius=3.00D-01 FncErr=1.00D-07 GrdErr=1.00D-07 EigMax=2.50D+02 EigMin=1.00D-04
 Number of steps in this run=      2 maximum allowed number of steps=      2.
 GradGradGradGradGradGradGradGradGradGradGradGradGradGradGradGradGradGrad

 Leave Link  103 at Fri Jun  2 12:06:11 2023, MaxMem=  7381975040 cpu:               0.1 elap:               1.1
 (Enter /software/commercial/gaussian/g16/AVX/g16/l202.exe)
                          Input orientation:                          
 ---------------------------------------------------------------------
 Center     Atomic      Atomic             Coordinates (Angstroms)
 Number     Number       Type             X           Y           Z
 ---------------------------------------------------------------------
      1          7           0       -0.666691   -0.561947   -0.779412
      2          7           0        0.400053   -0.693869    1.148386
      3          6           0       -0.461839   -1.302810    0.350176
      4          6           0       -1.101246   -2.632761    0.584587
      5          6           0        0.105180    0.578827   -0.693201
      6          6           0        0.757511    0.478126    0.506544
      7          1           0        0.109204    1.328920   -1.465457
      8          1           0        1.454440    1.174916    0.945255
      9          6           0       -0.442403   -3.767124   -0.218440
     10          1           0       -2.165649   -2.576001    0.335457
     11          1           0       -1.032941   -2.844633    1.653196
     12          1           0       -0.516169   -3.585372   -1.293653
     13          1           0       -0.930450   -4.720579   -0.002795
     14          1           0        0.615787   -3.857843    0.038274
     15          1           0       -1.281795   -0.801122   -1.542148
 ---------------------------------------------------------------------
                    Distance matrix (angstroms):
                    1          2          3          4          5
     1  N    0.000000
     2  N    2.207205   0.000000
     3  C    1.366314   1.323181   0.000000
     4  C    2.517460   2.516162   1.494175   0.000000
     5  C    1.380066   2.257909   2.225018   3.660943   0.000000
     6  C    2.182610   1.383225   2.164024   3.624733   1.369330
     7  H    2.155933   3.317897   3.247863   4.621989   1.076584
     8  H    3.238884   2.155307   3.188318   4.600002   2.204623
     9  C    3.261619   3.467397   2.529139   1.538085   4.405966
    10  H    2.747039   3.284220   2.127017   1.094642   4.020913
    11  H    3.355947   2.633267   2.097913   1.091550   4.303601
    12  H    3.070537   3.894074   2.813398   2.185765   4.252901
    13  H    4.238741   4.394298   3.467755   2.175586   5.443611
    14  H    3.629917   3.360004   2.790476   2.178873   4.525464
    15  H    1.008624   3.174759   2.122477   2.812561   2.132761
                    6          7          8          9         10
     6  C    0.000000
     7  H    2.243421   0.000000
     8  H    1.078746   2.764943   0.000000
     9  C    4.470743   5.275319   5.419959   0.000000
    10  H    4.231055   4.864838   5.248454   2.166830   0.000000
    11  H    3.944777   5.333764   4.779646   2.168581   1.758303
    12  H    4.623309   4.956901   5.617504   1.092959   2.528560
    13  H    5.489551   6.310047   6.429880   1.092597   2.497868
    14  H    4.363484   5.424053   5.182144   1.092656   3.076983
    15  H    3.161074   2.545160   4.192718   3.354691   2.730713
                   11         12         13         14         15
    11  H    0.000000
    12  H    3.082153   0.000000
    13  H    2.504393   1.768231   0.000000
    14  H    2.520490   1.769066   1.771115   0.000000
    15  H    3.801065   2.898271   4.225540   3.929643   0.000000
 Symmetry turned off by external request.
 Stoichiometry    C5H8N2
 Framework group  C1[X(C5H8N2)]
 Deg. of freedom    39
 Full point group                 C1      NOp   1
 Rotational constants (GHZ):           6.7323868           1.9287519           1.6749598
 Leave Link  202 at Fri Jun  2 12:06:12 2023, MaxMem=  7381975040 cpu:               0.1 elap:               0.6
 (Enter /software/commercial/gaussian/g16/AVX/g16/l301.exe)
 Standard basis: 6-311+G(d,p) (5D, 7F)
 Ernie: Thresh=  0.10000D-02 Tol=  0.10000D-05 Strict=F.
   202 basis functions,   316 primitive gaussians,   209 cartesian basis functions
    26 alpha electrons       26 beta electrons
       nuclear repulsion energy       291.5478751576 Hartrees.
 IExCor=  402 DFT=T Ex+Corr=B3LYP ExCW=0 ScaHFX=  0.200000
 ScaDFX=  0.800000  0.720000  1.000000  0.810000 ScalE2=  1.000000  1.000000
 IRadAn=      5 IRanWt=     -1 IRanGd=            0 ICorTp=0 IEmpDi=141
 NAtoms=   15 NActive=   15 NUniq=   15 SFac= 1.00D+00 NAtFMM=   60 NAOKFM=F Big=F
 Integral buffers will be    131072 words long.
 Raffenetti 2 integral format.
 Two-electron integral symmetry is turned off.
 R6Disp:  Grimme-D3(BJ) Dispersion energy=       -0.0211321064 Hartrees.
 Nuclear repulsion after empirical dispersion term =      291.5267430512 Hartrees.
 Force inversion solution in PCM.
 ------------------------------------------------------------------------------
 Polarizable Continuum Model (PCM)
 =================================
 Model                : PCM.
 Atomic radii         : UFF (Universal Force Field).
 Polarization charges : Total charges.
 Charge compensation  : None.
 Solution method      : Matrix inversion.
 Cavity type          : Scaled VdW (van der Waals Surface) (Alpha=1.100).
 Cavity algorithm     : GePol (No added spheres)
                        Default sphere list used, NSphG=   15.
                        Lebedev-Laikov grids with approx.  5.0 points / Ang**2.
                        Smoothing algorithm: York/Karplus (Gamma=1.0000).
                        Polarization charges: spherical gaussians, with
                                              point-specific exponents (IZeta= 3).
                        Self-potential: point-specific (ISelfS= 7).
                        Self-field    : sphere-specific E.n sum rule (ISelfD= 2).
 1st derivatives      : Analytical E(r).r(x)/FMM algorithm (CHGder, D1EAlg=3).
                        Cavity 1st derivative terms included.
 2nd derivatives      : Analytical E(r).r(xy)/FMM algorithm (CHGder, D2EAlg=3).
                        Cavity 2nd derivative terms included.
 Solvent              : Ethanol, Eps=  24.852000 Eps(inf)=   1.852593
 ------------------------------------------------------------------------------
 Spheres list:
 ISph  on   Nord     Re0    Alpha      Xe            Ye            Ze
    1   N      1    1.8300  1.100     -0.666691     -0.561947     -0.779412
    2   N      2    1.8300  1.100      0.400053     -0.693869      1.148386
    3   C      3    1.9255  1.100     -0.461839     -1.302810      0.350176
    4   C      4    1.9255  1.100     -1.101246     -2.632761      0.584587
    5   C      5    1.9255  1.100      0.105180      0.578827     -0.693201
    6   C      6    1.9255  1.100      0.757511      0.478126      0.506544
    7   H      7    1.4430  1.100      0.109204      1.328920     -1.465457
    8   H      8    1.4430  1.100      1.454440      1.174916      0.945255
    9   C      9    1.9255  1.100     -0.442403     -3.767124     -0.218440
   10   H     10    1.4430  1.100     -2.165649     -2.576001      0.335457
   11   H     11    1.4430  1.100     -1.032941     -2.844633      1.653196
   12   H     12    1.4430  1.100     -0.516169     -3.585372     -1.293653
   13   H     13    1.4430  1.100     -0.930450     -4.720579     -0.002795
   14   H     14    1.4430  1.100      0.615787     -3.857843      0.038274
   15   H     15    1.4430  1.100     -1.281795     -0.801122     -1.542148
 ------------------------------------------------------------------------------
 GePol: Number of generator spheres                  =      15
 GePol: Total number of spheres                      =      15
 GePol: Number of exposed spheres                    =      15 (100.00%)
 GePol: Number of points                             =    1247
 GePol: Average weight of points                     =       0.14
 GePol: Minimum weight of points                     =   0.28D-10
 GePol: Maximum weight of points                     =    0.20577
 GePol: Number of points with low weight             =      72
 GePol: Fraction of low-weight points (<1% of avg)   =       5.77%
 GePol: Cavity surface area                          =    168.861 Ang**2
 GePol: Cavity volume                                =    158.411 Ang**3
 Leave Link  301 at Fri Jun  2 12:06:14 2023, MaxMem=  7381975040 cpu:               0.2 elap:               0.5
 (Enter /software/commercial/gaussian/g16/AVX/g16/l302.exe)
 NPDir=0 NMtPBC=     1 NCelOv=     1 NCel=       1 NClECP=     1 NCelD=      1
         NCelK=      1 NCelE2=     1 NClLst=     1 CellRange=     0.0.
 One-electron integrals computed using PRISM.
 NBasis=   202 RedAO= T EigKep=  1.55D-05  NBF=   202
 NBsUse=   202 1.00D-06 EigRej= -1.00D+00 NBFU=   202
 Precomputing XC quadrature grid using
 IXCGrd= 4 IRadAn=           5 IRanWt=          -1 IRanGd=           0 AccXCQ= 0.00D+00.
 Generated NRdTot=       0 NPtTot=           0 NUsed=           0 NTot=          32
 NSgBfM=   209   209   209   209   209 MxSgAt=    15 MxSgA2=    15.
 Leave Link  302 at Fri Jun  2 12:06:16 2023, MaxMem=  7381975040 cpu:               1.0 elap:               1.3
 (Enter /software/commercial/gaussian/g16/AVX/g16/l303.exe)
 DipDrv:  MaxL=1.
 Leave Link  303 at Fri Jun  2 12:06:18 2023, MaxMem=  7381975040 cpu:               0.1 elap:               0.8
 (Enter /software/commercial/gaussian/g16/AVX/g16/l401.exe)
 Initial guess from the checkpoint file:  "/scratch1/svicchi/G09-659783.pbs02/02-freq/2ethylimidazolide-H_dissociation-site_index-0-freq.chk"
 B after Tr=     0.000000    0.000000    0.000000
         Rot=    1.000000    0.000000    0.000000    0.000000 Ang=   0.00 deg.
 Guess basis will be translated and rotated to current coordinates.
 JPrj=2 DoOrth=T DoCkMO=T.
 Leave Link  401 at Fri Jun  2 12:06:22 2023, MaxMem=  7381975040 cpu:               0.7 elap:               2.1
 (Enter /software/commercial/gaussian/g16/AVX/g16/l502.exe)
 Keep R1 ints in memory in canonical form, NReq=214828242.
 FoFCou: FMM=F IPFlag=           0 FMFlag=           0 FMFlg1=           0
         NFxFlg=           0 DoJE=F BraDBF=F KetDBF=F FulRan=T
         wScrn=  0.000000 ICntrl=       600 IOpCl=  0 I1Cent=           0 NGrid=           0
         NMat0=    1 NMatS0=  20503 NMatT0=    0 NMatD0=    1 NMtDS0=    0 NMtDT0=    0
 Symmetry not used in FoFCou.
 Two-electron integral symmetry not used.
 Closed shell SCF:
 Using DIIS extrapolation, IDIIS=  1040.
 NGot=  7381975040 LenX=  7171687647 LenY=  7171643525
 Requested convergence on RMS density matrix=1.00D-08 within 350 cycles.
 Requested convergence on MAX density matrix=1.00D-06.
 Requested convergence on             energy=1.00D-06.
 No special actions if energy rises.

 Cycle   1  Pass 1  IDiag  1:
 Inv3:  Mode=1 IEnd=     4665027.
 Iteration    1 A*A^-1 deviation from unit magnitude is 3.55D-15 for   1246.
 Iteration    1 A*A^-1 deviation from orthogonality  is 2.26D-15 for   1234    183.
 Iteration    1 A^-1*A deviation from unit magnitude is 3.33D-15 for   1246.
 Iteration    1 A^-1*A deviation from orthogonality  is 1.60D-15 for   1240    152.
 E= -304.970450661268    
 DIIS: error= 1.70D-08 at cycle   1 NSaved=   1.
 NSaved= 1 IEnMin= 1 EnMin= -304.970450661268     IErMin= 1 ErrMin= 1.70D-08
 ErrMax= 1.70D-08  0.00D+00 EMaxC= 1.00D-01 BMatC= 3.64D-14 BMatP= 3.64D-14
 IDIUse=1 WtCom= 1.00D+00 WtEn= 0.00D+00
 Coeff-Com:  0.100D+01
 Coeff:      0.100D+01
 Gap=     0.235 Goal=   None    Shift=    0.000
 RMSDP=3.19D-09 MaxDP=1.01D-07              OVMax= 1.87D-07

 Error on total polarization charges =  0.01442
 SCF Done:  E(RB3LYP) =  -304.970450661     A.U. after    1 cycles
            NFock=  1  Conv=0.32D-08     -V/T= 2.0045
 KE= 3.035898557459D+02 PE=-1.292020912506D+03 EE= 3.919338630478D+02
 Leave Link  502 at Fri Jun  2 12:06:38 2023, MaxMem=  7381975040 cpu:              26.6 elap:              15.2
 (Enter /software/commercial/gaussian/g16/AVX/g16/l508.exe)
 QCSCF skips out because SCF is already converged.
 Leave Link  508 at Fri Jun  2 12:06:41 2023, MaxMem=  7381975040 cpu:               0.0 elap:               0.9
 (Enter /software/commercial/gaussian/g16/AVX/g16/l801.exe)
 DoSCS=F DFT=T ScalE2(SS,OS)=  1.000000  1.000000
 Range of M.O.s used for correlation:     1   202
 NBasis=   202 NAE=    26 NBE=    26 NFC=     0 NFV=     0
 NROrb=    202 NOA=    26 NOB=    26 NVA=   176 NVB=   176

 **** Warning!!: The largest alpha MO coefficient is  0.67036449D+02

 Leave Link  801 at Fri Jun  2 12:06:42 2023, MaxMem=  7381975040 cpu:               0.1 elap:               0.7
 (Enter /software/commercial/gaussian/g16/AVX/g16/l1002.exe)
 Minotr:  Closed shell wavefunction.
 NEqPCM:  Using equilibrium solvation (IEInf=0, Eps=  24.8520, EpsInf=   1.8526)
          Direct CPHF calculation.
          Differentiating once with respect to electric field.
                with respect to dipole field.
          Electric field/nuclear overlap derivatives assumed to be zero.
          Requested convergence is 1.0D-08 RMS, and 1.0D-07 maximum.
          Secondary convergence is 1.0D-12 RMS, and 1.0D-12 maximum.
          NewPWx=F KeepS1=T KeepF1=T KeepIn=T MapXYZ=F SortEE=F KeepMc=T.
         4611 words used for storage of precomputed grid.
 Keep R1 ints in memory in canonical form, NReq=215207515.
 FoFCou: FMM=F IPFlag=           0 FMFlag=           0 FMFlg1=           0
         NFxFlg=           0 DoJE=F BraDBF=F KetDBF=F FulRan=T
         wScrn=  0.000000 ICntrl=       600 IOpCl=  0 I1Cent=           0 NGrid=           0
         NMat0=    1 NMatS0=  20503 NMatT0=    0 NMatD0=    1 NMtDS0=    0 NMtDT0=    0
 Symmetry not used in FoFCou.
 Two-electron integral symmetry not used.
          MDV=    7381975040 using IRadAn=       1.
          Solving linear equations simultaneously, MaxMat=       0.
          There are     3 degrees of freedom in the 1st order CPHF.  IDoFFX=0 NUNeed=     3.
      3 vectors produced by pass  0 Test12= 1.53D-13 3.33D-08 XBig12= 6.29D+01 3.79D+00.
 AX will form     3 AO Fock derivatives at one time.
      3 vectors produced by pass  1 Test12= 1.53D-13 3.33D-08 XBig12= 1.35D+01 8.14D-01.
      3 vectors produced by pass  2 Test12= 1.53D-13 3.33D-08 XBig12= 2.15D+00 2.65D-01.
      3 vectors produced by pass  3 Test12= 1.53D-13 3.33D-08 XBig12= 4.55D-01 1.69D-01.
      3 vectors produced by pass  4 Test12= 1.53D-13 3.33D-08 XBig12= 1.01D-01 7.54D-02.
      3 vectors produced by pass  5 Test12= 1.53D-13 3.33D-08 XBig12= 1.79D-02 3.61D-02.
      3 vectors produced by pass  6 Test12= 1.53D-13 3.33D-08 XBig12= 3.08D-03 1.07D-02.
      3 vectors produced by pass  7 Test12= 1.53D-13 3.33D-08 XBig12= 2.09D-04 2.46D-03.
      3 vectors produced by pass  8 Test12= 1.53D-13 3.33D-08 XBig12= 4.84D-06 3.85D-04.
      3 vectors produced by pass  9 Test12= 1.53D-13 3.33D-08 XBig12= 1.13D-07 6.06D-05.
      3 vectors produced by pass 10 Test12= 1.53D-13 3.33D-08 XBig12= 4.10D-09 8.94D-06.
      3 vectors produced by pass 11 Test12= 1.53D-13 3.33D-08 XBig12= 7.36D-11 1.37D-06.
      1 vectors produced by pass 12 Test12= 1.53D-13 3.33D-08 XBig12= 2.06D-12 1.96D-07.
 InvSVY:  IOpt=1 It=  1 EMax= 1.78D-15
 Solved reduced A of dimension    37 with     3 vectors.
 End of Minotr F.D. properties file   721 does not exist.
 End of Minotr F.D. properties file   722 does not exist.
 End of Minotr F.D. properties file   788 does not exist.
 Leave Link 1002 at Fri Jun  2 12:07:59 2023, MaxMem=  7381975040 cpu:             143.5 elap:              75.5
 (Enter /software/commercial/gaussian/g16/AVX/g16/l1101.exe)
 Using compressed storage, NAtomX=    15.
 Will process     16 centers per pass.
 R6Disp: Adding Grimme-D3(BJ) dispersion energy 1st derivatives to the gradient.
 Leave Link 1101 at Fri Jun  2 12:08:05 2023, MaxMem=  7381975040 cpu:               0.4 elap:               4.6
 (Enter /software/commercial/gaussian/g16/AVX/g16/l1102.exe)
 Symmetrizing basis deriv contribution to polar:
 IMax=3 JMax=2 DiffMx= 0.00D+00
 Leave Link 1102 at Fri Jun  2 12:08:10 2023, MaxMem=  7381975040 cpu:               0.1 elap:               2.7
 (Enter /software/commercial/gaussian/g16/AVX/g16/l1110.exe)
 Forming Gx(P) for the SCF density, NAtomX=    15.
 Integral derivatives from FoFJK, PRISM(SPDF).
 Do as many integral derivatives as possible in FoFJK.
 G2DrvN: MDV=    7381973359.
 G2DrvN: will do    16 centers at a time, making    1 passes.
 PxScal for G2LodP:  IOpCl= 0 ISclPx=1 IMOff=     1 NMtTot=     4 NTT=   20503 ScalPx= 1.87D+01
 Calling FoFCou, ICntrl=  3107 FMM=F I1Cent=   0 AccDes= 0.00D+00.
 FoFJK:  IHMeth= 1 ICntrl=    3107 DoSepK=F KAlg= 0 I1Cent=           0 FoldK=F
 IRaf=         0 NMat=       1 IRICut=       1 DoRegI=T DoRafI=F ISym2E= 0 IDoP0=0 IntGTp=1.
 FoFCou: FMM=F IPFlag=           0 FMFlag=      100000 FMFlg1=           0
         NFxFlg=           0 DoJE=F BraDBF=F KetDBF=F FulRan=T
         wScrn=  0.000000 ICntrl=      3107 IOpCl=  0 I1Cent=           0 NGrid=           0
         NMat0=    1 NMatS0=      1 NMatT0=    0 NMatD0=    4 NMtDS0=    3 NMtDT0=    0
 Symmetry not used in FoFCou.
 PxScal for G2LodP:  IOpCl= 0 ISclPx=0 IMOff=     1 NMtTot=     4 NTT=   20503 ScalPx= 1.00D+00
 NEqPCM:  Using equilibrium solvation (IEInf=0, Eps=  24.8520, EpsInf=   1.8526)
 G2PCM: DoFxE=T DoFxN=T DoGrad=T DoDP/DQ/DG/TGxP=TFFF NFrqRd=   0 IEInf=0 SqF1=F DoCFld=F IF1Alg=4.
 GePol: Maximum number of non-zero 1st derivatives   =     221
 End of G2Drv F.D. properties file   721 does not exist.
 End of G2Drv F.D. properties file   722 does not exist.
 End of G2Drv F.D. properties file   788 does not exist.
 Leave Link 1110 at Fri Jun  2 12:11:56 2023, MaxMem=  7381975040 cpu:             440.4 elap:             225.6
 (Enter /software/commercial/gaussian/g16/AVX/g16/l1002.exe)
 Minotr:  Closed shell wavefunction.
          IDoAtm=111111111111111
 NEqPCM:  Using equilibrium solvation (IEInf=0, Eps=  24.8520, EpsInf=   1.8526)
          Direct CPHF calculation.
          Differentiating once with respect to electric field.
                with respect to dipole field.
          Differentiating once with respect to nuclear coordinates.
          Requested convergence is 1.0D-08 RMS, and 1.0D-07 maximum.
          Secondary convergence is 1.0D-12 RMS, and 1.0D-12 maximum.
          NewPWx=T KeepS1=F KeepF1=F KeepIn=T MapXYZ=F SortEE=F KeepMc=T.
         4611 words used for storage of precomputed grid.
 Keep R1 ints in memory in canonical form, NReq=215207860.
 FoFCou: FMM=F IPFlag=           0 FMFlag=           0 FMFlg1=           0
         NFxFlg=           0 DoJE=F BraDBF=F KetDBF=F FulRan=T
         wScrn=  0.000000 ICntrl=       600 IOpCl=  0 I1Cent=           0 NGrid=           0
         NMat0=    1 NMatS0=  20503 NMatT0=    0 NMatD0=    1 NMtDS0=    0 NMtDT0=    0
 Symmetry not used in FoFCou.
 Two-electron integral symmetry not used.
          MDV=    7381975040 using IRadAn=       1.
          Solving linear equations simultaneously, MaxMat=       0.
          There are    48 degrees of freedom in the 1st order CPHF.  IDoFFX=5 NUNeed=    48.
 Will reuse    3 saved solutions.
     42 vectors produced by pass  0 Test12= 9.53D-15 2.08D-09 XBig12= 1.12D-01 7.41D-02.
 AX will form    42 AO Fock derivatives at one time.
     42 vectors produced by pass  1 Test12= 9.53D-15 2.08D-09 XBig12= 7.22D-03 3.24D-02.
     42 vectors produced by pass  2 Test12= 9.53D-15 2.08D-09 XBig12= 8.22D-05 2.25D-03.
     42 vectors produced by pass  3 Test12= 9.53D-15 2.08D-09 XBig12= 4.63D-07 7.58D-05.
     42 vectors produced by pass  4 Test12= 9.53D-15 2.08D-09 XBig12= 1.10D-09 2.98D-06.
     33 vectors produced by pass  5 Test12= 9.53D-15 2.08D-09 XBig12= 1.67D-12 1.24D-07.
     10 vectors produced by pass  6 Test12= 9.53D-15 2.08D-09 XBig12= 1.96D-15 5.10D-09.
 InvSVY:  IOpt=1 It=  1 EMax= 2.22D-15
 Solved reduced A of dimension   253 with    42 vectors.
 FullF1:  Do perturbations      1 to       3.
 Isotropic polarizability for W=    0.000000       92.66 Bohr**3.
 FullF1:  Do perturbations      1 to       6.
 End of Minotr F.D. properties file   721 does not exist.
 End of Minotr F.D. properties file   722 does not exist.
 End of Minotr F.D. properties file   788 does not exist.
 Leave Link 1002 at Fri Jun  2 12:15:29 2023, MaxMem=  7381975040 cpu:             406.7 elap:             210.9
 (Enter /software/commercial/gaussian/g16/AVX/g16/l601.exe)
 Copying SCF densities to generalized density rwf, IOpCl= 0 IROHF=0.

 **********************************************************************

            Population analysis using the SCF Density.

 **********************************************************************

 Alpha  occ. eigenvalues --  -14.36910 -14.29984 -10.23396 -10.20184 -10.18725
 Alpha  occ. eigenvalues --  -10.18305 -10.16592  -1.02101  -0.87448  -0.79854
 Alpha  occ. eigenvalues --   -0.73018  -0.64410  -0.61128  -0.59648  -0.53158
 Alpha  occ. eigenvalues --   -0.46311  -0.45466  -0.44047  -0.43119  -0.41849
 Alpha  occ. eigenvalues --   -0.38143  -0.36489  -0.35472  -0.29226  -0.28634
 Alpha  occ. eigenvalues --   -0.23435
 Alpha virt. eigenvalues --    0.00068   0.01088   0.02405   0.02915   0.03109
 Alpha virt. eigenvalues --    0.04104   0.04863   0.05041   0.06267   0.06328
 Alpha virt. eigenvalues --    0.07775   0.08310   0.08391   0.09324   0.10141
 Alpha virt. eigenvalues --    0.11667   0.12568   0.13665   0.14166   0.14988
 Alpha virt. eigenvalues --    0.16109   0.16559   0.17518   0.18433   0.19083
 Alpha virt. eigenvalues --    0.19397   0.20615   0.21568   0.22191   0.22568
 Alpha virt. eigenvalues --    0.23120   0.24247   0.24419   0.25475   0.26462
 Alpha virt. eigenvalues --    0.27570   0.28214   0.29039   0.30053   0.30320
 Alpha virt. eigenvalues --    0.31748   0.33669   0.40129   0.41686   0.43159
 Alpha virt. eigenvalues --    0.43956   0.45434   0.46836   0.49767   0.54692
 Alpha virt. eigenvalues --    0.55203   0.56663   0.57337   0.59402   0.60205
 Alpha virt. eigenvalues --    0.62010   0.62771   0.65033   0.65796   0.67104
 Alpha virt. eigenvalues --    0.67814   0.68774   0.71223   0.73324   0.74483
 Alpha virt. eigenvalues --    0.76389   0.78193   0.79942   0.80344   0.85157
 Alpha virt. eigenvalues --    0.86617   0.88550   0.90382   0.92396   0.95573
 Alpha virt. eigenvalues --    0.96701   0.98271   1.02015   1.05829   1.06385
 Alpha virt. eigenvalues --    1.09388   1.14071   1.18226   1.18535   1.23460
 Alpha virt. eigenvalues --    1.26939   1.28991   1.30798   1.43573   1.44512
 Alpha virt. eigenvalues --    1.51172   1.52172   1.53301   1.55153   1.56624
 Alpha virt. eigenvalues --    1.58340   1.60023   1.62662   1.64731   1.65846
 Alpha virt. eigenvalues --    1.67167   1.67274   1.72172   1.73976   1.76165
 Alpha virt. eigenvalues --    1.77925   1.79636   1.79834   1.86676   1.89659
 Alpha virt. eigenvalues --    1.93378   1.96906   2.01105   2.06407   2.07423
 Alpha virt. eigenvalues --    2.09808   2.11583   2.15669   2.20908   2.21307
 Alpha virt. eigenvalues --    2.25159   2.31812   2.34199   2.42946   2.44534
 Alpha virt. eigenvalues --    2.45075   2.47807   2.50790   2.51676   2.53757
 Alpha virt. eigenvalues --    2.56105   2.56618   2.61773   2.62165   2.64195
 Alpha virt. eigenvalues --    2.67764   2.69278   2.71214   2.73340   2.76158
 Alpha virt. eigenvalues --    2.77973   2.79501   2.82240   2.83310   2.85759
 Alpha virt. eigenvalues --    2.92871   2.94662   2.95939   3.00305   3.07928
 Alpha virt. eigenvalues --    3.16362   3.29296   3.34894   3.50938   3.55437
 Alpha virt. eigenvalues --    3.66270   3.69210   3.80277   3.81206   3.85392
 Alpha virt. eigenvalues --    3.88169   3.94909   4.05413   4.09686   4.23298
 Alpha virt. eigenvalues --    4.51489   4.77448   4.92363   5.26416  23.78644
 Alpha virt. eigenvalues --   23.85543  23.88724  23.97728  24.16117  35.53975
 Alpha virt. eigenvalues --   35.69065
     Molecular Orbital Coefficients:
                           1         2         3         4         5
                           O         O         O         O         O
     Eigenvalues --   -14.36910 -14.29984 -10.23396 -10.20184 -10.18725
   1 1   N  1S          0.55736   0.00009  -0.00005  -0.00005   0.00000
   2        2S          0.46561   0.00015  -0.00006  -0.00007   0.00000
   3        2PX        -0.00003   0.00002   0.00009   0.00025   0.00001
   4        2PY         0.00003  -0.00006  -0.00023   0.00027   0.00006
   5        2PZ        -0.00007   0.00008   0.00039   0.00013  -0.00006
   6        3S          0.01689  -0.00042   0.00090   0.00086   0.00025
   7        3PX         0.00004  -0.00015  -0.00025  -0.00052  -0.00014
   8        3PY        -0.00011   0.00031   0.00055  -0.00034  -0.00037
   9        3PZ         0.00018  -0.00055  -0.00099  -0.00051   0.00018
  10        4S         -0.01665   0.00120  -0.00355  -0.00247  -0.00395
  11        4PX        -0.00464  -0.00140  -0.00238  -0.00162  -0.00148
  12        4PY        -0.00115  -0.00141  -0.00081  -0.00202  -0.00057
  13        4PZ        -0.00638  -0.00090  -0.00321  -0.00056  -0.00193
  14        5S          0.00023   0.00093   0.00887   0.00785  -0.00117
  15        5PX        -0.00018  -0.00227  -0.00179   0.00360  -0.00044
  16        5PY        -0.00116  -0.00321  -0.00448   0.00353   0.00043
  17        5PZ         0.00034  -0.00028   0.00150   0.00228  -0.00104
  18        6D 0        0.00033  -0.00006  -0.00048   0.00028   0.00020
  19        6D+1        0.00077   0.00011  -0.00022  -0.00022   0.00015
  20        6D-1        0.00005   0.00020   0.00077  -0.00011   0.00007
  21        6D+2        0.00007   0.00008   0.00027   0.00020   0.00016
  22        6D-2        0.00041   0.00011   0.00004  -0.00065  -0.00016
  23 2   N  1S         -0.00010   0.55737  -0.00008  -0.00000  -0.00005
  24        2S         -0.00001   0.46576  -0.00001   0.00001  -0.00007
  25        2PX        -0.00005  -0.00042  -0.00037   0.00006   0.00004
  26        2PY        -0.00003   0.00049  -0.00023   0.00010   0.00029
  27        2PZ        -0.00004  -0.00121  -0.00037  -0.00001  -0.00023
  28        3S         -0.00042   0.01633   0.00075   0.00022   0.00090
  29        3PX         0.00036  -0.00062   0.00123  -0.00024   0.00006
  30        3PY         0.00017  -0.00013   0.00079  -0.00052  -0.00042
  31        3PZ         0.00035  -0.00098   0.00121   0.00014   0.00052
  32        4S         -0.00051  -0.01932  -0.00690  -0.00470  -0.00359
  33        4PX        -0.00020   0.00213   0.00131   0.00076  -0.00040
  34        4PY        -0.00059  -0.00023   0.00005  -0.00022  -0.00152
  35        4PZ         0.00049   0.00407   0.00214   0.00154   0.00102
  36        5S         -0.00003   0.00414   0.01060  -0.00220   0.00838
  37        5PX        -0.00107  -0.00022  -0.00324   0.00126   0.00054
  38        5PY        -0.00281  -0.00110  -0.00259   0.00085   0.00341
  39        5PZ         0.00057  -0.00049  -0.00404   0.00130  -0.00287
  40        6D 0       -0.00002  -0.00010  -0.00020   0.00012  -0.00004
  41        6D+1       -0.00008   0.00023  -0.00102   0.00013  -0.00001
  42        6D-1       -0.00009   0.00009  -0.00047   0.00020   0.00063
  43        6D+2       -0.00006  -0.00007  -0.00020   0.00019   0.00043
  44        6D-2       -0.00001   0.00039  -0.00069  -0.00012  -0.00028
  45 3   C  1S          0.00000  -0.00000   0.56292   0.00002  -0.00001
  46        2S          0.00005   0.00010   0.46331  -0.00001  -0.00003
  47        2PX        -0.00008   0.00034  -0.00012  -0.00001   0.00000
  48        2PY         0.00021   0.00021   0.00027  -0.00004  -0.00001
  49        2PZ        -0.00038   0.00035  -0.00044   0.00002   0.00001
  50        3S          0.00030   0.00016   0.01846   0.00008   0.00013
  51        3PX         0.00017  -0.00106   0.00087  -0.00006  -0.00004
  52        3PY        -0.00045  -0.00064   0.00077   0.00002  -0.00000
  53        3PZ         0.00087  -0.00105   0.00040  -0.00008  -0.00002
  54        4S          0.00492   0.00502  -0.00919  -0.00017  -0.00015
  55        4PX         0.00190   0.00622   0.00271   0.00462   0.00330
  56        4PY         0.00786   0.00597   0.00456   0.00685   0.00743
  57        4PZ        -0.00543   0.00390  -0.00001   0.00057  -0.00223
  58        5S         -0.00349  -0.00842  -0.00970   0.00429   0.00233
  59        5PX        -0.00094   0.00156  -0.00569  -0.00763  -0.00403
  60        5PY         0.00012   0.00293  -0.01095  -0.01218  -0.01003
  61        5PZ        -0.00004   0.00096   0.00506   0.00102   0.00504
  62        6D 0       -0.00052  -0.00005   0.00005  -0.00010  -0.00009
  63        6D+1       -0.00006  -0.00072   0.00100  -0.00007  -0.00001
  64        6D-1        0.00064  -0.00085  -0.00025  -0.00016  -0.00005
  65        6D+2        0.00007  -0.00044  -0.00045  -0.00016  -0.00009
  66        6D-2        0.00043  -0.00039   0.00124   0.00017   0.00017
  67 4   C  1S         -0.00001  -0.00001   0.00148  -0.00004  -0.00013
  68        2S          0.00004   0.00004   0.00125  -0.00001  -0.00009
  69        2PX         0.00002   0.00009   0.00027  -0.00001  -0.00001
  70        2PY         0.00005   0.00005   0.00050  -0.00002  -0.00003
  71        2PZ        -0.00007   0.00004  -0.00008   0.00002  -0.00001
  72        3S         -0.00036  -0.00034   0.00027  -0.00041  -0.00040
  73        3PX        -0.00019  -0.00043  -0.00091   0.00001   0.00002
  74        3PY        -0.00027  -0.00029  -0.00139   0.00010   0.00014
  75        3PZ         0.00032  -0.00005   0.00031  -0.00002   0.00004
  76        4S          0.00619   0.00498   0.00370   0.00734   0.00748
  77        4PX         0.00221  -0.00022   0.00009   0.00090   0.00122
  78        4PY         0.00169   0.00132   0.00182   0.00225   0.00233
  79        4PZ         0.00126  -0.00219   0.00039  -0.00081  -0.00053
  80        5S         -0.01264  -0.00882  -0.02245  -0.01445  -0.01047
  81        5PX        -0.00221  -0.00212  -0.00302  -0.00061  -0.00072
  82        5PY         0.00046   0.00216  -0.00344  -0.00315  -0.00307
  83        5PZ         0.00176   0.00197   0.00134  -0.00000  -0.00084
  84        6D 0        0.00016   0.00020   0.00054   0.00004  -0.00004
  85        6D+1        0.00014   0.00004   0.00013  -0.00002   0.00001
  86        6D-1        0.00016  -0.00019   0.00029  -0.00006   0.00002
  87        6D+2        0.00015   0.00011   0.00073  -0.00002   0.00001
  88        6D-2       -0.00003  -0.00026  -0.00082  -0.00003   0.00002
  89 5   C  1S          0.00001  -0.00001  -0.00002   0.56277  -0.01266
  90        2S          0.00002   0.00003  -0.00004   0.46303  -0.01017
  91        2PX        -0.00026   0.00007   0.00003  -0.00057   0.00045
  92        2PY        -0.00028   0.00004   0.00011  -0.00051   0.00001
  93        2PZ        -0.00013   0.00007  -0.00007  -0.00041   0.00073
  94        3S          0.00036  -0.00001   0.00018   0.01981  -0.00068
  95        3PX         0.00063  -0.00052  -0.00023   0.00099  -0.00203
  96        3PY         0.00042   0.00002  -0.00059   0.00040   0.00003
  97        3PZ         0.00059  -0.00087   0.00029   0.00129  -0.00340
  98        4S          0.00958  -0.00175   0.00161  -0.00985   0.00294
  99        4PX        -0.00058  -0.00028   0.00011  -0.00058   0.00081
 100        4PY        -0.00471   0.00239  -0.00055   0.00245  -0.00108
 101        4PZ         0.00402  -0.00308   0.00061  -0.00360   0.00241
 102        5S         -0.00213   0.00808   0.01652  -0.01061   0.01499
 103        5PX        -0.00020   0.00036  -0.00011  -0.00077   0.00026
 104        5PY        -0.00007  -0.00099  -0.00194  -0.00007  -0.00275
 105        5PZ        -0.00017   0.00126   0.00157  -0.00120   0.00319
 106        6D 0        0.00064  -0.00024  -0.00007   0.00140  -0.00159
 107        6D+1        0.00023  -0.00028  -0.00006   0.00126  -0.00155
 108        6D-1       -0.00023  -0.00020  -0.00012  -0.00172   0.00038
 109        6D+2        0.00024  -0.00024  -0.00011  -0.00057  -0.00046
 110        6D-2       -0.00059   0.00013   0.00009   0.00025   0.00036
 111 6   C  1S         -0.00001   0.00001   0.00001   0.01250   0.56277
 112        2S          0.00002  -0.00000  -0.00002   0.01055   0.46305
 113        2PX        -0.00000  -0.00005   0.00006  -0.00040   0.00005
 114        2PY         0.00008  -0.00031   0.00009   0.00009  -0.00027
 115        2PZ        -0.00009   0.00026   0.00001  -0.00076   0.00036
 116        3S         -0.00006   0.00036   0.00018   0.00007   0.01969
 117        3PX         0.00045  -0.00003  -0.00029   0.00195  -0.00050
 118        3PY        -0.00014   0.00066  -0.00050  -0.00036   0.00059
 119        3PZ         0.00088  -0.00080   0.00002   0.00368  -0.00143
 120        4S         -0.00440   0.00725  -0.00027   0.00134  -0.01136
 121        4PX         0.00321  -0.00265  -0.00028  -0.00090   0.00352
 122        4PY         0.00228  -0.00354  -0.00048  -0.00020   0.00261
 123        4PZ         0.00302  -0.00052   0.00021  -0.00137   0.00310
 124        5S          0.00546  -0.00777  -0.00140   0.01844  -0.00884
 125        5PX        -0.00049   0.00077   0.00079  -0.00302   0.00037
 126        5PY        -0.00072   0.00082  -0.00183  -0.00214   0.00024
 127        5PZ        -0.00025   0.00076   0.00332  -0.00294   0.00036
 128        6D 0       -0.00039   0.00034  -0.00011  -0.00149   0.00064
 129        6D+1       -0.00006   0.00059   0.00002  -0.00168   0.00193
 130        6D-1        0.00020   0.00054   0.00006  -0.00007   0.00023
 131        6D+2       -0.00013   0.00047  -0.00006  -0.00067   0.00006
 132        6D-2        0.00042  -0.00009   0.00018   0.00027   0.00128
 133 7   H  1S         -0.00015   0.00008  -0.00005   0.00007  -0.00008
 134        2S          0.00047  -0.00153   0.00041  -0.00488  -0.00007
 135        3S          0.00216  -0.00066   0.00004   0.00109   0.00056
 136        4PX         0.00015  -0.00004  -0.00004   0.00015  -0.00018
 137        4PY         0.00022   0.00019  -0.00009   0.00195   0.00001
 138        4PZ         0.00001  -0.00024   0.00005  -0.00177  -0.00032
 139 8   H  1S          0.00002  -0.00015  -0.00007  -0.00012   0.00016
 140        2S         -0.00155  -0.00003   0.00036  -0.00053  -0.00488
 141        3S         -0.00082   0.00151   0.00014   0.00020   0.00079
 142        4PX         0.00022   0.00014  -0.00004   0.00031   0.00161
 143        4PY         0.00025   0.00033  -0.00003   0.00015   0.00176
 144        4PZ         0.00013  -0.00012  -0.00003   0.00037   0.00086
 145 9   C  1S         -0.00000  -0.00000  -0.00004  -0.00001  -0.00002
 146        2S          0.00000   0.00001   0.00001   0.00000  -0.00000
 147        2PX         0.00000  -0.00003  -0.00005  -0.00001   0.00000
 148        2PY         0.00001   0.00001   0.00006  -0.00000   0.00001
 149        2PZ         0.00003  -0.00001   0.00006   0.00000   0.00001
 150        3S          0.00005  -0.00001  -0.00039   0.00001  -0.00000
 151        3PX        -0.00007   0.00012   0.00027   0.00002  -0.00004
 152        3PY        -0.00001  -0.00006  -0.00046  -0.00003  -0.00005
 153        3PZ        -0.00013   0.00012  -0.00031   0.00001  -0.00005
 154        4S         -0.00064  -0.00081   0.00223  -0.00118  -0.00110
 155        4PX        -0.00073   0.00062   0.00034   0.00021   0.00031
 156        4PY        -0.00033  -0.00036   0.00110  -0.00039  -0.00029
 157        4PZ        -0.00062   0.00034  -0.00005  -0.00019  -0.00012
 158        5S          0.00984   0.01176   0.00642  -0.00018  -0.00160
 159        5PX        -0.00051  -0.00066   0.00030   0.00022   0.00059
 160        5PY         0.00243   0.00274   0.00204   0.00042   0.00013
 161        5PZ         0.00117   0.00144   0.00023  -0.00024  -0.00033
 162        6D 0       -0.00000  -0.00005  -0.00005  -0.00004  -0.00002
 163        6D+1       -0.00003  -0.00001   0.00008  -0.00002  -0.00002
 164        6D-1       -0.00005   0.00000  -0.00019  -0.00002  -0.00002
 165        6D+2       -0.00005  -0.00003  -0.00000  -0.00004  -0.00003
 166        6D-2        0.00003   0.00008   0.00020   0.00005   0.00005
 167 10  H  1S          0.00002   0.00004  -0.00012   0.00000   0.00003
 168        2S         -0.00019  -0.00097  -0.00086  -0.00038  -0.00055
 169        3S          0.00126   0.00085   0.00043  -0.00082  -0.00004
 170        4PX        -0.00009  -0.00016  -0.00033  -0.00005  -0.00007
 171        4PY        -0.00004   0.00012   0.00016   0.00004   0.00001
 172        4PZ        -0.00007   0.00005  -0.00018  -0.00003  -0.00003
 173 11  H  1S          0.00003  -0.00002  -0.00008   0.00004   0.00001
 174        2S         -0.00119  -0.00011  -0.00078  -0.00055  -0.00036
 175        3S          0.00056   0.00133  -0.00010   0.00001  -0.00031
 176        4PX        -0.00001   0.00002   0.00014   0.00002   0.00003
 177        4PY         0.00004  -0.00007   0.00002  -0.00002   0.00002
 178        4PZ         0.00020   0.00009   0.00031   0.00008   0.00005
 179 12  H  1S          0.00001  -0.00008   0.00004  -0.00005  -0.00002
 180        2S         -0.00006   0.00061  -0.00060   0.00039   0.00018
 181        3S         -0.00046  -0.00013  -0.00081  -0.00075  -0.00001
 182        4PX         0.00006   0.00000  -0.00007   0.00001   0.00002
 183        4PY         0.00002   0.00001  -0.00009   0.00001   0.00001
 184        4PZ        -0.00004   0.00012  -0.00017   0.00004   0.00002
 185 13  H  1S         -0.00001  -0.00003  -0.00004  -0.00003  -0.00003
 186        2S         -0.00001   0.00013  -0.00022   0.00012   0.00013
 187        3S         -0.00017  -0.00005   0.00066   0.00011   0.00031
 188        4PX         0.00002  -0.00007  -0.00008  -0.00002  -0.00002
 189        4PY        -0.00000   0.00002  -0.00010   0.00003   0.00004
 190        4PZ         0.00008  -0.00004   0.00004   0.00002   0.00002
 191 14  H  1S         -0.00008   0.00001   0.00007  -0.00003  -0.00004
 192        2S          0.00070  -0.00003  -0.00072   0.00023   0.00031
 193        3S          0.00003  -0.00053  -0.00049  -0.00048  -0.00079
 194        4PX        -0.00010   0.00005   0.00015  -0.00002  -0.00003
 195        4PY         0.00004   0.00001  -0.00012   0.00002   0.00001
 196        4PZ        -0.00003  -0.00001   0.00008  -0.00002  -0.00002
 197 15  H  1S          0.00016  -0.00005   0.00003   0.00008  -0.00003
 198        2S         -0.00429  -0.00104  -0.00177  -0.00114  -0.00065
 199        3S          0.00111  -0.00124  -0.00223   0.00153  -0.00004
 200        4PX        -0.00120  -0.00017  -0.00022  -0.00009  -0.00005
 201        4PY        -0.00048  -0.00005  -0.00011   0.00003   0.00000
 202        4PZ        -0.00146  -0.00023  -0.00024  -0.00017  -0.00007
                           6         7         8         9        10
                           O         O         O         O         O
     Eigenvalues --   -10.18305 -10.16592  -1.02101  -0.87448  -0.79854
   1 1   N  1S          0.00000   0.00000  -0.07971   0.07472   0.00031
   2        2S          0.00003   0.00000  -0.12505   0.11790   0.00049
   3        2PX        -0.00002   0.00000   0.01844   0.00807  -0.02133
   4        2PY        -0.00008   0.00002   0.00358  -0.00529  -0.04606
   5        2PZ         0.00007   0.00000   0.02724   0.01873   0.01123
   6        3S         -0.00018  -0.00001   0.34075  -0.32932  -0.00073
   7        3PX         0.00003  -0.00003   0.02770   0.01132  -0.03178
   8        3PY         0.00035  -0.00010   0.00563  -0.00907  -0.06941
   9        3PZ        -0.00036  -0.00001   0.04066   0.02785   0.01765
  10        4S          0.00095   0.00060   0.23137  -0.23955  -0.00918
  11        4PX        -0.00036   0.00058   0.01965   0.00821  -0.01792
  12        4PY        -0.00093   0.00109   0.00492   0.00129  -0.03355
  13        4PZ         0.00059   0.00028   0.02700   0.01279   0.00299
  14        5S          0.00082  -0.00162  -0.07906   0.03254  -0.01046
  15        5PX        -0.00015   0.00183  -0.00969   0.02038   0.00055
  16        5PY        -0.00167   0.00171   0.00738   0.01167   0.01596
  17        5PZ         0.00108   0.00060  -0.02183   0.02052  -0.01145
  18        6D 0        0.00001  -0.00000   0.00342   0.00082   0.00305
  19        6D+1        0.00013  -0.00002   0.00774  -0.00280  -0.00133
  20        6D-1        0.00018   0.00002  -0.00350   0.00156  -0.00522
  21        6D+2        0.00009   0.00002  -0.00222   0.00250  -0.00100
  22        6D-2        0.00004   0.00002   0.00600  -0.00547  -0.00416
  23 2   N  1S          0.00000  -0.00000  -0.05017  -0.08198   0.00290
  24        2S          0.00004   0.00000  -0.07839  -0.12881   0.00461
  25        2PX        -0.00006  -0.00000  -0.01793  -0.01650  -0.01721
  26        2PY        -0.00007   0.00002   0.00719   0.01262  -0.03272
  27        2PZ        -0.00001   0.00001  -0.03777  -0.04109   0.00452
  28        3S         -0.00019  -0.00004   0.21054   0.35376  -0.01250
  29        3PX         0.00029  -0.00001  -0.02679  -0.02315  -0.02563
  30        3PY         0.00032  -0.00008   0.01160   0.02084  -0.04935
  31        3PZ         0.00013  -0.00003  -0.05710  -0.06093   0.00709
  32        4S          0.00036   0.00081   0.14060   0.24993  -0.01041
  33        4PX        -0.00027   0.00006  -0.01082  -0.01098  -0.00856
  34        4PY         0.00025   0.00043   0.00417   0.00579  -0.01797
  35        4PZ        -0.00046  -0.00001  -0.02385  -0.02490   0.00337
  36        5S          0.00320  -0.00232  -0.05334  -0.07700   0.00579
  37        5PX         0.00017   0.00056   0.00805   0.00848   0.00427
  38        5PY         0.00004   0.00166   0.00711  -0.00600   0.00748
  39        5PZ        -0.00123   0.00035   0.01289   0.02202   0.00245
  40        6D 0        0.00007  -0.00000   0.00349  -0.00028  -0.00133
  41        6D+1       -0.00004  -0.00003   0.00643   0.00398   0.00254
  42        6D-1       -0.00011  -0.00002  -0.00190  -0.00196   0.00691
  43        6D+2       -0.00001  -0.00000  -0.00071  -0.00280   0.00285
  44        6D-2       -0.00013  -0.00002   0.00358   0.00643   0.00199
  45 3   C  1S         -0.00152   0.00004  -0.05776  -0.01969  -0.04882
  46        2S         -0.00124   0.00007  -0.08850  -0.03028  -0.07574
  47        2PX        -0.00028  -0.00003   0.01573   0.04593  -0.01987
  48        2PY        -0.00053  -0.00008   0.04007   0.01081  -0.03961
  49        2PZ         0.00011   0.00000  -0.01665   0.06521   0.00089
  50        3S          0.00023  -0.00028   0.22848   0.08079   0.20578
  51        3PX         0.00084   0.00018   0.02237   0.06482  -0.03101
  52        3PY         0.00149   0.00051   0.05917   0.01436  -0.06141
  53        3PZ        -0.00031  -0.00000  -0.02690   0.09276   0.00104
  54        4S          0.00292   0.00150   0.07986   0.03069   0.11643
  55        4PX        -0.00227  -0.00138  -0.01306   0.00382  -0.00673
  56        4PY        -0.00626  -0.00296  -0.02114  -0.00031  -0.00773
  57        4PZ         0.00161  -0.00004   0.00156   0.00661  -0.00344
  58        5S          0.01479   0.00692   0.05143   0.03015  -0.09637
  59        5PX        -0.00679  -0.00141   0.04325   0.00291   0.02896
  60        5PY        -0.01282  -0.00267   0.07928   0.00702   0.05399
  61        5PZ         0.00491   0.00014  -0.02746  -0.00283  -0.01945
  62        6D 0        0.00047   0.00003   0.00267  -0.00980   0.00070
  63        6D+1        0.00032  -0.00002   0.00701   0.00638   0.00382
  64        6D-1        0.00024   0.00006  -0.00844   0.01648  -0.00145
  65        6D+2        0.00041  -0.00002  -0.00636   0.00289  -0.00303
  66        6D-2       -0.00056  -0.00004   0.00902   0.01421   0.00383
  67 4   C  1S          0.56297  -0.00350  -0.00962  -0.00433  -0.07738
  68        2S          0.46320  -0.00292  -0.01465  -0.00662  -0.11961
  69        2PX         0.00023   0.00021   0.00374   0.00438   0.01323
  70        2PY         0.00012  -0.00030   0.00840   0.00236   0.00800
  71        2PZ        -0.00023  -0.00025  -0.00227   0.00472  -0.01054
  72        3S          0.01951   0.00031   0.03816   0.01737   0.31337
  73        3PX        -0.00120  -0.00053   0.00602   0.00688   0.02713
  74        3PY         0.00018   0.00048   0.01158   0.00159   0.01323
  75        3PZ         0.00116   0.00060  -0.00411   0.00899  -0.02184
  76        4S         -0.01983  -0.00022  -0.00926   0.00602   0.17729
  77        4PX        -0.00266  -0.00006  -0.00433   0.00600   0.00666
  78        4PY        -0.00181  -0.00217  -0.00407   0.00057   0.00244
  79        4PZ         0.00179  -0.00049  -0.00130   0.00948  -0.01052
  80        5S         -0.03536   0.02070   0.17082   0.00078   0.12632
  81        5PX        -0.00277   0.00366   0.02149  -0.00007   0.00751
  82        5PY        -0.00554  -0.00431   0.01277  -0.00044   0.04228
  83        5PZ         0.00067  -0.00420  -0.01113  -0.00118   0.00349
  84        6D 0        0.00040   0.00012  -0.00136  -0.00038  -0.00363
  85        6D+1        0.00037   0.00029  -0.00081   0.00113  -0.00310
  86        6D-1       -0.00034  -0.00042  -0.00072   0.00343   0.00139
  87        6D+2        0.00057   0.00029  -0.00126   0.00098  -0.00522
  88        6D-2        0.00002   0.00032   0.00129   0.00171   0.00193
  89 5   C  1S          0.00003   0.00000  -0.04142   0.01984   0.04053
  90        2S          0.00005   0.00001  -0.06343   0.03052   0.06269
  91        2PX        -0.00000  -0.00002  -0.01433   0.02813  -0.00207
  92        2PY         0.00001   0.00000  -0.03647   0.02362   0.01176
  93        2PZ        -0.00001   0.00000   0.01464   0.02207  -0.01634
  94        3S         -0.00026  -0.00003   0.16027  -0.07960  -0.16616
  95        3PX         0.00001   0.00008  -0.02157   0.04425  -0.00232
  96        3PY        -0.00000   0.00001  -0.05237   0.03788   0.01680
  97        3PZ        -0.00003  -0.00001   0.01934   0.03394  -0.02200
  98        4S          0.00133  -0.00202   0.04849  -0.04036  -0.07225
  99        4PX        -0.00058   0.00014  -0.00302   0.00605  -0.00089
 100        4PY        -0.00105   0.00046  -0.00161   0.00324  -0.00115
 101        4PZ         0.00016   0.00003  -0.00287   0.00666  -0.00098
 102        5S          0.01048  -0.00265  -0.01670  -0.13505  -0.01858
 103        5PX        -0.00046  -0.00058   0.00568  -0.00909   0.00768
 104        5PY        -0.00222   0.00009   0.00820   0.01247   0.00494
 105        5PZ         0.00119  -0.00077   0.00172  -0.02730   0.00767
 106        6D 0        0.00002  -0.00001  -0.00293   0.01056  -0.00286
 107        6D+1        0.00003  -0.00003   0.00253   0.00131  -0.00472
 108        6D-1       -0.00006   0.00001  -0.00553  -0.00510   0.00309
 109        6D+2       -0.00003  -0.00001  -0.00690   0.00374   0.00145
 110        6D-2        0.00005  -0.00001   0.01064  -0.01218  -0.00307
 111 6   C  1S          0.00013   0.00001  -0.03405  -0.03887   0.03711
 112        2S          0.00013   0.00002  -0.05214  -0.05988   0.05734
 113        2PX        -0.00000   0.00001  -0.02004  -0.01017   0.01275
 114        2PY         0.00001   0.00001  -0.02571  -0.03789   0.00607
 115        2PZ         0.00001   0.00001  -0.00639   0.02309   0.01460
 116        3S         -0.00025  -0.00009   0.13092   0.15518  -0.15093
 117        3PX         0.00005  -0.00007  -0.02930  -0.01507   0.01840
 118        3PY        -0.00001  -0.00002  -0.03745  -0.05847   0.00995
 119        3PZ        -0.00002  -0.00007  -0.00922   0.03672   0.02005
 120        4S          0.00038   0.00011   0.06137   0.07031  -0.08388
 121        4PX        -0.00069  -0.00056  -0.00992  -0.00213   0.00911
 122        4PY        -0.00043  -0.00047  -0.00785  -0.00683   0.00546
 123        4PZ        -0.00035  -0.00071  -0.00904   0.00356   0.00869
 124        5S         -0.00004   0.00208  -0.06007   0.12337  -0.02924
 125        5PX        -0.00004  -0.00001   0.00718  -0.01528  -0.00035
 126        5PY        -0.00044   0.00021   0.00918  -0.00548   0.00323
 127        5PZ         0.00061  -0.00068   0.00245  -0.02094  -0.00352
 128        6D 0       -0.00001  -0.00001  -0.00176  -0.00659  -0.00291
 129        6D+1        0.00005   0.00000   0.00422  -0.00476  -0.00527
 130        6D-1        0.00002  -0.00001  -0.00199  -0.00952   0.00158
 131        6D+2        0.00001  -0.00000  -0.00399  -0.01041   0.00045
 132        6D-2        0.00007  -0.00001   0.00909   0.00944  -0.00286
 133 7   H  1S         -0.00003  -0.00002   0.00996  -0.01273  -0.02059
 134        2S          0.00003   0.00023   0.00811  -0.01409  -0.02154
 135        3S          0.00029  -0.00035  -0.00349   0.00358   0.00139
 136        4PX         0.00003  -0.00001  -0.00076   0.00152  -0.00025
 137        4PY         0.00005  -0.00003  -0.00162   0.00386   0.00213
 138        4PZ         0.00001   0.00001   0.00043  -0.00149  -0.00268
 139 8   H  1S         -0.00005  -0.00004   0.00676   0.01586  -0.01818
 140        2S          0.00020   0.00042   0.00731   0.01737  -0.02137
 141        3S          0.00013  -0.00004   0.00232  -0.00269  -0.00139
 142        4PX         0.00001  -0.00004  -0.00046  -0.00206   0.00234
 143        4PY         0.00001  -0.00004  -0.00099  -0.00381   0.00189
 144        4PZ        -0.00001  -0.00000   0.00029   0.00058   0.00193
 145 9   C  1S          0.00349   0.56296  -0.00236  -0.00108  -0.05207
 146        2S          0.00283   0.46318  -0.00360  -0.00166  -0.08034
 147        2PX        -0.00021  -0.00014  -0.00042   0.00018  -0.00880
 148        2PY         0.00031   0.00023   0.00223   0.00055   0.01926
 149        2PZ         0.00026   0.00015   0.00067   0.00120   0.01124
 150        3S          0.00028   0.01934   0.00882   0.00433   0.20852
 151        3PX         0.00050   0.00079  -0.00072   0.00011  -0.01662
 152        3PY        -0.00073  -0.00135   0.00324   0.00084   0.03522
 153        3PZ        -0.00061  -0.00095   0.00112   0.00125   0.02101
 154        4S          0.00598  -0.01069   0.00521   0.00362   0.10627
 155        4PX        -0.00092   0.00025   0.00072  -0.00322  -0.00134
 156        4PY         0.00182  -0.00140   0.00261   0.00068   0.00441
 157        4PZ         0.00121  -0.00053   0.00189  -0.00151   0.00347
 158        5S          0.00422  -0.02620  -0.06900  -0.00083   0.03996
 159        5PX        -0.00025   0.00187   0.00180  -0.00091  -0.00274
 160        5PY         0.00092  -0.00449  -0.01855  -0.00027   0.00404
 161        5PZ         0.00045  -0.00249  -0.00669  -0.00048   0.00348
 162        6D 0        0.00003   0.00008  -0.00018   0.00024  -0.00117
 163        6D+1        0.00035   0.00031  -0.00006  -0.00003  -0.00273
 164        6D-1       -0.00051  -0.00054   0.00045   0.00030   0.00545
 165        6D+2        0.00015   0.00025  -0.00035  -0.00016  -0.00350
 166        6D-2        0.00043   0.00047  -0.00038   0.00008  -0.00420
 167 10  H  1S          0.00006  -0.00008   0.00432  -0.00014   0.04895
 168        2S         -0.00225  -0.00034   0.00517   0.00186   0.05714
 169        3S          0.00432  -0.00125  -0.00340   0.00058  -0.01176
 170        4PX        -0.00189  -0.00024   0.00118   0.00022   0.01157
 171        4PY         0.00015  -0.00003   0.00027  -0.00007   0.00001
 172        4PZ        -0.00064  -0.00008  -0.00000   0.00011   0.00218
 173 11  H  1S          0.00007  -0.00009   0.00387   0.00552   0.04830
 174        2S         -0.00247  -0.00035   0.00699   0.00243   0.05812
 175        3S          0.00431  -0.00081  -0.00298  -0.00065  -0.00928
 176        4PX         0.00030   0.00004   0.00024   0.00009  -0.00018
 177        4PY        -0.00045  -0.00006   0.00060   0.00022   0.00270
 178        4PZ         0.00201   0.00022  -0.00135  -0.00029  -0.01159
 179 12  H  1S         -0.00005   0.00021   0.00147   0.00012   0.03270
 180        2S         -0.00094  -0.00319   0.00070  -0.00195   0.03962
 181        3S          0.00041   0.00445   0.00495  -0.00155  -0.00699
 182        4PX        -0.00007  -0.00019  -0.00009   0.00010   0.00010
 183        4PY         0.00011   0.00051   0.00019  -0.00027  -0.00022
 184        4PZ        -0.00029  -0.00201   0.00029  -0.00030   0.00778
 185 13  H  1S          0.00002   0.00024   0.00067   0.00057   0.03071
 186        2S         -0.00117  -0.00351   0.00078   0.00024   0.03714
 187        3S          0.00010   0.00409   0.00084  -0.00089  -0.00761
 188        4PX        -0.00016  -0.00104   0.00004   0.00018   0.00259
 189        4PY        -0.00036  -0.00181   0.00017   0.00006   0.00714
 190        4PZ         0.00006   0.00052  -0.00012   0.00019  -0.00079
 191 14  H  1S         -0.00004   0.00019   0.00140   0.00094   0.03244
 192        2S         -0.00098  -0.00308  -0.00073   0.00225   0.03884
 193        3S          0.00039   0.00421   0.00383   0.00224  -0.00929
 194        4PX         0.00028   0.00200  -0.00014  -0.00038  -0.00752
 195        4PY         0.00003  -0.00003   0.00007   0.00018   0.00150
 196        4PZ         0.00013   0.00057   0.00001   0.00005  -0.00129
 197 15  H  1S          0.00004   0.00002   0.04022  -0.06839   0.00857
 198        2S         -0.00075   0.00020   0.04332  -0.06467   0.00678
 199        3S          0.00096   0.00094  -0.00747   0.02064  -0.00060
 200        4PX        -0.00005  -0.00000   0.00644  -0.00905   0.00031
 201        4PY         0.00007  -0.00002   0.00236  -0.00391  -0.00205
 202        4PZ        -0.00020   0.00002   0.00815  -0.01082   0.00247
                          11        12        13        14        15
                           O         O         O         O         O
     Eigenvalues --    -0.73018  -0.64410  -0.61128  -0.59648  -0.53158
   1 1   N  1S          0.01835   0.02055  -0.01634   0.00290   0.01316
   2        2S          0.02912   0.03277  -0.02597   0.00458   0.02117
   3        2PX         0.02942   0.02314  -0.09649   0.01865  -0.05405
   4        2PY         0.06027   0.01298  -0.05540  -0.09762  -0.07439
   5        2PZ        -0.01740   0.03271  -0.09794   0.13123  -0.03056
   6        3S         -0.08314  -0.09408   0.07278  -0.01335  -0.06243
   7        3PX         0.04407   0.03388  -0.14008   0.02627  -0.07800
   8        3PY         0.08998   0.01990  -0.08118  -0.14355  -0.10929
   9        3PZ        -0.02563   0.04714  -0.14126   0.19109  -0.04344
  10        4S         -0.06661  -0.08559   0.07697  -0.00703  -0.07025
  11        4PX         0.02405   0.01402  -0.08725   0.01792  -0.05702
  12        4PY         0.04628   0.00705  -0.05484  -0.09434  -0.07091
  13        4PZ        -0.01211   0.02553  -0.08241   0.12582  -0.04251
  14        5S         -0.00238  -0.05322   0.04032  -0.02862  -0.00966
  15        5PX        -0.00608   0.00045  -0.00844   0.02377  -0.01155
  16        5PY        -0.01516   0.00206   0.00518   0.03880  -0.00097
  17        5PZ         0.00756  -0.00128  -0.02034  -0.00109  -0.01709
  18        6D 0       -0.00746  -0.00310   0.00230   0.00544   0.00222
  19        6D+1       -0.00224  -0.00443   0.00310   0.00044  -0.00041
  20        6D-1        0.00503  -0.00155   0.00228  -0.00596  -0.00398
  21        6D+2       -0.00118  -0.00247   0.00246  -0.00040  -0.00027
  22        6D-2        0.00562   0.00178  -0.00043  -0.00503  -0.00445
  23 2   N  1S          0.02070   0.02665  -0.01526   0.03950   0.00333
  24        2S          0.03274   0.04240  -0.02426   0.06294   0.00539
  25        2PX         0.02885  -0.01152   0.05800   0.02417  -0.03388
  26        2PY         0.03398  -0.02092   0.06923   0.04600  -0.07323
  27        2PZ         0.01048   0.00850   0.02689  -0.00986   0.00722
  28        3S         -0.09255  -0.12158   0.07013  -0.18076  -0.01553
  29        3PX         0.04241  -0.01700   0.08468   0.03519  -0.04886
  30        3PY         0.04984  -0.03104   0.10271   0.06625  -0.10703
  31        3PZ         0.01516   0.01342   0.03791  -0.01383   0.01031
  32        4S         -0.06546  -0.09823   0.07095  -0.15608  -0.01233
  33        4PX         0.01539  -0.01007   0.04206   0.01580  -0.02226
  34        4PY         0.01857  -0.01580   0.05102   0.03726  -0.05405
  35        4PZ         0.00469   0.00458   0.01885  -0.01422   0.00743
  36        5S          0.00695  -0.02520   0.02438  -0.01496   0.02836
  37        5PX        -0.00814   0.00996  -0.01801  -0.00972   0.00734
  38        5PY        -0.01340   0.00709  -0.01689  -0.02915   0.02628
  39        5PZ        -0.00057   0.00842  -0.01075   0.01301  -0.01217
  40        6D 0       -0.00103  -0.00112  -0.00723   0.00452  -0.00117
  41        6D+1       -0.00625   0.00034  -0.01063  -0.00148   0.00353
  42        6D-1       -0.00741   0.00149  -0.00793  -0.00727   0.01102
  43        6D+2       -0.00480   0.00130  -0.00747  -0.00181   0.00410
  44        6D-2       -0.00175   0.00022   0.00170  -0.00469   0.00279
  45 3   C  1S          0.04032  -0.02660   0.02786  -0.02119  -0.04088
  46        2S          0.06262  -0.04175   0.04351  -0.03325  -0.06417
  47        2PX        -0.01152  -0.03595  -0.04136  -0.04683   0.00713
  48        2PY        -0.03079  -0.04979  -0.04523   0.02968  -0.04038
  49        2PZ         0.00452   0.01173  -0.01231  -0.11509   0.02254
  50        3S         -0.17521   0.11579  -0.12325   0.09305   0.18460
  51        3PX        -0.01500  -0.05347  -0.05936  -0.06397   0.01015
  52        3PY        -0.04470  -0.07208  -0.06556   0.04396  -0.05864
  53        3PZ         0.00825   0.01756  -0.01487  -0.16239   0.02910
  54        4S         -0.08642   0.09015  -0.07825   0.03727   0.15779
  55        4PX        -0.01245  -0.02409  -0.02476  -0.02212   0.00381
  56        4PY        -0.02222  -0.03314  -0.02955   0.00322  -0.02552
  57        4PZ        -0.00082   0.00774  -0.00272  -0.04521   0.00656
  58        5S         -0.04257  -0.09572  -0.05817  -0.00380  -0.01481
  59        5PX         0.01600   0.07160  -0.01473  -0.00700   0.04050
  60        5PY         0.02595   0.13804  -0.01350   0.05879   0.05845
  61        5PZ        -0.00830  -0.02581  -0.01396  -0.07051   0.01275
  62        6D 0       -0.00918  -0.00467   0.00219   0.00399   0.00899
  63        6D+1       -0.00959  -0.00491   0.00277  -0.00393   0.01039
  64        6D-1        0.00055  -0.00632   0.00662  -0.01462   0.00788
  65        6D+2       -0.00509  -0.00414   0.00658  -0.00739   0.00739
  66        6D-2        0.00133   0.00562  -0.00296  -0.00297  -0.00540
  67 4   C  1S         -0.03381  -0.05201  -0.02117   0.01385   0.03199
  68        2S         -0.05241  -0.08098  -0.03311   0.02168   0.05004
  69        2PX         0.00152  -0.01621  -0.01928  -0.00277   0.06135
  70        2PY        -0.03584   0.05291   0.00616   0.00883   0.05721
  71        2PZ        -0.00808   0.02663   0.00182  -0.03238  -0.02871
  72        3S          0.13800   0.21996   0.08934  -0.05865  -0.13484
  73        3PX         0.00393  -0.02208  -0.02482  -0.00647   0.09057
  74        3PY        -0.05765   0.08206   0.01258   0.01102   0.08685
  75        3PZ        -0.01511   0.03702   0.00281  -0.04750  -0.04067
  76        4S          0.07999   0.12510   0.05633  -0.04295  -0.12480
  77        4PX         0.00167  -0.01542  -0.01665  -0.00674   0.05001
  78        4PY        -0.02327   0.02883   0.00005   0.00736   0.03685
  79        4PZ        -0.00361   0.01915  -0.00432  -0.02853  -0.02513
  80        5S         -0.05021   0.33454   0.05896   0.02536   0.07895
  81        5PX        -0.01498   0.03212   0.00674   0.00612   0.00996
  82        5PY         0.02539   0.03412  -0.00371   0.02384   0.02495
  83        5PZ         0.01823  -0.01819  -0.00612   0.01466  -0.00945
  84        6D 0        0.00201  -0.00137   0.00040  -0.00106  -0.00631
  85        6D+1       -0.00203   0.00392   0.00179  -0.00329  -0.00523
  86        6D-1        0.00562  -0.00792  -0.00272  -0.00433  -0.00077
  87        6D+2        0.00103   0.00001   0.00037  -0.00170  -0.00720
  88        6D-2       -0.00701   0.00776   0.00123  -0.00246   0.00905
  89 5   C  1S         -0.06575  -0.03703   0.03116   0.02542  -0.02293
  90        2S         -0.10207  -0.05779   0.04889   0.03972  -0.03592
  91        2PX         0.01632   0.01962   0.02028   0.04995   0.05330
  92        2PY         0.00251   0.01887   0.03082  -0.00265   0.10548
  93        2PZ         0.02441   0.01496   0.00250   0.08527  -0.02830
  94        3S          0.27304   0.15558  -0.13406  -0.10923   0.09347
  95        3PX         0.02131   0.02645   0.02923   0.07090   0.07661
  96        3PY         0.00248   0.02570   0.04412  -0.00009   0.14676
  97        3PZ         0.03277   0.02032   0.00399   0.11712  -0.03640
  98        4S          0.15161   0.11718  -0.07961  -0.08284   0.11797
  99        4PX         0.00709   0.00833   0.00510   0.02429   0.02726
 100        4PY         0.00309   0.00421   0.00638  -0.00300   0.05202
 101        4PZ         0.00851   0.00917   0.00217   0.04359  -0.01269
 102        5S          0.00247  -0.03591   0.00457  -0.12540   0.04516
 103        5PX        -0.00389   0.00096   0.01187   0.01520   0.00710
 104        5PY         0.00226   0.00688   0.01150   0.03139   0.00320
 105        5PZ        -0.00866  -0.00657   0.00873  -0.00899   0.00790
 106        6D 0        0.00648   0.00426   0.00441   0.00408   0.00888
 107        6D+1        0.00825   0.00289   0.00552  -0.00338   0.00640
 108        6D-1       -0.00350  -0.00402   0.01083  -0.00717   0.00176
 109        6D+2       -0.00016  -0.00045   0.00960  -0.00129   0.00553
 110        6D-2        0.00178  -0.00068  -0.00547  -0.00677  -0.00818
 111 6   C  1S         -0.05302  -0.01180  -0.05264  -0.04140  -0.00712
 112        2S         -0.08213  -0.01829  -0.08217  -0.06479  -0.01092
 113        2PX        -0.01141  -0.00534   0.03841   0.00356   0.03045
 114        2PY         0.01727   0.03600   0.00192   0.02079   0.07589
 115        2PZ        -0.03769  -0.04536   0.06357  -0.01653  -0.03488
 116        3S          0.21815   0.04720   0.22470   0.17453   0.02637
 117        3PX        -0.01586  -0.00611   0.05148   0.00510   0.04373
 118        3PY         0.02333   0.05231  -0.00212   0.02947   0.10718
 119        3PZ        -0.05172  -0.06304   0.09041  -0.02356  -0.04873
 120        4S          0.12875   0.03186   0.15825   0.12688   0.00799
 121        4PX        -0.00787  -0.00184   0.01915  -0.00040   0.02756
 122        4PY         0.00176   0.01427   0.00573   0.00741   0.05662
 123        4PZ        -0.01511  -0.01684   0.02653  -0.00869  -0.01915
 124        5S         -0.00418  -0.07917   0.03018   0.05802  -0.13016
 125        5PX         0.00551   0.01181  -0.00133  -0.00648   0.02215
 126        5PY         0.00286   0.02314  -0.01917  -0.01390   0.02521
 127        5PZ         0.00702  -0.00331   0.01831   0.00412   0.00790
 128        6D 0        0.00778   0.00558   0.00004   0.00203   0.00407
 129        6D+1        0.00946   0.00625  -0.00310   0.00740   0.00029
 130        6D-1       -0.00039   0.00345  -0.00896   0.00401  -0.00065
 131        6D+2        0.00263   0.00512  -0.00543   0.00208   0.00155
 132        6D-2       -0.00023  -0.00272   0.00090   0.00394  -0.00591
 133 7   H  1S          0.04533   0.03566  -0.01807  -0.06356   0.09089
 134        2S          0.05128   0.04231  -0.01976  -0.08265   0.12358
 135        3S          0.00230   0.00741  -0.00491  -0.01221   0.02375
 136        4PX         0.00101   0.00093   0.00134   0.00212   0.00285
 137        4PY        -0.00450  -0.00279   0.00176   0.00969  -0.00792
 138        4PZ         0.00631   0.00468   0.00046  -0.00656   0.01232
 139 8   H  1S          0.03605   0.01170   0.07983   0.04583   0.04460
 140        2S          0.04199   0.01277   0.10058   0.05681   0.05812
 141        3S          0.00400   0.00274   0.01137   0.01521   0.00263
 142        4PX        -0.00454  -0.00138  -0.00899  -0.00416  -0.00510
 143        4PY        -0.00286   0.00071  -0.01031  -0.00304  -0.00309
 144        4PZ        -0.00466  -0.00299  -0.00422  -0.00384  -0.00572
 145 9   C  1S         -0.06032   0.06970   0.01884  -0.00711  -0.01095
 146        2S         -0.09337   0.10827   0.02931  -0.01106  -0.01710
 147        2PX        -0.00582  -0.01528  -0.01109   0.00266   0.03810
 148        2PY         0.00470   0.03010   0.01271  -0.00223  -0.00515
 149        2PZ         0.00615   0.02043   0.00703  -0.01237  -0.03068
 150        3S          0.24486  -0.28703  -0.07766   0.02928   0.04569
 151        3PX        -0.01118  -0.02132  -0.01633   0.00416   0.05572
 152        3PY         0.01145   0.04281   0.01922  -0.00380  -0.00710
 153        3PZ         0.01223   0.02870   0.01094  -0.01857  -0.04480
 154        4S          0.14468  -0.19165  -0.06128   0.02306   0.03456
 155        4PX        -0.00241  -0.01141  -0.00660   0.00463   0.03063
 156        4PY        -0.00042   0.01878   0.00481   0.00039  -0.00219
 157        4PZ         0.00049   0.01584   0.00527  -0.00630  -0.02478
 158        5S          0.09766  -0.09323  -0.04432   0.04884   0.02403
 159        5PX        -0.00777   0.00688   0.00480  -0.00575  -0.00040
 160        5PY         0.01560  -0.01687  -0.00871   0.00992   0.00630
 161        5PZ         0.01093  -0.01027  -0.00503   0.00702   0.00278
 162        6D 0        0.00007  -0.00105  -0.00041  -0.00085  -0.00011
 163        6D+1       -0.00184  -0.00271  -0.00176   0.00116   0.00598
 164        6D-1        0.00218   0.00571   0.00208  -0.00248  -0.00329
 165        6D+2       -0.00031  -0.00295  -0.00112  -0.00014  -0.00126
 166        6D-2       -0.00192  -0.00445  -0.00272   0.00036   0.00353
 167 10  H  1S          0.02477   0.05068   0.03100  -0.00529  -0.06715
 168        2S          0.02796   0.06398   0.04049  -0.01104  -0.08308
 169        3S          0.00254  -0.00124  -0.00438   0.00173  -0.01518
 170        4PX         0.00477   0.00860   0.00525  -0.00155  -0.00683
 171        4PY        -0.00218   0.00219   0.00087   0.00062   0.00379
 172        4PZ         0.00093   0.00362   0.00118  -0.00194  -0.00385
 173 11  H  1S          0.02497   0.05190   0.01800  -0.03501  -0.05628
 174        2S          0.02778   0.06584   0.02501  -0.04214  -0.06958
 175        3S          0.00132  -0.00236  -0.00080  -0.00054  -0.01026
 176        4PX        -0.00041  -0.00145  -0.00146  -0.00000   0.00394
 177        4PY        -0.00077   0.00478   0.00068  -0.00145   0.00171
 178        4PZ        -0.00527  -0.00860  -0.00330   0.00443   0.00696
 179 12  H  1S          0.04256  -0.06720  -0.01857   0.01418   0.03023
 180        2S          0.04968  -0.08168  -0.02003   0.01858   0.03921
 181        3S         -0.00483  -0.00150  -0.00227   0.00149   0.00698
 182        4PX         0.00024  -0.00140  -0.00088   0.00016   0.00245
 183        4PY        -0.00136   0.00313   0.00161  -0.00024  -0.00066
 184        4PZ         0.00872  -0.01084  -0.00253   0.00187   0.00332
 185 13  H  1S          0.04528  -0.06772  -0.01952   0.00525  -0.00263
 186        2S          0.05337  -0.08276  -0.02403   0.00717  -0.00089
 187        3S         -0.00576  -0.00472  -0.00320   0.00051   0.00089
 188        4PX         0.00382  -0.00621  -0.00208   0.00037   0.00185
 189        4PY         0.00825  -0.00907  -0.00208   0.00045  -0.00105
 190        4PZ        -0.00145   0.00339   0.00096  -0.00097  -0.00155
 191 14  H  1S          0.04272  -0.06585  -0.02307   0.00608   0.03224
 192        2S          0.05069  -0.08006  -0.02781   0.00541   0.04247
 193        3S         -0.00395  -0.00135  -0.00320  -0.00002   0.00311
 194        4PX        -0.00869   0.01074   0.00319  -0.00060  -0.00330
 195        4PY         0.00084   0.00051   0.00020  -0.00021   0.00040
 196        4PZ        -0.00166   0.00368   0.00113  -0.00097  -0.00297
 197 15  H  1S         -0.02840  -0.04952   0.11992  -0.06534   0.04103
 198        2S         -0.02756  -0.05969   0.13655  -0.07419   0.04459
 199        3S         -0.00068   0.00520  -0.00585   0.00848  -0.00046
 200        4PX        -0.00198  -0.00506   0.00973  -0.00743   0.00220
 201        4PY         0.00154  -0.00134   0.00270  -0.00900  -0.00259
 202        4PZ        -0.00520  -0.00602   0.01346  -0.00297   0.00470
                          16        17        18        19        20
                           O         O         O         O         O
     Eigenvalues --    -0.46311  -0.45466  -0.44047  -0.43119  -0.41849
   1 1   N  1S         -0.00989   0.00332  -0.00953   0.00305  -0.00849
   2        2S         -0.01584   0.00520  -0.01552   0.00492  -0.01370
   3        2PX         0.05487   0.10439   0.01595  -0.03476   0.07544
   4        2PY         0.02258  -0.00464   0.07339   0.11394   0.02411
   5        2PZ        -0.04662  -0.01585   0.09634  -0.02389  -0.02880
   6        3S          0.04681  -0.01309   0.05159  -0.01600   0.04183
   7        3PX         0.08240   0.15482   0.01832  -0.05231   0.11367
   8        3PY         0.03230  -0.01077   0.10693   0.16942   0.03440
   9        3PZ        -0.07002  -0.02580   0.14067  -0.03191  -0.04201
  10        4S          0.06540  -0.02668   0.04586  -0.00680   0.06323
  11        4PX         0.07175   0.11799  -0.00296  -0.04425   0.09277
  12        4PY         0.01892  -0.00993   0.09268   0.12461   0.02223
  13        4PZ        -0.04274  -0.03715   0.08557  -0.00848  -0.03723
  14        5S          0.06223  -0.05128  -0.00052   0.02039   0.04162
  15        5PX        -0.01051   0.00332   0.01908  -0.00015   0.01376
  16        5PY        -0.01099   0.01659   0.00255  -0.00613   0.00906
  17        5PZ         0.00829   0.00422   0.01966  -0.01145   0.02031
  18        6D 0       -0.00574  -0.00962  -0.00006  -0.00279  -0.00183
  19        6D+1        0.00435  -0.00444  -0.01183  -0.00115   0.00193
  20        6D-1        0.00508  -0.00935  -0.00775   0.00979  -0.00014
  21        6D+2        0.00382  -0.00351  -0.00937  -0.00253   0.00402
  22        6D-2        0.00179  -0.00035  -0.00071   0.00720  -0.00039
  23 2   N  1S          0.01471  -0.00972  -0.00221   0.00526   0.00373
  24        2S          0.02339  -0.01551  -0.00360   0.00847   0.00594
  25        2PX         0.01658   0.09494   0.00599  -0.03826  -0.03049
  26        2PY        -0.04089   0.03480   0.03612   0.00693  -0.10830
  27        2PZ        -0.00764  -0.00252   0.06342   0.02864  -0.00599
  28        3S         -0.06787   0.04494   0.01092  -0.02540  -0.01665
[...]
   ||         0.383643D+02      0.331437D+00      0.123010D+00
   xxx        0.121161D+03      0.104674D+01      0.388486D+00
   xxy       -0.119027D+02     -0.102830D+00     -0.381644D-01
   yxy       -0.141085D+03     -0.121887D+01     -0.452370D+00
   yyy        0.100957D+03      0.872194D+00      0.323706D+00
   xxz       -0.228136D+02     -0.197091D+00     -0.731485D-01
   yxz       -0.494615D+02     -0.427309D+00     -0.158591D+00
   yyz        0.557700D+02      0.481809D+00      0.178819D+00
   zxz        0.254276D+02      0.219675D+00      0.815300D-01
   zyz       -0.501911D+02     -0.433612D+00     -0.160931D+00
   zzz       -0.834312D+02     -0.720781D+00     -0.267511D+00

 ----------------------------------------------------------------------
 Unable to Open any file for archive entry.
 1\1\GINC-NODE1789\Freq\RB3LYP\6-311+G(d,p)\C5H8N2\SVICCHI\02-Jun-2023\
 0\\#p freq=raman scale=0.967 pop=(nbo,full,hirshfeld) guess=read geom=
 allcheck b3lyp/6-311+G(d,p) int=grid=ultrafine EmpiricalDispersion=GD3
 BJ SCRF=(Solvent=ethanol) scf=(xqc,intrep,maxconventionalcycle=350) no
 symm\\2ethylimidazolide-H_dissociation-site_index-0.gjf\\0,1\N,-0.6666
 913052,-0.5619465498,-0.7794124477\N,0.400053459,-0.6938687294,1.14838
 62802\C,-0.4618387726,-1.3028102585,0.3501755281\C,-1.1012459454,-2.63
 27609707,0.5845871844\C,0.1051798061,0.5788274167,-0.6932013651\C,0.75
 75113406,0.4781263091,0.5065438815\H,0.1092040167,1.3289199937,-1.4654
 566157\H,1.4544397123,1.1749160614,0.9452552377\C,-0.4424030039,-3.767
 1240959,-0.2184395093\H,-2.1656489801,-2.5760005029,0.3354570041\H,-1.
 0329407212,-2.8446334337,1.6531961292\H,-0.5161690723,-3.5853716067,-1
 .2936531432\H,-0.9304501248,-4.7205788644,-0.0027949467\H,0.6157870925
 ,-3.8578433339,0.0382742234\H,-1.2817945017,-0.8011224351,-1.542148440
 8\\Version=ES64L-G16RevC.01\HF=-304.9704507\RMSD=3.186e-09\RMSF=9.279e
 -05\ZeroPoint=0.1230146\Thermal=0.1298213\ETot=-304.8406294\HTot=-304.
 8396852\GTot=-304.8788243\Dipole=-1.060779,-0.2020804,-1.6385872\Dipol
 eDeriv=-0.4871508,-0.001902,-0.3502495,-0.1113289,-0.2473976,-0.206293
 4,-0.2470283,-0.032788,-0.6539509,-0.5212995,-0.1136561,-0.1086642,-0.
 0191402,-0.5522928,0.091203,-0.1763895,-0.0368478,-0.6824056,0.280936,
 0.1475076,0.3086432,0.1442039,0.4245408,-0.0848665,0.3127471,-0.066874
 4,0.5985928,0.2121826,0.0418331,0.0007883,-0.0440449,0.0865882,0.02250
 92,-0.0402301,-0.0906729,0.1546179,0.0518611,0.0987248,0.2551484,0.220
 5359,-0.1126715,0.226232,0.1702186,0.0831163,-0.0061105,-0.0639474,0.1
 705006,0.0627184,0.0937588,0.1004963,-0.2135469,0.1463014,-0.0441786,0
 .1298377,0.1840382,-0.0447261,-0.0587473,-0.0549096,0.0770672,0.082383
 4,-0.0429591,0.1001025,0.0711197,0.0928745,-0.1328623,-0.0609598,-0.11
 60774,0.0260668,-0.0071993,-0.0775424,-0.0260276,0.107985,0.0706143,-0
 .0808931,0.0409615,-0.0075031,0.0440735,-0.0096511,0.0530956,0.0449979
 ,0.1038849,-0.1776974,-0.0267065,-0.0199976,0.02313,-0.0278063,0.00958
 68,-0.0661531,0.0036583,0.0692796,0.0802156,-0.0020125,-0.0236588,-0.0
 105918,0.0129014,0.0065621,0.0272035,0.0427666,-0.1432863,0.0732592,0.
 0320409,-0.0230979,0.0312795,0.0471293,0.0646241,-0.0015402,-0.0038165
 ,-0.1851342,0.0306757,-0.1001547,0.0373257,-0.1044705,-0.2218212,0.018
 9529,0.0338028,0.0142505,0.0725072,-0.164177,0.0714646,-0.0342306,0.01
 1874,0.0610938,-0.0288917,-0.0668258,-0.0133004,0.053297,0.3376149,-0.
 0591583,-0.0259797,-0.0567157,0.282032,0.0283954,-0.0247005,0.0256143,
 0.3097658\Polar=81.2828368,13.3016868,104.8568382,8.9547225,-6.7236247
 ,91.845472\PolarDeriv=-0.4940651,2.7764522,3.5139072,-0.0778376,1.2824
 335,1.8832453,3.1481946,4.7447151,8.1663698,0.0335888,-0.0373905,-3.14
 49228,0.0568832,-2.2888889,-5.0824231,1.8789577,-1.7349039,1.5575933,4
 .420968,3.2541594,14.9591615,0.3426506,-5.5671281,1.075953,-1.1759948,
 6.6456113,16.7292652,-4.6369423,-5.4645424,0.4151599,3.4396777,1.54848
 08,5.5085245,1.4994645,0.4741601,8.933088,-7.0778031,-7.0502311,-14.87
 9815,2.8804024,5.9922221,-4.5053246,-3.8242288,-7.6307344,-26.5218161,
 -0.9971231,2.8635786,-4.4489204,2.9933268,2.9010689,-2.8605519,1.03334
 66,2.690989,1.1403016,13.1208813,2.808184,-0.9746862,1.0001111,-1.6525
 646,-1.1089171,-0.1168495,0.8376215,14.4792234,-0.3516049,2.3815319,2.
 6411214,2.6841436,-1.5505994,5.5680698,0.9472501,4.1348802,-9.8019145,
 -4.7414085,1.4818969,-13.2699563,-2.8039007,0.8162432,2.8625255,0.1159
 668,-4.9396018,0.7035339,2.2242506,-1.202265,-1.377254,-6.174579,-3.69
 04657,-9.7944844,4.3631277,2.0578092,-8.2648116,10.2120255,-0.2775858,
 1.8330922,1.3187811,-3.266773,3.0493761,-1.8633641,-3.6470078,-8.99940
 71,3.122173,7.4899626,4.3833817,1.9924834,1.5048772,18.8092988,-3.9201
 917,-4.8995535,8.8159775,0.0313002,-0.0281063,2.0062135,-0.1592113,-0.
 0028393,-1.559065,0.9859151,1.1926862,6.7706629,-0.8416894,-5.1946862,
 5.543947,-0.7228878,0.4950198,-6.0175831,-0.9167878,5.270359,-6.388056
 5,3.5315519,3.8939171,4.9426323,2.1055366,2.5120283,2.3671372,4.502431
 7,4.4742315,5.8616573,1.6244564,1.819046,0.8410283,2.9706067,1.9359763
 ,1.763052,2.2961851,1.318171,2.1555078,-8.4977527,3.4090603,10.5279652
 ,-2.2954699,0.842597,1.8229602,2.22518,5.2037574,1.1535571,0.0883508,-
 3.9135867,-2.6172127,-3.8513564,-0.2357837,-10.1067335,0.2517801,-2.62
 05837,8.8701189,-14.8558117,-2.5538272,-3.4254146,-0.4858652,0.0476561
 ,-1.0405456,0.1821094,-2.283453,-1.0121879,0.2005752,-0.6879122,0.0545
 027,-2.6627412,-0.5288307,-3.2897583,-1.9186408,-0.6045155,0.2181095,-
 0.8464901,0.0097932,2.1851679,1.5040833,0.1781905,0.842236,0.0365195,0
 .2906511,-1.5113315,0.4892557,2.2499997,-1.9047423,1.3898734,0.7270863
 ,3.0743476,-1.3705627,-2.8628008,12.2646121,0.3768974,-0.3536013,-1.31
 49564,-1.4561937,-0.1526326,-0.7250494,0.151185,-0.73018,0.6132837,-0.
 173672,-1.3633476,1.2008803,-1.1759424,0.0278238,-1.2790147,-0.2212526
 ,-0.5622274,-11.9822741,-2.2089917,-3.7445661,-6.427783,0.7335714,0.05
 36876,-1.1742072,-2.457616,-4.5415006,-15.1618712,0.3419379,1.2133567,
 -0.8510871,1.1579064,0.4898449,3.2208779,-0.94436,-1.8034777,0.1618354
 ,10.9899783,-2.7027994,1.9175021,1.2605641,-0.142395,1.4412449,-0.6487
 713,1.397444,-0.792269,-0.1351026,0.9559181,0.2971941,2.1450318,-0.426
 3189,1.8817423,1.6792824,-0.1392987,0.4496932,-3.9612798,-0.9227461,-1
 .5930304,-3.8672223,-0.9407257,-5.2315692,-1.2606776,-1.0142404,-0.478
 6705,-0.9884541,-1.109663,-1.0330761,-4.2424262,-0.9092909,-1.3953641,
 -4.6575985,-0.7190075,-8.1297807\HyperPolar=131.6614983,-9.7145808,-14
 5.3083369,-100.9449109,-6.8581079,15.7722018,57.2719416,46.7368785,77.
 0511319,-7.2408083\Quadrupole=-0.3037906,2.4846693,-2.1808787,4.250210
 8,1.2565927,1.3206163\PG=C01 [X(C5H8N2)]\NImag=0\\0.44561115,0.2411902
 1,0.50791450,0.34483193,-0.04320217,0.70102499,-0.02044594,0.00318934,
 -0.07244811,0.30458290,-0.02440278,0.00366282,-0.02369034,0.15838744,0
 .40038959,-0.04273865,0.02324536,-0.07539805,0.16998437,-0.04623550,0.
 43574188,-0.08771878,-0.00759489,-0.02910347,-0.20059764,-0.08934621,-
 0.10902632,0.41869493,-0.00555801,-0.16556791,0.09524193,-0.08373855,-
 0.15481176,-0.06022256,0.24287088,0.66985655,-0.03369744,0.08721335,-0
 .21266243,-0.11846413,-0.07561395,-0.19797746,0.14553579,-0.08425913,0
 .51656754,0.00442187,0.00562867,0.00123075,-0.01269633,-0.02042157,0.0
 0497709,-0.10050855,-0.06108938,0.00238953,0.54255904,-0.00656348,-0.0
 1401038,0.00519117,-0.00869838,-0.01361713,-0.00276953,-0.05763939,-0.
 18609061,0.02819102,0.01641987,0.45723855,0.01706109,0.03169506,-0.003
 04639,-0.00595463,-0.01842934,0.00628810,0.00176416,0.02780532,-0.0878
 6269,0.04222450,-0.04039894,0.56535354,-0.13352654,-0.10128199,-0.0279
 9672,0.01659385,0.01794082,-0.02092983,0.00445734,-0.03347787,0.019928
 84,0.00136625,0.00049796,-0.00540143,0.31119374,-0.10433288,-0.2223250
 1,0.00446976,-0.01147885,-0.02285956,0.02351973,-0.01378591,-0.0619928
 6,0.06287004,0.00174757,0.00161929,-0.00092252,0.14177634,0.58297756,-
 0.02560469,0.00878076,-0.10321420,0.01122240,0.07368367,-0.04213914,-0
 .00509437,0.02591695,-0.01790930,-0.00206551,0.00161201,-0.00552331,0.
 18269673,-0.25710575,0.68559238,-0.03314767,-0.04692737,-0.02956735,-0
 .09109500,-0.03701809,0.00217500,-0.02753296,-0.04495107,-0.01613460,0
 .00239936,-0.00264726,-0.00392400,-0.14843106,0.00048254,-0.13721183,0
 .45682951,-0.02200610,-0.01636281,-0.00326513,-0.04406049,-0.20043268,
 0.06421612,-0.06837367,-0.06732176,-0.02986033,-0.00285077,0.00360484,
 -0.00244361,-0.00564592,-0.08924244,0.01320097,0.26528541,0.53945476,-
 0.05591962,-0.04517394,-0.03216518,0.00990699,0.07647310,-0.13235552,0
 .00896206,0.00546798,0.01517843,-0.00587509,-0.00015668,0.00079236,-0.
 13165094,0.02352510,-0.31103497,0.26840500,0.01298889,0.56744600,-0.00
 008049,-0.01235093,0.01802857,0.00356971,-0.00051884,-0.00572920,-0.00
 180815,-0.00379593,-0.00354878,0.00122859,-0.00041080,0.00025474,-0.03
 801034,-0.00871377,-0.01658163,0.00497297,0.01164414,-0.00321215,0.032
 30998,0.00412857,-0.01405489,0.01812563,-0.00255149,0.00301867,0.00011
 643,-0.00385180,-0.00163611,-0.00223760,-0.00010325,0.00014648,0.00151
 848,-0.01330075,-0.19315985,0.15550621,0.00142797,0.00482974,-0.003008
 60,0.01268762,0.20195936,0.00082392,-0.00922439,0.00778044,-0.00382516
 ,0.00332492,-0.00264268,-0.00309418,-0.00141853,-0.00103555,-0.0002199
 6,0.00010648,0.00088268,-0.01156140,0.16292542,-0.21089774,0.00725908,
 0.01436389,-0.00309256,0.00910726,-0.16939351,0.20980387,0.00235069,-0
 .00129310,-0.00357979,-0.00516873,-0.00123637,0.00111005,0.00282692,-0
 .00225257,-0.00052854,0.00081001,-0.00017887,-0.00063637,-0.00364534,-
 0.00684997,0.00055288,-0.16375779,-0.13044035,-0.09154716,-0.00156674,
 0.00103931,0.00066801,0.16731369,-0.00052240,0.00180527,0.00275228,-0.
 01386892,-0.01583244,-0.01189959,-0.00215601,-0.00309574,0.00417837,-0
 .00113067,0.00030407,-0.00060902,0.00487976,0.00610414,0.00206316,-0.1
 2951335,-0.16559019,-0.07238857,0.00053708,-0.00084151,-0.00095653,0.1
 4233070,0.17660546,-0.00448906,0.00133662,-0.00357392,0.01430798,0.009
 30822,0.00926650,-0.00020529,0.00474025,-0.00073551,-0.00001332,0.0002
 1774,0.00098613,-0.01157127,-0.01743002,-0.00086192,-0.09271848,-0.074
 16290,-0.10575950,0.00118345,-0.00011072,-0.00050862,0.09429258,0.0765
 9808,0.10028374,0.00071767,0.00041158,-0.00024524,-0.00118918,-0.00219
 309,-0.00030433,0.00964297,-0.00703437,-0.00996482,-0.09622508,0.03117
 086,0.02473084,-0.00108845,-0.00146700,0.00005473,-0.00095109,-0.00028
 745,0.00107226,-0.00011585,-0.00000671,0.00005028,-0.00021931,-0.00010
 908,0.00015206,0.54484938,0.00074542,0.00201300,-0.00158485,0.00297549
 ,0.00111448,0.00062660,0.00715289,-0.03419327,-0.01496386,0.03569116,-
 0.12448556,-0.03947338,-0.00143738,-0.00083843,-0.00060991,-0.00111027
 ,-0.00101161,0.00159710,-0.00018481,0.00018123,0.00014669,-0.00026453,
 0.00007819,0.00017672,0.03879832,0.50258530,0.00010530,0.00024939,-0.0
 0086703,0.00050815,-0.00014217,0.00065097,-0.00699488,-0.00189273,0.00
 451686,0.02531626,-0.03558095,-0.10610753,0.00118010,0.00120564,0.0002
 9325,0.00003797,0.00111250,-0.00079578,0.00023417,-0.00003551,-0.00007
 562,0.00010610,0.00007064,-0.00009093,0.02485169,-0.04434542,0.5333392
 1,0.00182913,0.00120495,-0.00046806,-0.00103304,-0.00110025,0.00161627
 ,-0.01328432,-0.00048988,-0.00516952,-0.28630127,0.01061842,-0.0587578
 1,-0.00077965,-0.00133885,-0.00027897,0.00037022,-0.00068879,0.0001698
 0,0.00002493,0.00005173,0.00004287,0.00002957,-0.00020862,0.00008035,-
 0.01407862,0.00269779,-0.00247789,0.31303490,0.00170349,0.00227685,-0.
 00084892,-0.00211201,-0.00268807,0.00214801,-0.03115178,0.00001195,-0.
 00975243,0.01157838,-0.04679037,0.00656729,-0.00109946,-0.00107834,-0.
 00061393,0.00015851,-0.00185259,-0.00021252,0.00012720,0.00002888,0.00
 002557,0.00015854,-0.00048828,0.00004284,0.02544811,-0.00296584,0.0053
 9434,-0.01247826,0.05640084,-0.00040000,-0.00051158,0.00027647,-0.0007
 1171,-0.00044523,0.00049327,0.00635362,-0.00029076,0.00038950,-0.05968
 740,0.00619530,-0.06339892,0.00058856,0.00009182,0.00021280,0.00028851
 ,0.00018077,-0.00017591,-0.00011712,0.00002217,0.00009138,-0.00010424,
 0.00007836,0.00004255,0.01913715,-0.00274275,0.00371873,0.06379170,-0.
 00229531,0.06418880,-0.00071201,-0.00187737,-0.00010683,0.00090967,0.0
 0090591,-0.00067093,0.00048716,-0.00314895,0.01579644,-0.05020690,0.00
 269283,-0.02123615,0.00014712,-0.00066898,0.00025505,-0.00013935,0.000
 07649,0.00047235,0.00001903,-0.00024238,-0.00012570,0.00000687,0.00005
 861,-0.00003557,0.00055682,-0.00210844,0.01581440,-0.00096180,0.006978
 81,-0.03039491,0.04973837,-0.00445399,-0.00502723,0.00014933,0.0016864
 4,0.00218813,-0.00088868,0.00404181,-0.00856526,0.03192914,0.00146848,
 -0.05636463,0.05068432,0.00061911,-0.00043688,0.00131634,-0.00001713,-
 0.00015446,0.00009147,-0.00014276,-0.00049099,-0.00024017,0.00000732,0
 .00004409,-0.00008924,-0.00138721,0.00388460,-0.02620561,0.00025746,-0
 .00099000,0.00062880,-0.00360959,0.06725283,0.00086010,0.00045697,0.00
 060992,-0.00077819,-0.00189255,0.00085506,-0.00130732,0.00178945,-0.00
 670591,-0.01778782,0.05472722,-0.29829601,-0.00019536,-0.00011052,0.00
 004981,0.00007039,0.00070631,0.00008444,0.00011675,0.00000252,0.000094
 49,0.00004829,-0.00001985,-0.00001393,-0.00046557,0.00135126,-0.016453
 96,-0.00109198,0.00128979,-0.00599090,0.01902478,-0.05560215,0.3242965
 1,0.00002809,-0.00001328,0.00002491,0.00017396,0.00009825,-0.00003855,
 -0.00003317,-0.00068487,-0.00039164,0.00035741,-0.00257287,0.01553460,
 0.00000110,0.00011775,-0.00008575,-0.00002231,-0.00007686,-0.00000990,
 -0.00001125,0.00001795,0.00000969,-0.00000257,0.00001509,-0.00000047,-
 0.04892160,0.00332413,-0.02043989,0.00052527,-0.00085911,-0.00010328,-
 0.00045025,0.00264472,0.00160920,0.04851812,0.00008680,-0.00010754,0.0
 0031396,-0.00046526,-0.00043075,0.00019383,-0.00022615,0.00199622,-0.0
 0109441,-0.00175970,0.00293394,-0.02609010,-0.00003610,-0.00015267,0.0
 0015685,0.00013074,0.00030374,-0.00011833,0.00003657,0.00001650,-0.000
 00330,0.00002501,-0.00001585,0.00000086,0.00310058,-0.05518019,0.04754
 916,-0.00053986,0.00108208,0.00096446,0.00236191,-0.00348827,-0.002763
 63,-0.00629682,0.05955148,-0.00025380,-0.00004831,0.00039245,-0.000267
 81,-0.00034006,0.00006922,0.00041604,0.00158912,-0.00005696,-0.0010120
 3,0.00203714,-0.01620972,-0.00027876,-0.00047638,0.00017038,0.00009716
 ,0.00004996,0.00012951,-0.00000322,-0.00002542,-0.00001227,0.00001040,
 -0.00004881,0.00000302,-0.01977926,0.04577971,-0.29741724,0.00028974,0
 .00009059,0.00083542,0.00183613,-0.00285858,-0.00015722,0.01976962,-0.
 04811431,0.32429794,0.00011552,0.00016601,-0.00024906,0.00043433,0.000
 58429,0.00013046,-0.00108798,0.00127485,0.00185861,0.00622559,0.014762
 63,-0.00319096,0.00004097,0.00007021,0.00001344,0.00023863,0.00013582,
 -0.00004297,0.00001875,0.00001071,-0.00000473,0.00005386,0.00001702,-0
 .00004508,-0.10155651,-0.10463003,0.02417991,0.00072942,-0.00049980,-0
 .00069074,0.00040992,-0.00068190,-0.00039052,0.00075650,0.00339196,-0.
 00040171,0.10633871,0.00030553,0.00065947,-0.00039309,0.00045831,-0.00
 017501,-0.00014846,0.00317308,-0.00179908,-0.00326643,-0.01064404,-0.0
 2023240,0.00501253,-0.00085349,-0.00095555,-0.00022681,-0.00037520,-0.
 00068396,0.00085902,-0.00005878,-0.00001837,0.00002186,-0.00011659,-0.
 00004968,0.00007259,-0.10298373,-0.24298165,0.04691834,0.00010739,0.00
 070856,0.00069386,-0.00042424,0.00097904,-0.00010226,-0.00184794,-0.00
 426729,0.00127272,0.11222203,0.26544515,0.00007767,0.00004793,0.000165
 99,-0.00015861,-0.00025553,-0.00007342,0.00229037,-0.00179841,-0.00164
 649,-0.00817917,-0.01675348,0.00274659,-0.00048590,-0.00056679,0.00007
 647,-0.00010642,-0.00009147,0.00035715,-0.00006799,0.00001406,0.000024
 84,-0.00002780,-0.00004300,0.00002315,0.02437525,0.04821094,-0.0578876
 4,-0.00019799,0.00076183,0.00053728,-0.00073947,0.00054203,0.00068500,
 0.01493706,0.02741640,-0.00531147,-0.02846717,-0.04945203,0.05934063,0
 .00009171,0.00015194,-0.00004613,0.00057467,0.00022444,0.00008537,0.00
 018558,-0.00150039,-0.00012830,-0.01326543,0.00173637,-0.00263107,0.00
 007076,0.00018415,0.00008466,0.00003719,0.00034446,-0.00010990,0.00001
 029,0.00002296,0.00000271,0.00001024,0.00003170,-0.00001197,-0.2913407
 0,0.01823904,-0.06225675,0.00025819,0.00218941,0.00183268,0.00047570,-
 0.00030810,0.00028488,-0.00103995,-0.00010309,-0.00069759,-0.01272539,
 0.00111513,-0.00339790,0.31663665,-0.00040383,-0.00031851,0.00030631,-
 0.00035487,0.00019607,-0.00008659,0.00126534,0.00183799,0.00082562,0.0
 2461889,-0.00406381,0.00556926,0.00021863,0.00015064,-0.00006893,-0.00
 006892,-0.00013130,-0.00005533,-0.00000528,-0.00001751,-0.00001150,0.0
 0000201,0.00001348,-0.00000334,0.01648706,-0.04795489,0.00530265,0.002
 22276,-0.00335575,-0.00293811,-0.00087671,0.00097822,0.00034443,0.0059
 5012,-0.00132844,0.00138054,-0.02681091,0.00331321,-0.00780840,-0.0222
 4533,0.05058226,-0.00012522,-0.00001673,0.00007609,-0.00005089,0.00023
 814,0.00000282,0.00013262,0.00099439,0.00035543,0.01839840,-0.00217410
 ,0.00375043,0.00003370,0.00005513,-0.00001087,-0.00000486,-0.00009605,
 -0.00006074,-0.00000692,-0.00001221,-0.00000687,0.00001145,-0.00001171
 ,-0.00000235,-0.06345587,0.00568615,-0.06316043,0.00176663,-0.00327031
 ,-0.00106011,-0.00006063,0.00088437,0.00078506,-0.03086814,0.00164227,
 -0.00669988,0.00727872,-0.00112097,0.00103691,0.06692063,-0.00270113,0
 .06501850,-0.17953441,-0.08060380,-0.20030542,0.00538679,-0.00190393,-
 0.00064079,-0.00372336,0.00357609,0.00251856,-0.00016455,0.00081210,0.
 00016248,-0.00838975,0.00425765,-0.00795715,0.00022937,-0.00305592,-0.
 00062072,-0.00056145,0.00066957,0.00086730,0.00095863,-0.00036091,-0.0
 0092591,-0.00008045,0.00011122,-0.00016465,-0.00036294,-0.00014203,0.0
 0021717,-0.00028036,-0.00012465,0.00000236,0.00012063,0.00029339,0.000
 27507,0.00000768,-0.00007747,0.00014807,0.00002050,0.00000107,0.000030
 39,0.18637369,-0.07991654,-0.08055764,-0.05356585,0.00063182,0.0002776
 5,0.00818481,0.01562181,0.01137164,0.00584060,0.00084635,-0.00019228,-
 0.00048536,-0.00879966,0.00218998,-0.02361160,-0.00485650,-0.00540928,
 0.00011131,0.00114930,0.00003839,0.00033312,-0.00093052,0.00095899,-0.
 00069769,0.00005213,-0.00024535,0.00039971,-0.00031599,-0.00029993,0.0
 0036820,-0.00011792,0.00019079,-0.00017698,0.00018373,-0.00091297,-0.0
 0028791,-0.00001290,0.00005757,-0.00022409,-0.00008271,0.00009835,-0.0
 0009724,0.07654761,0.07243410,-0.20053155,-0.05484832,-0.27939914,-0.0
 0327067,0.00401661,-0.00278156,-0.01062882,-0.01366327,-0.01041546,0.0
 0030377,-0.00044439,-0.00035527,0.00564368,-0.00205066,0.00519636,0.00
 133442,0.00310007,0.00145227,0.00034209,-0.00048193,-0.00040579,-0.000
 37588,0.00023618,0.00094160,-0.00020917,0.00014499,0.00033713,0.000684
 85,0.00067316,-0.00016036,0.00017103,-0.00034137,0.00015764,0.00005253
 ,-0.00005370,-0.00003317,0.00002179,-0.00014088,-0.00007499,0.00006869
 ,-0.00005547,-0.00002399,0.20639324,0.06390898,0.28556474\\-0.00022835
 ,-0.00011462,-0.00035754,-0.00000417,0.00001809,-0.00000497,0.00000426
 ,-0.00001581,0.00002338,0.00002246,-0.00000219,-0.00001375,0.00001454,
 0.00003508,-0.00003702,0.00001389,0.00003940,0.00002302,-0.00000819,-0
 .00004409,0.00006064,-0.00001755,-0.00001873,-0.00001820,-0.00003178,0
 .00001616,-0.00000130,-0.00000744,-0.00000435,-0.00001587,-0.00000115,
 -0.00000670,0.00002622,0.00001068,-0.00000661,-0.00004137,-0.00001060,
 -0.00001181,-0.00000205,0.00002462,0.00000607,0.00001940,0.00021878,0.
 00011011,0.00033941\\\@
 The archive entry for this job was punched.


    THE DOUGHNUT CREED
 AS YOU RAMBLE ON THROUGH LIFE, BROTHER
 WHATEVER BE YOUR GOAL
 KEEP YOUR EYE UPON THE DOUGHNUT
 AND NOT UPON THE HOLE.
 Job cpu time:       0 days  0 hours 25 minutes 20.0 seconds.
 Elapsed time:       0 days  0 hours 13 minutes 41.7 seconds.
 File lengths (MBytes):  RWF=    124 Int=      0 D2E=      0 Chk=     16 Scr=      1
 Normal termination of Gaussian 16 at Fri Jun  2 12:20:20 2023.
