 Entering Gaussian System, Link 0=g16
 Input=IMIDCN-CO2_binding-site_index-1-freq.gjf
 Output=IMIDCN-CO2_binding-site_index-1-freq.log
 Initial command:
 /software/commercial/gaussian/g16/AVX2/g16/l1.exe "/scratch1/svicchi/G09-1868862.pbs02/Gau-369699.inp" -scrdir="/scratch1/svicchi/G09-1868862.pbs02/"
 Entering Link 1 = /software/commercial/gaussian/g16/AVX2/g16/l1.exe PID=    369700.
  
 Copyright (c) 1988-2021, Gaussian, Inc.  All Rights Reserved.
  
 This is part of the Gaussian(R) 16 program.  It is based on
 the Gaussian(R) 09 system (copyright 2009, Gaussian, Inc.),
 the Gaussian(R) 03 system (copyright 2003, Gaussian, Inc.),
 the Gaussian(R) 98 system (copyright 1998, Gaussian, Inc.),
 the Gaussian(R) 94 system (copyright 1995, Gaussian, Inc.),
 the Gaussian 92(TM) system (copyright 1992, Gaussian, Inc.),
 the Gaussian 90(TM) system (copyright 1990, Gaussian, Inc.),
 the Gaussian 88(TM) system (copyright 1988, Gaussian, Inc.),
 the Gaussian 86(TM) system (copyright 1986, Carnegie Mellon
 University), and the Gaussian 82(TM) system (copyright 1983,
 Carnegie Mellon University). Gaussian is a federally registered
 trademark of Gaussian, Inc.
  
 This software contains proprietary and confidential information,
 including trade secrets, belonging to Gaussian, Inc.
  
 This software is provided under written license and may be
 used, copied, transmitted, or stored only in accord with that
 written license.
  
 The following legend is applicable only to US Government
 contracts under FAR:
  
                    RESTRICTED RIGHTS LEGEND
  
 Use, reproduction and disclosure by the US Government is
 subject to restrictions as set forth in subparagraphs (a)
 and (c) of the Commercial Computer Software - Restricted
 Rights clause in FAR 52.227-19.
  
 Gaussian, Inc.
 340 Quinnipiac St., Bldg. 40, Wallingford CT 06492
  
  
 ---------------------------------------------------------------
 Warning -- This program may not be used in any manner that
 competes with the business of Gaussian, Inc. or will provide
 assistance to any competitor of Gaussian, Inc.  The licensee
 of this program is prohibited from giving any competitor of
 Gaussian, Inc. access to this program.  By using this program,
 the user acknowledges that Gaussian, Inc. is engaged in the
 business of creating and licensing software in the field of
 computational chemistry and represents and warrants to the
 licensee that it is not a competitor of Gaussian, Inc. and that
 it will not use this program in any manner prohibited above.
 ---------------------------------------------------------------
  

 Cite this work as:
 Gaussian 16, Revision C.02,
 M. J. Frisch, G. W. Trucks, H. B. Schlegel, G. E. Scuseria, 
 M. A. Robb, J. R. Cheeseman, G. Scalmani, V. Barone, 
 G. A. Petersson, H. Nakatsuji, X. Li, M. Caricato, A. V. Marenich, 
 J. Bloino, B. G. Janesko, R. Gomperts, B. Mennucci, H. P. Hratchian, 
 J. V. Ortiz, A. F. Izmaylov, J. L. Sonnenberg, D. Williams-Young, 
 F. Ding, F. Lipparini, F. Egidi, J. Goings, B. Peng, A. Petrone, 
 T. Henderson, D. Ranasinghe, V. G. Zakrzewski, J. Gao, N. Rega, 
 G. Zheng, W. Liang, M. Hada, M. Ehara, K. Toyota, R. Fukuda, 
 J. Hasegawa, M. Ishida, T. Nakajima, Y. Honda, O. Kitao, H. Nakai, 
 T. Vreven, K. Throssell, J. A. Montgomery, Jr., J. E. Peralta, 
 F. Ogliaro, M. J. Bearpark, J. J. Heyd, E. N. Brothers, K. N. Kudin, 
 V. N. Staroverov, T. A. Keith, R. Kobayashi, J. Normand, 
 K. Raghavachari, A. P. Rendell, J. C. Burant, S. S. Iyengar, 
 J. Tomasi, M. Cossi, J. M. Millam, M. Klene, C. Adamo, R. Cammi, 
 J. W. Ochterski, R. L. Martin, K. Morokuma, O. Farkas, 
 J. B. Foresman, and D. J. Fox, Gaussian, Inc., Wallingford CT, 2019.
 
 ******************************************
 Gaussian 16:  ES64L-G16RevC.02  7-Dec-2021
                11-Jan-2024 
 ******************************************
 %NProcShared=12
 Will use up to   12 processors via shared memory.
 %mem=110gb
 %chk=/scratch1/svicchi/G09-1868862.pbs02/02-freq/IMIDCN-CO2_binding-site_index-1
 -freq.chk
 ----------------------------------------------------------------------
 #p freq=raman scale=0.967 guess=read geom=allcheck b3lyp/6-311+G(d,p) 
 int=grid=ultrafine EmpiricalDispersion=GD3BJ SCRF=(Solvent=ethanol) sc
 f=(xqc,intrep,maxconventionalcycle=350) nosymm
 ----------------------------------------------------------------------
 1/10=4,29=7,30=1,38=1,114=967000/1,3;
 2/12=2,15=1,40=1/2;
 3/5=4,6=6,7=111,11=2,14=-4,25=1,30=1,70=2201,71=2,72=4,74=-5,75=-5,116=-2,124=41,140=1/1,2,3;
 4/5=1/1;
 5/5=2,8=3,13=1,17=20,38=6,53=4,85=350,98=1/2,8;
 8/6=4,10=90,11=11/1;
 10/13=10,15=4,31=1/2;
 11/6=3,8=1,9=11,15=111,16=1,31=1/1,2,10;
 10/6=1,31=1/2;
 6/7=2,8=2,9=2,10=2,28=1/1;
 7/8=1,10=1,25=1,30=1/1,2,3,16;
 1/10=4,30=1/3;
 99//99;
 Leave Link    1 at Thu Jan 11 13:03:06 2024, MaxMem= 14763950080 cpu:               0.1 elap:               0.1
 (Enter /software/commercial/gaussian/g16/AVX2/g16/l101.exe)
 Structure from the checkpoint file:  "/scratch1/svicchi/G09-1868862.pbs02/02-freq/IMIDCN-CO2_binding-site_index-1-freq.chk"
 -------------------------------
 IMIDCN-CO2_binding-site_index-1
 -------------------------------
 Charge = -1 Multiplicity = 1
 No Z-Matrix found in chk file; cartesian coordinates used.
  C                                                -2.027290946298      3.489412751074      0.165615590530
  N                                                -1.130597781248      2.450869546079      0.139765649568
  C                                                -1.819257150169      1.362235094041     -0.319387382605
  C                                                -3.109535788236      1.784527883854     -0.554485619931
  H                                                -1.332335449969      0.409673601943     -0.431561275894
  N                                                -3.234596333123      3.113350512251     -0.250349486617
  H                                                -3.943804787605      1.207874824598     -0.922202222419
  C                                                -1.741625858882      4.816015754886      0.576954454547
  N                                                -1.622698095707      5.923477280923      0.888440319239
  C                                                 0.339257452231      2.467606004676      0.532995655746
  O                                                 0.890522789455      1.373584911505      0.390948696561
  O                                                 0.723507049551      3.572077534169      0.925331621274
 Recover connectivity data from disk.
 ITRead=  0  0  0  0  0  0  0  0  0  0  0  0
 MicOpt= -1 -1 -1 -1 -1 -1 -1 -1 -1 -1 -1 -1
 NAtoms=     12 NQM=       12 NQMF=       0 NMMI=      0 NMMIF=      0
                NMic=       0 NMicF=      0.
                    Isotopes and Nuclear Properties:
 (Nuclear quadrupole moments (NQMom) in fm**2, nuclear magnetic moments (NMagM)
  in nuclear magnetons)

  Atom         1           2           3           4           5           6           7           8           9          10
 IAtWgt=          12          14          12          12           1          14           1          12          14          12
 AtmWgt=  12.0000000  14.0030740  12.0000000  12.0000000   1.0078250  14.0030740   1.0078250  12.0000000  14.0030740  12.0000000
 NucSpn=           0           2           0           0           1           2           1           0           2           0
 AtZEff=   3.6000000   4.5500000   3.6000000   3.6000000   1.0000000   4.5500000   1.0000000   3.6000000   4.5500000   3.6000000
 NQMom=    0.0000000   2.0440000   0.0000000   0.0000000   0.0000000   2.0440000   0.0000000   0.0000000   2.0440000   0.0000000
 NMagM=    0.0000000   0.4037610   0.0000000   0.0000000   2.7928460   0.4037610   2.7928460   0.0000000   0.4037610   0.0000000
 AtZNuc=   6.0000000   7.0000000   6.0000000   6.0000000   1.0000000   7.0000000   1.0000000   6.0000000   7.0000000   6.0000000

  Atom        11          12
 IAtWgt=          16          16
 AtmWgt=  15.9949146  15.9949146
 NucSpn=           0           0
 AtZEff=   5.6000000   5.6000000
 NQMom=    0.0000000   0.0000000
 NMagM=    0.0000000   0.0000000
 AtZNuc=   8.0000000   8.0000000
 Leave Link  101 at Thu Jan 11 13:03:07 2024, MaxMem= 14763950080 cpu:               0.1 elap:               0.1
 (Enter /software/commercial/gaussian/g16/AVX2/g16/l103.exe)

 GradGradGradGradGradGradGradGradGradGradGradGradGradGradGradGradGradGrad
 Berny optimization.
 Initialization pass.
 Trust Radius=3.00D-01 FncErr=1.00D-07 GrdErr=1.00D-07 EigMax=2.50D+02 EigMin=1.00D-04
 Number of steps in this run=      2 maximum allowed number of steps=      2.
 GradGradGradGradGradGradGradGradGradGradGradGradGradGradGradGradGradGrad

 Leave Link  103 at Thu Jan 11 13:03:07 2024, MaxMem= 14763950080 cpu:               0.1 elap:               0.1
 (Enter /software/commercial/gaussian/g16/AVX2/g16/l202.exe)
                          Input orientation:                          
 ---------------------------------------------------------------------
 Center     Atomic      Atomic             Coordinates (Angstroms)
 Number     Number       Type             X           Y           Z
 ---------------------------------------------------------------------
      1          6           0       -2.027291    3.489413    0.165616
      2          7           0       -1.130598    2.450870    0.139766
      3          6           0       -1.819257    1.362235   -0.319387
      4          6           0       -3.109536    1.784528   -0.554486
      5          1           0       -1.332335    0.409674   -0.431561
      6          7           0       -3.234596    3.113351   -0.250349
      7          1           0       -3.943805    1.207875   -0.922202
      8          6           0       -1.741626    4.816016    0.576954
      9          7           0       -1.622698    5.923477    0.888440
     10          6           0        0.339257    2.467606    0.532996
     11          8           0        0.890523    1.373585    0.390949
     12          8           0        0.723507    3.572078    0.925332
 ---------------------------------------------------------------------
                    Distance matrix (angstroms):
                    1          2          3          4          5
     1  C    0.000000
     2  N    1.372333   0.000000
     3  C    2.191664   1.367552   0.000000
     4  C    2.143929   2.200498   1.377832   0.000000
     5  H    3.213157   2.129224   1.075662   2.250283   0.000000
     6  N    1.331178   2.240063   2.252633   1.368908   3.310786
     7  H    3.172032   3.253759   2.213801   1.078772   2.774460
     8  C    1.417984   2.481614   3.569041   3.513012   4.538774
     9  N    2.571156   3.586319   4.722543   4.628566   5.677037
    10  C    2.603768   1.521639   2.570523   3.680134   2.821290
    11  O    3.611252   2.304032   2.801359   4.130761   2.558661
    12  O    2.854977   2.304762   3.591431   4.480782   4.008547
                    6          7          8          9         10
     6  N    0.000000
     7  H    2.141308   0.000000
     8  C    2.410905   4.485058   0.000000
     9  N    3.433929   5.559035   1.156563   0.000000
    10  C    3.715245   4.695652   3.137999   3.989819   0.000000
    11  O    4.522682   5.012240   4.337411   5.221618   1.233269
    12  O    4.154424   5.548571   2.783097   3.321915   1.233464
                   11         12
    11  O    0.000000
    12  O    2.268662   0.000000
 Symmetry turned off by external request.
 Stoichiometry    C5H2N3O2(1-)
 Framework group  C1[X(C5H2N3O2)]
 Deg. of freedom    30
 Full point group                 C1      NOp   1
 Rotational constants (GHZ):           1.8394090           1.5733716           0.8480185
 Leave Link  202 at Thu Jan 11 13:03:07 2024, MaxMem= 14763950080 cpu:               0.1 elap:               0.0
 (Enter /software/commercial/gaussian/g16/AVX2/g16/l301.exe)
 Standard basis: 6-311+G(d,p) (5D, 7F)
 Ernie: Thresh=  0.10000D-02 Tol=  0.10000D-05 Strict=F.
   232 basis functions,   376 primitive gaussians,   242 cartesian basis functions
    35 alpha electrons       35 beta electrons
       nuclear repulsion energy       469.4619959558 Hartrees.
 IExCor=  402 DFT=T Ex+Corr=B3LYP ExCW=0 ScaHFX=  0.200000
 ScaDFX=  0.800000  0.720000  1.000000  0.810000 ScalE2=  1.000000  1.000000
 IRadAn=      5 IRanWt=     -1 IRanGd=            0 ICorTp=0 IEmpDi=141
 NAtoms=   12 NActive=   12 NUniq=   12 SFac= 1.00D+00 NAtFMM=   60 NAOKFM=F Big=F
 Integral buffers will be    131072 words long.
 Raffenetti 2 integral format.
 Two-electron integral symmetry is turned off.
 R6Disp:  Grimme-D3(BJ) Dispersion energy=       -0.0221443416 Hartrees.
 Nuclear repulsion after empirical dispersion term =      469.4398516143 Hartrees.
 Force inversion solution in PCM.
 ------------------------------------------------------------------------------
 Polarizable Continuum Model (PCM)
 =================================
 Model                : PCM.
 Atomic radii         : UFF (Universal Force Field).
 Polarization charges : Total charges.
 Charge compensation  : None.
 Solution method      : Matrix inversion.
 Cavity type          : Scaled VdW (van der Waals Surface) (Alpha=1.100).
 Cavity algorithm     : GePol (No added spheres)
                        Default sphere list used, NSphG=   12.
                        Lebedev-Laikov grids with approx.  5.0 points / Ang**2.
                        Smoothing algorithm: York/Karplus (Gamma=1.0000).
                        Polarization charges: spherical gaussians, with
                                              point-specific exponents (IZeta= 3).
                        Self-potential: point-specific (ISelfS= 7).
                        Self-field    : sphere-specific E.n sum rule (ISelfD= 2).
 1st derivatives      : Analytical E(r).r(x)/FMM algorithm (CHGder, D1EAlg=3).
                        Cavity 1st derivative terms included.
 2nd derivatives      : Analytical E(r).r(xy)/FMM algorithm (CHGder, D2EAlg=3).
                        Cavity 2nd derivative terms included.
 Solvent              : Ethanol, Eps=  24.852000 Eps(inf)=   1.852593
 ------------------------------------------------------------------------------
 Spheres list:
 ISph  on   Nord     Re0    Alpha      Xe            Ye            Ze
    1   C      1    1.9255  1.100     -2.027291      3.489413      0.165616
    2   N      2    1.8300  1.100     -1.130598      2.450870      0.139766
    3   C      3    1.9255  1.100     -1.819257      1.362235     -0.319387
    4   C      4    1.9255  1.100     -3.109536      1.784528     -0.554486
    5   H      5    1.4430  1.100     -1.332335      0.409674     -0.431561
    6   N      6    1.8300  1.100     -3.234596      3.113351     -0.250349
    7   H      7    1.4430  1.100     -3.943805      1.207875     -0.922202
    8   C      8    1.9255  1.100     -1.741626      4.816016      0.576954
    9   N      9    1.8300  1.100     -1.622698      5.923477      0.888440
   10   C     10    1.9255  1.100      0.339257      2.467606      0.532996
   11   O     11    1.7500  1.100      0.890523      1.373585      0.390949
   12   O     12    1.7500  1.100      0.723507      3.572078      0.925332
 ------------------------------------------------------------------------------
 GePol: Number of generator spheres                  =      12
 GePol: Total number of spheres                      =      12
 GePol: Number of exposed spheres                    =      12 (100.00%)
 GePol: Number of points                             =    1315
 GePol: Average weight of points                     =       0.13
 GePol: Minimum weight of points                     =   0.51D-08
 GePol: Maximum weight of points                     =    0.20577
 GePol: Number of points with low weight             =      62
 GePol: Fraction of low-weight points (<1% of avg)   =       4.71%
 GePol: Cavity surface area                          =    176.367 Ang**2
 GePol: Cavity volume                                =    172.049 Ang**3
 Leave Link  301 at Thu Jan 11 13:03:07 2024, MaxMem= 14763950080 cpu:               0.1 elap:               0.1
 (Enter /software/commercial/gaussian/g16/AVX2/g16/l302.exe)
 NPDir=0 NMtPBC=     1 NCelOv=     1 NCel=       1 NClECP=     1 NCelD=      1
         NCelK=      1 NCelE2=     1 NClLst=     1 CellRange=     0.0.
 One-electron integrals computed using PRISM.
 NBasis=   232 RedAO= T EigKep=  3.30D-06  NBF=   232
 NBsUse=   232 1.00D-06 EigRej= -1.00D+00 NBFU=   232
 Precomputing XC quadrature grid using
 IXCGrd= 4 IRadAn=           5 IRanWt=          -1 IRanGd=           0 AccXCQ= 0.00D+00.
 Generated NRdTot=       0 NPtTot=           0 NUsed=           0 NTot=          32
 NSgBfM=   242   242   242   242   242 MxSgAt=    12 MxSgA2=    12.
 Leave Link  302 at Thu Jan 11 13:03:08 2024, MaxMem= 14763950080 cpu:               1.2 elap:               0.2
 (Enter /software/commercial/gaussian/g16/AVX2/g16/l303.exe)
 DipDrv:  MaxL=1.
 Leave Link  303 at Thu Jan 11 13:03:08 2024, MaxMem= 14763950080 cpu:               0.1 elap:               0.1
 (Enter /software/commercial/gaussian/g16/AVX2/g16/l401.exe)
 Initial guess from the checkpoint file:  "/scratch1/svicchi/G09-1868862.pbs02/02-freq/IMIDCN-CO2_binding-site_index-1-freq.chk"
 B after Tr=     0.000000    0.000000    0.000000
         Rot=    1.000000    0.000000    0.000000    0.000000 Ang=   0.00 deg.
 Guess basis will be translated and rotated to current coordinates.
 JPrj=2 DoOrth=T DoCkMO=T.
 Leave Link  401 at Thu Jan 11 13:03:08 2024, MaxMem= 14763950080 cpu:               0.6 elap:               0.2
 (Enter /software/commercial/gaussian/g16/AVX2/g16/l502.exe)
 Keep R1 ints in memory in canonical form, NReq=378131180.
 FoFCou: FMM=F IPFlag=           0 FMFlag=           0 FMFlg1=           0
         NFxFlg=           0 DoJE=F BraDBF=F KetDBF=F FulRan=T
         wScrn=  0.000000 ICntrl=       600 IOpCl=  0 I1Cent=           0 NGrid=           0
         NMat0=    1 NMatS0=  27028 NMatT0=    0 NMatD0=    1 NMtDS0=    0 NMtDT0=    0
 Symmetry not used in FoFCou.
 Two-electron integral symmetry not used.
 Closed shell SCF:
 Using DIIS extrapolation, IDIIS=  1040.
 NGot= 14763950080 LenX= 14398558142 LenY= 14398499137
 Requested convergence on RMS density matrix=1.00D-08 within 350 cycles.
 Requested convergence on MAX density matrix=1.00D-06.
 Requested convergence on             energy=1.00D-06.
 No special actions if energy rises.

 Cycle   1  Pass 1  IDiag  1:
 Inv3:  Mode=1 IEnd=     5187675.
 Iteration    1 A*A^-1 deviation from unit magnitude is 3.11D-15 for    369.
 Iteration    1 A*A^-1 deviation from orthogonality  is 1.88D-15 for    990    355.
 Iteration    1 A^-1*A deviation from unit magnitude is 3.33D-15 for    369.
 Iteration    1 A^-1*A deviation from orthogonality  is 1.78D-15 for   1114    718.
 E= -506.767928831258    
 DIIS: error= 3.23D-08 at cycle   1 NSaved=   1.
 NSaved= 1 IEnMin= 1 EnMin= -506.767928831258     IErMin= 1 ErrMin= 3.23D-08
 ErrMax= 3.23D-08  0.00D+00 EMaxC= 1.00D-01 BMatC= 2.12D-13 BMatP= 2.12D-13
 IDIUse=1 WtCom= 1.00D+00 WtEn= 0.00D+00
 Coeff-Com:  0.100D+01
 Coeff:      0.100D+01
 Gap=     0.196 Goal=   None    Shift=    0.000
 RMSDP=1.01D-08 MaxDP=8.93D-07              OVMax= 3.80D-07

 Cycle   2  Pass 1  IDiag  1:
 E= -506.767928831253     Delta-E=        0.000000000005 Rises=F Damp=F
 DIIS: error= 5.25D-08 at cycle   2 NSaved=   2.
 NSaved= 2 IEnMin= 1 EnMin= -506.767928831258     IErMin= 1 ErrMin= 3.23D-08
 ErrMax= 5.25D-08  0.00D+00 EMaxC= 1.00D-01 BMatC= 6.89D-13 BMatP= 2.12D-13
 IDIUse=1 WtCom= 1.00D+00 WtEn= 0.00D+00
 Coeff-Com:  0.645D+00 0.355D+00
 Coeff:      0.645D+00 0.355D+00
 Gap=     0.196 Goal=   None    Shift=    0.000
 RMSDP=6.08D-09 MaxDP=5.28D-07 DE= 5.46D-12 OVMax= 2.20D-07

 Error on total polarization charges =  0.01742
 SCF Done:  E(RB3LYP) =  -506.767928831     A.U. after    2 cycles
            NFock=  2  Conv=0.61D-08     -V/T= 2.0038
 KE= 5.048692082196D+02 PE=-2.136640582975D+03 EE= 6.555635943100D+02
 Leave Link  502 at Thu Jan 11 13:03:14 2024, MaxMem= 14763950080 cpu:              40.6 elap:               5.2
 (Enter /software/commercial/gaussian/g16/AVX2/g16/l508.exe)
 QCSCF skips out because SCF is already converged.
 Leave Link  508 at Thu Jan 11 13:03:14 2024, MaxMem= 14763950080 cpu:               0.0 elap:               0.0
 (Enter /software/commercial/gaussian/g16/AVX2/g16/l801.exe)
 DoSCS=F DFT=T ScalE2(SS,OS)=  1.000000  1.000000
 Range of M.O.s used for correlation:     1   232
 NBasis=   232 NAE=    35 NBE=    35 NFC=     0 NFV=     0
 NROrb=    232 NOA=    35 NOB=    35 NVA=   197 NVB=   197

 **** Warning!!: The largest alpha MO coefficient is  0.12444740D+03

 Leave Link  801 at Thu Jan 11 13:03:14 2024, MaxMem= 14763950080 cpu:               0.1 elap:               0.1
 (Enter /software/commercial/gaussian/g16/AVX2/g16/l1002.exe)
 Minotr:  Closed shell wavefunction.
 NEqPCM:  Using equilibrium solvation (IEInf=0, Eps=  24.8520, EpsInf=   1.8526)
          Direct CPHF calculation.
          Differentiating once with respect to electric field.
                with respect to dipole field.
          Electric field/nuclear overlap derivatives assumed to be zero.
          Requested convergence is 1.0D-08 RMS, and 1.0D-07 maximum.
          Secondary convergence is 1.0D-12 RMS, and 1.0D-12 maximum.
          NewPWx=F KeepS1=T KeepF1=T KeepIn=T MapXYZ=F SortEE=F KeepMc=T.
         3689 words used for storage of precomputed grid.
 Keep R1 ints in memory in canonical form, NReq=378100495.
 FoFCou: FMM=F IPFlag=           0 FMFlag=           0 FMFlg1=           0
         NFxFlg=           0 DoJE=F BraDBF=F KetDBF=F FulRan=T
         wScrn=  0.000000 ICntrl=       600 IOpCl=  0 I1Cent=           0 NGrid=           0
         NMat0=    1 NMatS0=  27028 NMatT0=    0 NMatD0=    1 NMtDS0=    0 NMtDT0=    0
 Symmetry not used in FoFCou.
 Two-electron integral symmetry not used.
          MDV=   14763950080 using IRadAn=       1.
          Solving linear equations simultaneously, MaxMat=       0.
          There are     3 degrees of freedom in the 1st order CPHF.  IDoFFX=0 NUNeed=     3.
      3 vectors produced by pass  0 Test12= 2.30D-13 3.33D-08 XBig12= 1.64D+02 8.99D+00.
 AX will form     3 AO Fock derivatives at one time.
      3 vectors produced by pass  1 Test12= 2.30D-13 3.33D-08 XBig12= 7.32D+01 1.77D+00.
      3 vectors produced by pass  2 Test12= 2.30D-13 3.33D-08 XBig12= 2.29D+01 1.45D+00.
      3 vectors produced by pass  3 Test12= 2.30D-13 3.33D-08 XBig12= 1.11D+01 9.75D-01.
      3 vectors produced by pass  4 Test12= 2.30D-13 3.33D-08 XBig12= 9.87D-01 2.15D-01.
      3 vectors produced by pass  5 Test12= 2.30D-13 3.33D-08 XBig12= 2.34D-01 1.13D-01.
      3 vectors produced by pass  6 Test12= 2.30D-13 3.33D-08 XBig12= 3.24D-02 2.97D-02.
      3 vectors produced by pass  7 Test12= 2.30D-13 3.33D-08 XBig12= 6.15D-03 1.65D-02.
      3 vectors produced by pass  8 Test12= 2.30D-13 3.33D-08 XBig12= 2.91D-04 4.96D-03.
      3 vectors produced by pass  9 Test12= 2.30D-13 3.33D-08 XBig12= 3.35D-05 1.63D-03.
      3 vectors produced by pass 10 Test12= 2.30D-13 3.33D-08 XBig12= 1.30D-06 2.58D-04.
      3 vectors produced by pass 11 Test12= 2.30D-13 3.33D-08 XBig12= 3.63D-08 3.66D-05.
      3 vectors produced by pass 12 Test12= 2.30D-13 3.33D-08 XBig12= 8.18D-10 4.33D-06.
      2 vectors produced by pass 13 Test12= 2.30D-13 3.33D-08 XBig12= 1.41D-11 6.54D-07.
      2 vectors produced by pass 14 Test12= 2.30D-13 3.33D-08 XBig12= 2.42D-13 1.05D-07.
 InvSVY:  IOpt=1 It=  1 EMax= 1.78D-15
 Solved reduced A of dimension    43 with     3 vectors.
 End of Minotr F.D. properties file   721 does not exist.
 End of Minotr F.D. properties file   722 does not exist.
 End of Minotr F.D. properties file   788 does not exist.
 Leave Link 1002 at Thu Jan 11 13:03:37 2024, MaxMem= 14763950080 cpu:             259.1 elap:              22.3
 (Enter /software/commercial/gaussian/g16/AVX2/g16/l1101.exe)
 Using compressed storage, NAtomX=    12.
 Will process     13 centers per pass.
 R6Disp: Adding Grimme-D3(BJ) dispersion energy 1st derivatives to the gradient.
 Leave Link 1101 at Thu Jan 11 13:03:37 2024, MaxMem= 14763950080 cpu:               1.4 elap:               0.2
 (Enter /software/commercial/gaussian/g16/AVX2/g16/l1102.exe)
 Symmetrizing basis deriv contribution to polar:
 IMax=3 JMax=2 DiffMx= 0.00D+00
 Leave Link 1102 at Thu Jan 11 13:03:38 2024, MaxMem= 14763950080 cpu:               0.1 elap:               0.1
 (Enter /software/commercial/gaussian/g16/AVX2/g16/l1110.exe)
 Forming Gx(P) for the SCF density, NAtomX=    12.
 Integral derivatives from FoFJK, PRISM(SPDF).
 Do as many integral derivatives as possible in FoFJK.
 G2DrvN: MDV=   14763948732.
 G2DrvN: will do    13 centers at a time, making    1 passes.
 PxScal for G2LodP:  IOpCl= 0 ISclPx=1 IMOff=     1 NMtTot=     4 NTT=   27028 ScalPx= 1.85D+01
 Calling FoFCou, ICntrl=  3107 FMM=F I1Cent=   0 AccDes= 0.00D+00.
 FoFJK:  IHMeth= 1 ICntrl=    3107 DoSepK=F KAlg= 0 I1Cent=           0 FoldK=F
 IRaf=         0 NMat=       1 IRICut=       1 DoRegI=T DoRafI=F ISym2E= 0 IDoP0=0 IntGTp=1.
 FoFCou: FMM=F IPFlag=           0 FMFlag=      100000 FMFlg1=           0
         NFxFlg=           0 DoJE=F BraDBF=F KetDBF=F FulRan=T
         wScrn=  0.000000 ICntrl=      3107 IOpCl=  0 I1Cent=           0 NGrid=           0
         NMat0=    1 NMatS0=      1 NMatT0=    0 NMatD0=    4 NMtDS0=    3 NMtDT0=    0
 Symmetry not used in FoFCou.
 PxScal for G2LodP:  IOpCl= 0 ISclPx=0 IMOff=     1 NMtTot=     4 NTT=   27028 ScalPx= 1.00D+00
 NEqPCM:  Using equilibrium solvation (IEInf=0, Eps=  24.8520, EpsInf=   1.8526)
 G2PCM: DoFxE=T DoFxN=T DoGrad=T DoDP/DQ/DG/TGxP=TFFF NFrqRd=   0 IEInf=0 SqF1=F DoCFld=F IF1Alg=4.
 GePol: Maximum number of non-zero 1st derivatives   =     240
 End of G2Drv F.D. properties file   721 does not exist.
 End of G2Drv F.D. properties file   722 does not exist.
 End of G2Drv F.D. properties file   788 does not exist.
 Leave Link 1110 at Thu Jan 11 13:04:03 2024, MaxMem= 14763950080 cpu:             294.2 elap:              25.0
 (Enter /software/commercial/gaussian/g16/AVX2/g16/l1002.exe)
 Minotr:  Closed shell wavefunction.
          IDoAtm=111111111111
 NEqPCM:  Using equilibrium solvation (IEInf=0, Eps=  24.8520, EpsInf=   1.8526)
          Direct CPHF calculation.
          Differentiating once with respect to electric field.
                with respect to dipole field.
          Differentiating once with respect to nuclear coordinates.
          Requested convergence is 1.0D-08 RMS, and 1.0D-07 maximum.
          Secondary convergence is 1.0D-12 RMS, and 1.0D-12 maximum.
          NewPWx=T KeepS1=F KeepF1=F KeepIn=T MapXYZ=F SortEE=F KeepMc=T.
         3689 words used for storage of precomputed grid.
 Keep R1 ints in memory in canonical form, NReq=378101575.
 FoFCou: FMM=F IPFlag=           0 FMFlag=           0 FMFlg1=           0
         NFxFlg=           0 DoJE=F BraDBF=F KetDBF=F FulRan=T
         wScrn=  0.000000 ICntrl=       600 IOpCl=  0 I1Cent=           0 NGrid=           0
         NMat0=    1 NMatS0=  27028 NMatT0=    0 NMatD0=    1 NMtDS0=    0 NMtDT0=    0
 Symmetry not used in FoFCou.
 Two-electron integral symmetry not used.
          MDV=   14763950080 using IRadAn=       1.
          Solving linear equations simultaneously, MaxMat=       0.
          There are    39 degrees of freedom in the 1st order CPHF.  IDoFFX=5 NUNeed=    39.
 Will reuse    3 saved solutions.
     33 vectors produced by pass  0 Test12= 1.77D-14 2.56D-09 XBig12= 2.88D-01 1.90D-01.
 AX will form    33 AO Fock derivatives at one time.
     33 vectors produced by pass  1 Test12= 1.77D-14 2.56D-09 XBig12= 8.06D-02 1.11D-01.
     33 vectors produced by pass  2 Test12= 1.77D-14 2.56D-09 XBig12= 4.10D-03 1.28D-02.
     33 vectors produced by pass  3 Test12= 1.77D-14 2.56D-09 XBig12= 1.01D-04 1.76D-03.
     33 vectors produced by pass  4 Test12= 1.77D-14 2.56D-09 XBig12= 3.72D-07 9.28D-05.
     33 vectors produced by pass  5 Test12= 1.77D-14 2.56D-09 XBig12= 1.28D-09 4.86D-06.
     23 vectors produced by pass  6 Test12= 1.77D-14 2.56D-09 XBig12= 3.01D-12 2.41D-07.
      2 vectors produced by pass  7 Test12= 1.77D-14 2.56D-09 XBig12= 5.16D-15 9.76D-09.
 InvSVY:  IOpt=1 It=  1 EMax= 7.77D-16
 Solved reduced A of dimension   223 with    33 vectors.
 FullF1:  Do perturbations      1 to       3.
 Isotropic polarizability for W=    0.000000      116.49 Bohr**3.
 FullF1:  Do perturbations      1 to       6.
 End of Minotr F.D. properties file   721 does not exist.
 End of Minotr F.D. properties file   722 does not exist.
 End of Minotr F.D. properties file   788 does not exist.
 Leave Link 1002 at Thu Jan 11 13:04:29 2024, MaxMem= 14763950080 cpu:             296.6 elap:              26.1
 (Enter /software/commercial/gaussian/g16/AVX2/g16/l601.exe)
 Copying SCF densities to generalized density rwf, IOpCl= 0 IROHF=0.

 **********************************************************************

            Population analysis using the SCF Density.

 **********************************************************************

 Alpha  occ. eigenvalues --  -19.08269 -19.08266 -14.37920 -14.32248 -14.32154
 Alpha  occ. eigenvalues --  -10.30391 -10.26159 -10.22674 -10.21062 -10.19918
 Alpha  occ. eigenvalues --   -1.07095  -1.02333  -0.97731  -0.92081  -0.88539
 Alpha  occ. eigenvalues --   -0.77678  -0.65725  -0.62143  -0.60832  -0.49854
 Alpha  occ. eigenvalues --   -0.47678  -0.47338  -0.44565  -0.44336  -0.42499
 Alpha  occ. eigenvalues --   -0.41351  -0.38527  -0.36602  -0.35395  -0.31219
 Alpha  occ. eigenvalues --   -0.29888  -0.28023  -0.27590  -0.25993  -0.24647
 Alpha virt. eigenvalues --   -0.05026   0.00819   0.01072   0.02231   0.02791
 Alpha virt. eigenvalues --    0.03420   0.04672   0.05086   0.05571   0.06721
 Alpha virt. eigenvalues --    0.06778   0.08724   0.08939   0.08956   0.09920
 Alpha virt. eigenvalues --    0.10471   0.11538   0.12008   0.14128   0.14442
 Alpha virt. eigenvalues --    0.14632   0.14750   0.16813   0.17066   0.18204
 Alpha virt. eigenvalues --    0.19597   0.19756   0.21161   0.21267   0.22626
 Alpha virt. eigenvalues --    0.22903   0.23215   0.23941   0.24805   0.24969
 Alpha virt. eigenvalues --    0.25639   0.26117   0.26342   0.26445   0.27657
 Alpha virt. eigenvalues --    0.28401   0.29086   0.29648   0.31081   0.31356
 Alpha virt. eigenvalues --    0.32464   0.33540   0.35779   0.37376   0.38503
 Alpha virt. eigenvalues --    0.39794   0.41928   0.43430   0.46229   0.48206
 Alpha virt. eigenvalues --    0.52085   0.54766   0.56062   0.59532   0.59775
 Alpha virt. eigenvalues --    0.62038   0.63217   0.64932   0.65902   0.66969
 Alpha virt. eigenvalues --    0.69037   0.71182   0.72595   0.74254   0.77176
 Alpha virt. eigenvalues --    0.78612   0.82122   0.84079   0.84928   0.85492
 Alpha virt. eigenvalues --    0.86393   0.87641   0.88626   0.90630   0.92348
 Alpha virt. eigenvalues --    0.94010   0.95962   1.00362   1.02203   1.02223
 Alpha virt. eigenvalues --    1.05351   1.08235   1.09399   1.11957   1.12720
 Alpha virt. eigenvalues --    1.14460   1.16633   1.17661   1.18503   1.19547
 Alpha virt. eigenvalues --    1.22698   1.25325   1.26046   1.27886   1.33800
 Alpha virt. eigenvalues --    1.36053   1.36922   1.39878   1.39960   1.45385
 Alpha virt. eigenvalues --    1.51541   1.55879   1.57820   1.59387   1.62495
 Alpha virt. eigenvalues --    1.68228   1.69539   1.70174   1.72832   1.73564
 Alpha virt. eigenvalues --    1.76636   1.81785   1.83302   1.87828   1.91323
 Alpha virt. eigenvalues --    1.98326   2.02153   2.04064   2.06585   2.08444
 Alpha virt. eigenvalues --    2.09678   2.09819   2.18730   2.22389   2.33077
 Alpha virt. eigenvalues --    2.34303   2.39734   2.47922   2.53697   2.56616
 Alpha virt. eigenvalues --    2.61567   2.63331   2.65249   2.67601   2.70762
 Alpha virt. eigenvalues --    2.71448   2.75250   2.78276   2.80444   2.80596
 Alpha virt. eigenvalues --    2.84196   2.85520   2.88932   2.91193   2.93909
 Alpha virt. eigenvalues --    2.96011   2.96613   2.97134   3.03326   3.03961
 Alpha virt. eigenvalues --    3.11876   3.19780   3.23544   3.28830   3.30726
 Alpha virt. eigenvalues --    3.38759   3.44418   3.45091   3.49963   3.62969
 Alpha virt. eigenvalues --    3.63235   3.67600   3.71064   3.84349   3.86650
 Alpha virt. eigenvalues --    3.89744   3.90762   3.98996   4.05141   4.06655
 Alpha virt. eigenvalues --    4.11526   4.48594   4.63334   4.74423   4.86789
 Alpha virt. eigenvalues --    5.03908   5.06664   5.16671   5.20261   5.25354
 Alpha virt. eigenvalues --    5.69243   5.89439  23.77180  23.83534  23.88753
 Alpha virt. eigenvalues --   24.13370  24.48440  35.48711  35.67521  35.88911
 Alpha virt. eigenvalues --   49.95698  50.05900
          Condensed to atoms (all electrons):
               1          2          3          4          5          6
     1  C   11.590931  -0.223870  -0.482428   0.932754   0.008169   0.091234
     2  N   -0.223870   7.405576   0.344591  -0.239332  -0.052096   0.011866
     3  C   -0.482428   0.344591   5.638654  -0.132650   0.450690   0.073825
     4  C    0.932754  -0.239332  -0.132650   6.103894  -0.059991   0.179234
     5  H    0.008169  -0.052096   0.450690  -0.059991   0.470435   0.009633
     6  N    0.091234   0.011866   0.073825   0.179234   0.009633   6.751227
     7  H    0.011728   0.014093  -0.062695   0.449300  -0.000751  -0.062286
     8  C   -7.557680   0.177964   0.146131  -1.190252   0.014768   0.174324
     9  N    0.720788  -0.030250  -0.000065   0.050569  -0.000138  -0.025548
    10  C    0.054684   0.018381  -0.036948  -0.022998  -0.007713   0.008387
    11  O   -0.019616  -0.157695  -0.008198   0.029420  -0.000910   0.000058
    12  O   -0.205684  -0.139093   0.041572  -0.017939  -0.000093   0.005226
               7          8          9         10         11         12
     1  C    0.011728  -7.557680   0.720788   0.054684  -0.019616  -0.205684
     2  N    0.014093   0.177964  -0.030250   0.018381  -0.157695  -0.139093
     3  C   -0.062695   0.146131  -0.000065  -0.036948  -0.008198   0.041572
     4  C    0.449300  -1.190252   0.050569  -0.022998   0.029420  -0.017939
     5  H   -0.000751   0.014768  -0.000138  -0.007713  -0.000910  -0.000093
     6  N   -0.062286   0.174324  -0.025548   0.008387   0.000058   0.005226
     7  H    0.504736   0.001009  -0.000048   0.000933  -0.000028   0.000084
     8  C    0.001009  15.583829  -0.390696  -0.087450   0.008351   0.159490
     9  N   -0.000048  -0.390696   7.029235   0.000902  -0.000926  -0.017745
    10  C    0.000933  -0.087450   0.000902   4.806156   0.447943   0.428501
    11  O   -0.000028   0.008351  -0.000926   0.447943   8.336160  -0.125434
    12  O    0.000084   0.159490  -0.017745   0.428501  -0.125434   8.364453
 Mulliken charges:
               1
     1  C    1.078991
     2  N   -0.130137
     3  C    0.027520
     4  C   -0.082008
     5  H    0.167996
     6  N   -0.217181
     7  H    0.143923
     8  C   -1.039786
     9  N   -0.336077
    10  C    0.389223
    11  O   -0.509124
    12  O   -0.493340
 Sum of Mulliken charges =  -1.00000
 Mulliken charges with hydrogens summed into heavy atoms:
               1
     1  C    1.078991
     2  N   -0.130137
     3  C    0.195516
     4  C    0.061915
     6  N   -0.217181
     8  C   -1.039786
     9  N   -0.336077
    10  C    0.389223
    11  O   -0.509124
    12  O   -0.493340
 APT charges:
               1
     1  C    0.214512
     2  N   -0.619267
     3  C   -0.041412
     4  C   -0.116766
     5  H    0.147515
     6  N   -0.386754
     7  H    0.074036
     8  C    0.621704
     9  N   -0.669687
    10  C    2.238688
    11  O   -1.248722
    12  O   -1.213849
 Sum of APT charges =  -1.00000
 APT charges with hydrogens summed into heavy atoms:
               1
     1  C    0.214512
     2  N   -0.619267
     3  C    0.106103
     4  C   -0.042730
     6  N   -0.386754
     8  C    0.621704
     9  N   -0.669687
    10  C    2.238688
    11  O   -1.248722
    12  O   -1.213849
 Electronic spatial extent (au):  <R**2>=           3873.1695
 Charge=             -1.0000 electrons
 Dipole moment (field-independent basis, Debye):
    X=              0.3102    Y=            -18.9619    Z=             -3.8446  Tot=             19.3502
 Quadrupole moment (field-independent basis, Debye-Ang):
   XX=            -77.2836   YY=           -148.6380   ZZ=            -61.5857
   XY=             16.4868   XZ=             -0.9358   YZ=            -15.1698
 Traceless Quadrupole moment (field-independent basis, Debye-Ang):
   XX=             18.5522   YY=            -52.8022   ZZ=             34.2500
   XY=             16.4868   XZ=             -0.9358   YZ=            -15.1698
 Octapole moment (field-independent basis, Debye-Ang**2):
  XXX=            268.0213  YYY=          -1012.5513  ZZZ=            -43.5287  XYY=            178.5885
  XXY=           -261.4988  XXZ=            -21.9431  XZZ=             74.5757  YZZ=           -191.6571
  YYZ=            -94.6044  XYZ=             -0.6455
 Hexadecapole moment (field-independent basis, Debye-Ang**3):
 XXXX=          -1538.4332 YYYY=          -6762.5175 ZZZZ=           -175.2237 XXXY=            958.2443
 XXXZ=            -17.7205 YYYX=           1336.2801 YYYZ=           -670.6015 ZZZX=            -35.5217
 ZZZY=           -223.3712 XXYY=          -1258.5572 XXZZ=           -261.2946 YYZZ=           -777.2564
 XXYZ=            -82.7064 YYXZ=             26.5625 ZZXY=            247.0109
 N-N= 4.694398516143D+02 E-N=-2.136640581022D+03  KE= 5.048692082196D+02
  Exact polarizability:     115.832       1.861     160.923      14.642      25.662      72.720
 Approx polarizability:     128.804       3.745     200.775      16.312      34.190      83.836
 No NMR shielding tensors so no spin-rotation constants.
 Leave Link  601 at Thu Jan 11 13:04:30 2024, MaxMem= 14763950080 cpu:               1.1 elap:               0.2
 (Enter /software/commercial/gaussian/g16/AVX2/g16/l701.exe)
 ... and contract with generalized density number  0.
 Compute integral second derivatives.
 R6Disp: Adding Grimme-D3(BJ) dispersion energy 2nd derivatives to the Hessian.
 D2PCM: PCM CHGder 2nd derivatives, FixD1E=F FixD2E=F DoIter=F DoCFld=F I1PDM=0
 GePol: Maximum number of non-zero 2nd derivatives   =     240
 Leave Link  701 at Thu Jan 11 13:04:33 2024, MaxMem= 14763950080 cpu:              35.3 elap:               3.3
 (Enter /software/commercial/gaussian/g16/AVX2/g16/l702.exe)
 L702 exits ... SP integral derivatives will be done elsewhere.
 Leave Link  702 at Thu Jan 11 13:04:34 2024, MaxMem= 14763950080 cpu:               0.1 elap:               0.1
 (Enter /software/commercial/gaussian/g16/AVX2/g16/l703.exe)
 Integral derivatives from FoFJK, PRISM(SPDF).
 Compute integral second derivatives, UseDBF=F ICtDFT=           0.
 Calling FoFJK, ICntrl=    100127 FMM=F ISym2X=0 I1Cent= 0 IOpClX= 0 NMat=1 NMatS=1 NMatT=0.
 FoFJK:  IHMeth= 1 ICntrl=  100127 DoSepK=F KAlg= 0 I1Cent=           0 FoldK=F
 IRaf=         0 NMat=       1 IRICut=       1 DoRegI=T DoRafI=F ISym2E= 0 IDoP0=0 IntGTp=1.
 FoFCou: FMM=F IPFlag=           0 FMFlag=      100000 FMFlg1=         800
         NFxFlg=           0 DoJE=F BraDBF=F KetDBF=F FulRan=T
         wScrn=  0.000000 ICntrl=    100127 IOpCl=  0 I1Cent=           0 NGrid=           0
         NMat0=    1 NMatS0=      1 NMatT0=    0 NMatD0=    1 NMtDS0=    0 NMtDT0=    0
 Symmetry not used in FoFCou.
 Leave Link  703 at Thu Jan 11 13:05:09 2024, MaxMem= 14763950080 cpu:             419.8 elap:              35.2
 (Enter /software/commercial/gaussian/g16/AVX2/g16/l716.exe)
 Dipole        = 1.22028419D-01-7.46016775D+00-1.51258032D+00
 Polarizability= 1.15831599D+02 1.86108369D+00 1.60922724D+02
                 1.46418777D+01 2.56615789D+01 7.27202001D+01
 HyperPolar    =-7.76661318D+01-3.72294930D+01 6.34709237D+01
                 8.67650746D+02 1.93485122D+00 5.45060304D+01
                 3.00978565D+02-3.33335547D+01-2.38727012D+01
                -1.11071584D+02
 Full mass-weighted force constant matrix:
 Low frequencies ---  -28.3544   -6.3069    0.0003    0.0004    0.0010   12.9351
 Low frequencies ---   47.5316  143.4360  154.8453
 Diagonal vibrational polarizability:
       48.2877597      19.2142834      29.3459871
 Diagonal vibrational hyperpolarizability:
      -50.0139573    -166.1561509      58.1163906
 Harmonic frequencies (cm**-1), IR intensities (KM/Mole), Raman scattering
 activities (A**4/AMU), depolarization ratios for plane and unpolarized
 incident light, reduced masses (AMU), force constants (mDyne/A),
 and normal coordinates:
                      1                      2                      3
                      A                      A                      A
 Frequencies --     46.1418               143.4215               154.8037
 Red. masses --     15.0785                 7.6352                13.8203
 Frc consts  --      0.0189                 0.0925                 0.1951
 IR Inten    --      0.3629                10.5318                 2.9447
 Raman Activ --      0.5497                 2.4114                 4.1919
 Depolar (P) --      0.7483                 0.7495                 0.7496
 Depolar (U) --      0.8560                 0.8568                 0.8569
  Atom  AN      X      Y      Z        X      Y      Z        X      Y      Z
     1   6    -0.01  -0.01   0.04    -0.03  -0.03   0.11    -0.07  -0.09  -0.03
     2   7    -0.00   0.00   0.02     0.09   0.08  -0.32    -0.09  -0.10  -0.04
     3   6    -0.01  -0.01   0.05     0.10   0.09  -0.37    -0.09  -0.10  -0.05
     4   6    -0.03  -0.02   0.11    -0.02  -0.01   0.05    -0.08  -0.07  -0.04
     5   1    -0.00  -0.00   0.04     0.16   0.16  -0.63    -0.10  -0.11  -0.07
     6   7    -0.02  -0.02   0.09    -0.09  -0.09   0.36    -0.07  -0.06  -0.03
     7   1    -0.04  -0.04   0.16    -0.04  -0.03   0.15    -0.09  -0.05  -0.04
     8   6     0.03   0.04  -0.14    -0.00  -0.00   0.01     0.19  -0.16   0.01
     9   7     0.06   0.09  -0.34     0.04   0.04  -0.17     0.63  -0.23   0.09
    10   6    -0.00  -0.02   0.04    -0.00  -0.00   0.01    -0.13   0.16   0.01
    11   8     0.13   0.13  -0.53    -0.05  -0.06   0.21     0.12   0.28   0.08
    12   8    -0.15  -0.18   0.65    -0.02  -0.02   0.07    -0.39   0.26  -0.01
                      4                      5                      6
                      A                      A                      A
 Frequencies --    189.9490               232.7789               362.2575
 Red. masses --      7.0148                 8.7495                10.2608
 Frc consts  --      0.1491                 0.2793                 0.7933
 IR Inten    --      4.9345                 7.5919                 7.2644
 Raman Activ --      0.5916                12.1006                 7.6236
 Depolar (P) --      0.7493                 0.7378                 0.4069
 Depolar (U) --      0.8567                 0.8491                 0.5784
  Atom  AN      X      Y      Z        X      Y      Z        X      Y      Z
     1   6    -0.10  -0.09   0.36    -0.24   0.06  -0.05    -0.16  -0.04  -0.05
     2   7    -0.08  -0.08   0.32    -0.04   0.22   0.04    -0.09  -0.03  -0.03
     3   6     0.03   0.03  -0.11     0.17   0.08   0.06    -0.26   0.04  -0.06
     4   6     0.07   0.07  -0.27     0.11  -0.19  -0.02    -0.28   0.08  -0.05
     5   1     0.07   0.07  -0.28     0.38   0.18   0.14    -0.39  -0.03  -0.11
     6   7    -0.01  -0.01   0.05    -0.16  -0.19  -0.09    -0.22   0.07  -0.04
     7   1     0.16   0.15  -0.60     0.24  -0.37  -0.03    -0.30   0.11  -0.05
     8   6    -0.05  -0.04   0.17    -0.25   0.06  -0.05    -0.21  -0.05  -0.07
     9   7     0.07   0.07  -0.27     0.33  -0.04   0.08     0.05  -0.10  -0.01
    10   6    -0.01  -0.01   0.04     0.00   0.08   0.02     0.35  -0.00   0.09
    11   8     0.01   0.01  -0.05    -0.25  -0.03  -0.07     0.39   0.05   0.12
    12   8     0.04   0.03  -0.12     0.26  -0.03   0.06     0.31  -0.02   0.07
                      7                      8                      9
                      A                      A                      A
 Frequencies --    463.5180               506.3775               615.1133
 Red. masses --     13.1248                10.5684                 9.7631
 Frc consts  --      1.6614                 1.5967                 2.1764
 IR Inten    --      9.1894                14.2866                27.0810
 Raman Activ --      2.3220                 9.5215                16.0100
 Depolar (P) --      0.3797                 0.7500                 0.2022
 Depolar (U) --      0.5504                 0.8571                 0.3363
  Atom  AN      X      Y      Z        X      Y      Z        X      Y      Z
     1   6    -0.05   0.15   0.03     0.03   0.03  -0.11    -0.23   0.11  -0.03
     2   7     0.03  -0.01   0.00     0.06   0.06  -0.25    -0.17   0.11  -0.02
     3   6     0.07   0.02   0.03    -0.04  -0.03   0.14     0.03   0.03   0.02
     4   6     0.07  -0.07   0.00    -0.02  -0.02   0.09    -0.02  -0.20  -0.06
     5   1     0.16   0.05   0.06    -0.08  -0.08   0.31     0.24   0.13   0.11
     6   7     0.03  -0.07  -0.01     0.05   0.05  -0.21    -0.26  -0.15  -0.10
     7   1     0.10  -0.10  -0.00    -0.06  -0.06   0.23     0.10  -0.38  -0.08
     8   6    -0.42   0.38  -0.01    -0.19  -0.18   0.71     0.60   0.06   0.17
     9   7     0.19   0.30   0.12     0.07   0.07  -0.28    -0.12   0.22   0.03
    10   6     0.00  -0.29  -0.08     0.02   0.02  -0.08     0.02  -0.07  -0.02
    11   8     0.37  -0.16   0.05    -0.01  -0.01   0.02     0.15  -0.01   0.04
    12   8    -0.36  -0.17  -0.14    -0.00  -0.00   0.02     0.01  -0.09  -0.02
                     10                     11                     12
                      A                      A                      A
 Frequencies --    631.3092               642.9036               710.4543
 Red. masses --      3.3992                 8.7302                 9.4257
 Frc consts  --      0.7982                 2.1260                 2.8031
 IR Inten    --      0.3272                28.3969                 5.7400
 Raman Activ --      0.9592                 3.1750                 4.6399
 Depolar (P) --      0.7488                 0.3490                 0.7500
 Depolar (U) --      0.8564                 0.5174                 0.8571
  Atom  AN      X      Y      Z        X      Y      Z        X      Y      Z
     1   6    -0.03  -0.02   0.10     0.11  -0.05   0.02    -0.16  -0.15   0.61
     2   7     0.05   0.05  -0.19    -0.03  -0.23  -0.08     0.05   0.05  -0.20
     3   6    -0.06  -0.05   0.24    -0.18  -0.34  -0.11     0.01   0.01  -0.03
     4   6     0.06   0.07  -0.23    -0.11  -0.17  -0.09    -0.05  -0.05   0.18
     5   1    -0.17  -0.16   0.67    -0.31  -0.41  -0.13    -0.04  -0.04   0.15
     6   7    -0.04  -0.03   0.14     0.13  -0.14   0.01     0.10   0.10  -0.39
     7   1     0.14   0.13  -0.50    -0.26   0.05  -0.10    -0.13  -0.12   0.47
     8   6     0.01   0.00  -0.05    -0.02   0.29   0.07     0.04   0.04  -0.15
     9   7    -0.01  -0.02   0.01     0.06   0.33   0.10    -0.01  -0.01   0.05
    10   6     0.02   0.02  -0.08    -0.07   0.12   0.01     0.03   0.03  -0.12
    11   8    -0.00  -0.01   0.02    -0.11   0.13   0.01    -0.01  -0.01   0.04
    12   8    -0.01  -0.01   0.02     0.21   0.04   0.07    -0.01  -0.01   0.03
                     13                     14                     15
                      A                      A                      A
 Frequencies --    745.5797               783.9985               802.0702
 Red. masses --     13.4639                 2.7442                 1.8814
 Frc consts  --      4.4097                 0.9938                 0.7131
 IR Inten    --    456.1058               103.2386                11.0139
 Raman Activ --     13.1081                 4.1884                 6.7343
 Depolar (P) --      0.1889                 0.7489                 0.7495
 Depolar (U) --      0.3177                 0.8564                 0.8568
  Atom  AN      X      Y      Z        X      Y      Z        X      Y      Z
     1   6     0.03  -0.05  -0.00    -0.01  -0.01   0.02     0.01   0.01  -0.02
     2   7     0.04  -0.05  -0.00     0.02   0.02  -0.07    -0.03  -0.02   0.10
     3   6    -0.03  -0.00  -0.01     0.02   0.02  -0.09     0.03   0.03  -0.10
     4   6    -0.09  -0.06  -0.04     0.01   0.01  -0.05     0.02   0.02  -0.08
     5   1    -0.11  -0.04  -0.04    -0.19  -0.18   0.72    -0.17  -0.16   0.64
     6   7    -0.06  -0.07  -0.03    -0.00  -0.00   0.01    -0.01  -0.01   0.03
     7   1    -0.09  -0.07  -0.04    -0.13  -0.12   0.47    -0.17  -0.16   0.64
     8   6     0.06   0.07   0.03    -0.00  -0.00   0.01    -0.00  -0.00   0.01
     9   7     0.01   0.11   0.03     0.00   0.00  -0.00     0.00   0.00  -0.00
    10   6     0.67   0.02   0.18    -0.08  -0.08   0.32     0.05   0.05  -0.18
    11   8    -0.21  -0.38  -0.16     0.02   0.02  -0.09    -0.01  -0.01   0.05
    12   8    -0.24   0.40   0.04     0.02   0.02  -0.09    -0.01  -0.01   0.05
                     16                     17                     18
                      A                      A                      A
 Frequencies --    888.2707               947.2113              1048.6239
 Red. masses --      1.4050                 6.2351                 1.6290
 Frc consts  --      0.6532                 3.2960                 1.0554
 IR Inten    --      1.3856                 4.5331               128.0146
 Raman Activ --      3.2252                18.6307                 2.5760
 Depolar (P) --      0.7499                 0.4063                 0.5290
 Depolar (U) --      0.8571                 0.5779                 0.6920
  Atom  AN      X      Y      Z        X      Y      Z        X      Y      Z
     1   6    -0.00  -0.00   0.01     0.14   0.02   0.04    -0.00   0.03   0.01
     2   7     0.00   0.00  -0.02     0.01   0.17   0.05    -0.15   0.01  -0.04
     3   6    -0.03  -0.03   0.11    -0.17   0.29   0.03     0.07  -0.12  -0.01
     4   6     0.04   0.03  -0.13    -0.28  -0.17  -0.12    -0.02   0.02  -0.00
     5   1     0.15   0.14  -0.57     0.24   0.50   0.18     0.76   0.19   0.25
     6   7    -0.00  -0.00   0.01     0.28  -0.25   0.01     0.05   0.03   0.02
     7   1    -0.19  -0.18   0.72    -0.45   0.04  -0.10    -0.31   0.43   0.03
     8   6     0.00   0.00  -0.00     0.01  -0.03  -0.00    -0.01  -0.01  -0.01
     9   7    -0.00  -0.00   0.00    -0.00  -0.04  -0.01    -0.00  -0.02  -0.01
    10   6    -0.01  -0.01   0.02    -0.02  -0.01  -0.01     0.04   0.00   0.01
    11   8     0.00   0.00  -0.00     0.01   0.01   0.01     0.01  -0.00   0.00
    12   8     0.00   0.00  -0.01    -0.01  -0.02  -0.01     0.00  -0.00   0.00
                     19                     20                     21
                      A                      A                      A
 Frequencies --   1143.4672              1183.8357              1213.6812
 Red. masses --      2.7886                 2.4201                 7.1553
 Frc consts  --      2.1483                 1.9984                 6.2100
 IR Inten    --     12.3829                71.7690               564.7388
 Raman Activ --     14.1959                94.7077               107.7604
 Depolar (P) --      0.2234                 0.3336                 0.5707
 Depolar (U) --      0.3652                 0.5003                 0.7267
  Atom  AN      X      Y      Z        X      Y      Z        X      Y      Z
     1   6     0.10  -0.13  -0.01    -0.06  -0.04  -0.03     0.16  -0.11   0.01
     2   7     0.15  -0.11   0.01     0.17  -0.05   0.03    -0.26  -0.21  -0.12
     3   6     0.04   0.06   0.03     0.10   0.02   0.03     0.03   0.21   0.06
     4   6    -0.15  -0.07  -0.06    -0.06   0.15   0.02     0.07   0.28   0.09
     5   1     0.70   0.36   0.27    -0.01  -0.04  -0.01     0.05   0.25   0.08
     6   7    -0.15   0.14  -0.00    -0.09  -0.16  -0.06    -0.02  -0.22  -0.06
     7   1     0.06  -0.38  -0.08    -0.52   0.78   0.06     0.55  -0.36   0.06
     8   6    -0.02   0.02   0.00     0.02   0.01   0.01    -0.02   0.02  -0.00
     9   7     0.01   0.05   0.01     0.00   0.04   0.01     0.01   0.06   0.02
    10   6    -0.02   0.01  -0.01    -0.03   0.00  -0.01     0.21   0.01   0.06
    11   8    -0.03   0.03   0.00    -0.01   0.01  -0.00    -0.11   0.20   0.02
    12   8     0.00  -0.02  -0.00    -0.00  -0.01  -0.00    -0.04  -0.17  -0.06
                     22                     23                     24
                      A                      A                      A
 Frequencies --   1289.9783              1377.3963              1421.0150
 Red. masses --      5.8554                 9.2663                 6.1109
 Frc consts  --      5.7407                10.3579                 7.2704
 IR Inten    --    304.9466                 1.9403                24.2165
 Raman Activ --     60.0156                33.2164               480.5780
 Depolar (P) --      0.3303                 0.3751                 0.3118
 Depolar (U) --      0.4966                 0.5455                 0.4754
  Atom  AN      X      Y      Z        X      Y      Z        X      Y      Z
     1   6    -0.03   0.04   0.00     0.44  -0.12   0.09     0.02   0.52   0.14
     2   7    -0.07  -0.19  -0.07    -0.01   0.42   0.10     0.13  -0.11   0.00
     3   6    -0.06   0.10   0.01    -0.14  -0.31  -0.11     0.10  -0.15  -0.01
     4   6     0.01   0.19   0.05    -0.03   0.22   0.05    -0.23   0.09  -0.04
     5   1     0.42   0.34   0.20     0.25  -0.16   0.03     0.13  -0.19  -0.01
     6   7     0.03  -0.13  -0.03    -0.25  -0.17  -0.11    -0.01  -0.08  -0.02
     7   1     0.42  -0.35   0.02     0.34  -0.31   0.01     0.26  -0.65  -0.10
     8   6     0.00  -0.00  -0.00    -0.02   0.01  -0.00    -0.00  -0.03  -0.01
     9   7     0.00   0.00   0.00     0.01   0.00   0.00    -0.02  -0.13  -0.04
    10   6    -0.27   0.00  -0.07    -0.06   0.01  -0.02     0.06  -0.00   0.02
    11   8     0.13  -0.24  -0.03     0.05  -0.06  -0.00    -0.05   0.06   0.00
    12   8     0.12   0.27   0.10    -0.01   0.01  -0.00    -0.02  -0.04  -0.02
                     25                     26                     27
                      A                      A                      A
 Frequencies --   1451.3073              1510.8727              1762.3997
 Red. masses --      4.2282                 4.8012                12.8752
 Frc consts  --      5.2472                 6.4574                23.5620
 IR Inten    --     65.4471                 3.6948              1124.6141
 Raman Activ --    160.3969                16.0264                12.2208
 Depolar (P) --      0.2908                 0.3939                 0.7404
 Depolar (U) --      0.4505                 0.5652                 0.8508
  Atom  AN      X      Y      Z        X      Y      Z        X      Y      Z
     1   6     0.28   0.07   0.09    -0.12  -0.20  -0.08     0.01   0.03   0.01
     2   7    -0.18  -0.05  -0.06    -0.08   0.11   0.01     0.00  -0.06  -0.01
     3   6     0.24   0.11   0.09     0.31  -0.07   0.06    -0.02   0.02   0.00
     4   6    -0.05  -0.15  -0.05    -0.30   0.15  -0.04     0.01  -0.02  -0.00
     5   1    -0.60  -0.27  -0.23    -0.29  -0.39  -0.18    -0.02   0.03   0.00
     6   7    -0.14   0.04  -0.03     0.16   0.03   0.05    -0.00  -0.00  -0.00
     7   1    -0.40   0.29  -0.03     0.18  -0.59  -0.10    -0.02   0.02   0.00
     8   6    -0.04  -0.00  -0.01     0.01   0.00   0.00     0.01  -0.00   0.00
     9   7     0.00  -0.03  -0.01     0.01   0.06   0.02    -0.00  -0.00  -0.00
    10   6    -0.08  -0.01  -0.02    -0.03   0.02  -0.00    -0.06   0.85   0.21
    11   8     0.04  -0.05  -0.00     0.02  -0.03  -0.00     0.14  -0.30  -0.04
    12   8     0.04   0.06   0.03    -0.00   0.00   0.00    -0.10  -0.30  -0.11
                     28                     29                     30
                      A                      A                      A
 Frequencies --   2324.2909              3241.1045              3288.7696
 Red. masses --     12.6617                 1.0955                 1.1013
 Frc consts  --     40.3017                 6.7802                 7.0179
 IR Inten    --    242.0955                 9.5618                 7.0623
 Raman Activ --   1598.9782               229.4202               212.5416
 Depolar (P) --      0.2885                 0.3603                 0.1874
 Depolar (U) --      0.4478                 0.5297                 0.3157
  Atom  AN      X      Y      Z        X      Y      Z        X      Y      Z
     1   6    -0.02  -0.13  -0.04     0.00   0.00   0.00    -0.00   0.00   0.00
     2   7    -0.00  -0.01  -0.00     0.00   0.00   0.00     0.00   0.00   0.00
     3   6     0.02   0.01   0.01    -0.00   0.01   0.00     0.04  -0.08  -0.01
     4   6    -0.01   0.02   0.00    -0.07  -0.05  -0.03    -0.02  -0.01  -0.01
     5   1    -0.01   0.01   0.00     0.08  -0.16  -0.02    -0.44   0.87   0.10
     6   7    -0.01  -0.02  -0.01    -0.00   0.00   0.00    -0.00   0.00   0.00
     7   1     0.00   0.01   0.00     0.76   0.52   0.33     0.14   0.09   0.06
     8   6     0.10   0.77   0.22     0.00  -0.00   0.00    -0.00  -0.00  -0.00
     9   7    -0.06  -0.55  -0.16    -0.00  -0.00  -0.00     0.00   0.00   0.00
    10   6     0.00  -0.00   0.00     0.00   0.00   0.00     0.00  -0.00  -0.00
    11   8    -0.00   0.00  -0.00    -0.00  -0.00  -0.00     0.00   0.00   0.00
    12   8    -0.00  -0.00  -0.00    -0.00  -0.00  -0.00    -0.00  -0.00  -0.00

 -------------------
 - Thermochemistry -
 -------------------
 Temperature   298.150 Kelvin.  Pressure   1.00000 Atm.
 Thermochemistry will use frequencies scaled by 0.9670.
 Atom     1 has atomic number  6 and mass  12.00000
 Atom     2 has atomic number  7 and mass  14.00307
 Atom     3 has atomic number  6 and mass  12.00000
 Atom     4 has atomic number  6 and mass  12.00000
 Atom     5 has atomic number  1 and mass   1.00783
 Atom     6 has atomic number  7 and mass  14.00307
 Atom     7 has atomic number  1 and mass   1.00783
 Atom     8 has atomic number  6 and mass  12.00000
 Atom     9 has atomic number  7 and mass  14.00307
 Atom    10 has atomic number  6 and mass  12.00000
 Atom    11 has atomic number  8 and mass  15.99491
 Atom    12 has atomic number  8 and mass  15.99491
 Molecular mass:   136.01470 amu.
 Principal axes and moments of inertia in atomic units:
                           1         2         3
     Eigenvalues --   981.152761147.053372128.18608
           X            0.77638   0.57908  -0.24880
           Y           -0.62861   0.74004  -0.23916
           Z            0.04563   0.34207   0.93856
 This molecule is an asymmetric top.
 Rotational symmetry number  1.
 Warning -- assumption of classical behavior for rotation
           may cause significant error
 Rotational temperatures (Kelvin)      0.08828     0.07551     0.04070
 Rotational constants (GHZ):           1.83941     1.57337     0.84802
 Zero-point vibrational energy     180013.1 (Joules/Mol)
                                   43.02417 (Kcal/Mol)
 Warning -- explicit consideration of  10 degrees of freedom as
           vibrations may cause significant error
 Vibrational temperatures:     64.20   199.54   215.38   264.28   323.86
          (Kelvin)            504.01   644.89   704.52   855.81   878.34
                              894.47   988.45  1037.32  1090.78  1115.92
                             1235.85  1317.85  1458.95  1590.90  1647.07
                             1688.59  1794.74  1916.37  1977.05  2019.20
                             2102.07  2452.02  3233.78  4509.34  4575.66
 
 Zero-point correction=                           0.068563 (Hartree/Particle)
 Thermal correction to Energy=                    0.076642
 Thermal correction to Enthalpy=                  0.077586
 Thermal correction to Gibbs Free Energy=         0.034665
 Sum of electronic and zero-point Energies=           -506.699365
 Sum of electronic and thermal Energies=              -506.691287
 Sum of electronic and thermal Enthalpies=            -506.690343
 Sum of electronic and thermal Free Energies=         -506.733264
 
                     E (Thermal)             CV                S
                      KCal/Mol        Cal/Mol-Kelvin    Cal/Mol-Kelvin
 Total                   48.093             28.529             90.334
 Electronic               0.000              0.000              0.000
 Translational            0.889              2.981             40.635
 Rotational               0.889              2.981             29.261
 Vibrational             46.316             22.568             20.438
 Vibration     1          0.595              1.980              5.043
 Vibration     2          0.614              1.915              2.822
 Vibration     3          0.618              1.903              2.676
 Vibration     4          0.631              1.862              2.291
 Vibration     5          0.650              1.803              1.918
 Vibration     6          0.727              1.575              1.165
 Vibration     7          0.807              1.365              0.801
 Vibration     8          0.846              1.273              0.684
 Vibration     9          0.953              1.043              0.459
 Vibration    10          0.970              1.010              0.432
                       Q            Log10(Q)             Ln(Q)
 Total Bot       0.113545D-15        -15.944833        -36.714334
 Total V=0       0.390936D+16         15.592105         35.902149
 Vib (Bot)       0.328718D-29        -29.483176        -67.887521
 Vib (Bot)    1  0.463535D+01          0.666082          1.533711
 Vib (Bot)    2  0.146665D+01          0.166325          0.382978
 Vib (Bot)    3  0.135466D+01          0.131831          0.303553
 Vib (Bot)    4  0.109208D+01          0.038253          0.088080
 Vib (Bot)    5  0.876851D+00         -0.057074         -0.131418
 Vib (Bot)    6  0.526581D+00         -0.278535         -0.641350
 Vib (Bot)    7  0.383146D+00         -0.416636         -0.959340
 Vib (Bot)    8  0.338707D+00         -0.470175         -1.082619
 Vib (Bot)    9  0.252373D+00         -0.597957         -1.376846
 Vib (Bot)   10  0.241956D+00         -0.616263         -1.418999
 Vib (V=0)       0.113178D+03          2.053762          4.728962
 Vib (V=0)    1  0.516223D+01          0.712838          1.641370
 Vib (V=0)    2  0.204953D+01          0.311655          0.717612
 Vib (V=0)    3  0.194399D+01          0.288694          0.664743
 Vib (V=0)    4  0.170109D+01          0.230728          0.531272
 Vib (V=0)    5  0.150939D+01          0.178801          0.411705
 Vib (V=0)    6  0.122615D+01          0.088542          0.203876
 Vib (V=0)    7  0.112992D+01          0.053048          0.122148
 Vib (V=0)    8  0.110392D+01          0.042939          0.098870
 Vib (V=0)    9  0.106008D+01          0.025340          0.058347
 Vib (V=0)   10  0.105547D+01          0.023444          0.053983
 Electronic      0.100000D+01          0.000000          0.000000
 Translational   0.623495D+08          7.794833         17.948265
 Rotational      0.554001D+06          5.743511         13.224922
 
                                                   IMIDCN-CO2_binding-site_index-
 1
                                                             IR Spectrum
 
     3 3                                   2                    1         1 1 11   1  111   1                                        
     2 2                                   3                    7         5 4 43   2  211   0   9 8  87 77 666   5 4   3    2111     
     8 4                                   2                    6         1 5 27   9  184   4   4 8  08 41 431   0 6   6    3954   4 
     9 1                                   4                    2         1 1 17   0  443   9   7 8  24 60 315   6 4   2    3053   6 
 
     X X                                   X                    X         X X XX   X  XXX   X   X X  XX XX XXX   X X   X    XXXX   X 
                                           X                    X                  X  X     X         X X                            
                                           X                    X                  X  X                 X                            
                                           X                    X                  X  X                 X                            
                                                                X                  X  X                 X                            
                                                                X                     X                 X                            
                                                                X                     X                 X                            
                                                                X                     X                 X                            
                                                                X                     X                                              
                                                                X                     X                                              
                                                                X                                                                    
                                                                X                                                                    
                                                                X                                                                    
                                                                X                                                                    
                                                                X                                                                    
                                                                X                                                                    
                                                                X                                                                    
                                                                X                                                                    
                                                                X                                                                    
                                                                X                                                                    
 
 
                                                   IMIDCN-CO2_binding-site_index-
 1
                                                            Raman Spectrum
 
     3 3                                   2                    1         1 1 11   1  111   1                                        
     2 2                                   3                    7         5 4 43   2  211   0   9 8  87 77 666   5 4   3    2111     
     8 4                                   2                    6         1 5 27   9  184   4   4 8  08 41 431   0 6   6    3954   4 
     9 1                                   4                    2         1 1 17   0  443   9   7 8  24 60 315   6 4   2    3053   6 
 
     X X                                   X                    X         X X XX   X  XXX   X   X X  XX XX XXX   X X   X    XXXX   X 
     X X                                   X                                X X                                                      
     X X                                   X                                  X                                                      
                                           X                                  X                                                      
                                           X                                  X                                                      
                                           X                                  X                                                      
                                           X                                                                                         
                                           X                                                                                         
                                           X                                                                                         
                                           X                                                                                         
                                           X                                                                                         
                                           X                                                                                         
                                           X                                                                                         
                                           X                                                                                         
                                           X                                                                                         
                                           X                                                                                         
                                           X                                                                                         
                                           X                                                                                         
                                           X                                                                                         
                                           X                                                                                         
 
 -------------------------------------------------------------------
 Center     Atomic                   Forces (Hartrees/Bohr)
 Number     Number              X              Y              Z
 -------------------------------------------------------------------
      1        6           0.000006001    0.000005250   -0.000004141
      2        7           0.000010568   -0.000005843   -0.000011602
      3        6          -0.000000401   -0.000001427   -0.000005868
      4        6          -0.000006023    0.000010063    0.000004962
      5        1          -0.000009031    0.000002064    0.000010713
      6        7          -0.000004945    0.000009230    0.000002383
      7        1          -0.000012871   -0.000000211    0.000009535
      8        6          -0.000000222   -0.000084664    0.000006102
      9        7           0.000033823    0.000084436    0.000011635
     10        6           0.000008204   -0.000108867   -0.000009462
     11        8          -0.000035372    0.000063756   -0.000006707
     12        8           0.000010270    0.000026214   -0.000007549
 -------------------------------------------------------------------
 Cartesian Forces:  Max     0.000108867 RMS     0.000031165
 Force constants in Cartesian coordinates: 
                1             2             3             4             5 
      1  0.573631D+00
      2  0.330755D-01  0.740919D+00
      3  0.123877D+00  0.161567D+00  0.212149D+00
      4 -0.158921D+00  0.705390D-01 -0.756213D-02  0.616224D+00
      5  0.984472D-01 -0.188509D+00 -0.556261D-02 -0.230168D-01  0.613797D+00
      6 -0.369917D-03 -0.130827D-01 -0.667915D-01  0.128527D+00  0.122634D+00
      7 -0.320528D-02 -0.258470D-01 -0.108515D-01 -0.148007D+00 -0.573532D-01
      8  0.256379D-01 -0.963313D-01 -0.209778D-01 -0.571930D-01 -0.235785D+00
      9  0.220247D-02 -0.346278D-01  0.477584D-02 -0.368673D-01 -0.589969D-01
     10 -0.148126D-01 -0.184175D-01 -0.117607D-01 -0.797757D-01 -0.588096D-01
     11 -0.726635D-01 -0.815635D-01 -0.430163D-01  0.749689D-02  0.106966D-01
     12 -0.255203D-01 -0.286221D-01 -0.217971D-02 -0.225057D-01 -0.159989D-01
     13 -0.402803D-02 -0.261920D-02 -0.256204D-02  0.125927D-01 -0.185565D-01
     14 -0.251054D-02 -0.882030D-03 -0.167920D-02  0.111610D-01 -0.178728D-01
     15 -0.253809D-02 -0.169929D-02  0.201607D-02  0.644096D-02 -0.919899D-02
     16 -0.305418D+00 -0.288797D-01 -0.684288D-01 -0.104754D+00  0.383221D-01
     17 -0.696561D-01 -0.846740D-01 -0.208849D-01 -0.115515D-01 -0.199292D-01
     18 -0.788376D-01 -0.100519D-01 -0.986525D-01 -0.370240D-01 -0.103320D-02
     19  0.144424D-02  0.235669D-02 -0.608598D-03 -0.468172D-02  0.240363D-02
     20  0.132057D-02 -0.506608D-02 -0.245505D-02  0.398016D-02 -0.179397D-03
     21 -0.865472D-03 -0.218518D-02  0.521396D-02 -0.184390D-02 -0.933868D-03
     22 -0.799626D-01 -0.324131D-01 -0.178476D-01  0.114569D-01  0.153804D-01
     23 -0.226877D-01 -0.269714D+00 -0.632805D-01 -0.559897D-02 -0.513559D-01
     24 -0.153919D-01 -0.658374D-01 -0.642756D-01  0.363907D-02 -0.705298D-02
     25  0.163534D-01 -0.104836D-01 -0.205472D-02 -0.219510D-02  0.344379D-03
     26 -0.887451D-02 -0.254688D-01 -0.123677D-01 -0.171697D-02  0.120360D-01
     27 -0.164973D-02 -0.127968D-01  0.103979D-01 -0.192997D-02  0.226723D-02
     28 -0.337634D-01  0.307793D-01  0.121380D-02 -0.275033D-01  0.585876D-03
     29  0.147641D-01  0.805254D-02  0.812525D-02  0.218424D-02 -0.888504D-01
     30 -0.294068D-02  0.123363D-01 -0.620527D-02  0.758257D-02 -0.858505D-02
     31  0.220483D-02 -0.125539D-01 -0.359642D-02 -0.651725D-01  0.541543D-01
     32 -0.287879D-02  0.972156D-02  0.686727D-03  0.440193D-01 -0.164345D-01
     33 -0.118693D-02 -0.176592D-02  0.317173D-02 -0.102426D-01  0.543902D-02
     34  0.647685D-02 -0.553656D-02  0.181745D-03 -0.492628D-01 -0.519018D-01
     35  0.602570D-02 -0.648426D-02 -0.154870D-03 -0.403033D-01 -0.176138D-01
     36  0.322116D-02 -0.323421D-02  0.380546D-03 -0.282135D-01 -0.229780D-01
                6             7             8             9            10 
      6  0.174522D+00
      7 -0.369075D-01  0.641273D+00
      8 -0.590043D-01 -0.178648D+00  0.774743D+00
      9 -0.881376D-01  0.914306D-01  0.117259D+00  0.179714D+00
     10 -0.393359D-01 -0.329561D+00  0.840464D-01 -0.480669D-01  0.763125D+00
     11  0.166372D-02  0.558253D-01 -0.124628D+00  0.362447D-03  0.974351D-01
     12  0.210568D-02 -0.552556D-01  0.787974D-02 -0.804860D-01  0.192169D+00
     13 -0.106050D-02 -0.120107D+00  0.132138D+00  0.901643D-02  0.312132D-02
     14 -0.127870D-02  0.121895D+00 -0.293004D+00 -0.347953D-01 -0.165319D-02
     15 -0.177736D-02  0.649422D-02 -0.320821D-01 -0.345898D-01  0.229292D-03
     16 -0.244493D-01 -0.652805D-02  0.214133D-01 -0.137354D-02 -0.105301D+00
     17 -0.142281D-01  0.880786D-01 -0.472093D-01  0.656544D-02  0.237435D-01
     18  0.138756D-01  0.155458D-01 -0.111575D-01  0.203783D-01 -0.397478D-02
     19 -0.222472D-02 -0.826893D-02 -0.160410D-01 -0.627390D-02 -0.239905D+00
     20 -0.525609D-03  0.806042D-02  0.103486D-01  0.475897D-02 -0.115473D+00
     21  0.530528D-02 -0.153311D-03 -0.163570D-02 -0.422462D-03 -0.851258D-01
     22  0.892661D-02 -0.302189D-02  0.533520D-02 -0.310835D-03 -0.803030D-02
     23 -0.125729D-01  0.215495D-01  0.770888D-02  0.684509D-02 -0.135276D-01
     24 -0.840502D-02  0.381938D-02  0.255616D-02  0.491410D-02 -0.735560D-02
     25 -0.140798D-02  0.475999D-04 -0.151243D-02 -0.201390D-03  0.182831D-02
     26  0.172280D-02 -0.925733D-02 -0.575397D-02 -0.374969D-02  0.661585D-02
     27  0.351953D-02 -0.216378D-02 -0.169355D-02 -0.164307D-02  0.244965D-02
     28  0.718241D-02 -0.231862D-01 -0.318283D-01 -0.129534D-01  0.168667D-01
     29 -0.830857D-02 -0.193505D-01  0.808006D-02 -0.181607D-02 -0.370997D-02
     30 -0.542293D-01 -0.969757D-02 -0.510753D-02 -0.891834D-02  0.280617D-02
     31 -0.766638D-02  0.300805D-02  0.630087D-02  0.228406D-02 -0.206918D-02
     32  0.282811D-02 -0.560856D-02 -0.661852D-02 -0.332747D-02  0.372424D-02
     33  0.160197D-01 -0.899404D-03 -0.181105D-03  0.553599D-03  0.323364D-03
     34 -0.312134D-01 -0.244289D-02  0.103510D-01  0.111378D-02 -0.548654D-02
     35 -0.198479D-01  0.655225D-03  0.844999D-02  0.152189D-02 -0.397470D-02
     36  0.399336D-02 -0.136133D-02  0.414437D-02  0.386123D-02 -0.235816D-02
               11            12            13            14            15 
     11  0.581539D+00
     12  0.140011D+00  0.218547D+00
     13  0.180944D-01  0.522716D-02  0.112050D+00
     14  0.273359D-02  0.775068D-04 -0.132438D+00  0.308251D+00
     15  0.532551D-02  0.212663D-02 -0.963044D-02  0.374033D-01  0.286149D-01
     16  0.181101D-01 -0.543245D-02 -0.355284D-02 -0.174734D-03 -0.260921D-02
     17 -0.261844D+00 -0.430339D-01  0.404439D-02  0.151448D-02 -0.695557D-04
     18 -0.445425D-01 -0.798856D-01 -0.152645D-02 -0.120301D-02  0.536115D-02
     19 -0.118638D+00 -0.859254D-01 -0.118682D-03  0.231129D-03  0.595282D-03
     20 -0.131341D+00 -0.564887D-01 -0.709550D-03 -0.419034D-03  0.252713D-03
     21 -0.573191D-01 -0.666693D-01  0.361036D-03  0.500626D-03 -0.193102D-02
     22  0.116416D-02 -0.361397D-02  0.127589D-02  0.741068D-03 -0.113223D-03
     23  0.190558D-01 -0.456713D-03 -0.299259D-03 -0.858437D-03 -0.921356D-03
     24  0.346284D-02  0.563548D-02 -0.374695D-03 -0.630064D-03  0.213701D-02
     25 -0.119775D-02  0.468838D-03 -0.266781D-03 -0.136928D-03  0.555660D-04
     26 -0.101812D-01 -0.548997D-03 -0.290568D-03  0.171178D-03  0.131034D-03
     27 -0.262058D-02 -0.110297D-02  0.169917D-04  0.160737D-03 -0.557468D-03
     28 -0.853490D-02  0.159250D-02  0.208285D-03  0.238891D-02  0.116897D-02
     29 -0.578462D-02 -0.313823D-02 -0.527750D-03 -0.243621D-02 -0.478777D-03
     30 -0.442982D-02  0.232138D-02  0.363316D-03  0.418023D-03 -0.151668D-02
     31  0.363290D-02  0.299134D-03 -0.138060D-02  0.884895D-03 -0.984909D-05
     32 -0.102810D-02  0.647596D-03  0.433301D-03  0.206552D-02  0.929162D-03
     33  0.601305D-03  0.542397D-03 -0.389977D-04  0.975109D-03 -0.107191D-03
     34 -0.724379D-03 -0.150356D-02  0.205125D-03 -0.388692D-03 -0.834634D-04
     35  0.234553D-02 -0.328650D-03  0.731023D-03  0.736751D-03  0.408406D-03
     36  0.501176D-03 -0.955146D-03  0.208196D-03  0.509876D-04  0.223736D-03
               16            17            18            19            20 
     16  0.513498D+00
     17 -0.816629D-02  0.459430D+00
     18  0.107677D+00  0.891218D-01  0.151063D+00
     19  0.854247D-02  0.252219D-02  0.433248D-02  0.241570D+00
     20 -0.240301D-01 -0.153945D-01 -0.892033D-02  0.128062D+00  0.141303D+00
     21 -0.240790D-02 -0.188634D-02 -0.648702D-02  0.904846D-01  0.640103D-01
     22 -0.101098D-01 -0.398310D-01 -0.106082D-01  0.703666D-03 -0.113076D-02
     23 -0.342532D-01 -0.386509D-01 -0.168342D-01  0.713161D-04  0.654592D-04
     24 -0.921535D-02 -0.183323D-01 -0.151504D-01 -0.230239D-03 -0.700371D-03
     25  0.130304D-02  0.415840D-02  0.600775D-03 -0.153112D-03  0.115707D-03
     26  0.115471D-01  0.108767D-01  0.505925D-02 -0.300732D-05 -0.301529D-03
     27  0.246828D-02  0.309599D-02  0.446770D-02  0.668255D-04  0.584834D-04
     28  0.287485D-01  0.814669D-02  0.801127D-02  0.246160D-02 -0.446788D-03
     29  0.755522D-02 -0.425293D-02 -0.660037D-03 -0.612847D-03  0.643286D-03
     30  0.788346D-02 -0.495732D-03  0.820617D-02  0.914659D-04 -0.344212D-03
     31 -0.114255D-01  0.109249D-02 -0.226312D-02 -0.528793D-03 -0.469113D-04
     32  0.508288D-02  0.160313D-02  0.227388D-02  0.337631D-03  0.563859D-05
     33 -0.113976D-02  0.116338D-02 -0.197511D-02 -0.160219D-04  0.213754D-04
     34 -0.500266D-02 -0.258142D-02 -0.193269D-02 -0.106555D-02  0.298138D-03
[...]
    -- Stationary point found.
 GradGradGradGradGradGradGradGradGradGradGradGradGradGradGradGradGradGrad

 Leave Link  103 at Thu Jan 11 13:05:10 2024, MaxMem= 14763950080 cpu:               0.1 elap:               0.1
 (Enter /software/commercial/gaussian/g16/AVX2/g16/l9999.exe)

 ----------------------------------------------------------------------

 Electric dipole moment (input orientation):
 (Debye = 10**-18 statcoulomb cm , SI units = C m)
                  (au)            (Debye)         (10**-30 SI)
   Tot        0.761294D+01      0.193502D+02      0.645452D+02
   x          0.122028D+00      0.310165D+00      0.103460D+01
   y         -0.746017D+01     -0.189619D+02     -0.632499D+02
   z         -0.151258D+01     -0.384460D+01     -0.128242D+02

 Dipole polarizability, Alpha (input orientation).
 (esu units = cm**3 , SI units = C**2 m**2 J**-1)
 Alpha(0;0):
               (au)            (10**-24 esu)      (10**-40 SI)
   iso        0.116492D+03      0.172623D+02      0.192069D+02
   aniso      0.920046D+02      0.136337D+02      0.151695D+02
   xx         0.115832D+03      0.171645D+02      0.190981D+02
   yx         0.186108D+01      0.275784D+00      0.306851D+00
   yy         0.160923D+03      0.238463D+02      0.265326D+02
   zx         0.146419D+02      0.216970D+01      0.241412D+01
   zy         0.256616D+02      0.380265D+01      0.423102D+01
   zz         0.727202D+02      0.107760D+02      0.119899D+02

 First dipole hyperpolarizability, Beta (input orientation).
 ||, _|_  parallel and perpendicular components, (z) with respect to z axis,
 vector components x,y,z.  Values do not include the 1/n! factor of 1/2.
 (esu units = statvolt**-1 cm**4 , SI units = C**3 m**3 J**-2)
 Beta(0;0,0):
               (au)            (10**-30 esu)      (10**-50 SI)
   || (z)     0.115105D+03      0.994418D+00      0.369069D+00
   _|_(z)     0.383684D+02      0.331473D+00      0.123023D+00
   x         -0.142586D+03     -0.123183D+01     -0.457183D+00
   y          0.241965D+04      0.209039D+02      0.775826D+01
   z          0.575525D+03      0.497209D+01      0.184534D+01
   ||         0.498247D+03      0.430446D+01      0.159756D+01
   xxx       -0.776661D+02     -0.670975D+00     -0.249026D+00
   xxy       -0.372295D+02     -0.321634D+00     -0.119371D+00
   yxy        0.634709D+02      0.548339D+00      0.203511D+00
   yyy        0.867651D+03      0.749583D+01      0.278200D+01
   xxz        0.193485D+01      0.167156D-01      0.620383D-02
   yxz        0.545060D+02      0.470890D+00      0.174766D+00
   yyz        0.300979D+03      0.260022D+01      0.965046D+00
   zxz       -0.333336D+02     -0.287976D+00     -0.106879D+00
   zyz       -0.238727D+02     -0.206242D+00     -0.765445D-01
   zzz       -0.111072D+03     -0.959572D+00     -0.356136D+00

 ----------------------------------------------------------------------

 Dipole orientation:
     6         -3.73877961         -0.95466283         -6.58529689
     7         -2.07113847         -0.63438333         -4.62525191
     6         -3.41310266         -1.05841080         -2.45778061
     6         -5.84751743         -1.62054126         -3.19059696
     1         -2.52013705         -0.92015684         -0.63695781
     7         -6.04167925         -1.55370328         -5.76929481
     1         -7.44913726         -2.06407713         -2.00995603
     6         -3.15375657         -0.69864286         -9.18769376
     7         -2.89220501         -0.54103433        -11.35184333
     6          0.71821560          0.05111313         -4.75936431
     8          1.72833921          0.18562457         -2.66342095
     8          1.48342024          0.35299392         -6.94029631

 Electric dipole moment (dipole orientation):
 (Debye = 10**-18 statcoulomb cm , SI units = C m)
                  (au)            (Debye)         (10**-30 SI)
   Tot        0.761294D+01      0.193502D+02      0.645452D+02
   x          0.000000D+00      0.000000D+00      0.000000D+00
   y          0.000000D+00      0.000000D+00      0.000000D+00
   z          0.761294D+01      0.193502D+02      0.645452D+02

 Dipole polarizability, Alpha (dipole orientation).
 (esu units = cm**3 , SI units = C**2 m**2 J**-1)
 Alpha(0;0):
               (au)            (10**-24 esu)      (10**-40 SI)
   iso        0.116492D+03      0.172623D+02      0.192069D+02
   aniso      0.920046D+02      0.136337D+02      0.151695D+02
   xx         0.116357D+03      0.172423D+02      0.191847D+02
   yx         0.134245D+02      0.198931D+01      0.221340D+01
   yy         0.658474D+02      0.975757D+01      0.108568D+02
   zx        -0.563930D+01     -0.835657D+00     -0.929794D+00
   zy        -0.615945D+01     -0.912736D+00     -0.101556D+01
   zz         0.167270D+03      0.247869D+02      0.275791D+02

 First dipole hyperpolarizability, Beta (dipole orientation).
 ||, _|_  parallel and perpendicular components, (z) with respect to z axis,
 vector components x,y,z.  Values do not include the 1/n! factor of 1/2.
 (esu units = statvolt**-1 cm**4 , SI units = C**3 m**3 J**-2)
 Beta(0;0,0):
               (au)            (10**-30 esu)      (10**-50 SI)
   || (z)    -0.497545D+03     -0.429840D+01     -0.159531D+01
   _|_(z)    -0.165848D+03     -0.143280D+01     -0.531769D+00
   x         -0.101624D+03     -0.877951D+00     -0.325843D+00
   y          0.845776D+02      0.730684D+00      0.271186D+00
   z         -0.248772D+04     -0.214920D+02     -0.797654D+01
   ||         0.498247D+03      0.430446D+01      0.159756D+01
   xxx       -0.789067D+02     -0.681692D+00     -0.253003D+00
   xxy        0.995950D+01      0.860423D-01      0.319338D-01
   yxy       -0.537451D+02     -0.464316D+00     -0.172326D+00
   yyy       -0.606623D+02     -0.524075D+00     -0.194505D+00
   xxz        0.311443D+02      0.269062D+00      0.998597D-01
   yxz       -0.313216D+02     -0.270594D+00     -0.100428D+00
   yyz        0.120786D+03      0.104350D+01      0.387284D+00
   zxz        0.987772D+02      0.853358D+00      0.316715D+00
   zyz        0.788953D+02      0.681594D+00      0.252967D+00
   zzz       -0.981171D+03     -0.847656D+01     -0.314599D+01

 ----------------------------------------------------------------------
 Unable to Open any file for archive entry.
 1\1\GINC-NODE2014\Freq\RB3LYP\6-311+G(d,p)\C5H2N3O2(1-)\SVICCHI\11-Jan
 -2024\0\\#p freq=raman scale=0.967 guess=read geom=allcheck b3lyp/6-31
 1+G(d,p) int=grid=ultrafine EmpiricalDispersion=GD3BJ SCRF=(Solvent=et
 hanol) scf=(xqc,intrep,maxconventionalcycle=350) nosymm\\IMIDCN-CO2_bi
 nding-site_index-1\\-1,1\C,-2.0272909463,3.4894127511,0.1656155905\N,-
 1.1305977812,2.4508695461,0.1397656496\C,-1.8192571502,1.362235094,-0.
 3193873826\C,-3.1095357882,1.7845278839,-0.5544856199\H,-1.33233545,0.
 4096736019,-0.4315612759\N,-3.2345963331,3.1133505123,-0.2503494866\H,
 -3.9438047876,1.2078748246,-0.9222022224\C,-1.7416258589,4.8160157549,
 0.5769544545\N,-1.6226980957,5.9234772809,0.8884403192\C,0.3392574522,
 2.4676060047,0.5329956557\O,0.8905227895,1.3735849115,0.3909486966\O,0
 .7235070496,3.5720775342,0.9253316213\\Version=ES64L-G16RevC.02\HF=-50
 6.7679288\RMSD=6.082e-09\RMSF=3.117e-05\ZeroPoint=0.0685634\Thermal=0.
 0766416\ETot=-506.6912872\HTot=-506.690343\GTot=-506.7332637\Dipole=-2
 .1902805,-1.8426004,-1.0461293\DipoleDeriv=0.8080146,-0.5243425,0.0318
 296,-0.4377866,-0.2970459,-0.2391295,0.0523594,-0.2626009,0.1325681,-1
 .9200917,0.2190409,-0.4414589,-0.0119501,0.2079816,0.0587667,-0.500177
 2,0.1209115,-0.1456907,0.3038275,-0.4858335,-0.0196151,0.3083325,-0.33
 90639,0.0188165,0.1835402,-0.1916903,-0.0889996,0.0646765,0.421049,0.1
 691422,-0.032491,-0.279906,-0.0365176,0.0544326,0.0840514,-0.1350671,0
 .1450311,0.0372182,-0.0095227,0.0117113,0.0896951,-0.0288303,-0.017829
 2,-0.0188876,0.2078177,-0.7972727,0.3624853,-0.0198056,0.1030642,-0.01
 4839,0.118865,-0.0855468,0.1875144,-0.3481489,0.0160305,-0.0840342,-0.
 0686325,-0.0504456,0.0432789,-0.0515688,-0.0604505,-0.0607216,0.162797
 8,0.3111786,0.1377674,0.0598761,0.1048374,1.2485747,0.2890694,0.053172
 ,0.2988384,0.3053593,-0.4521036,-0.0275157,-0.0134545,-0.0403288,-1.08
 21385,-0.1768693,-0.0166003,-0.1723244,-0.4748186,3.128145,-0.4806033,
 0.592862,-0.2275125,2.8564049,0.581336,0.6558672,0.514016,0.7315152,-1
 .3546042,0.6238179,-0.0434136,0.6004892,-1.7639075,-0.1536255,-0.04677
 35,-0.1520762,-0.6276534,-1.2528316,-0.1990494,-0.237807,-0.32792,-1.6
 690343,-0.3803127,-0.2719938,-0.3470306,-0.7196799\Polar=115.8315985,1
 .8610837,160.9227237,14.6418777,25.6615789,72.7202001\PolarDeriv=-6.20
 36495,7.1473792,24.0256722,-0.0213691,6.0879184,1.543923,7.0300868,7.6
 299238,63.6433383,3.8543465,16.5766618,4.3705218,0.0967905,2.0088508,1
 9.1339017,0.6768403,12.0801981,4.9258268,11.9394397,-3.3126136,5.17763
 73,1.4986932,0.5223394,0.6958436,2.7985732,-3.8464218,-21.2036366,-1.1
 602037,-6.499686,-1.196171,2.4162164,-2.4166582,-3.7244489,2.7169714,-
 2.2314758,1.0631623,-4.10175,2.974885,27.148817,-2.1869771,8.9815731,6
 .9659427,-6.3672303,3.4634155,-2.1701748,-0.5751805,3.587092,-1.846032
 2,-3.8875717,3.6467682,11.5454466,1.9915263,-5.8040311,-2.2224221,-0.2
 025435,-3.7327355,-25.9923622,2.2649065,-5.0650855,-5.3847782,-12.1926
 645,1.0462418,29.9034123,-0.888574,9.2722879,1.5301797,0.4535419,2.105
 1082,2.7635449,-5.6915975,-2.5184893,-6.8536183,2.5881137,-2.3150807,4
 .2574332,0.0190429,0.0996289,0.2341809,-2.2621355,3.1158935,-13.421007
 3,0.4674861,-2.5878769,-1.6738672,0.1110868,-0.1856519,-2.696026,0.045
 2978,0.4835629,0.2385238,-9.5976626,-1.3162303,-26.6852182,-1.20416,-6
 .7816171,-4.0608214,13.7374378,-6.3587406,-30.0686397,2.2584217,-10.30
 99005,1.2193866,3.0850643,-1.1706393,-15.1671538,-3.5636291,-3.3203711
 ,-2.4351984,-9.3861637,-4.8779799,-4.2012411,-3.6781116,-2.2930493,-2.
 2340681,-3.9764296,-4.3443925,-5.6040933,-2.1036035,-2.505579,-1.85318
 05,-3.7190682,-2.5866842,-2.6921001,-1.1303639,-0.9462331,-0.6597217,3
 .845913,-8.468755,-10.6087321,-1.1163131,-4.1013602,-0.8754748,-6.2530
 005,-9.4139348,-96.536385,-3.5721851,-25.6716205,-8.8037372,-0.5025195
 ,-3.7032349,-25.5385386,-1.1092279,-10.7697943,-4.2725892,1.4249343,11
 .8688319,4.8957292,2.9267365,1.6663446,1.2559408,6.4980227,5.7210598,7
 7.0955655,1.9498703,17.6803641,8.0807229,1.5323463,1.8326186,15.964052
 7,1.4622925,13.7719217,7.6977283,-6.3008857,4.7172509,-2.5100056,-0.30
 78294,0.3449497,1.087214,-1.5487649,-5.8247851,2.0040668,-1.463425,-0.
 9092967,-0.8444505,-1.2435026,0.1594066,-0.0727651,-1.9213814,-0.17962
 66,-0.8511275,9.7111423,-6.7164948,3.8888631,-0.2423059,0.2917446,0.64
 06745,-8.0038064,6.6673425,-14.1422307,-0.6556622,-0.1615599,-2.488357
 3,-1.3723573,0.3385465,-0.4527233,3.2966587,-4.4480139,-1.0522996,6.28
 31121,4.0315428,0.6034073,2.0476871,0.2466136,0.1314231,10.5399114,2.1
 44398,10.4997845,1.8887095,1.5291138,3.5049848,3.029973,-0.0284303,0.9
 368097,3.2266128,3.8823527,4.4217357\HyperPolar=-77.6661318,-37.229493
 ,63.4709237,867.6507463,1.9348512,54.5060304,300.9785652,-33.3335547,-
 23.8727012,-111.0715835\Quadrupole=13.7931103,-39.2571733,25.464063,12
 .2574952,-0.6957757,-11.2783937\PG=C01 [X(C5H2N3O2)]\NImag=0\\0.573631
 30,0.03307554,0.74091863,0.12387698,0.16156706,0.21214857,-0.15892099,
 0.07053897,-0.00756213,0.61622368,0.09844719,-0.18850922,-0.00556261,-
 0.02301680,0.61379744,-0.00036992,-0.01308271,-0.06679146,0.12852653,0
 .12263429,0.17452167,-0.00320528,-0.02584697,-0.01085151,-0.14800714,-
 0.05735322,-0.03690754,0.64127266,0.02563793,-0.09633128,-0.02097782,-
 0.05719302,-0.23578487,-0.05900433,-0.17864794,0.77474276,0.00220247,-
 0.03462782,0.00477584,-0.03686728,-0.05899692,-0.08813763,0.09143058,0
 .11725941,0.17971421,-0.01481257,-0.01841746,-0.01176070,-0.07977567,-
 0.05880959,-0.03933586,-0.32956138,0.08404640,-0.04806693,0.76312550,-
 0.07266348,-0.08156352,-0.04301632,0.00749689,0.01069661,0.00166372,0.
 05582535,-0.12462804,0.00036245,0.09743507,0.58153929,-0.02552033,-0.0
 2862212,-0.00217971,-0.02250574,-0.01599891,0.00210568,-0.05525556,0.0
 0787974,-0.08048599,0.19216938,0.14001135,0.21854719,-0.00402803,-0.00
 261920,-0.00256204,0.01259271,-0.01855651,-0.00106050,-0.12010651,0.13
 213803,0.00901643,0.00312132,0.01809443,0.00522716,0.11205012,-0.00251
 054,-0.00088203,-0.00167920,0.01116101,-0.01787276,-0.00127870,0.12189
 541,-0.29300435,-0.03479527,-0.00165319,0.00273359,0.00007751,-0.13243
 834,0.30825130,-0.00253809,-0.00169929,0.00201607,0.00644096,-0.009198
 99,-0.00177736,0.00649422,-0.03208212,-0.03458976,0.00022929,0.0053255
 1,0.00212663,-0.00963044,0.03740326,0.02861488,-0.30541776,-0.02887972
 ,-0.06842884,-0.10475402,0.03832214,-0.02444928,-0.00652805,0.02141326
 ,-0.00137354,-0.10530084,0.01811014,-0.00543245,-0.00355284,-0.0001747
 3,-0.00260921,0.51349754,-0.06965606,-0.08467402,-0.02088493,-0.011551
 51,-0.01992919,-0.01422814,0.08807863,-0.04720927,0.00656544,0.0237435
 1,-0.26184406,-0.04303387,0.00404439,0.00151448,-0.00006956,-0.0081662
 9,0.45943032,-0.07883759,-0.01005188,-0.09865248,-0.03702403,-0.001033
 20,0.01387557,0.01554583,-0.01115752,0.02037827,-0.00397478,-0.0445425
 3,-0.07988561,-0.00152645,-0.00120301,0.00536115,0.10767655,0.08912183
 ,0.15106269,0.00144424,0.00235669,-0.00060860,-0.00468172,0.00240363,-
 0.00222472,-0.00826893,-0.01604103,-0.00627390,-0.23990534,-0.11863843
 ,-0.08592541,-0.00011868,0.00023113,0.00059528,0.00854247,0.00252219,0
 .00433248,0.24157015,0.00132057,-0.00506608,-0.00245505,0.00398016,-0.
 00017940,-0.00052561,0.00806042,0.01034862,0.00475897,-0.11547253,-0.1
 3134125,-0.05648870,-0.00070955,-0.00041903,0.00025271,-0.02403009,-0.
 01539450,-0.00892033,0.12806164,0.14130326,-0.00086547,-0.00218518,0.0
 0521396,-0.00184390,-0.00093387,0.00530528,-0.00015331,-0.00163570,-0.
 00042246,-0.08512582,-0.05731910,-0.06666933,0.00036104,0.00050063,-0.
 00193102,-0.00240790,-0.00188634,-0.00648702,0.09048464,0.06401026,0.0
 6326729,-0.07996264,-0.03241313,-0.01784758,0.01145687,0.01538037,0.00
 892661,-0.00302189,0.00533520,-0.00031084,-0.00803030,0.00116416,-0.00
 361397,0.00127589,0.00074107,-0.00011322,-0.01010979,-0.03983102,-0.01
 060825,0.00070367,-0.00113076,-0.00053885,0.13111512,-0.02268770,-0.26
 971353,-0.06328052,-0.00559897,-0.05135589,-0.01257292,0.02154954,0.00
 770888,0.00684509,-0.01352762,0.01905579,-0.00045671,-0.00029926,-0.00
 085844,-0.00092136,-0.03425320,-0.03865090,-0.01683425,0.00007132,0.00
 006546,-0.00038274,0.16883615,1.42580797,-0.01539186,-0.06583743,-0.06
 427564,0.00363907,-0.00705298,-0.00840502,0.00381938,0.00255616,0.0049
 1410,-0.00735560,0.00346284,0.00563548,-0.00037470,-0.00063006,0.00213
 701,-0.00921535,-0.01833234,-0.01515039,-0.00023024,-0.00070037,0.0014
 0194,0.05441182,0.38328119,0.19785421,0.01635345,-0.01048361,-0.002054
 72,-0.00219510,0.00034438,-0.00140798,0.00004760,-0.00151243,-0.000201
 39,0.00182831,-0.00119775,0.00046884,-0.00026678,-0.00013693,0.0000555
 7,0.00130304,0.00415840,0.00060077,-0.00015311,0.00011571,0.00009725,-
 0.04716584,-0.11504390,-0.03128499,0.03422726,-0.00887451,-0.02546879,
 -0.01236772,-0.00171697,0.01203597,0.00172280,-0.00925733,-0.00575397,
 -0.00374969,0.00661585,-0.01018122,-0.00054900,-0.00029057,0.00017118,
 0.00013103,0.01154705,0.01087667,0.00505925,-0.00000301,-0.00030153,0.
 00002578,-0.11843773,-1.08832630,-0.29632201,0.12004019,1.10660150,-0.
 00164973,-0.01279678,0.01039785,-0.00192997,0.00226723,0.00351953,-0.0
 0216378,-0.00169355,-0.00164307,0.00244965,-0.00262058,-0.00110297,0.0
 0001699,0.00016074,-0.00055747,0.00246828,0.00309599,0.00446770,0.0000
 6683,0.00005848,-0.00037479,-0.03198710,-0.29564797,-0.12296212,0.0336
 5914,0.30623217,0.10695107,-0.03376340,0.03077932,0.00121380,-0.027503
 33,0.00058588,0.00718241,-0.02318624,-0.03182830,-0.01295344,0.0168666
 8,-0.00853490,0.00159250,0.00020828,0.00238891,0.00116897,0.02874846,0
 .00814669,0.00801127,0.00246160,-0.00044679,0.00014305,0.00491885,0.00
 443481,0.00268121,-0.00312388,-0.00415346,-0.00194502,0.33698593,0.014
 76414,0.00805254,0.00812525,0.00218424,-0.08885036,-0.00830857,-0.0193
 5055,0.00808006,-0.00181607,-0.00370997,-0.00578462,-0.00313823,-0.000
 52775,-0.00243621,-0.00047878,0.00755522,-0.00425293,-0.00066004,-0.00
 061285,0.00064329,-0.00038830,0.00750597,-0.00198464,0.00165602,-0.003
 13113,0.00120020,-0.00060004,-0.05344195,0.97561061,-0.00294068,0.0123
 3629,-0.00620527,0.00758257,-0.00858505,-0.05422934,-0.00969757,-0.005
 10753,-0.00891834,0.00280617,-0.00442982,0.00232138,0.00036332,0.00041
 802,-0.00151668,0.00788346,-0.00049573,0.00820617,0.00009147,-0.000344
 21,0.00146208,0.00348513,0.00086692,0.00030648,-0.00171483,-0.00083495
 ,-0.00046238,0.01625237,0.18334480,0.27558846,0.00220483,-0.01255387,-
 0.00359642,-0.06517248,0.05415434,-0.00766638,0.00300805,0.00630087,0.
 00228406,-0.00206918,0.00363290,0.00029913,-0.00138060,0.00088490,-0.0
 0000985,-0.01142554,0.00109249,-0.00226312,-0.00052879,-0.00004691,-0.
 00012259,-0.00091183,-0.00174772,-0.00069366,0.00043373,0.00171601,0.0
 0056993,-0.17257427,0.17696085,0.02264069,0.21810650,-0.00287879,0.009
 72156,0.00068673,0.04401926,-0.01643449,0.00282811,-0.00560856,-0.0066
 1852,-0.00332747,0.00372424,-0.00102810,0.00064760,0.00043330,0.002065
 52,0.00092916,0.00508288,0.00160313,0.00227388,0.00033763,0.00000564,0
 .00012451,-0.00265960,0.00083005,-0.00049248,0.00153329,-0.00141446,0.
 00008449,0.17200781,-0.44225624,-0.04909968,-0.23455219,0.56226410,-0.
 00118693,-0.00176592,0.00317173,-0.01024260,0.00543902,0.01601971,-0.0
 0089940,-0.00018111,0.00055360,0.00032336,0.00060131,0.00054240,-0.000
 03900,0.00097511,-0.00010719,-0.00113976,0.00116338,-0.00197511,-0.000
 01602,0.00002138,-0.00012309,-0.00093454,-0.00023121,-0.00029896,0.000
 54533,0.00008868,0.00008561,0.02125496,-0.04755735,-0.08909380,-0.0126
 1783,0.07701174,0.04916468,0.00647685,-0.00553656,0.00018174,-0.049262
 81,-0.05190182,-0.03121338,-0.00244289,0.01035104,0.00111378,-0.005486
 54,-0.00072438,-0.00150356,0.00020512,-0.00038869,-0.00008346,-0.00500
 266,-0.00258142,-0.00193269,-0.00106555,0.00029814,-0.00002813,-0.0002
 6813,-0.00173344,-0.00000509,-0.00128869,0.00281448,0.00044479,-0.1300
 3868,-0.12819624,-0.04675208,0.03030958,0.01856073,0.00495244,0.157864
 38,0.00602570,-0.00648426,-0.00015487,-0.04030326,-0.01761384,-0.01984
 794,0.00065522,0.00844999,0.00152189,-0.00397470,0.00234553,-0.0003286
 5,0.00073102,0.00073675,0.00040841,-0.00652665,-0.00146974,-0.00205220
 ,-0.00068892,0.00033551,0.00007006,-0.00449068,-0.00257845,-0.00158854
 ,0.00531379,0.00056075,0.00145981,-0.11993804,-0.44802169,-0.12806906,
 0.00415834,-0.10873819,-0.03556502,0.15903816,0.57247762,0.00322116,-0
 .00323421,0.00038055,-0.02821348,-0.02297802,0.00399336,-0.00136133,0.
 00414437,0.00386123,-0.00235816,0.00050118,-0.00095515,0.00020820,0.00
 005099,0.00022374,-0.00297197,-0.00101573,-0.00120094,-0.00029181,0.00
 033248,-0.00064283,-0.00086922,-0.00066553,-0.00115708,0.00123701,0.00
 056366,0.00168103,-0.04460207,-0.13017870,-0.12745876,0.00117603,-0.03
 166658,0.02206043,0.07482564,0.18414610,0.09921442\\-0.00000600,-0.000
 00525,0.00000414,-0.00001057,0.00000584,0.00001160,0.00000040,0.000001
 43,0.00000587,0.00000602,-0.00001006,-0.00000496,0.00000903,-0.0000020
 6,-0.00001071,0.00000495,-0.00000923,-0.00000238,0.00001287,0.00000021
 ,-0.00000954,0.00000022,0.00008466,-0.00000610,-0.00003382,-0.00008444
 ,-0.00001163,-0.00000820,0.00010887,0.00000946,0.00003537,-0.00006376,
 0.00000671,-0.00001027,-0.00002621,0.00000755\\\@
 The archive entry for this job was punched.


 ACHIEVEMENT--  THE MAN WHO ROWS THE BOAT GENERALLY 
                DOESN'T HAVE TIME TO ROCK IT.

                   -- FROM THE BACK OF A SUGAR PACKET
 Job cpu time:       0 days  0 hours 22 minutes 31.2 seconds.
 Elapsed time:       0 days  0 hours  1 minutes 58.9 seconds.
 File lengths (MBytes):  RWF=    139 Int=      0 D2E=      0 Chk=     17 Scr=      1
 Normal termination of Gaussian 16 at Thu Jan 11 13:05:10 2024.
