 Entering Gaussian System, Link 0=g16
 Input=PyrF-isolated-freq.gjf
 Output=PyrF-isolated-freq.log
 Initial command:
 /software/commercial/gaussian/g16/AVX2/g16/l1.exe "/scratch1/svicchi/G09-1734031.pbs02/Gau-118021.inp" -scrdir="/scratch1/svicchi/G09-1734031.pbs02/"
 Entering Link 1 = /software/commercial/gaussian/g16/AVX2/g16/l1.exe PID=    118022.
  
 Copyright (c) 1988-2021, Gaussian, Inc.  All Rights Reserved.
  
 This is part of the Gaussian(R) 16 program.  It is based on
 the Gaussian(R) 09 system (copyright 2009, Gaussian, Inc.),
 the Gaussian(R) 03 system (copyright 2003, Gaussian, Inc.),
 the Gaussian(R) 98 system (copyright 1998, Gaussian, Inc.),
 the Gaussian(R) 94 system (copyright 1995, Gaussian, Inc.),
 the Gaussian 92(TM) system (copyright 1992, Gaussian, Inc.),
 the Gaussian 90(TM) system (copyright 1990, Gaussian, Inc.),
 the Gaussian 88(TM) system (copyright 1988, Gaussian, Inc.),
 the Gaussian 86(TM) system (copyright 1986, Carnegie Mellon
 University), and the Gaussian 82(TM) system (copyright 1983,
 Carnegie Mellon University). Gaussian is a federally registered
 trademark of Gaussian, Inc.
  
 This software contains proprietary and confidential information,
 including trade secrets, belonging to Gaussian, Inc.
  
 This software is provided under written license and may be
 used, copied, transmitted, or stored only in accord with that
 written license.
  
 The following legend is applicable only to US Government
 contracts under FAR:
  
                    RESTRICTED RIGHTS LEGEND
  
 Use, reproduction and disclosure by the US Government is
 subject to restrictions as set forth in subparagraphs (a)
 and (c) of the Commercial Computer Software - Restricted
 Rights clause in FAR 52.227-19.
  
 Gaussian, Inc.
 340 Quinnipiac St., Bldg. 40, Wallingford CT 06492
  
  
 ---------------------------------------------------------------
 Warning -- This program may not be used in any manner that
 competes with the business of Gaussian, Inc. or will provide
 assistance to any competitor of Gaussian, Inc.  The licensee
 of this program is prohibited from giving any competitor of
 Gaussian, Inc. access to this program.  By using this program,
 the user acknowledges that Gaussian, Inc. is engaged in the
 business of creating and licensing software in the field of
 computational chemistry and represents and warrants to the
 licensee that it is not a competitor of Gaussian, Inc. and that
 it will not use this program in any manner prohibited above.
 ---------------------------------------------------------------
  

 Cite this work as:
 Gaussian 16, Revision C.02,
 M. J. Frisch, G. W. Trucks, H. B. Schlegel, G. E. Scuseria, 
 M. A. Robb, J. R. Cheeseman, G. Scalmani, V. Barone, 
 G. A. Petersson, H. Nakatsuji, X. Li, M. Caricato, A. V. Marenich, 
 J. Bloino, B. G. Janesko, R. Gomperts, B. Mennucci, H. P. Hratchian, 
 J. V. Ortiz, A. F. Izmaylov, J. L. Sonnenberg, D. Williams-Young, 
 F. Ding, F. Lipparini, F. Egidi, J. Goings, B. Peng, A. Petrone, 
 T. Henderson, D. Ranasinghe, V. G. Zakrzewski, J. Gao, N. Rega, 
 G. Zheng, W. Liang, M. Hada, M. Ehara, K. Toyota, R. Fukuda, 
 J. Hasegawa, M. Ishida, T. Nakajima, Y. Honda, O. Kitao, H. Nakai, 
 T. Vreven, K. Throssell, J. A. Montgomery, Jr., J. E. Peralta, 
 F. Ogliaro, M. J. Bearpark, J. J. Heyd, E. N. Brothers, K. N. Kudin, 
 V. N. Staroverov, T. A. Keith, R. Kobayashi, J. Normand, 
 K. Raghavachari, A. P. Rendell, J. C. Burant, S. S. Iyengar, 
 J. Tomasi, M. Cossi, J. M. Millam, M. Klene, C. Adamo, R. Cammi, 
 J. W. Ochterski, R. L. Martin, K. Morokuma, O. Farkas, 
 J. B. Foresman, and D. J. Fox, Gaussian, Inc., Wallingford CT, 2019.
 
 ******************************************
 Gaussian 16:  ES64L-G16RevC.02  7-Dec-2021
                14-Dec-2023 
 ******************************************
 %NProcShared=12
 Will use up to   12 processors via shared memory.
 %mem=110gb
 %chk=/scratch1/svicchi/G09-1734031.pbs02/02-freq/PyrF-isolated-freq.chk
 ----------------------------------------------------------------------
 #p freq=raman scale=0.967 guess=read geom=allcheck b3lyp/6-311+G(d,p) 
 int=grid=ultrafine EmpiricalDispersion=GD3BJ SCRF=(Solvent=ethanol) sc
 f=(xqc,intrep,maxconventionalcycle=350) nosymm
 ----------------------------------------------------------------------
 1/10=4,29=7,30=1,38=1,114=967000/1,3;
 2/12=2,15=1,40=1/2;
 3/5=4,6=6,7=111,11=2,14=-4,25=1,30=1,70=2201,71=2,72=4,74=-5,75=-5,116=-2,124=41,140=1/1,2,3;
 4/5=1/1;
 5/5=2,8=3,13=1,17=20,38=6,53=4,85=350,98=1/2,8;
 8/6=4,10=90,11=11/1;
 10/13=10,15=4,31=1/2;
 11/6=3,8=1,9=11,15=111,16=1,31=1/1,2,10;
 10/6=1,31=1/2;
 6/7=2,8=2,9=2,10=2,28=1/1;
 7/8=1,10=1,25=1,30=1/1,2,3,16;
 1/10=4,30=1/3;
 99//99;
 Leave Link    1 at Thu Dec 14 12:23:03 2023, MaxMem= 14763950080 cpu:               0.1 elap:               0.1
 (Enter /software/commercial/gaussian/g16/AVX2/g16/l101.exe)
 Structure from the checkpoint file:  "/scratch1/svicchi/G09-1734031.pbs02/02-freq/PyrF-isolated-freq.chk"
 -------------
 PyrF-isolated
 -------------
 Charge = -1 Multiplicity = 1
 No Z-Matrix found in chk file; cartesian coordinates used.
  C                                                -0.417520534172      0.746035981592      0.186400653339
  C                                                -1.271912055413     -0.219147649980     -0.349902598803
  C                                                -0.440415119091     -1.316096899957     -0.736318936449
  H                                                -2.347337886643     -0.153925766338     -0.454195771036
  C                                                 0.833779798290     -0.887312566760     -0.387437342342
  N                                                 0.897566168473      0.324037778924      0.161091180295
  H                                                -0.672267212556      1.718151748179      0.589134339109
  F                                                 1.998844503977     -1.608307975274     -0.565463230806
  H                                                -0.724727662866     -2.253856650386     -1.190547293306
 Recover connectivity data from disk.
 ITRead=  0  0  0  0  0  0  0  0  0
 MicOpt= -1 -1 -1 -1 -1 -1 -1 -1 -1
 NAtoms=      9 NQM=        9 NQMF=       0 NMMI=      0 NMMIF=      0
                NMic=       0 NMicF=      0.
                    Isotopes and Nuclear Properties:
 (Nuclear quadrupole moments (NQMom) in fm**2, nuclear magnetic moments (NMagM)
  in nuclear magnetons)

  Atom         1           2           3           4           5           6           7           8           9
 IAtWgt=          12          12          12           1          12          14           1          19           1
 AtmWgt=  12.0000000  12.0000000  12.0000000   1.0078250  12.0000000  14.0030740   1.0078250  18.9984032   1.0078250
 NucSpn=           0           0           0           1           0           2           1           1           1
 AtZEff=   3.6000000   3.6000000   3.6000000   1.0000000   3.6000000   4.5500000   1.0000000   6.7500000   1.0000000
 NQMom=    0.0000000   0.0000000   0.0000000   0.0000000   0.0000000   2.0440000   0.0000000   0.0000000   0.0000000
 NMagM=    0.0000000   0.0000000   0.0000000   2.7928460   0.0000000   0.4037610   2.7928460   2.6288670   2.7928460
 AtZNuc=   6.0000000   6.0000000   6.0000000   1.0000000   6.0000000   7.0000000   1.0000000   9.0000000   1.0000000
 Leave Link  101 at Thu Dec 14 12:23:03 2023, MaxMem= 14763950080 cpu:               0.2 elap:               0.2
 (Enter /software/commercial/gaussian/g16/AVX2/g16/l103.exe)

 GradGradGradGradGradGradGradGradGradGradGradGradGradGradGradGradGradGrad
 Berny optimization.
 Initialization pass.
 Trust Radius=3.00D-01 FncErr=1.00D-07 GrdErr=1.00D-07 EigMax=2.50D+02 EigMin=1.00D-04
 Number of steps in this run=      2 maximum allowed number of steps=      2.
 GradGradGradGradGradGradGradGradGradGradGradGradGradGradGradGradGradGrad

 Leave Link  103 at Thu Dec 14 12:23:04 2023, MaxMem= 14763950080 cpu:               0.1 elap:               0.1
 (Enter /software/commercial/gaussian/g16/AVX2/g16/l202.exe)
                          Input orientation:                          
 ---------------------------------------------------------------------
 Center     Atomic      Atomic             Coordinates (Angstroms)
 Number     Number       Type             X           Y           Z
 ---------------------------------------------------------------------
      1          6           0       -0.417521    0.746036    0.186401
      2          6           0       -1.271912   -0.219148   -0.349903
      3          6           0       -0.440415   -1.316097   -0.736319
      4          1           0       -2.347338   -0.153926   -0.454196
      5          6           0        0.833780   -0.887313   -0.387437
      6          7           0        0.897566    0.324038    0.161091
      7          1           0       -0.672267    1.718152    0.589134
      8          9           0        1.998845   -1.608308   -0.565463
      9          1           0       -0.724728   -2.253857   -1.190547
 ---------------------------------------------------------------------
                    Distance matrix (angstroms):
                    1          2          3          4          5
     1  C    0.000000
     2  C    1.396132   0.000000
     3  C    2.259276   1.429686   0.000000
     4  H    2.223621   1.082438   2.250909   0.000000
     5  C    2.136088   2.209478   1.388937   3.265245   0.000000
     6  N    1.381367   2.294080   2.299039   3.337129   1.331286
     7  H    1.082635   2.234836   3.319224   2.720124   3.163908
     8  F    3.456451   3.560068   2.462634   4.584420   1.381631
     9  H    3.315074   2.268509   1.080070   2.754049   2.222920
                    6          7          8          9
     6  N    0.000000
     7  H    2.142697   0.000000
     8  F    2.339798   4.419646   0.000000
     9  H    3.332312   4.352800   2.867980   0.000000
 Symmetry turned off by external request.
 Stoichiometry    C4H3FN(1-)
 Framework group  C1[X(C4H3FN)]
 Deg. of freedom    21
 Full point group                 C1      NOp   1
 Rotational constants (GHZ):           9.2831433           3.5801708           2.5837229
 Leave Link  202 at Thu Dec 14 12:23:04 2023, MaxMem= 14763950080 cpu:               0.1 elap:               0.1
 (Enter /software/commercial/gaussian/g16/AVX2/g16/l301.exe)
 Standard basis: 6-311+G(d,p) (5D, 7F)
 Ernie: Thresh=  0.10000D-02 Tol=  0.10000D-05 Strict=F.
   150 basis functions,   240 primitive gaussians,   156 cartesian basis functions
    22 alpha electrons       22 beta electrons
       nuclear repulsion energy       209.6451440619 Hartrees.
 IExCor=  402 DFT=T Ex+Corr=B3LYP ExCW=0 ScaHFX=  0.200000
 ScaDFX=  0.800000  0.720000  1.000000  0.810000 ScalE2=  1.000000  1.000000
 IRadAn=      5 IRanWt=     -1 IRanGd=            0 ICorTp=0 IEmpDi=141
 NAtoms=    9 NActive=    9 NUniq=    9 SFac= 1.00D+00 NAtFMM=   60 NAOKFM=F Big=F
 Integral buffers will be    131072 words long.
 Raffenetti 2 integral format.
 Two-electron integral symmetry is turned off.
 R6Disp:  Grimme-D3(BJ) Dispersion energy=       -0.0121206197 Hartrees.
 Nuclear repulsion after empirical dispersion term =      209.6330234422 Hartrees.
 Force inversion solution in PCM.
 ------------------------------------------------------------------------------
 Polarizable Continuum Model (PCM)
 =================================
 Model                : PCM.
 Atomic radii         : UFF (Universal Force Field).
 Polarization charges : Total charges.
 Charge compensation  : None.
 Solution method      : Matrix inversion.
 Cavity type          : Scaled VdW (van der Waals Surface) (Alpha=1.100).
 Cavity algorithm     : GePol (No added spheres)
                        Default sphere list used, NSphG=    9.
                        Lebedev-Laikov grids with approx.  5.0 points / Ang**2.
                        Smoothing algorithm: York/Karplus (Gamma=1.0000).
                        Polarization charges: spherical gaussians, with
                                              point-specific exponents (IZeta= 3).
                        Self-potential: point-specific (ISelfS= 7).
                        Self-field    : sphere-specific E.n sum rule (ISelfD= 2).
 1st derivatives      : Analytical E(r).r(x)/FMM algorithm (CHGder, D1EAlg=3).
                        Cavity 1st derivative terms included.
 2nd derivatives      : Analytical E(r).r(xy)/FMM algorithm (CHGder, D2EAlg=3).
                        Cavity 2nd derivative terms included.
 Solvent              : Ethanol, Eps=  24.852000 Eps(inf)=   1.852593
 ------------------------------------------------------------------------------
 Spheres list:
 ISph  on   Nord     Re0    Alpha      Xe            Ye            Ze
    1   C      1    1.9255  1.100     -0.417521      0.746036      0.186401
    2   C      2    1.9255  1.100     -1.271912     -0.219148     -0.349903
    3   C      3    1.9255  1.100     -0.440415     -1.316097     -0.736319
    4   H      4    1.4430  1.100     -2.347338     -0.153926     -0.454196
    5   C      5    1.9255  1.100      0.833780     -0.887313     -0.387437
    6   N      6    1.8300  1.100      0.897566      0.324038      0.161091
    7   H      7    1.4430  1.100     -0.672267      1.718152      0.589134
    8   F      8    1.6820  1.100      1.998845     -1.608308     -0.565463
    9   H      9    1.4430  1.100     -0.724728     -2.253857     -1.190547
 ------------------------------------------------------------------------------
 GePol: Number of generator spheres                  =       9
 GePol: Total number of spheres                      =       9
 GePol: Number of exposed spheres                    =       9 (100.00%)
 GePol: Number of points                             =     968
 GePol: Average weight of points                     =       0.13
 GePol: Minimum weight of points                     =   0.68D-09
 GePol: Maximum weight of points                     =    0.20577
 GePol: Number of points with low weight             =      43
 GePol: Fraction of low-weight points (<1% of avg)   =       4.44%
 GePol: Cavity surface area                          =    128.253 Ang**2
 GePol: Cavity volume                                =    116.744 Ang**3
 Leave Link  301 at Thu Dec 14 12:23:04 2023, MaxMem= 14763950080 cpu:               0.1 elap:               0.1
 (Enter /software/commercial/gaussian/g16/AVX2/g16/l302.exe)
 NPDir=0 NMtPBC=     1 NCelOv=     1 NCel=       1 NClECP=     1 NCelD=      1
         NCelK=      1 NCelE2=     1 NClLst=     1 CellRange=     0.0.
 One-electron integrals computed using PRISM.
 NBasis=   150 RedAO= T EigKep=  1.97D-05  NBF=   150
 NBsUse=   150 1.00D-06 EigRej= -1.00D+00 NBFU=   150
 Precomputing XC quadrature grid using
 IXCGrd= 4 IRadAn=           5 IRanWt=          -1 IRanGd=           0 AccXCQ= 0.00D+00.
 Generated NRdTot=       0 NPtTot=           0 NUsed=           0 NTot=          32
 NSgBfM=   156   156   156   156   156 MxSgAt=     9 MxSgA2=     9.
 Leave Link  302 at Thu Dec 14 12:23:05 2023, MaxMem= 14763950080 cpu:               0.8 elap:               0.2
 (Enter /software/commercial/gaussian/g16/AVX2/g16/l303.exe)
 DipDrv:  MaxL=1.
 Leave Link  303 at Thu Dec 14 12:23:05 2023, MaxMem= 14763950080 cpu:               0.1 elap:               0.1
 (Enter /software/commercial/gaussian/g16/AVX2/g16/l401.exe)
 Initial guess from the checkpoint file:  "/scratch1/svicchi/G09-1734031.pbs02/02-freq/PyrF-isolated-freq.chk"
 B after Tr=     0.000000    0.000000    0.000000
         Rot=    1.000000    0.000000    0.000000    0.000000 Ang=   0.00 deg.
 Guess basis will be translated and rotated to current coordinates.
 JPrj=2 DoOrth=T DoCkMO=T.
 Leave Link  401 at Thu Dec 14 12:23:06 2023, MaxMem= 14763950080 cpu:               0.4 elap:               0.2
 (Enter /software/commercial/gaussian/g16/AVX2/g16/l502.exe)
 Keep R1 ints in memory in canonical form, NReq=75948589.
 FoFCou: FMM=F IPFlag=           0 FMFlag=           0 FMFlg1=           0
         NFxFlg=           0 DoJE=F BraDBF=F KetDBF=F FulRan=T
         wScrn=  0.000000 ICntrl=       600 IOpCl=  0 I1Cent=           0 NGrid=           0
         NMat0=    1 NMatS0=  11325 NMatT0=    0 NMatD0=    1 NMtDS0=    0 NMtDT0=    0
 Symmetry not used in FoFCou.
 Two-electron integral symmetry not used.
 Closed shell SCF:
 Using DIIS extrapolation, IDIIS=  1040.
 NGot= 14763950080 LenX= 14699764647 LenY= 14699739870
 Requested convergence on RMS density matrix=1.00D-08 within 350 cycles.
 Requested convergence on MAX density matrix=1.00D-06.
 Requested convergence on             energy=1.00D-06.
 No special actions if energy rises.

 Cycle   1  Pass 1  IDiag  1:
 Inv3:  Mode=1 IEnd=     2811072.
 Iteration    1 A*A^-1 deviation from unit magnitude is 2.89D-15 for     56.
 Iteration    1 A*A^-1 deviation from orthogonality  is 1.78D-15 for    848    568.
 Iteration    1 A^-1*A deviation from unit magnitude is 2.89D-15 for    363.
 Iteration    1 A^-1*A deviation from orthogonality  is 2.00D-15 for    808    187.
 E= -309.025169775050    
 DIIS: error= 4.00D-08 at cycle   1 NSaved=   1.
 NSaved= 1 IEnMin= 1 EnMin= -309.025169775050     IErMin= 1 ErrMin= 4.00D-08
 ErrMax= 4.00D-08  0.00D+00 EMaxC= 1.00D-01 BMatC= 2.07D-13 BMatP= 2.07D-13
 IDIUse=1 WtCom= 1.00D+00 WtEn= 0.00D+00
 Coeff-Com:  0.100D+01
 Coeff:      0.100D+01
 Gap=     0.192 Goal=   None    Shift=    0.000
 RMSDP=5.73D-09 MaxDP=1.54D-07              OVMax= 2.71D-07

 Error on total polarization charges =  0.02237
 SCF Done:  E(RB3LYP) =  -309.025169775     A.U. after    1 cycles
            NFock=  1  Conv=0.57D-08     -V/T= 2.0039
 KE= 3.078183458626D+02 PE=-1.153931121378D+03 EE= 3.274545822978D+02
 Leave Link  502 at Thu Dec 14 12:23:07 2023, MaxMem= 14763950080 cpu:              13.1 elap:               1.6
 (Enter /software/commercial/gaussian/g16/AVX2/g16/l508.exe)
 QCSCF skips out because SCF is already converged.
 Leave Link  508 at Thu Dec 14 12:23:08 2023, MaxMem= 14763950080 cpu:               0.1 elap:               0.1
 (Enter /software/commercial/gaussian/g16/AVX2/g16/l801.exe)
 DoSCS=F DFT=T ScalE2(SS,OS)=  1.000000  1.000000
 Range of M.O.s used for correlation:     1   150
 NBasis=   150 NAE=    22 NBE=    22 NFC=     0 NFV=     0
 NROrb=    150 NOA=    22 NOB=    22 NVA=   128 NVB=   128

 **** Warning!!: The largest alpha MO coefficient is  0.94762290D+02

 Leave Link  801 at Thu Dec 14 12:23:08 2023, MaxMem= 14763950080 cpu:               0.1 elap:               0.1
 (Enter /software/commercial/gaussian/g16/AVX2/g16/l1002.exe)
 Minotr:  Closed shell wavefunction.
 NEqPCM:  Using equilibrium solvation (IEInf=0, Eps=  24.8520, EpsInf=   1.8526)
          Direct CPHF calculation.
          Differentiating once with respect to electric field.
                with respect to dipole field.
          Electric field/nuclear overlap derivatives assumed to be zero.
          Requested convergence is 1.0D-08 RMS, and 1.0D-07 maximum.
          Secondary convergence is 1.0D-12 RMS, and 1.0D-12 maximum.
          NewPWx=F KeepS1=T KeepF1=T KeepIn=T MapXYZ=F SortEE=F KeepMc=T.
         2739 words used for storage of precomputed grid.
 Keep R1 ints in memory in canonical form, NReq=75914461.
 FoFCou: FMM=F IPFlag=           0 FMFlag=           0 FMFlg1=           0
         NFxFlg=           0 DoJE=F BraDBF=F KetDBF=F FulRan=T
         wScrn=  0.000000 ICntrl=       600 IOpCl=  0 I1Cent=           0 NGrid=           0
         NMat0=    1 NMatS0=  11325 NMatT0=    0 NMatD0=    1 NMtDS0=    0 NMtDT0=    0
 Symmetry not used in FoFCou.
 Two-electron integral symmetry not used.
          MDV=   14763950080 using IRadAn=       1.
          Solving linear equations simultaneously, MaxMat=       0.
          There are     3 degrees of freedom in the 1st order CPHF.  IDoFFX=0 NUNeed=     3.
      3 vectors produced by pass  0 Test12= 9.39D-14 3.33D-08 XBig12= 6.74D+01 4.12D+00.
 AX will form     3 AO Fock derivatives at one time.
      3 vectors produced by pass  1 Test12= 9.39D-14 3.33D-08 XBig12= 3.01D+01 1.64D+00.
      3 vectors produced by pass  2 Test12= 9.39D-14 3.33D-08 XBig12= 2.47D+00 3.99D-01.
      3 vectors produced by pass  3 Test12= 9.39D-14 3.33D-08 XBig12= 1.01D+00 3.06D-01.
      3 vectors produced by pass  4 Test12= 9.39D-14 3.33D-08 XBig12= 8.70D-02 1.25D-01.
      3 vectors produced by pass  5 Test12= 9.39D-14 3.33D-08 XBig12= 2.70D-02 3.69D-02.
      3 vectors produced by pass  6 Test12= 9.39D-14 3.33D-08 XBig12= 1.60D-03 6.35D-03.
      3 vectors produced by pass  7 Test12= 9.39D-14 3.33D-08 XBig12= 3.84D-05 9.71D-04.
      3 vectors produced by pass  8 Test12= 9.39D-14 3.33D-08 XBig12= 9.22D-07 1.62D-04.
      3 vectors produced by pass  9 Test12= 9.39D-14 3.33D-08 XBig12= 3.48D-08 4.25D-05.
      2 vectors produced by pass 10 Test12= 9.39D-14 3.33D-08 XBig12= 8.28D-10 7.10D-06.
      2 vectors produced by pass 11 Test12= 9.39D-14 3.33D-08 XBig12= 2.34D-11 8.24D-07.
      2 vectors produced by pass 12 Test12= 9.39D-14 3.33D-08 XBig12= 7.27D-13 1.40D-07.
 InvSVY:  IOpt=1 It=  1 EMax= 1.97D-15
 Solved reduced A of dimension    36 with     3 vectors.
 End of Minotr F.D. properties file   721 does not exist.
 End of Minotr F.D. properties file   722 does not exist.
 End of Minotr F.D. properties file   788 does not exist.
 Leave Link 1002 at Thu Dec 14 12:23:15 2023, MaxMem= 14763950080 cpu:              72.9 elap:               6.6
 (Enter /software/commercial/gaussian/g16/AVX2/g16/l1101.exe)
 Using compressed storage, NAtomX=     9.
 Will process     10 centers per pass.
 R6Disp: Adding Grimme-D3(BJ) dispersion energy 1st derivatives to the gradient.
 Leave Link 1101 at Thu Dec 14 12:23:15 2023, MaxMem= 14763950080 cpu:               0.8 elap:               0.2
 (Enter /software/commercial/gaussian/g16/AVX2/g16/l1102.exe)
 Symmetrizing basis deriv contribution to polar:
 IMax=3 JMax=2 DiffMx= 0.00D+00
 Leave Link 1102 at Thu Dec 14 12:23:16 2023, MaxMem= 14763950080 cpu:               0.1 elap:               0.1
 (Enter /software/commercial/gaussian/g16/AVX2/g16/l1110.exe)
 Forming Gx(P) for the SCF density, NAtomX=     9.
 Integral derivatives from FoFJK, PRISM(SPDF).
 Do as many integral derivatives as possible in FoFJK.
 G2DrvN: MDV=   14763949035.
 G2DrvN: will do    10 centers at a time, making    1 passes.
 PxScal for G2LodP:  IOpCl= 0 ISclPx=1 IMOff=     1 NMtTot=     4 NTT=   11325 ScalPx= 9.46D+00
 Calling FoFCou, ICntrl=  3107 FMM=F I1Cent=   0 AccDes= 0.00D+00.
 FoFJK:  IHMeth= 1 ICntrl=    3107 DoSepK=F KAlg= 0 I1Cent=           0 FoldK=F
 IRaf=         0 NMat=       1 IRICut=       1 DoRegI=T DoRafI=F ISym2E= 0 IDoP0=0 IntGTp=1.
 FoFCou: FMM=F IPFlag=           0 FMFlag=      100000 FMFlg1=           0
         NFxFlg=           0 DoJE=F BraDBF=F KetDBF=F FulRan=T
         wScrn=  0.000000 ICntrl=      3107 IOpCl=  0 I1Cent=           0 NGrid=           0
         NMat0=    1 NMatS0=      1 NMatT0=    0 NMatD0=    4 NMtDS0=    3 NMtDT0=    0
 Symmetry not used in FoFCou.
 PxScal for G2LodP:  IOpCl= 0 ISclPx=0 IMOff=     1 NMtTot=     4 NTT=   11325 ScalPx= 1.00D+00
 NEqPCM:  Using equilibrium solvation (IEInf=0, Eps=  24.8520, EpsInf=   1.8526)
 G2PCM: DoFxE=T DoFxN=T DoGrad=T DoDP/DQ/DG/TGxP=TFFF NFrqRd=   0 IEInf=0 SqF1=F DoCFld=F IF1Alg=4.
 GePol: Maximum number of non-zero 1st derivatives   =     223
 End of G2Drv F.D. properties file   721 does not exist.
 End of G2Drv F.D. properties file   722 does not exist.
 End of G2Drv F.D. properties file   788 does not exist.
 Leave Link 1110 at Thu Dec 14 12:23:25 2023, MaxMem= 14763950080 cpu:             105.4 elap:               9.1
 (Enter /software/commercial/gaussian/g16/AVX2/g16/l1002.exe)
 Minotr:  Closed shell wavefunction.
          IDoAtm=111111111
 NEqPCM:  Using equilibrium solvation (IEInf=0, Eps=  24.8520, EpsInf=   1.8526)
          Direct CPHF calculation.
          Differentiating once with respect to electric field.
                with respect to dipole field.
          Differentiating once with respect to nuclear coordinates.
          Requested convergence is 1.0D-08 RMS, and 1.0D-07 maximum.
          Secondary convergence is 1.0D-12 RMS, and 1.0D-12 maximum.
          NewPWx=T KeepS1=F KeepF1=F KeepIn=T MapXYZ=F SortEE=F KeepMc=T.
         2739 words used for storage of precomputed grid.
 Keep R1 ints in memory in canonical form, NReq=75915394.
 FoFCou: FMM=F IPFlag=           0 FMFlag=           0 FMFlg1=           0
         NFxFlg=           0 DoJE=F BraDBF=F KetDBF=F FulRan=T
         wScrn=  0.000000 ICntrl=       600 IOpCl=  0 I1Cent=           0 NGrid=           0
         NMat0=    1 NMatS0=  11325 NMatT0=    0 NMatD0=    1 NMtDS0=    0 NMtDT0=    0
 Symmetry not used in FoFCou.
 Two-electron integral symmetry not used.
          MDV=   14763950080 using IRadAn=       1.
          Solving linear equations simultaneously, MaxMat=       0.
          There are    30 degrees of freedom in the 1st order CPHF.  IDoFFX=5 NUNeed=    30.
 Will reuse    3 saved solutions.
     24 vectors produced by pass  0 Test12= 9.39D-15 3.33D-09 XBig12= 1.44D-01 9.17D-02.
 AX will form    24 AO Fock derivatives at one time.
     24 vectors produced by pass  1 Test12= 9.39D-15 3.33D-09 XBig12= 3.01D-02 7.45D-02.
     24 vectors produced by pass  2 Test12= 9.39D-15 3.33D-09 XBig12= 7.00D-04 6.58D-03.
     24 vectors produced by pass  3 Test12= 9.39D-15 3.33D-09 XBig12= 6.78D-06 5.73D-04.
     24 vectors produced by pass  4 Test12= 9.39D-15 3.33D-09 XBig12= 3.23D-08 3.58D-05.
     24 vectors produced by pass  5 Test12= 9.39D-15 3.33D-09 XBig12= 8.15D-11 1.59D-06.
     14 vectors produced by pass  6 Test12= 9.39D-15 3.33D-09 XBig12= 1.29D-13 5.79D-08.
 InvSVY:  IOpt=1 It=  1 EMax= 1.55D-15
 Solved reduced A of dimension   158 with    24 vectors.
 FullF1:  Do perturbations      1 to       3.
 Isotropic polarizability for W=    0.000000       81.20 Bohr**3.
 FullF1:  Do perturbations      1 to       6.
 End of Minotr F.D. properties file   721 does not exist.
 End of Minotr F.D. properties file   722 does not exist.
 End of Minotr F.D. properties file   788 does not exist.
 Leave Link 1002 at Thu Dec 14 12:23:33 2023, MaxMem= 14763950080 cpu:              87.5 elap:               8.0
 (Enter /software/commercial/gaussian/g16/AVX2/g16/l601.exe)
 Copying SCF densities to generalized density rwf, IOpCl= 0 IROHF=0.

 **********************************************************************

            Population analysis using the SCF Density.

 **********************************************************************

 Alpha  occ. eigenvalues --  -24.65920 -14.25789 -10.21713 -10.14416 -10.12667
 Alpha  occ. eigenvalues --  -10.12598  -1.18967  -0.90859  -0.71842  -0.66753
 Alpha  occ. eigenvalues --   -0.54336  -0.53541  -0.48157  -0.44012  -0.42091
 Alpha  occ. eigenvalues --   -0.40382  -0.35941  -0.34331  -0.33599  -0.25320
 Alpha  occ. eigenvalues --   -0.20431  -0.17332
 Alpha virt. eigenvalues --    0.01823   0.03081   0.04128   0.05609   0.05934
 Alpha virt. eigenvalues --    0.07115   0.07292   0.08070   0.08121   0.10014
 Alpha virt. eigenvalues --    0.11129   0.11562   0.11774   0.14831   0.15860
 Alpha virt. eigenvalues --    0.16549   0.16859   0.18349   0.21170   0.21242
 Alpha virt. eigenvalues --    0.21584   0.22233   0.24032   0.24251   0.27310
 Alpha virt. eigenvalues --    0.28732   0.29662   0.31305   0.32680   0.34701
 Alpha virt. eigenvalues --    0.35760   0.38332   0.43092   0.46740   0.49940
 Alpha virt. eigenvalues --    0.53149   0.54708   0.57215   0.59231   0.60819
 Alpha virt. eigenvalues --    0.63487   0.65432   0.65501   0.74181   0.75284
 Alpha virt. eigenvalues --    0.76134   0.77909   0.82063   0.82893   0.86547
 Alpha virt. eigenvalues --    0.87878   0.88794   0.90694   0.94357   0.96453
 Alpha virt. eigenvalues --    1.02612   1.03607   1.10887   1.13367   1.16083
 Alpha virt. eigenvalues --    1.25976   1.26543   1.32621   1.39096   1.44993
 Alpha virt. eigenvalues --    1.46249   1.48025   1.53060   1.58860   1.60440
 Alpha virt. eigenvalues --    1.64391   1.68382   1.76535   1.77411   1.80287
 Alpha virt. eigenvalues --    1.81795   1.85764   1.95725   1.96765   2.01511
 Alpha virt. eigenvalues --    2.01602   2.03175   2.04461   2.09122   2.26935
 Alpha virt. eigenvalues --    2.33548   2.41241   2.42858   2.49855   2.51126
 Alpha virt. eigenvalues --    2.52521   2.64737   2.69568   2.72260   2.75435
 Alpha virt. eigenvalues --    2.78206   2.80271   2.82917   2.89579   2.92309
 Alpha virt. eigenvalues --    3.00834   3.04460   3.19531   3.26252   3.33458
 Alpha virt. eigenvalues --    3.43831   3.45051   3.65946   3.80792   3.80895
 Alpha virt. eigenvalues --    3.95160   3.96376   3.99528   4.09458   4.10687
 Alpha virt. eigenvalues --    4.26825   4.53506   4.86063   5.14917   6.33336
 Alpha virt. eigenvalues --    6.41297   6.73381  23.73251  23.89882  24.09232
 Alpha virt. eigenvalues --   24.18300  35.64381  66.81989
          Condensed to atoms (all electrons):
               1          2          3          4          5          6
     1  C    5.389757   0.446363  -0.196794  -0.031969  -0.087600   0.230652
     2  C    0.446363   5.309156   0.325843   0.379693  -0.044292  -0.044728
     3  C   -0.196794   0.325843   5.735186  -0.008090   0.020258  -0.016603
     4  H   -0.031969   0.379693  -0.008090   0.556892  -0.004762   0.011130
     5  C   -0.087600  -0.044292   0.020258  -0.004762   5.684133   0.262074
     6  N    0.230652  -0.044728  -0.016603   0.011130   0.262074   7.125421
     7  H    0.432840  -0.052685  -0.001949  -0.001659   0.023547  -0.067948
     8  F    0.030227   0.004263  -0.184083  -0.000218   0.189310  -0.086237
     9  H   -0.000296  -0.016202   0.404399  -0.002635  -0.043433   0.008227
               7          8          9
     1  C    0.432840   0.030227  -0.000296
     2  C   -0.052685   0.004263  -0.016202
     3  C   -0.001949  -0.184083   0.404399
     4  H   -0.001659  -0.000218  -0.002635
     5  C    0.023547   0.189310  -0.043433
     6  N   -0.067948  -0.086237   0.008227
     7  H    0.573312  -0.000293  -0.000148
     8  F   -0.000293   9.329419  -0.001012
     9  H   -0.000148  -0.001012   0.546346
 Mulliken charges:
               1
     1  C   -0.213182
     2  C   -0.307411
     3  C   -0.078167
     4  H    0.101618
     5  C    0.000767
     6  N   -0.421989
     7  H    0.094983
     8  F   -0.281375
     9  H    0.104755
 Sum of Mulliken charges =  -1.00000
 Mulliken charges with hydrogens summed into heavy atoms:
               1
     1  C   -0.118199
     2  C   -0.205793
     3  C    0.026589
     5  C    0.000767
     6  N   -0.421989
     8  F   -0.281375
 APT charges:
               1
     1  C    0.024273
     2  C   -0.126562
     3  C   -0.379621
     4  H    0.046553
     5  C    0.882708
     6  N   -0.783542
     7  H    0.030621
     8  F   -0.768832
     9  H    0.074401
 Sum of APT charges =  -1.00000
 APT charges with hydrogens summed into heavy atoms:
               1
     1  C    0.054894
     2  C   -0.080009
     3  C   -0.305220
     5  C    0.882708
     6  N   -0.783542
     8  F   -0.768832
 Electronic spatial extent (au):  <R**2>=            542.8508
 Charge=             -1.0000 electrons
 Dipole moment (field-independent basis, Debye):
    X=             -3.6703    Y=              1.1213    Z=              0.5012  Tot=              3.8704
 Quadrupole moment (field-independent basis, Debye-Ang):
   XX=            -46.6676   YY=            -41.4530   ZZ=            -41.0844
   XY=              1.5191   XZ=              0.3303   YZ=             -0.1052
 Traceless Quadrupole moment (field-independent basis, Debye-Ang):
   XX=             -3.5992   YY=              1.6153   ZZ=              1.9839
   XY=              1.5191   XZ=              0.3303   YZ=             -0.1052
 Octapole moment (field-independent basis, Debye-Ang**2):
  XXX=            -35.1984  YYY=             54.3745  ZZZ=             32.9612  XYY=            -13.7902
  XXY=             22.4739  XXZ=             10.7873  XZZ=             -4.8300  YZZ=             16.5602
  YYZ=             11.2875  XYZ=             -4.3788
 Hexadecapole moment (field-independent basis, Debye-Ang**3):
 XXXX=           -351.8364 YYYY=           -280.5856 ZZZZ=           -109.6030 XXXY=             58.0703
 XXXZ=             11.1581 YYYX=             55.2280 YYYZ=            -42.8586 ZZZX=              2.0799
 ZZZY=            -52.3977 XXYY=           -118.0320 XXZZ=            -77.2886 YYZZ=            -63.0356
 XXYZ=            -20.4188 YYXZ=              6.6697 ZZXY=             16.7031
 N-N= 2.096330234422D+02 E-N=-1.153931125345D+03  KE= 3.078183458626D+02
  Exact polarizability:      89.160       1.624      87.049       4.105      11.481      67.405
 Approx polarizability:     100.962       1.748      97.221       5.415      15.260      70.968
 No NMR shielding tensors so no spin-rotation constants.
 Leave Link  601 at Thu Dec 14 12:23:34 2023, MaxMem= 14763950080 cpu:               0.7 elap:               0.1
 (Enter /software/commercial/gaussian/g16/AVX2/g16/l701.exe)
 ... and contract with generalized density number  0.
 Compute integral second derivatives.
 R6Disp: Adding Grimme-D3(BJ) dispersion energy 2nd derivatives to the Hessian.
 D2PCM: PCM CHGder 2nd derivatives, FixD1E=F FixD2E=F DoIter=F DoCFld=F I1PDM=0
 GePol: Maximum number of non-zero 2nd derivatives   =     223
 Leave Link  701 at Thu Dec 14 12:23:35 2023, MaxMem= 14763950080 cpu:              15.9 elap:               1.6
 (Enter /software/commercial/gaussian/g16/AVX2/g16/l702.exe)
 L702 exits ... SP integral derivatives will be done elsewhere.
 Leave Link  702 at Thu Dec 14 12:23:36 2023, MaxMem= 14763950080 cpu:               0.1 elap:               0.1
 (Enter /software/commercial/gaussian/g16/AVX2/g16/l703.exe)
 Integral derivatives from FoFJK, PRISM(SPDF).
 Compute integral second derivatives, UseDBF=F ICtDFT=           0.
 Calling FoFJK, ICntrl=    100127 FMM=F ISym2X=0 I1Cent= 0 IOpClX= 0 NMat=1 NMatS=1 NMatT=0.
 FoFJK:  IHMeth= 1 ICntrl=  100127 DoSepK=F KAlg= 0 I1Cent=           0 FoldK=F
 IRaf=         0 NMat=       1 IRICut=       1 DoRegI=T DoRafI=F ISym2E= 0 IDoP0=0 IntGTp=1.
 FoFCou: FMM=F IPFlag=           0 FMFlag=      100000 FMFlg1=         800
         NFxFlg=           0 DoJE=F BraDBF=F KetDBF=F FulRan=T
         wScrn=  0.000000 ICntrl=    100127 IOpCl=  0 I1Cent=           0 NGrid=           0
         NMat0=    1 NMatS0=      1 NMatT0=    0 NMatD0=    1 NMtDS0=    0 NMtDT0=    0
 Symmetry not used in FoFCou.
 Leave Link  703 at Thu Dec 14 12:23:46 2023, MaxMem= 14763950080 cpu:             115.9 elap:               9.8
 (Enter /software/commercial/gaussian/g16/AVX2/g16/l716.exe)
 Dipole        =-1.44400965D+00 4.41151683D-01 1.97179566D-01
 Polarizability= 8.91597346D+01 1.62413082D+00 8.70493904D+01
                 4.10546487D+00 1.14811628D+01 6.74045816D+01
 HyperPolar    =-1.49246507D+02 4.65343365D+01-1.65063403D+02
                 1.83808881D+02 8.00064042D+01 6.44515757D+01
                 4.92828371D+00-2.74328457D+02 7.87139163D+01
                -1.86993180D+01
 Full mass-weighted force constant matrix:
 Low frequencies ---  -25.2073   -6.4247   -0.0012   -0.0012   -0.0009   22.5982
 Low frequencies ---  298.5862  428.7559  633.1001
 Diagonal vibrational polarizability:
        9.4279440       7.6911834      13.8332582
 Diagonal vibrational hyperpolarizability:
        2.6065128       4.9800120      30.4054794
 Harmonic frequencies (cm**-1), IR intensities (KM/Mole), Raman scattering
 activities (A**4/AMU), depolarization ratios for plane and unpolarized
 incident light, reduced masses (AMU), force constants (mDyne/A),
 and normal coordinates:
                      1                      2                      3
                      A                      A                      A
 Frequencies --    298.5843               428.7551               633.0998
 Red. masses --      7.6187                 6.6791                 3.3595
 Frc consts  --      0.4002                 0.7234                 0.7933
 IR Inten    --      3.4589                 2.4429                 3.4954
 Raman Activ --      6.9203                 2.8013                 6.7930
 Depolar (P) --      0.7500                 0.6437                 0.7500
 Depolar (U) --      0.8571                 0.7833                 0.8571
  Atom  AN      X      Y      Z        X      Y      Z        X      Y      Z
     1   6     0.02   0.08  -0.17     0.14  -0.03   0.01     0.03   0.09  -0.20
     2   6     0.03   0.10  -0.22    -0.06   0.13   0.05    -0.03  -0.10   0.23
     3   6    -0.03  -0.11   0.25    -0.27  -0.05  -0.05     0.02   0.09  -0.20
     4   1     0.06   0.22  -0.49    -0.06   0.33   0.13    -0.05  -0.18   0.41
     5   6    -0.05  -0.17   0.38    -0.12  -0.21  -0.11    -0.02  -0.09   0.20
     6   7    -0.03  -0.11   0.24    -0.01  -0.26  -0.12    -0.00  -0.01   0.02
     7   1     0.04   0.15  -0.34     0.35   0.01   0.05     0.03   0.10  -0.23
     8   9     0.04   0.13  -0.29     0.22   0.26   0.14     0.00   0.01  -0.01
     9   1    -0.02  -0.08   0.18    -0.57   0.04  -0.05     0.08   0.29  -0.65
                      4                      5                      6
                      A                      A                      A
 Frequencies --    642.1577               659.9732               677.7382
 Red. masses --     11.3138                 2.7104                 1.2624
 Frc consts  --      2.7488                 0.6956                 0.3416
 IR Inten    --     44.9583                68.7723               148.3025
 Raman Activ --     13.7594                25.0106                26.4110
 Depolar (P) --      0.5594                 0.7500                 0.7499
 Depolar (U) --      0.7174                 0.8571                 0.8571
  Atom  AN      X      Y      Z        X      Y      Z        X      Y      Z
     1   6    -0.26   0.13   0.02    -0.01  -0.04   0.10     0.01   0.02  -0.04
     2   6    -0.24   0.15   0.04     0.02   0.06  -0.14     0.00   0.01  -0.02
     3   6    -0.09   0.21   0.08     0.00   0.02  -0.04     0.01   0.05  -0.11
     4   1    -0.25  -0.01  -0.03    -0.05  -0.19   0.42    -0.05  -0.20   0.44
     5   6     0.13  -0.03  -0.00    -0.03  -0.10   0.23     0.00   0.00  -0.00
     6   7    -0.23   0.06   0.00     0.02   0.09  -0.20    -0.01  -0.03   0.07
     7   1    -0.15   0.16   0.03    -0.09  -0.32   0.72     0.00   0.01  -0.02
     8   9     0.50  -0.35  -0.10     0.00   0.00  -0.01    -0.00   0.00  -0.01
     9   1    -0.35   0.28   0.10     0.00   0.01  -0.02    -0.10  -0.35   0.78
                      7                      8                      9
                      A                      A                      A
 Frequencies --    704.3192               802.9645               898.0078
 Red. masses --      1.7861                 1.2271                 5.6305
 Frc consts  --      0.5220                 0.4662                 2.6752
 IR Inten    --     27.3533                 3.8861                 0.4850
 Raman Activ --     30.9852                10.3447                 4.2268
 Depolar (P) --      0.7498                 0.7499                 0.6956
 Depolar (U) --      0.8570                 0.8571                 0.8205
  Atom  AN      X      Y      Z        X      Y      Z        X      Y      Z
     1   6     0.02   0.07  -0.15    -0.01  -0.03   0.07    -0.06   0.32   0.14
     2   6     0.01   0.02  -0.04     0.01   0.04  -0.09     0.38   0.01   0.06
     3   6    -0.01  -0.05   0.11    -0.01  -0.02   0.04     0.08  -0.17  -0.07
     4   1    -0.06  -0.21   0.46    -0.08  -0.29   0.64     0.38  -0.36  -0.12
     5   6     0.01   0.05  -0.11     0.00   0.01  -0.02    -0.06  -0.09  -0.05
     6   7    -0.01  -0.04   0.09    -0.00  -0.01   0.01    -0.27  -0.04  -0.05
     7   1    -0.09  -0.31   0.69     0.07   0.25  -0.56    -0.05   0.33   0.15
     8   9    -0.00  -0.00   0.01    -0.00  -0.00   0.00    -0.01  -0.02  -0.01
     9   1     0.04   0.13  -0.29     0.04   0.13  -0.29    -0.42  -0.02  -0.06
                     10                     11                     12
                      A                      A                      A
 Frequencies --    967.8172              1012.9998              1081.6003
 Red. masses --      3.3928                 1.3618                 1.8217
 Frc consts  --      1.8724                 0.8233                 1.2556
 IR Inten    --     80.9029                46.9449                 6.2098
 Raman Activ --      2.1913                 1.5383                33.4716
 Depolar (P) --      0.4549                 0.5798                 0.0700
 Depolar (U) --      0.6254                 0.7340                 0.1308
  Atom  AN      X      Y      Z        X      Y      Z        X      Y      Z
     1   6     0.01  -0.01  -0.00     0.01   0.02   0.01    -0.04  -0.13  -0.06
     2   6     0.09  -0.02   0.00    -0.05   0.08   0.03     0.11   0.05   0.03
     3   6    -0.18  -0.21  -0.12     0.07  -0.08  -0.03     0.06   0.08   0.04
     4   1     0.10   0.56   0.27    -0.04   0.53   0.23     0.13   0.61   0.29
     5   6    -0.13   0.08   0.02    -0.02  -0.00  -0.00     0.10  -0.04  -0.01
     6   7     0.11   0.20   0.10    -0.08  -0.02  -0.02    -0.09  -0.02  -0.02
     7   1    -0.51  -0.10  -0.11     0.12   0.05   0.04    -0.48  -0.22  -0.16
     8   9     0.09  -0.05  -0.01     0.01  -0.01  -0.00    -0.04   0.02   0.00
     9   1    -0.27  -0.19  -0.12     0.73  -0.28  -0.04    -0.33   0.20   0.05
                     13                     14                     15
                      A                      A                      A
 Frequencies --   1178.4955              1236.4655              1321.5723
 Red. masses --      2.3847                 2.6029                 3.8548
 Frc consts  --      1.9514                 2.3446                 3.9668
 IR Inten    --     37.4852                35.2206                90.6659
 Raman Activ --     15.1760                97.6696                55.5150
 Depolar (P) --      0.1324                 0.0881                 0.6743
 Depolar (U) --      0.2338                 0.1619                 0.8055
  Atom  AN      X      Y      Z        X      Y      Z        X      Y      Z
     1   6     0.18  -0.12  -0.03     0.12  -0.07  -0.02    -0.20   0.04  -0.00
     2   6     0.01  -0.07  -0.03     0.15  -0.04   0.00     0.11  -0.17  -0.06
     3   6    -0.01  -0.01  -0.01    -0.12   0.17   0.06    -0.07   0.06   0.02
     4   1     0.02   0.10   0.05     0.17  -0.32  -0.12     0.13   0.56   0.27
     5   6    -0.00   0.08   0.03    -0.18   0.06   0.00    -0.03   0.28   0.12
     6   7    -0.20   0.12   0.03    -0.08  -0.03  -0.02     0.08  -0.21  -0.09
     7   1     0.86  -0.01   0.10    -0.42  -0.18  -0.13     0.53   0.16   0.14
     8   9     0.01  -0.02  -0.01     0.06  -0.02  -0.00     0.03  -0.02  -0.01
     9   1    -0.32   0.09  -0.00     0.69  -0.05   0.06    -0.08   0.08   0.02
                     16                     17                     18
                      A                      A                      A
 Frequencies --   1409.1327              1460.3461              1490.4245
 Red. masses --      5.3891                 3.0941                 5.3755
 Frc consts  --      6.3048                 3.8877                 7.0355
 IR Inten    --    195.9037                74.3899               124.4797
 Raman Activ --     90.0781                28.6825                53.6982
 Depolar (P) --      0.1153                 0.2602                 0.3861
 Depolar (U) --      0.2068                 0.4129                 0.5572
  Atom  AN      X      Y      Z        X      Y      Z        X      Y      Z
     1   6    -0.11  -0.22  -0.11     0.24   0.10   0.07    -0.01  -0.08  -0.04
     2   6     0.03   0.33   0.15    -0.16  -0.04  -0.04     0.06   0.19   0.09
     3   6     0.24  -0.13  -0.03     0.10  -0.07  -0.02    -0.31  -0.13  -0.10
     4   1     0.03  -0.55  -0.24    -0.19   0.03  -0.01     0.06  -0.54  -0.24
     5   6    -0.27   0.19   0.05     0.00   0.19   0.09     0.39   0.17   0.12
     6   7     0.05  -0.06  -0.02    -0.06  -0.13  -0.07    -0.07  -0.07  -0.04
     7   1     0.21  -0.19  -0.06    -0.77  -0.06  -0.12    -0.06  -0.12  -0.06
     8   9     0.05  -0.03  -0.01     0.00  -0.02  -0.01    -0.05   0.01  -0.00
     9   1    -0.39   0.07  -0.02    -0.40   0.07  -0.02     0.29  -0.36  -0.13
                     19                     20                     21
                      A                      A                      A
 Frequencies --   3174.2450              3194.7363              3220.3613
 Red. masses --      1.0870                 1.0980                 1.0994
 Frc consts  --      6.4527                 6.6026                 6.7177
 IR Inten    --     17.7708                57.9453                14.7079
 Raman Activ --    196.7716               173.3893               315.0276
 Depolar (P) --      0.7265                 0.3078                 0.2504
 Depolar (U) --      0.8416                 0.4708                 0.4005
  Atom  AN      X      Y      Z        X      Y      Z        X      Y      Z
     1   6     0.02  -0.06  -0.03    -0.01   0.05   0.02    -0.00   0.01   0.00
     2   6    -0.05   0.00  -0.00    -0.07   0.00  -0.01    -0.03   0.00  -0.00
     3   6     0.00   0.01   0.00     0.01   0.02   0.01    -0.02  -0.07  -0.04
     4   1     0.59  -0.04   0.06     0.74  -0.04   0.07     0.29  -0.02   0.03
     5   6     0.00   0.00   0.00    -0.00  -0.00  -0.00     0.01   0.00   0.00
     6   7    -0.00  -0.00  -0.00     0.00  -0.00  -0.00    -0.00   0.00   0.00
     7   1    -0.18   0.71   0.29     0.13  -0.53  -0.22     0.02  -0.10  -0.04
     8   9     0.00  -0.00  -0.00     0.00   0.00   0.00    -0.00   0.00  -0.00
     9   1    -0.03  -0.08  -0.04    -0.08  -0.26  -0.13     0.25   0.82   0.40

 -------------------
 - Thermochemistry -
 -------------------
 Temperature   298.150 Kelvin.  Pressure   1.00000 Atm.
 Thermochemistry will use frequencies scaled by 0.9670.
 Atom     1 has atomic number  6 and mass  12.00000
 Atom     2 has atomic number  6 and mass  12.00000
 Atom     3 has atomic number  6 and mass  12.00000
 Atom     4 has atomic number  1 and mass   1.00783
 Atom     5 has atomic number  6 and mass  12.00000
 Atom     6 has atomic number  7 and mass  14.00307
 Atom     7 has atomic number  1 and mass   1.00783
 Atom     8 has atomic number  9 and mass  18.99840
 Atom     9 has atomic number  1 and mass   1.00783
 Molecular mass:    84.02495 amu.
 Principal axes and moments of inertia in atomic units:
                           1         2         3
     Eigenvalues --   194.41057 504.09361 698.50417
           X            0.83558   0.53779  -0.11222
           Y           -0.53268   0.74313  -0.40498
           Z           -0.13440   0.39817   0.90741
 This molecule is an asymmetric top.
 Rotational symmetry number  1.
 Rotational temperatures (Kelvin)      0.44552     0.17182     0.12400
 Rotational constants (GHZ):           9.28314     3.58017     2.58372
 Zero-point vibrational energy     153238.6 (Joules/Mol)
                                   36.62492 (Kcal/Mol)
 Warning -- explicit consideration of   3 degrees of freedom as
           vibrations may cause significant error
 Vibrational temperatures:    415.42   596.53   880.83   893.43   918.22
          (Kelvin)            942.94   979.92  1117.16  1249.40  1346.52
                             1409.38  1504.83  1639.64  1720.29  1838.70
                             1960.52  2031.78  2073.62  4416.32  4444.83
                             4480.48
 
 Zero-point correction=                           0.058366 (Hartree/Particle)
 Thermal correction to Energy=                    0.062959
 Thermal correction to Enthalpy=                  0.063904
 Thermal correction to Gibbs Free Energy=         0.030592
 Sum of electronic and zero-point Energies=           -308.966804
 Sum of electronic and thermal Energies=              -308.962210
 Sum of electronic and thermal Enthalpies=            -308.961266
 Sum of electronic and thermal Free Energies=         -308.994578
 
                     E (Thermal)             CV                S
                      KCal/Mol        Cal/Mol-Kelvin    Cal/Mol-Kelvin
 Total                   39.508             17.170             70.110
 Electronic               0.000              0.000              0.000
 Translational            0.889              2.981             39.199
 Rotational               0.889              2.981             25.729
 Vibrational             37.730             11.208              5.181
 Vibration     1          0.685              1.695              1.481
 Vibration     2          0.778              1.439              0.910
 Vibration     3          0.971              1.006              0.429
                       Q            Log10(Q)             Ln(Q)
 Total Bot       0.848442D-14        -14.071378        -32.400544
 Total V=0       0.595488D+13         12.774873         29.415233
 Vib (Bot)       0.299234D-26        -26.523990        -61.073743
 Vib (Bot)    1  0.662780D+00         -0.178631         -0.411312
 Vib (Bot)    2  0.425248D+00         -0.371358         -0.855084
 Vib (Bot)    3  0.240836D+00         -0.618278         -1.423638
 Vib (V=0)       0.210020D+01          0.322261          0.742034
 Vib (V=0)    1  0.133023D+01          0.123926          0.285350
 Vib (V=0)    2  0.115638D+01          0.063101          0.145295
 Vib (V=0)    3  0.105498D+01          0.023244          0.053521
 Electronic      0.100000D+01          0.000000          0.000000
 Translational   0.302738D+08          7.481066         17.225792
 Rotational      0.936582D+05          4.971546         11.447407
 
                                                            PyrF-isolated
                                                             IR Spectrum
 
     333                                                                  11 1  1   1 1   1  1                                       
     211                                                                  44 4  3   2 1   0  09  8   8  76666       4    2           
     297                                                                  96 0  2   3 7   8  16  9   0  07643       2    9           
     054                                                                  00 9  2   6 8   2  38  8   3  48023       9    9           
 
     XXX                                                                  XX X  X   X X   X  XX  X   X  XXXXX       X    X           
     XXX                                                                  XX X  X   X X      XX         XXXX                         
      X                                                                   XX X  X   X X      XX         XXXX                         
      X                                                                   XX X  X   X X      XX          XXX                         
      X                                                                   XX X  X            XX          XXX                         
      X                                                                   XX X  X             X          XX                          
                                                                          XX X  X             X          XX                          
                                                                          XX X  X             X          X                           
                                                                          X  X  X                        X                           
                                                                          X  X                           X                           
                                                                          X  X                           X                           
                                                                          X  X                           X                           
                                                                          X  X                           X                           
                                                                             X                           X                           
                                                                             X                           X                           
                                                                             X                                                       
                                                                             X                                                       
                                                                             X                                                       
                                                                             X                                                       
                                                                             X                                                       
 
 
                                                            PyrF-isolated
                                                            Raman Spectrum
 
     333                                                                  11 1  1   1 1   1  1                                       
     211                                                                  44 4  3   2 1   0  09  8   8  76666       4    2           
     297                                                                  96 0  2   3 7   8  16  9   0  07643       2    9           
     054                                                                  00 9  2   6 8   2  38  8   3  48023       9    9           
 
     XXX                                                                  XX X  X   X X   X  XX  X   X  XXXXX       X    X           
     XXX                                                                  XX X  X   X     X             XXX                          
     XXX                                                                  X  X  X   X                                                
     XXX                                                                     X  X   X                                                
     XXX                                                                     X      X                                                
     XXX                                                                     X      X                                                
     XXX                                                                                                                             
     XXX                                                                                                                             
     XXX                                                                                                                             
     XXX                                                                                                                             
     XXX                                                                                                                             
     X X                                                                                                                             
     X                                                                                                                               
     X                                                                                                                               
     X                                                                                                                               
     X                                                                                                                               
     X                                                                                                                               
     X                                                                                                                               
     X                                                                                                                               
     X                                                                                                                               
 
 -------------------------------------------------------------------
 Center     Atomic                   Forces (Hartrees/Bohr)
 Number     Number              X              Y              Z
 -------------------------------------------------------------------
      1        6          -0.000074298    0.000023685    0.000000800
      2        6           0.000007071   -0.000009783    0.000011041
      3        6          -0.000002478   -0.000018042    0.000002591
      4        1          -0.000006282   -0.000009658    0.000005800
      5        6           0.000015482   -0.000055885   -0.000030819
      6        7           0.000053633    0.000048341    0.000012855
      7        1          -0.000008422    0.000007153    0.000000360
      8        9           0.000016640    0.000014373   -0.000010163
      9        1          -0.000001347   -0.000000184    0.000007536
 -------------------------------------------------------------------
 Cartesian Forces:  Max     0.000074298 RMS     0.000025322
 Force constants in Cartesian coordinates: 
                1             2             3             4             5 
      1  0.529429D+00
      2 -0.509784D-01  0.698090D+00
      3  0.291343D-01  0.255538D+00  0.228513D+00
      4 -0.172893D+00 -0.106270D+00 -0.617840D-01  0.793655D+00
      5 -0.976116D-01 -0.202709D+00 -0.763510D-01 -0.145861D-01  0.458842D+00
      6 -0.580395D-01 -0.772954D-01 -0.100247D+00  0.796139D-01  0.157514D+00
      7  0.484980D-02  0.207591D-01  0.793252D-02 -0.157726D+00  0.749697D-01
      8 -0.198305D-01 -0.593486D-01 -0.358322D-01  0.910943D-01 -0.192571D+00
      9 -0.101098D-01 -0.308052D-01  0.568967D-03  0.273940D-01 -0.534668D-01
     10 -0.820663D-02  0.749475D-02  0.268254D-02 -0.334317D+00  0.181553D-01
     11 -0.178210D-01  0.890837D-02  0.305249D-02  0.186909D-01 -0.525462D-01
     12 -0.859940D-02  0.619009D-02 -0.119194D-02 -0.305811D-01 -0.122751D-01
     13 -0.217501D-01  0.323568D-01  0.102806D-01 -0.660100D-01  0.462955D-01
     14  0.667875D-01 -0.680485D-01 -0.269296D-01 -0.834024D-03  0.151283D-01
     15  0.257210D-01 -0.313515D-01  0.354135D-03 -0.100136D-01  0.749947D-02
     16 -0.250921D+00  0.368204D-01 -0.629550D-02 -0.769265D-01 -0.286436D-01
     17  0.608396D-01 -0.926685D-01 -0.460254D-02  0.104392D-01 -0.329930D-02
     18  0.435306D-02 -0.752133D-02 -0.681336D-01 -0.699010D-02 -0.127129D-01
     19 -0.672167D-01  0.505881D-01  0.165446D-01  0.109338D-01 -0.145941D-01
     20  0.540114D-01 -0.276702D+00 -0.108694D+00  0.909475D-02 -0.908570D-02
     21  0.180726D-01 -0.109123D+00 -0.648945D-01  0.550984D-02 -0.549312D-02
     22 -0.962071D-02  0.500691D-02  0.375061D-03 -0.871192D-02  0.258574D-02
     23  0.273067D-02 -0.503893D-02 -0.423107D-02  0.295401D-02 -0.580123D-02
     24 -0.598683D-03 -0.396020D-02  0.335777D-02 -0.260895D-03 -0.409527D-02
     25 -0.367129D-02  0.422270D-02  0.112983D-02  0.119947D-01  0.134291D-01
     26  0.187217D-02 -0.248241D-02 -0.195027D-02 -0.105827D-01 -0.795737D-02
     27  0.664147D-04 -0.167183D-02  0.167310D-02 -0.288808D-02 -0.619337D-03
                6             7             8             9            10 
      6  0.182494D+00
      7  0.202964D-01  0.555085D+00
      8 -0.514462D-01  0.722131D-01  0.662513D+00
      9 -0.732763D-01  0.895669D-01  0.263579D+00  0.221148D+00
     10 -0.308130D-01 -0.635995D-02 -0.488242D-02 -0.275306D-02  0.353498D+00
     11 -0.122064D-01  0.203818D-01  0.528680D-02  0.568824D-02 -0.198072D-01
     12 -0.294909D-01  0.851883D-02  0.255240D-02  0.394644D-03  0.326801D-01
     13  0.110420D-01 -0.282996D+00 -0.939338D-01 -0.696874D-01 -0.688936D-03
     14  0.153668D-02 -0.585403D-01 -0.113555D+00 -0.322988D-01  0.889965D-03
     15  0.135839D-01 -0.538917D-01 -0.366332D-01 -0.800628D-01  0.104638D-03
     16 -0.244424D-01 -0.128118D-01 -0.785404D-02 -0.693248D-02 -0.278005D-02
     17 -0.785186D-02 -0.553073D-01 -0.409708D-01 -0.316998D-01 -0.198659D-02
     18  0.107018D-01 -0.280948D-01 -0.258479D-01 -0.191348D-03 -0.225172D-02
     19 -0.507073D-02 -0.192702D-02 -0.255014D-02 -0.192676D-02  0.212668D-04
     20 -0.259892D-02 -0.314857D-02 -0.124295D-02 -0.293144D-02 -0.705430D-03
     21 -0.253301D-02 -0.217276D-02 -0.288075D-02  0.290115D-02  0.519770D-04
     22 -0.424602D-03 -0.225009D-01  0.298817D-01  0.104802D-01 -0.123906D-02
     23 -0.404319D-02 -0.469198D-02  0.730293D-02  0.231256D-02  0.510517D-03
     24  0.221542D-02 -0.499077D-02  0.660970D-02  0.317772D-02 -0.117355D-03
     25  0.783784D-02 -0.756132D-01 -0.641383D-01 -0.360317D-01  0.719356D-04
     26 -0.360881D-02 -0.666356D-01 -0.267414D+00 -0.120378D+00  0.331141D-03
     27 -0.344709D-02 -0.371646D-01 -0.120101D+00 -0.746600D-01  0.415843D-03
               11            12            13            14            15 
     11  0.430238D-01
     12  0.862325D-02  0.263329D-01
     13  0.680063D-03  0.112525D-04  0.673303D+00
     14 -0.469827D-02 -0.273730D-02 -0.219309D-01  0.545047D+00
     15 -0.276332D-02  0.460606D-03  0.587045D-01  0.186342D+00  0.210790D+00
     16 -0.419696D-02 -0.323995D-02 -0.101847D+00 -0.256204D-01 -0.161368D-01
     17 -0.164701D-03 -0.399842D-02 -0.358601D-01 -0.279191D+00 -0.997904D-01
     18 -0.426947D-02  0.605933D-02 -0.206506D-01 -0.985454D-01 -0.112447D+00
     19  0.777094D-03  0.716894D-03 -0.520444D-02 -0.313704D-03 -0.112829D-02
     20 -0.369387D-03  0.107107D-02  0.155148D-02  0.179781D-02 -0.239102D-03
     21  0.124995D-02 -0.239200D-02 -0.317195D-03 -0.474617D-03  0.249828D-02
     22  0.261157D-02  0.819082D-03 -0.197546D+00  0.616756D-01  0.586112D-02
     23  0.520072D-03 -0.404935D-03  0.656063D-01 -0.935797D-01 -0.235704D-01
     24 -0.147197D-03  0.148887D-02  0.760796D-02 -0.240571D-01 -0.316897D-01
     25 -0.131617D-02 -0.325726D-03  0.273883D-02 -0.221137D-01 -0.922089D-02
     26  0.395044D-04  0.978977D-03  0.523462D-02 -0.289948D-02  0.506713D-03
     27  0.772483D-03 -0.166144D-02  0.300874D-02 -0.283562D-02 -0.348690D-02
               16            17            18            19            20 
     16  0.455961D+00
     17 -0.164195D-01  0.448931D+00
     18  0.370809D-01  0.154353D+00  0.172084D+00
     19 -0.653505D-02  0.289607D-01  0.129922D-01  0.699743D-01
     20  0.271855D-02 -0.616005D-02  0.758750D-03 -0.650320D-01  0.292318D+00
     21  0.126828D-02  0.401350D-02 -0.515908D-02 -0.226118D-01  0.114421D+00
     22  0.943867D-03  0.130737D-01  0.662866D-02 -0.103334D-02  0.704866D-03
     23  0.436737D-01 -0.272196D-01 -0.370989D-02  0.275227D-02 -0.356794D-03
     24  0.203000D-01 -0.750286D-02 -0.762929D-02  0.852877D-03 -0.966931D-03
     25 -0.508327D-02 -0.373984D-02 -0.306753D-02  0.987291D-03  0.804963D-03
     26 -0.478021D-03  0.743582D-03 -0.250463D-02 -0.588289D-03 -0.198903D-03
     27 -0.160207D-02 -0.292037D-02  0.471535D-02 -0.368976D-03 -0.820632D-03
               21            22            23            24            25 
     21  0.664524D-01
     22 -0.496916D-04  0.238230D+00
     23 -0.718324D-03 -0.113821D+00  0.123953D+00
     24  0.167543D-02 -0.234257D-01  0.330738D-01  0.294633D-01
     25  0.248729D-03  0.147764D-02  0.285541D-03  0.632545D-03  0.670974D-01
     26 -0.994889D-03 -0.171900D-02  0.219823D-03  0.104606D-02  0.725657D-01
     27  0.145131D-02 -0.264180D-03  0.129151D-02 -0.205951D-02  0.387969D-01
               26            27 
     26  0.279949D+00
     27  0.126905D+00  0.774752D-01
 Leave Link  716 at Thu Dec 14 12:23:46 2023, MaxMem= 14763950080 cpu:               0.2 elap:               0.1
 (Enter /software/commercial/gaussian/g16/AVX2/g16/l103.exe)

 GradGradGradGradGradGradGradGradGradGradGradGradGradGradGradGradGradGrad
 Berny optimization.
 Search for a local minimum.
 Step number   1 out of a maximum of    2
 All quantities printed in internal units (Hartrees-Bohrs-Radians)
 Second derivative matrix not updated -- analytic derivatives used.
 ITU=  0
     Eigenvalues ---    0.01995   0.02567   0.04027   0.04366   0.04920
     Eigenvalues ---    0.06055   0.06481   0.16395   0.19679   0.20335
     Eigenvalues ---    0.20638   0.22030   0.27863   0.41301   0.57723
     Eigenvalues ---    0.72743   0.85302   0.89925   1.00315   1.16200
     Eigenvalues ---    1.19201
 Angle between quadratic step and forces=  54.02 degrees.
 Linear search not attempted -- first point.
 B after Tr=     0.000023   -0.000005    0.000001
         Rot=    1.000000    0.000000    0.000000    0.000001 Ang=   0.00 deg.
 Variable       Old X    -DE/DX   Delta X   Delta X   Delta X     New X
                                 (Linear)    (Quad)   (Total)
    X1       -0.78900  -0.00007   0.00000  -0.00010  -0.00008  -0.78908
    Y1        1.40980   0.00002   0.00000   0.00006   0.00006   1.40986
    Z1        0.35225   0.00000   0.00000   0.00002   0.00002   0.35227
    X2       -2.40357   0.00001   0.00000   0.00002   0.00004  -2.40352
    Y2       -0.41413  -0.00001   0.00000   0.00000   0.00000  -0.41413
    Z2       -0.66122   0.00001   0.00000   0.00001   0.00001  -0.66121
    X3       -0.83226  -0.00000   0.00000   0.00001   0.00003  -0.83224
    Y3       -2.48706  -0.00002   0.00000  -0.00001  -0.00001  -2.48707
    Z3       -1.39144   0.00000   0.00000  -0.00001  -0.00001  -1.39145
    X4       -4.43583  -0.00001   0.00000   0.00000   0.00002  -4.43580
    Y4       -0.29088  -0.00001   0.00000  -0.00008  -0.00008  -0.29095
    Z4       -0.85831   0.00001   0.00000  -0.00002  -0.00002  -0.85832
    X5        1.57562   0.00002   0.00000   0.00005   0.00007   1.57569
    Y5       -1.67678  -0.00006   0.00000  -0.00006  -0.00007  -1.67685
    Z5       -0.73215  -0.00003   0.00000  -0.00004  -0.00004  -0.73219
    X6        1.69615   0.00005   0.00000   0.00008   0.00010   1.69626
    Y6        0.61234   0.00005   0.00000   0.00006   0.00006   0.61240
    Z6        0.30442   0.00001   0.00000   0.00003   0.00003   0.30445
    X7       -1.27040  -0.00001   0.00000  -0.00014  -0.00011  -1.27051
    Y7        3.24684   0.00001   0.00000   0.00008   0.00008   3.24691
    Z7        1.11330   0.00000   0.00000   0.00001   0.00001   1.11332
    X8        3.77727   0.00002   0.00000   0.00005   0.00007   3.77734
    Y8       -3.03926   0.00001   0.00000  -0.00007  -0.00008  -3.03934
    Z8       -1.06857  -0.00001   0.00000  -0.00001  -0.00001  -1.06858
    X9       -1.36954  -0.00000   0.00000  -0.00017  -0.00015  -1.36969
    Y9       -4.25917  -0.00000   0.00000   0.00006   0.00005  -4.25912
    Z9       -2.24981   0.00001   0.00000  -0.00001  -0.00001  -2.24981
         Item               Value     Threshold  Converged?
 Maximum Force            0.000074     0.000450     YES
 RMS     Force            0.000025     0.000300     YES
 Maximum Displacement     0.000149     0.001800     YES
 RMS     Displacement     0.000061     0.001200     YES
 Predicted change in Energy=-1.206790D-08
 Optimization completed.
    -- Stationary point found.
 GradGradGradGradGradGradGradGradGradGradGradGradGradGradGradGradGradGrad

 Leave Link  103 at Thu Dec 14 12:23:47 2023, MaxMem= 14763950080 cpu:               0.1 elap:               0.1
 (Enter /software/commercial/gaussian/g16/AVX2/g16/l9999.exe)

 ----------------------------------------------------------------------

 Electric dipole moment (input orientation):
 (Debye = 10**-18 statcoulomb cm , SI units = C m)
                  (au)            (Debye)         (10**-30 SI)
   Tot        0.152271D+01      0.387035D+01      0.129101D+02
   x         -0.144401D+01     -0.367031D+01     -0.122428D+02
   y          0.441152D+00      0.112130D+01      0.374024D+01
   z          0.197180D+00      0.501180D+00      0.167176D+01

 Dipole polarizability, Alpha (input orientation).
 (esu units = cm**3 , SI units = C**2 m**2 J**-1)
 Alpha(0;0):
               (au)            (10**-24 esu)      (10**-40 SI)
   iso        0.812046D+02      0.120333D+02      0.133888D+02
   aniso      0.297617D+02      0.441023D+01      0.490704D+01
   xx         0.891597D+02      0.132121D+02      0.147005D+02
   yx         0.162413D+01      0.240671D+00      0.267783D+00
   yy         0.870494D+02      0.128994D+02      0.143525D+02
   zx         0.410546D+01      0.608367D+00      0.676900D+00
   zy         0.114812D+02      0.170133D+01      0.189299D+01
   zz         0.674046D+02      0.998833D+01      0.111135D+02

 First dipole hyperpolarizability, Beta (input orientation).
 ||, _|_  parallel and perpendicular components, (z) with respect to z axis,
 vector components x,y,z.  Values do not include the 1/n! factor of 1/2.
 (esu units = statvolt**-1 cm**4 , SI units = C**3 m**3 J**-2)
 Beta(0;0,0):
               (au)            (10**-30 esu)      (10**-50 SI)
   || (z)     0.397412D+02      0.343333D+00      0.127425D+00
   _|_(z)     0.132471D+02      0.114444D+00      0.424749D-01
   x         -0.176592D+04     -0.152561D+02     -0.566216D+01
   y          0.927171D+03      0.801004D+01      0.297285D+01
   z          0.198706D+03      0.171667D+01      0.637124D+00
   ||         0.400878D+03      0.346328D+01      0.128536D+01
   xxx       -0.149247D+03     -0.128937D+01     -0.478538D+00
   xxy        0.465343D+02      0.402020D+00      0.149206D+00
   yxy       -0.165063D+03     -0.142602D+01     -0.529253D+00
   yyy        0.183809D+03      0.158797D+01      0.589358D+00
   xxz        0.800064D+02      0.691193D+00      0.256529D+00
   yxz        0.644516D+02      0.556811D+00      0.206655D+00
   yyz        0.492828D+01      0.425765D-01      0.158019D-01
   zxz       -0.274328D+03     -0.236998D+01     -0.879596D+00
   zyz        0.787139D+02      0.680027D+00      0.252385D+00
   zzz       -0.186993D+02     -0.161548D+00     -0.599568D-01

 ----------------------------------------------------------------------

 Dipole orientation:
     6          0.51616171          1.01107086          1.20227150
     6         -1.21763245         -0.77643710          2.07373053
     6         -2.09409750         -2.10156666         -0.11147100
     1         -1.78873338         -1.09957660          4.01113604
     6         -0.78105390         -0.95680425         -2.07477045
     7          0.78331344          0.89121978         -1.39166107
     1          1.58661291          2.37400519          2.28955573
     9         -0.98279346         -1.58504041         -4.60092130
     1         -3.44864726         -3.62399385         -0.22652491

 Electric dipole moment (dipole orientation):
 (Debye = 10**-18 statcoulomb cm , SI units = C m)
                  (au)            (Debye)         (10**-30 SI)
   Tot        0.152271D+01      0.387035D+01      0.129101D+02
   x          0.000000D+00      0.000000D+00      0.000000D+00
   y          0.000000D+00      0.000000D+00      0.000000D+00
   z          0.152271D+01      0.387035D+01      0.129101D+02

 Dipole polarizability, Alpha (dipole orientation).
 (esu units = cm**3 , SI units = C**2 m**2 J**-1)
 Alpha(0;0):
               (au)            (10**-24 esu)      (10**-40 SI)
   iso        0.812046D+02      0.120333D+02      0.133888D+02
   aniso      0.297617D+02      0.441023D+01      0.490704D+01
   xx         0.765152D+02      0.113384D+02      0.126156D+02
   yx         0.158785D+02      0.235295D+01      0.261801D+01
   yy         0.795200D+02      0.117836D+02      0.131111D+02
   zx        -0.316670D+01     -0.469256D+00     -0.522118D+00
   zy         0.608745D+00      0.902066D-01      0.100368D+00
   zz         0.875785D+02      0.129778D+02      0.144398D+02

 First dipole hyperpolarizability, Beta (dipole orientation).
 ||, _|_  parallel and perpendicular components, (z) with respect to z axis,
 vector components x,y,z.  Values do not include the 1/n! factor of 1/2.
 (esu units = statvolt**-1 cm**4 , SI units = C**3 m**3 J**-2)
 Beta(0;0,0):
               (au)            (10**-30 esu)      (10**-50 SI)
   || (z)     0.393797D+03      0.340210D+01      0.126266D+01
   _|_(z)     0.131266D+03      0.113403D+01      0.420885D+00
   x          0.540624D+02      0.467057D+00      0.173344D+00
   y          0.371160D+03      0.320653D+01      0.119007D+01
   z          0.196899D+04      0.170105D+02      0.631328D+01
   ||         0.400878D+03      0.346328D+01      0.128536D+01
   xxx       -0.898441D+02     -0.776183D+00     -0.288073D+00
   xxy        0.615593D+02      0.531824D+00      0.197381D+00
   yxy        0.104216D+02      0.900341D-01      0.334153D-01
   yyy        0.170737D+02      0.147504D+00      0.547445D-01
   xxz        0.204635D+03      0.176789D+01      0.656134D+00
   yxz       -0.980925D+02     -0.847443D+00     -0.314520D+00
   yyz        0.215610D+03      0.186270D+01      0.691324D+00
   zxz        0.974434D+02      0.841835D+00      0.312439D+00
   zyz        0.450869D+02      0.389516D+00      0.144565D+00
   zzz        0.236083D+03      0.203958D+01      0.756969D+00

 ----------------------------------------------------------------------
 Unable to Open any file for archive entry.
 1\1\GINC-SKYLM003\Freq\RB3LYP\6-311+G(d,p)\C4H3F1N1(1-)\SVICCHI\14-Dec
 -2023\0\\#p freq=raman scale=0.967 guess=read geom=allcheck b3lyp/6-31
 1+G(d,p) int=grid=ultrafine EmpiricalDispersion=GD3BJ SCRF=(Solvent=et
 hanol) scf=(xqc,intrep,maxconventionalcycle=350) nosymm\\PyrF-isolated
 \\-1,1\C,-0.4175205342,0.7460359816,0.1864006533\C,-1.2719120554,-0.21
 914765,-0.3499025988\C,-0.4404151191,-1.3160969,-0.7363189364\H,-2.347
 3378866,-0.1539257663,-0.454195771\C,0.8337797983,-0.8873125668,-0.387
 4373423\N,0.8975661685,0.3240377789,0.1610911803\H,-0.6722672126,1.718
 1517482,0.5891343391\F,1.998844504,-1.6083079753,-0.5654632308\H,-0.72
 47276629,-2.2538566504,-1.1905472933\\Version=ES64L-G16RevC.02\HF=-309
 .0251698\RMSD=5.731e-09\RMSF=2.532e-05\ZeroPoint=0.0583655\Thermal=0.0
 629593\ETot=-308.9622104\HTot=-308.9612662\GTot=-308.9945777\Dipole=-0
 .8836037,-0.5676661,-0.362737\DipoleDeriv=0.5662541,0.0182891,0.125611
 4,0.0263643,-0.1702528,0.0990228,0.1287258,0.099637,-0.3231821,-0.2743
 245,-0.1226044,-0.0322064,-0.1390573,0.2230607,0.2835277,-0.0397177,0.
 2846586,-0.3284223,-0.2553766,0.0613864,0.0492981,-0.1864447,-0.446733
 6,-0.0297582,-0.0610009,0.0026164,-0.4367524,-0.2176072,0.0267201,-0.0
 487008,0.0318911,0.1232339,-0.0599765,-0.0457963,-0.0606588,0.2340328,
 1.4878244,-0.3946952,0.0098771,-0.2973966,0.9944641,0.4157497,0.052121
 9,0.4044469,0.1658365,-1.0633417,-0.288813,-0.2142384,-0.0997926,-0.80
 0542,-0.2041362,-0.1302503,-0.2279601,-0.4867419,0.0488887,0.0566492,0
 .0004033,0.0891618,-0.132105,-0.1584306,0.0150169,-0.1638003,0.1750794
 ,-1.3812819,0.688687,0.1565219,0.6211246,-0.7069387,-0.1664633,0.12790
 8,-0.1585798,-0.2182746,0.0889648,-0.0456192,-0.0465662,-0.0458507,-0.
 0841867,-0.1795354,-0.0470074,-0.18036,0.2184246\Polar=89.1597346,1.62
 41308,87.0493904,4.1054649,11.4811628,67.4045816\PolarDeriv=5.2157434,
 -4.9686572,-2.8872196,-2.0047057,-5.604193,1.8972148,8.123004,-1.12912
 98,12.1736348,-0.1214824,-4.5801566,6.9866116,4.6896056,-1.7281487,-4.
 7912845,-2.5455882,6.1301178,12.6821564,-2.7002397,-1.597879,-4.799950
 5,1.5203766,2.9678405,-10.13034,-0.9167085,5.716287,-6.8453803,6.79625
 ,-0.5545454,-2.2101952,1.4524736,6.3768585,-3.1101431,-5.4741586,0.149
 8759,-4.9267955,2.3671859,5.5527775,-10.1675649,3.9909462,-0.7217796,-
 3.9084134,-2.5087562,-4.4852659,-4.2055343,0.9471259,5.0647408,-3.8522
 419,0.4073941,1.9603854,4.5481206,-3.5553792,-4.3464679,-10.9440649,-1
 6.8026773,0.8606637,-0.6769254,-2.20783,-0.5006153,0.187497,1.4939415,
 -0.982575,-0.1666562,-1.6246372,-0.1340322,-0.3712822,-2.1815176,-1.68
 25212,-0.0086026,2.049548,-0.4331001,0.4661963,5.482454,-0.8299145,20.
 490926,-2.8795609,2.2620722,17.5169283,-16.8644411,-3.0214765,5.669932
 3,-7.3257736,5.2169023,0.6374779,-9.0598227,-4.8523261,9.9933931,5.642
 6691,-2.3077252,-0.3644115,3.3579031,7.0566777,7.120305,3.141418,3.217
 6788,2.3371702,11.2989424,3.7867912,-5.9446289,2.2324416,-3.0906718,-4
 .0538415,4.8382454,0.971637,-5.3754922,3.5541161,2.070884,2.7248472,-1
 .1012009,2.6337928,-2.9814469,0.9454453,-0.4966364,-0.1029478,1.464274
 2,-2.9119561,10.6278546,-1.4636783,6.1729306,2.5430286,0.2849291,-0.96
 98966,7.423131,0.5672839,0.0166927,-1.5873825,5.9557873,-6.6735702,-3.
 5754302,-1.3161905,0.5405588,-6.7681404,-0.3122676,5.4974418,-0.613311
 2,2.1943166,-1.686792,3.4913784,0.724105,1.8418183,-1.2636846,0.215338
 1,-0.1775591,1.108875,-1.7749556,-2.0338908,-2.5226935,-1.1898989,-1.6
 649261,-1.0289687,-1.7779887,-2.4701167,-10.6959108,-1.6345626,-6.4083
 757,-3.1709357,-1.1554126,-1.9178065,-7.4154377,-0.4538292,-1.1027181,
 0.8405796\HyperPolar=-149.2465071,46.5343365,-165.0634032,183.8088806,
 80.0064042,64.4515757,4.9282837,-274.3284565,78.7139163,-18.699318\Qua
 drupole=-2.6759281,1.2009377,1.4749904,1.1294363,0.2455817,-0.0781809\
 PG=C01 [X(C4H3F1N1)]\NImag=0\\0.52942935,-0.05097836,0.69808970,0.0291
 3433,0.25553844,0.22851337,-0.17289277,-0.10627035,-0.06178401,0.79365
 530,-0.09761155,-0.20270949,-0.07635102,-0.01458610,0.45884193,-0.0580
 3945,-0.07729536,-0.10024730,0.07961389,0.15751407,0.18249355,0.004849
 80,0.02075908,0.00793252,-0.15772601,0.07496970,0.02029639,0.55508459,
 -0.01983049,-0.05934858,-0.03583223,0.09109434,-0.19257093,-0.05144617
 ,0.07221313,0.66251277,-0.01010981,-0.03080519,0.00056897,0.02739404,-
 0.05346677,-0.07327633,0.08956693,0.26357926,0.22114805,-0.00820663,0.
 00749475,0.00268254,-0.33431658,0.01815529,-0.03081297,-0.00635995,-0.
 00488242,-0.00275306,0.35349800,-0.01782103,0.00890837,0.00305249,0.01
 869088,-0.05254623,-0.01220643,0.02038177,0.00528680,0.00568824,-0.019
 80722,0.04302384,-0.00859940,0.00619009,-0.00119194,-0.03058109,-0.012
 27513,-0.02949093,0.00851883,0.00255240,0.00039464,0.03268011,0.008623
 25,0.02633286,-0.02175013,0.03235678,0.01028065,-0.06600999,0.04629551
 ,0.01104203,-0.28299558,-0.09393376,-0.06968736,-0.00068894,0.00068006
 ,0.00001125,0.67330311,0.06678754,-0.06804849,-0.02692960,-0.00083402,
 0.01512833,0.00153668,-0.05854031,-0.11355532,-0.03229878,0.00088997,-
 0.00469827,-0.00273730,-0.02193095,0.54504663,0.02572095,-0.03135147,0
 .00035414,-0.01001360,0.00749947,0.01358388,-0.05389168,-0.03663320,-0
 .08006282,0.00010464,-0.00276332,0.00046061,0.05870452,0.18634173,0.21
 078987,-0.25092088,0.03682036,-0.00629550,-0.07692648,-0.02864362,-0.0
 2444240,-0.01281175,-0.00785404,-0.00693248,-0.00278005,-0.00419696,-0
 .00323995,-0.10184699,-0.02562043,-0.01613677,0.45596060,0.06083964,-0
 .09266855,-0.00460254,0.01043920,-0.00329930,-0.00785186,-0.05530725,-
 0.04097083,-0.03169984,-0.00198659,-0.00016470,-0.00399842,-0.03586005
 ,-0.27919147,-0.09979040,-0.01641951,0.44893089,0.00435306,-0.00752133
 ,-0.06813363,-0.00699010,-0.01271289,0.01070182,-0.02809484,-0.0258479
 2,-0.00019135,-0.00225172,-0.00426947,0.00605933,-0.02065060,-0.098545
 41,-0.11244734,0.03708091,0.15435277,0.17208418,-0.06721674,0.05058813
 ,0.01654459,0.01093376,-0.01459407,-0.00507073,-0.00192702,-0.00255014
 ,-0.00192676,0.00002127,0.00077709,0.00071689,-0.00520444,-0.00031370,
 -0.00112829,-0.00653505,0.02896075,0.01299216,0.06997428,0.05401142,-0
 .27670162,-0.10869420,0.00909475,-0.00908570,-0.00259892,-0.00314857,-
 0.00124295,-0.00293144,-0.00070543,-0.00036939,0.00107107,0.00155148,0
 .00179781,-0.00023910,0.00271855,-0.00616005,0.00075875,-0.06503204,0.
 29231759,0.01807259,-0.10912315,-0.06489446,0.00550984,-0.00549312,-0.
 00253301,-0.00217276,-0.00288075,0.00290115,0.00005198,0.00124995,-0.0
 0239200,-0.00031720,-0.00047462,0.00249828,0.00126828,0.00401350,-0.00
 515908,-0.02261176,0.11442140,0.06645239,-0.00962071,0.00500691,0.0003
 7506,-0.00871192,0.00258574,-0.00042460,-0.02250089,0.02988165,0.01048
 022,-0.00123906,0.00261157,0.00081908,-0.19754586,0.06167561,0.0058611
 2,0.00094387,0.01307366,0.00662866,-0.00103334,0.00070487,-0.00004969,
 0.23823028,0.00273067,-0.00503893,-0.00423107,0.00295401,-0.00580123,-
 0.00404319,-0.00469198,0.00730293,0.00231256,0.00051052,0.00052007,-0.
 00040494,0.06560632,-0.09357973,-0.02357042,0.04367367,-0.02721958,-0.
 00370989,0.00275227,-0.00035679,-0.00071832,-0.11382101,0.12395344,-0.
 00059868,-0.00396020,0.00335777,-0.00026089,-0.00409527,0.00221542,-0.
 00499077,0.00660970,0.00317772,-0.00011736,-0.00014720,0.00148887,0.00
 760796,-0.02405708,-0.03168971,0.02029999,-0.00750286,-0.00762929,0.00
 085288,-0.00096693,0.00167543,-0.02342567,0.03307376,0.02946330,-0.003
 67129,0.00422270,0.00112983,0.01199469,0.01342910,0.00783784,-0.075613
 19,-0.06413828,-0.03603172,0.00007194,-0.00131617,-0.00032573,0.002738
 83,-0.02211370,-0.00922089,-0.00508327,-0.00373984,-0.00306753,0.00098
 729,0.00080496,0.00024873,0.00147764,0.00028554,0.00063254,0.06709736,
 0.00187217,-0.00248241,-0.00195027,-0.01058271,-0.00795737,-0.00360881
 ,-0.06663558,-0.26741389,-0.12037805,0.00033114,0.00003950,0.00097898,
 0.00523462,-0.00289948,0.00050671,-0.00047802,0.00074358,-0.00250463,-
 0.00058829,-0.00019890,-0.00099489,-0.00171900,0.00021982,0.00104606,0
 .07256568,0.27994915,0.00006641,-0.00167183,0.00167310,-0.00288808,-0.
 00061934,-0.00344709,-0.03716461,-0.12010110,-0.07466003,0.00041584,0.
 00077248,-0.00166144,0.00300874,-0.00283562,-0.00348690,-0.00160207,-0
 .00292037,0.00471535,-0.00036898,-0.00082063,0.00145131,-0.00026418,0.
 00129151,-0.00205951,0.03879692,0.12690490,0.07747521\\0.00007430,-0.0
 0002368,-0.00000080,-0.00000707,0.00000978,-0.00001104,0.00000248,0.00
 001804,-0.00000259,0.00000628,0.00000966,-0.00000580,-0.00001548,0.000
 05588,0.00003082,-0.00005363,-0.00004834,-0.00001285,0.00000842,-0.000
 00715,-0.00000036,-0.00001664,-0.00001437,0.00001016,0.00000135,0.0000
 0018,-0.00000754\\\@
 The archive entry for this job was punched.


 OUR LITTLE SYSTEMS HAVE THEIR DAY,    
   THEY HAVE THEIR DAY AND CEASE TO BE.
   THEY ARE BUT BROKEN LIGHTS OF THEE, 
 AND THOU, OH LORD, ART MORE THAN THEY.
          -------------------          
 LET KNOWLEDGE GROW FROM MORE TO MORE, 
   BUT MORE OF REVERENCE IN US DWELL.  
   THAT MIND AND SOUL, ACCORDING WELL, 
 MAY MAKE ONE MUSIC AS BEFORE.....     
          -------------------          
                    LORD TENNYSON      
 Job cpu time:       0 days  0 hours  6 minutes 55.0 seconds.
 Elapsed time:       0 days  0 hours  0 minutes 38.5 seconds.
 File lengths (MBytes):  RWF=     80 Int=      0 D2E=      0 Chk=     10 Scr=      1
 Normal termination of Gaussian 16 at Thu Dec 14 12:23:47 2023.
