 Entering Gaussian System, Link 0=g16
 Input=PyrMeOH-isolated-freq.gjf
 Output=PyrMeOH-isolated-freq.log
 Initial command:
 /software/commercial/gaussian/g16/AVX2/g16/l1.exe "/scratch1/svicchi/G09-1734056.pbs02/Gau-1659154.inp" -scrdir="/scratch1/svicchi/G09-1734056.pbs02/"
 Entering Link 1 = /software/commercial/gaussian/g16/AVX2/g16/l1.exe PID=   1659155.
  
 Copyright (c) 1988-2021, Gaussian, Inc.  All Rights Reserved.
  
 This is part of the Gaussian(R) 16 program.  It is based on
 the Gaussian(R) 09 system (copyright 2009, Gaussian, Inc.),
 the Gaussian(R) 03 system (copyright 2003, Gaussian, Inc.),
 the Gaussian(R) 98 system (copyright 1998, Gaussian, Inc.),
 the Gaussian(R) 94 system (copyright 1995, Gaussian, Inc.),
 the Gaussian 92(TM) system (copyright 1992, Gaussian, Inc.),
 the Gaussian 90(TM) system (copyright 1990, Gaussian, Inc.),
 the Gaussian 88(TM) system (copyright 1988, Gaussian, Inc.),
 the Gaussian 86(TM) system (copyright 1986, Carnegie Mellon
 University), and the Gaussian 82(TM) system (copyright 1983,
 Carnegie Mellon University). Gaussian is a federally registered
 trademark of Gaussian, Inc.
  
 This software contains proprietary and confidential information,
 including trade secrets, belonging to Gaussian, Inc.
  
 This software is provided under written license and may be
 used, copied, transmitted, or stored only in accord with that
 written license.
  
 The following legend is applicable only to US Government
 contracts under FAR:
  
                    RESTRICTED RIGHTS LEGEND
  
 Use, reproduction and disclosure by the US Government is
 subject to restrictions as set forth in subparagraphs (a)
 and (c) of the Commercial Computer Software - Restricted
 Rights clause in FAR 52.227-19.
  
 Gaussian, Inc.
 340 Quinnipiac St., Bldg. 40, Wallingford CT 06492
  
  
 ---------------------------------------------------------------
 Warning -- This program may not be used in any manner that
 competes with the business of Gaussian, Inc. or will provide
 assistance to any competitor of Gaussian, Inc.  The licensee
 of this program is prohibited from giving any competitor of
 Gaussian, Inc. access to this program.  By using this program,
 the user acknowledges that Gaussian, Inc. is engaged in the
 business of creating and licensing software in the field of
 computational chemistry and represents and warrants to the
 licensee that it is not a competitor of Gaussian, Inc. and that
 it will not use this program in any manner prohibited above.
 ---------------------------------------------------------------
  

 Cite this work as:
 Gaussian 16, Revision C.02,
 M. J. Frisch, G. W. Trucks, H. B. Schlegel, G. E. Scuseria, 
 M. A. Robb, J. R. Cheeseman, G. Scalmani, V. Barone, 
 G. A. Petersson, H. Nakatsuji, X. Li, M. Caricato, A. V. Marenich, 
 J. Bloino, B. G. Janesko, R. Gomperts, B. Mennucci, H. P. Hratchian, 
 J. V. Ortiz, A. F. Izmaylov, J. L. Sonnenberg, D. Williams-Young, 
 F. Ding, F. Lipparini, F. Egidi, J. Goings, B. Peng, A. Petrone, 
 T. Henderson, D. Ranasinghe, V. G. Zakrzewski, J. Gao, N. Rega, 
 G. Zheng, W. Liang, M. Hada, M. Ehara, K. Toyota, R. Fukuda, 
 J. Hasegawa, M. Ishida, T. Nakajima, Y. Honda, O. Kitao, H. Nakai, 
 T. Vreven, K. Throssell, J. A. Montgomery, Jr., J. E. Peralta, 
 F. Ogliaro, M. J. Bearpark, J. J. Heyd, E. N. Brothers, K. N. Kudin, 
 V. N. Staroverov, T. A. Keith, R. Kobayashi, J. Normand, 
 K. Raghavachari, A. P. Rendell, J. C. Burant, S. S. Iyengar, 
 J. Tomasi, M. Cossi, J. M. Millam, M. Klene, C. Adamo, R. Cammi, 
 J. W. Ochterski, R. L. Martin, K. Morokuma, O. Farkas, 
 J. B. Foresman, and D. J. Fox, Gaussian, Inc., Wallingford CT, 2019.
 
 ******************************************
 Gaussian 16:  ES64L-G16RevC.02  7-Dec-2021
                14-Dec-2023 
 ******************************************
 %NProcShared=12
 Will use up to   12 processors via shared memory.
 %mem=110gb
 %chk=/scratch1/svicchi/G09-1734056.pbs02/02-freq/PyrMeOH-isolated-freq.chk
 ----------------------------------------------------------------------
 #p freq=raman scale=0.967 guess=read geom=allcheck b3lyp/6-311+G(d,p) 
 int=grid=ultrafine EmpiricalDispersion=GD3BJ SCRF=(Solvent=ethanol) sc
 f=(xqc,intrep,maxconventionalcycle=350) nosymm
 ----------------------------------------------------------------------
 1/10=4,29=7,30=1,38=1,114=967000/1,3;
 2/12=2,15=1,40=1/2;
 3/5=4,6=6,7=111,11=2,14=-4,25=1,30=1,70=2201,71=2,72=4,74=-5,75=-5,116=-2,124=41,140=1/1,2,3;
 4/5=1/1;
 5/5=2,8=3,13=1,17=20,38=6,53=4,85=350,98=1/2,8;
 8/6=4,10=90,11=11/1;
 10/13=10,15=4,31=1/2;
 11/6=3,8=1,9=11,15=111,16=1,31=1/1,2,10;
 10/6=1,31=1/2;
 6/7=2,8=2,9=2,10=2,28=1/1;
 7/8=1,10=1,25=1,30=1/1,2,3,16;
 1/10=4,30=1/3;
 99//99;
 Leave Link    1 at Thu Dec 14 13:25:24 2023, MaxMem= 14763950080 cpu:               0.1 elap:               0.1
 (Enter /software/commercial/gaussian/g16/AVX2/g16/l101.exe)
 Structure from the checkpoint file:  "/scratch1/svicchi/G09-1734056.pbs02/02-freq/PyrMeOH-isolated-freq.chk"
 ----------------
 PyrMeOH-isolated
 ----------------
 Charge = -1 Multiplicity = 1
 No Z-Matrix found in chk file; cartesian coordinates used.
  C                                                -0.404624604425      0.759849991860      0.221980770435
  C                                                -1.260612453516     -0.185994734732     -0.362091099585
  C                                                -0.425015557642     -1.259456397976     -0.762247074678
  H                                                -2.335366370022     -0.112727051973     -0.471849470427
  C                                                 0.877762075288     -0.894927233588     -0.388155689379
  N                                                 0.892194538119      0.336914222593      0.212943746102
  H                                                -0.673400118032      1.716944526125      0.655780646275
  C                                                 2.149995948618     -1.621616689178     -0.639641080767
  H                                                -0.721665294886     -2.176457314761     -1.256237564081
  H                                                 1.964050926797     -2.667739187723     -0.890172021034
  H                                                 2.799288083600     -1.586819434333      0.244490224972
  O                                                 2.904855372018     -1.083952631588     -1.769818425665
  H                                                 2.831316454082     -0.124909064726     -1.695462962167
 Recover connectivity data from disk.
 ITRead=  0  0  0  0  0  0  0  0  0  0  0  0  0
 MicOpt= -1 -1 -1 -1 -1 -1 -1 -1 -1 -1 -1 -1 -1
 NAtoms=     13 NQM=       13 NQMF=       0 NMMI=      0 NMMIF=      0
                NMic=       0 NMicF=      0.
                    Isotopes and Nuclear Properties:
 (Nuclear quadrupole moments (NQMom) in fm**2, nuclear magnetic moments (NMagM)
  in nuclear magnetons)

  Atom         1           2           3           4           5           6           7           8           9          10
 IAtWgt=          12          12          12           1          12          14           1          12           1           1
 AtmWgt=  12.0000000  12.0000000  12.0000000   1.0078250  12.0000000  14.0030740   1.0078250  12.0000000   1.0078250   1.0078250
 NucSpn=           0           0           0           1           0           2           1           0           1           1
 AtZEff=   3.6000000   3.6000000   3.6000000   1.0000000   3.6000000   4.5500000   1.0000000   3.6000000   1.0000000   1.0000000
 NQMom=    0.0000000   0.0000000   0.0000000   0.0000000   0.0000000   2.0440000   0.0000000   0.0000000   0.0000000   0.0000000
 NMagM=    0.0000000   0.0000000   0.0000000   2.7928460   0.0000000   0.4037610   2.7928460   0.0000000   2.7928460   2.7928460
 AtZNuc=   6.0000000   6.0000000   6.0000000   1.0000000   6.0000000   7.0000000   1.0000000   6.0000000   1.0000000   1.0000000

  Atom        11          12          13
 IAtWgt=           1          16           1
 AtmWgt=   1.0078250  15.9949146   1.0078250
 NucSpn=           1           0           1
 AtZEff=   1.0000000   5.6000000   1.0000000
 NQMom=    0.0000000   0.0000000   0.0000000
 NMagM=    2.7928460   0.0000000   2.7928460
 AtZNuc=   1.0000000   8.0000000   1.0000000
 Leave Link  101 at Thu Dec 14 13:25:24 2023, MaxMem= 14763950080 cpu:               0.1 elap:               0.1
 (Enter /software/commercial/gaussian/g16/AVX2/g16/l103.exe)

 GradGradGradGradGradGradGradGradGradGradGradGradGradGradGradGradGradGrad
 Berny optimization.
 Initialization pass.
 Trust Radius=3.00D-01 FncErr=1.00D-07 GrdErr=1.00D-07 EigMax=2.50D+02 EigMin=1.00D-04
 Number of steps in this run=      2 maximum allowed number of steps=      2.
 GradGradGradGradGradGradGradGradGradGradGradGradGradGradGradGradGradGrad

 Leave Link  103 at Thu Dec 14 13:25:24 2023, MaxMem= 14763950080 cpu:               0.1 elap:               0.0
 (Enter /software/commercial/gaussian/g16/AVX2/g16/l202.exe)
                          Input orientation:                          
 ---------------------------------------------------------------------
 Center     Atomic      Atomic             Coordinates (Angstroms)
 Number     Number       Type             X           Y           Z
 ---------------------------------------------------------------------
      1          6           0       -0.404625    0.759850    0.221981
      2          6           0       -1.260612   -0.185995   -0.362091
      3          6           0       -0.425016   -1.259456   -0.762247
      4          1           0       -2.335366   -0.112727   -0.471849
      5          6           0        0.877762   -0.894927   -0.388156
      6          7           0        0.892195    0.336914    0.212944
      7          1           0       -0.673400    1.716945    0.655781
      8          6           0        2.149996   -1.621617   -0.639641
      9          1           0       -0.721665   -2.176457   -1.256238
     10          1           0        1.964051   -2.667739   -0.890172
     11          1           0        2.799288   -1.586819    0.244490
     12          8           0        2.904855   -1.083953   -1.769818
     13          1           0        2.831316   -0.124909   -1.695463
 ---------------------------------------------------------------------
                    Distance matrix (angstroms):
                    1          2          3          4          5
     1  C    0.000000
     2  C    1.403024   0.000000
     3  C    2.246490   1.417980   0.000000
     4  H    2.229474   1.082825   2.246944   0.000000
     5  C    2.180612   2.252978   1.403587   3.308026   0.000000
     6  N    1.364073   2.288816   2.287890   3.329905   1.370752
     7  H    1.084644   2.236528   3.306276   2.716869   3.212130
     8  C    3.597202   3.710835   2.603243   4.735333   1.486574
     9  H    3.302657   2.247644   1.083014   2.734644   2.225770
    10  H    4.312293   4.103216   2.776196   5.018772   2.138903
    11  H    3.971451   4.337401   3.393644   5.389876   2.138041
    12  O    4.280132   4.487666   3.483395   5.485246   2.460453
    13  H    3.864027   4.304125   3.572364   5.309613   2.473531
                    6          7          8          9         10
     6  N    0.000000
     7  H    2.133465   0.000000
     8  C    2.478872   4.560227   0.000000
     9  H    3.328674   4.337824   2.989060   0.000000
    10  H    3.375453   5.345238   1.091656   2.754711   0.000000
    11  H    2.709013   4.810777   1.097488   3.872592   1.775800
    12  O    3.162438   5.150968   1.461573   3.822170   2.041389
    13  H    2.759618   4.604759   1.954250   4.126191   2.804751
                   11         12         13
    11  H    0.000000
    12  O    2.078812   0.000000
    13  H    2.429326   0.964729   0.000000
 Symmetry turned off by external request.
 Stoichiometry    C5H6NO(1-)
 Framework group  C1[X(C5H6NO)]
 Deg. of freedom    33
 Full point group                 C1      NOp   1
 Rotational constants (GHZ):           6.8872968           1.9201838           1.6607454
 Leave Link  202 at Thu Dec 14 13:25:25 2023, MaxMem= 14763950080 cpu:               0.0 elap:               0.0
 (Enter /software/commercial/gaussian/g16/AVX2/g16/l301.exe)
 Standard basis: 6-311+G(d,p) (5D, 7F)
 Ernie: Thresh=  0.10000D-02 Tol=  0.10000D-05 Strict=F.
   190 basis functions,   300 primitive gaussians,   197 cartesian basis functions
    26 alpha electrons       26 beta electrons
       nuclear repulsion energy       276.3793773203 Hartrees.
 IExCor=  402 DFT=T Ex+Corr=B3LYP ExCW=0 ScaHFX=  0.200000
 ScaDFX=  0.800000  0.720000  1.000000  0.810000 ScalE2=  1.000000  1.000000
 IRadAn=      5 IRanWt=     -1 IRanGd=            0 ICorTp=0 IEmpDi=141
 NAtoms=   13 NActive=   13 NUniq=   13 SFac= 1.00D+00 NAtFMM=   60 NAOKFM=F Big=F
 Integral buffers will be    131072 words long.
 Raffenetti 2 integral format.
 Two-electron integral symmetry is turned off.
 R6Disp:  Grimme-D3(BJ) Dispersion energy=       -0.0187702469 Hartrees.
 Nuclear repulsion after empirical dispersion term =      276.3606070734 Hartrees.
 Force inversion solution in PCM.
 ------------------------------------------------------------------------------
 Polarizable Continuum Model (PCM)
 =================================
 Model                : PCM.
 Atomic radii         : UFF (Universal Force Field).
 Polarization charges : Total charges.
 Charge compensation  : None.
 Solution method      : Matrix inversion.
 Cavity type          : Scaled VdW (van der Waals Surface) (Alpha=1.100).
 Cavity algorithm     : GePol (No added spheres)
                        Default sphere list used, NSphG=   13.
                        Lebedev-Laikov grids with approx.  5.0 points / Ang**2.
                        Smoothing algorithm: York/Karplus (Gamma=1.0000).
                        Polarization charges: spherical gaussians, with
                                              point-specific exponents (IZeta= 3).
                        Self-potential: point-specific (ISelfS= 7).
                        Self-field    : sphere-specific E.n sum rule (ISelfD= 2).
 1st derivatives      : Analytical E(r).r(x)/FMM algorithm (CHGder, D1EAlg=3).
                        Cavity 1st derivative terms included.
 2nd derivatives      : Analytical E(r).r(xy)/FMM algorithm (CHGder, D2EAlg=3).
                        Cavity 2nd derivative terms included.
 Solvent              : Ethanol, Eps=  24.852000 Eps(inf)=   1.852593
 ------------------------------------------------------------------------------
 Spheres list:
 ISph  on   Nord     Re0    Alpha      Xe            Ye            Ze
    1   C      1    1.9255  1.100     -0.404625      0.759850      0.221981
    2   C      2    1.9255  1.100     -1.260612     -0.185995     -0.362091
    3   C      3    1.9255  1.100     -0.425016     -1.259456     -0.762247
    4   H      4    1.4430  1.100     -2.335366     -0.112727     -0.471849
    5   C      5    1.9255  1.100      0.877762     -0.894927     -0.388156
    6   N      6    1.8300  1.100      0.892195      0.336914      0.212944
    7   H      7    1.4430  1.100     -0.673400      1.716945      0.655781
    8   C      8    1.9255  1.100      2.149996     -1.621617     -0.639641
    9   H      9    1.4430  1.100     -0.721665     -2.176457     -1.256238
   10   H     10    1.4430  1.100      1.964051     -2.667739     -0.890172
   11   H     11    1.4430  1.100      2.799288     -1.586819      0.244490
   12   O     12    1.7500  1.100      2.904855     -1.083953     -1.769818
   13   H     13    1.4430  1.100      2.831316     -0.124909     -1.695463
 ------------------------------------------------------------------------------
 GePol: Number of generator spheres                  =      13
 GePol: Total number of spheres                      =      13
 GePol: Number of exposed spheres                    =      13 (100.00%)
 GePol: Number of points                             =    1169
 GePol: Average weight of points                     =       0.14
 GePol: Minimum weight of points                     =   0.83D-07
 GePol: Maximum weight of points                     =    0.20577
 GePol: Number of points with low weight             =      53
 GePol: Fraction of low-weight points (<1% of avg)   =       4.53%
 GePol: Cavity surface area                          =    158.227 Ang**2
 GePol: Cavity volume                                =    148.806 Ang**3
 Leave Link  301 at Thu Dec 14 13:25:25 2023, MaxMem= 14763950080 cpu:               0.1 elap:               0.1
 (Enter /software/commercial/gaussian/g16/AVX2/g16/l302.exe)
 NPDir=0 NMtPBC=     1 NCelOv=     1 NCel=       1 NClECP=     1 NCelD=      1
         NCelK=      1 NCelE2=     1 NClLst=     1 CellRange=     0.0.
 One-electron integrals computed using PRISM.
 NBasis=   190 RedAO= T EigKep=  1.17D-05  NBF=   190
 NBsUse=   190 1.00D-06 EigRej= -1.00D+00 NBFU=   190
 Precomputing XC quadrature grid using
 IXCGrd= 4 IRadAn=           5 IRanWt=          -1 IRanGd=           0 AccXCQ= 0.00D+00.
 Generated NRdTot=       0 NPtTot=           0 NUsed=           0 NTot=          32
 NSgBfM=   197   197   197   197   197 MxSgAt=    13 MxSgA2=    13.
 Leave Link  302 at Thu Dec 14 13:25:25 2023, MaxMem= 14763950080 cpu:               1.0 elap:               0.2
 (Enter /software/commercial/gaussian/g16/AVX2/g16/l303.exe)
 DipDrv:  MaxL=1.
 Leave Link  303 at Thu Dec 14 13:25:26 2023, MaxMem= 14763950080 cpu:               0.1 elap:               0.1
 (Enter /software/commercial/gaussian/g16/AVX2/g16/l401.exe)
 Initial guess from the checkpoint file:  "/scratch1/svicchi/G09-1734056.pbs02/02-freq/PyrMeOH-isolated-freq.chk"
 B after Tr=     0.000000    0.000000    0.000000
         Rot=    1.000000    0.000000    0.000000    0.000000 Ang=   0.00 deg.
 Guess basis will be translated and rotated to current coordinates.
 JPrj=2 DoOrth=T DoCkMO=T.
 Leave Link  401 at Thu Dec 14 13:25:26 2023, MaxMem= 14763950080 cpu:               0.4 elap:               0.1
 (Enter /software/commercial/gaussian/g16/AVX2/g16/l502.exe)
 Two-electron integral symmetry not used.
 Closed shell SCF:
 Using DIIS extrapolation, IDIIS=  1040.
 NGot= 14763950080 LenX= 14763868245 LenY= 14763828995
 Requested convergence on RMS density matrix=1.00D-08 within 350 cycles.
 Requested convergence on MAX density matrix=1.00D-06.
 Requested convergence on             energy=1.00D-06.
 No special actions if energy rises.
 Fock matrices will be formed incrementally for  20 cycles.

 Cycle   1  Pass 1  IDiag  1:
 FoFJK:  IHMeth= 1 ICntrl=       0 DoSepK=F KAlg= 0 I1Cent=           0 FoldK=F
 IRaf= 970000000 NMat=       1 IRICut=       1 DoRegI=T DoRafI=F ISym2E= 0 IDoP0=0 IntGTp=1.
 FoFCou: FMM=F IPFlag=           0 FMFlag=      100000 FMFlg1=           0
         NFxFlg=           0 DoJE=F BraDBF=F KetDBF=F FulRan=T
         wScrn=  0.000000 ICntrl=         0 IOpCl=  0 I1Cent=           0 NGrid=           0
         NMat0=    1 NMatS0=      1 NMatT0=    0 NMatD0=    1 NMtDS0=    0 NMtDT0=    0
 Symmetry not used in FoFCou.
 Inv3:  Mode=1 IEnd=     4099683.
 Iteration    1 A*A^-1 deviation from unit magnitude is 2.66D-15 for     81.
 Iteration    1 A*A^-1 deviation from orthogonality  is 1.97D-15 for    746    113.
 Iteration    1 A^-1*A deviation from unit magnitude is 2.89D-15 for    629.
 Iteration    1 A^-1*A deviation from orthogonality  is 2.44D-15 for    949    240.
 E= -324.329961974024    
 DIIS: error= 1.90D-08 at cycle   1 NSaved=   1.
 NSaved= 1 IEnMin= 1 EnMin= -324.329961974024     IErMin= 1 ErrMin= 1.90D-08
 ErrMax= 1.90D-08  0.00D+00 EMaxC= 1.00D-01 BMatC= 8.38D-14 BMatP= 8.38D-14
 IDIUse=1 WtCom= 1.00D+00 WtEn= 0.00D+00
 Coeff-Com:  0.100D+01
 Coeff:      0.100D+01
 Gap=     0.187 Goal=   None    Shift=    0.000
 RMSDP=5.44D-09 MaxDP=2.62D-07              OVMax= 1.56D-07

 Error on total polarization charges =  0.02411
 SCF Done:  E(RB3LYP) =  -324.329961974     A.U. after    1 cycles
            NFock=  1  Conv=0.54D-08     -V/T= 2.0043
 KE= 3.229330997272D+02 PE=-1.320065351444D+03 EE= 3.964416826695D+02
 Leave Link  502 at Thu Dec 14 13:25:28 2023, MaxMem= 14763950080 cpu:              14.7 elap:               1.6
 (Enter /software/commercial/gaussian/g16/AVX2/g16/l508.exe)
 QCSCF skips out because SCF is already converged.
 Leave Link  508 at Thu Dec 14 13:25:28 2023, MaxMem= 14763950080 cpu:               0.0 elap:               0.0
 (Enter /software/commercial/gaussian/g16/AVX2/g16/l801.exe)
 DoSCS=F DFT=T ScalE2(SS,OS)=  1.000000  1.000000
 Range of M.O.s used for correlation:     1   190
 NBasis=   190 NAE=    26 NBE=    26 NFC=     0 NFV=     0
 NROrb=    190 NOA=    26 NOB=    26 NVA=   164 NVB=   164

 **** Warning!!: The largest alpha MO coefficient is  0.81023567D+02

 Leave Link  801 at Thu Dec 14 13:25:28 2023, MaxMem= 14763950080 cpu:               0.1 elap:               0.1
 (Enter /software/commercial/gaussian/g16/AVX2/g16/l1002.exe)
 Minotr:  Closed shell wavefunction.
 NEqPCM:  Using equilibrium solvation (IEInf=0, Eps=  24.8520, EpsInf=   1.8526)
          Direct CPHF calculation.
          Differentiating once with respect to electric field.
                with respect to dipole field.
          Electric field/nuclear overlap derivatives assumed to be zero.
          Requested convergence is 1.0D-08 RMS, and 1.0D-07 maximum.
          Secondary convergence is 1.0D-12 RMS, and 1.0D-12 maximum.
          NewPWx=F KeepS1=T KeepF1=T KeepIn=T MapXYZ=F SortEE=F KeepMc=T.
         3987 words used for storage of precomputed grid.
 Two-electron integral symmetry not used.
          MDV=   14763950080 using IRadAn=       1.
          Solving linear equations simultaneously, MaxMat=     384.
          There are     3 degrees of freedom in the 1st order CPHF.  IDoFFX=0 NUNeed=     3.
      3 vectors produced by pass  0 Test12= 1.42D-13 3.33D-08 XBig12= 1.03D+02 3.32D+00.
 AX will form     3 AO Fock derivatives at one time.
 FoFJK:  IHMeth= 1 ICntrl=       0 DoSepK=F KAlg= 0 I1Cent=           0 FoldK=F
 IRaf= 970000000 NMat=       3 IRICut=       1 DoRegI=T DoRafI=F ISym2E= 0 IDoP0=0 IntGTp=1.
 FoFCou: FMM=F IPFlag=           0 FMFlag=      100000 FMFlg1=           0
         NFxFlg=           0 DoJE=F BraDBF=F KetDBF=F FulRan=T
         wScrn=  0.000000 ICntrl=         0 IOpCl=  0 I1Cent=           0 NGrid=           0
         NMat0=    3 NMatS0=      3 NMatT0=    0 NMatD0=    3 NMtDS0=    0 NMtDT0=    0
 Symmetry not used in FoFCou.
      3 vectors produced by pass  1 Test12= 1.42D-13 3.33D-08 XBig12= 4.02D+01 1.37D+00.
      3 vectors produced by pass  2 Test12= 1.42D-13 3.33D-08 XBig12= 4.47D+00 4.42D-01.
      3 vectors produced by pass  3 Test12= 1.42D-13 3.33D-08 XBig12= 1.28D+00 2.76D-01.
      3 vectors produced by pass  4 Test12= 1.42D-13 3.33D-08 XBig12= 1.80D-01 7.05D-02.
      3 vectors produced by pass  5 Test12= 1.42D-13 3.33D-08 XBig12= 7.83D-03 1.50D-02.
      3 vectors produced by pass  6 Test12= 1.42D-13 3.33D-08 XBig12= 2.28D-03 7.46D-03.
      3 vectors produced by pass  7 Test12= 1.42D-13 3.33D-08 XBig12= 1.95D-04 1.75D-03.
      3 vectors produced by pass  8 Test12= 1.42D-13 3.33D-08 XBig12= 4.98D-06 3.39D-04.
      3 vectors produced by pass  9 Test12= 1.42D-13 3.33D-08 XBig12= 1.29D-07 9.55D-05.
      3 vectors produced by pass 10 Test12= 1.42D-13 3.33D-08 XBig12= 3.49D-09 1.26D-05.
      3 vectors produced by pass 11 Test12= 1.42D-13 3.33D-08 XBig12= 1.10D-10 1.81D-06.
      3 vectors produced by pass 12 Test12= 1.42D-13 3.33D-08 XBig12= 3.62D-12 2.64D-07.
      1 vectors produced by pass 13 Test12= 1.42D-13 3.33D-08 XBig12= 8.58D-14 4.56D-08.
 InvSVY:  IOpt=1 It=  1 EMax= 2.66D-15
 Solved reduced A of dimension    40 with     3 vectors.
 End of Minotr F.D. properties file   721 does not exist.
 End of Minotr F.D. properties file   722 does not exist.
 End of Minotr F.D. properties file   788 does not exist.
 Leave Link 1002 at Thu Dec 14 13:25:43 2023, MaxMem= 14763950080 cpu:             167.6 elap:              14.8
 (Enter /software/commercial/gaussian/g16/AVX2/g16/l1101.exe)
 Using compressed storage, NAtomX=    13.
 Will process     14 centers per pass.
 R6Disp: Adding Grimme-D3(BJ) dispersion energy 1st derivatives to the gradient.
 Leave Link 1101 at Thu Dec 14 13:25:44 2023, MaxMem= 14763950080 cpu:               0.9 elap:               0.2
 (Enter /software/commercial/gaussian/g16/AVX2/g16/l1102.exe)
 Symmetrizing basis deriv contribution to polar:
 IMax=3 JMax=2 DiffMx= 0.00D+00
 Leave Link 1102 at Thu Dec 14 13:25:44 2023, MaxMem= 14763950080 cpu:               0.1 elap:               0.1
 (Enter /software/commercial/gaussian/g16/AVX2/g16/l1110.exe)
 Forming Gx(P) for the SCF density, NAtomX=    13.
 Integral derivatives from FoFJK, PRISM(SPDF).
 Do as many integral derivatives as possible in FoFJK.
 G2DrvN: MDV=   14763948605.
 G2DrvN: will do    14 centers at a time, making    1 passes.
 PxScal for G2LodP:  IOpCl= 0 ISclPx=1 IMOff=     1 NMtTot=     4 NTT=   18145 ScalPx= 2.68D+01
 Calling FoFCou, ICntrl=  3107 FMM=F I1Cent=   0 AccDes= 0.00D+00.
 FoFJK:  IHMeth= 1 ICntrl=    3107 DoSepK=F KAlg= 0 I1Cent=           0 FoldK=F
 IRaf=         0 NMat=       1 IRICut=       1 DoRegI=T DoRafI=F ISym2E= 0 IDoP0=0 IntGTp=1.
 FoFCou: FMM=F IPFlag=           0 FMFlag=      100000 FMFlg1=           0
         NFxFlg=           0 DoJE=F BraDBF=F KetDBF=F FulRan=T
         wScrn=  0.000000 ICntrl=      3107 IOpCl=  0 I1Cent=           0 NGrid=           0
         NMat0=    1 NMatS0=      1 NMatT0=    0 NMatD0=    4 NMtDS0=    3 NMtDT0=    0
 Symmetry not used in FoFCou.
 PxScal for G2LodP:  IOpCl= 0 ISclPx=0 IMOff=     1 NMtTot=     4 NTT=   18145 ScalPx= 1.00D+00
 NEqPCM:  Using equilibrium solvation (IEInf=0, Eps=  24.8520, EpsInf=   1.8526)
 G2PCM: DoFxE=T DoFxN=T DoGrad=T DoDP/DQ/DG/TGxP=TFFF NFrqRd=   0 IEInf=0 SqF1=F DoCFld=F IF1Alg=4.
 GePol: Maximum number of non-zero 1st derivatives   =     200
 End of G2Drv F.D. properties file   721 does not exist.
 End of G2Drv F.D. properties file   722 does not exist.
 End of G2Drv F.D. properties file   788 does not exist.
 Leave Link 1110 at Thu Dec 14 13:26:02 2023, MaxMem= 14763950080 cpu:             214.6 elap:              18.2
 (Enter /software/commercial/gaussian/g16/AVX2/g16/l1002.exe)
 Minotr:  Closed shell wavefunction.
          IDoAtm=1111111111111
 NEqPCM:  Using equilibrium solvation (IEInf=0, Eps=  24.8520, EpsInf=   1.8526)
          Direct CPHF calculation.
          Differentiating once with respect to electric field.
                with respect to dipole field.
          Differentiating once with respect to nuclear coordinates.
          Requested convergence is 1.0D-08 RMS, and 1.0D-07 maximum.
          Secondary convergence is 1.0D-12 RMS, and 1.0D-12 maximum.
          NewPWx=T KeepS1=F KeepF1=F KeepIn=T MapXYZ=F SortEE=F KeepMc=T.
         3987 words used for storage of precomputed grid.
 Keep R1 ints in memory in canonical form, NReq=176916039.
 FoFCou: FMM=F IPFlag=           0 FMFlag=           0 FMFlg1=           0
         NFxFlg=           0 DoJE=F BraDBF=F KetDBF=F FulRan=T
         wScrn=  0.000000 ICntrl=       600 IOpCl=  0 I1Cent=           0 NGrid=           0
         NMat0=    1 NMatS0=  18145 NMatT0=    0 NMatD0=    1 NMtDS0=    0 NMtDT0=    0
 Symmetry not used in FoFCou.
 Two-electron integral symmetry not used.
          MDV=   14763950080 using IRadAn=       1.
          Solving linear equations simultaneously, MaxMat=       0.
          There are    42 degrees of freedom in the 1st order CPHF.  IDoFFX=5 NUNeed=    42.
 Will reuse    3 saved solutions.
     36 vectors produced by pass  0 Test12= 1.02D-14 2.38D-09 XBig12= 1.43D-01 9.51D-02.
 AX will form    36 AO Fock derivatives at one time.
     36 vectors produced by pass  1 Test12= 1.02D-14 2.38D-09 XBig12= 3.58D-02 5.89D-02.
     36 vectors produced by pass  2 Test12= 1.02D-14 2.38D-09 XBig12= 4.82D-04 4.86D-03.
     36 vectors produced by pass  3 Test12= 1.02D-14 2.38D-09 XBig12= 3.69D-06 2.90D-04.
     36 vectors produced by pass  4 Test12= 1.02D-14 2.38D-09 XBig12= 1.03D-08 1.57D-05.
     36 vectors produced by pass  5 Test12= 1.02D-14 2.38D-09 XBig12= 2.29D-11 9.37D-07.
     12 vectors produced by pass  6 Test12= 1.02D-14 2.38D-09 XBig12= 4.21D-14 2.74D-08.
 InvSVY:  IOpt=1 It=  1 EMax= 1.55D-15
 Solved reduced A of dimension   228 with    36 vectors.
 FullF1:  Do perturbations      1 to       3.
 Isotropic polarizability for W=    0.000000      111.61 Bohr**3.
 FullF1:  Do perturbations      1 to       6.
 End of Minotr F.D. properties file   721 does not exist.
 End of Minotr F.D. properties file   722 does not exist.
 End of Minotr F.D. properties file   788 does not exist.
 Leave Link 1002 at Thu Dec 14 13:26:20 2023, MaxMem= 14763950080 cpu:             193.2 elap:              17.0
 (Enter /software/commercial/gaussian/g16/AVX2/g16/l601.exe)
 Copying SCF densities to generalized density rwf, IOpCl= 0 IROHF=0.

 **********************************************************************

            Population analysis using the SCF Density.

 **********************************************************************

 Alpha  occ. eigenvalues --  -19.10919 -14.25094 -10.19801 -10.14161 -10.13998
 Alpha  occ. eigenvalues --  -10.12138 -10.12040  -1.00196  -0.89453  -0.71124
 Alpha  occ. eigenvalues --   -0.70590  -0.62685  -0.52532  -0.50721  -0.47505
 Alpha  occ. eigenvalues --   -0.44876  -0.41852  -0.39614  -0.35253  -0.34325
 Alpha  occ. eigenvalues --   -0.34231  -0.32473  -0.26972  -0.23563  -0.19845
 Alpha  occ. eigenvalues --   -0.17484
 Alpha virt. eigenvalues --    0.01234   0.02636   0.03345   0.04070   0.05392
 Alpha virt. eigenvalues --    0.05637   0.06762   0.07172   0.07667   0.07730
 Alpha virt. eigenvalues --    0.09061   0.09519   0.10005   0.13070   0.13479
 Alpha virt. eigenvalues --    0.14042   0.15007   0.16199   0.16311   0.17930
 Alpha virt. eigenvalues --    0.18178   0.19492   0.20137   0.21118   0.21877
 Alpha virt. eigenvalues --    0.22691   0.23096   0.23798   0.24269   0.24941
 Alpha virt. eigenvalues --    0.25685   0.26400   0.28016   0.29126   0.29960
 Alpha virt. eigenvalues --    0.30604   0.30766   0.31489   0.34591   0.37269
 Alpha virt. eigenvalues --    0.41614   0.46904   0.48441   0.49754   0.51565
 Alpha virt. eigenvalues --    0.54701   0.56403   0.56895   0.59119   0.59809
 Alpha virt. eigenvalues --    0.62526   0.63694   0.65333   0.66618   0.67897
 Alpha virt. eigenvalues --    0.68763   0.70863   0.74169   0.76513   0.77478
 Alpha virt. eigenvalues --    0.79221   0.82355   0.84709   0.86448   0.87444
 Alpha virt. eigenvalues --    0.90935   0.92026   0.93251   0.97765   0.98105
 Alpha virt. eigenvalues --    1.00323   1.05681   1.07952   1.09410   1.12891
 Alpha virt. eigenvalues --    1.14513   1.15551   1.21090   1.22942   1.27396
 Alpha virt. eigenvalues --    1.32201   1.33324   1.41425   1.42836   1.53005
 Alpha virt. eigenvalues --    1.55037   1.56982   1.59096   1.59616   1.62183
 Alpha virt. eigenvalues --    1.62456   1.67899   1.69970   1.71155   1.73688
 Alpha virt. eigenvalues --    1.75571   1.77122   1.80052   1.81005   1.83768
 Alpha virt. eigenvalues --    1.89363   1.96758   1.98070   1.99402   2.01075
 Alpha virt. eigenvalues --    2.03421   2.04062   2.09886   2.13297   2.20507
 Alpha virt. eigenvalues --    2.22716   2.34138   2.36734   2.40470   2.46154
 Alpha virt. eigenvalues --    2.47081   2.49036   2.51893   2.53007   2.54259
 Alpha virt. eigenvalues --    2.60923   2.68914   2.70115   2.74846   2.76187
 Alpha virt. eigenvalues --    2.77738   2.80053   2.81452   2.83350   2.88459
 Alpha virt. eigenvalues --    2.91498   2.96483   2.98779   3.05640   3.07383
 Alpha virt. eigenvalues --    3.13218   3.19228   3.22497   3.28759   3.32476
 Alpha virt. eigenvalues --    3.38117   3.45616   3.48126   3.70349   3.80534
 Alpha virt. eigenvalues --    3.87812   3.89769   3.97773   4.00133   4.11462
 Alpha virt. eigenvalues --    4.21068   4.39615   4.56883   5.04893   5.17392
 Alpha virt. eigenvalues --    5.37736   5.59976  23.75931  23.88308  23.93905
 Alpha virt. eigenvalues --   24.08448  24.18452  35.64677  49.91626
          Condensed to atoms (all electrons):
               1          2          3          4          5          6
     1  C    5.414762   0.458900  -0.327518  -0.034389  -0.021939   0.250889
     2  C    0.458900   5.228379   0.564278   0.384889  -0.172368  -0.054606
     3  C   -0.327518   0.564278   6.058507  -0.034869  -0.296698   0.157454
     4  H   -0.034389   0.384889  -0.034869   0.564680   0.014194   0.010228
     5  C   -0.021939  -0.172368  -0.296698   0.014194   6.763781   0.007196
     6  N    0.250889  -0.054606   0.157454   0.010228   0.007196   7.214741
     7  H    0.434314  -0.058526  -0.012804  -0.001189   0.042439  -0.078666
     8  C    0.018245  -0.072361  -0.253124   0.003201  -0.285047  -0.133270
     9  H   -0.004443  -0.002056   0.357452  -0.003105  -0.014124   0.009102
    10  H   -0.001479  -0.001065   0.011755  -0.000025  -0.156140   0.018035
    11  H    0.000361   0.002101  -0.012676   0.000023   0.065091  -0.024024
    12  O    0.000076   0.000557  -0.034153   0.000046   0.030534  -0.019289
    13  H   -0.008452   0.001199  -0.022263   0.000004  -0.071691   0.017448
               7          8          9         10         11         12
     1  C    0.434314   0.018245  -0.004443  -0.001479   0.000361   0.000076
     2  C   -0.058526  -0.072361  -0.002056  -0.001065   0.002101   0.000557
     3  C   -0.012804  -0.253124   0.357452   0.011755  -0.012676  -0.034153
     4  H   -0.001189   0.003201  -0.003105  -0.000025   0.000023   0.000046
     5  C    0.042439  -0.285047  -0.014124  -0.156140   0.065091   0.030534
     6  N   -0.078666  -0.133270   0.009102   0.018035  -0.024024  -0.019289
     7  H    0.584091   0.001213  -0.000156   0.000018   0.000007   0.000085
     8  C    0.001213   6.212611  -0.000131   0.518383   0.334513   0.084699
     9  H   -0.000156  -0.000131   0.562073   0.000266   0.000197   0.000808
    10  H    0.000018   0.518383   0.000266   0.579845  -0.048084  -0.066813
    11  H    0.000007   0.334513   0.000197  -0.048084   0.629851  -0.069469
    12  O    0.000085   0.084699   0.000808  -0.066813  -0.069469   8.191863
    13  H   -0.000010   0.093377  -0.000104   0.009210  -0.005716   0.260520
              13
     1  C   -0.008452
     2  C    0.001199
     3  C   -0.022263
     4  H    0.000004
     5  C   -0.071691
     6  N    0.017448
     7  H   -0.000010
     8  C    0.093377
     9  H   -0.000104
    10  H    0.009210
    11  H   -0.005716
    12  O    0.260520
    13  H    0.473893
 Mulliken charges:
               1
     1  C   -0.179326
     2  C   -0.279323
     3  C   -0.155339
     4  H    0.096313
     5  C    0.094771
     6  N   -0.375237
     7  H    0.089186
     8  C   -0.522308
     9  H    0.094222
    10  H    0.136095
    11  H    0.127825
    12  O   -0.379464
    13  H    0.252586
 Sum of Mulliken charges =  -1.00000
 Mulliken charges with hydrogens summed into heavy atoms:
               1
     1  C   -0.090140
     2  C   -0.183010
     3  C   -0.061118
     5  C    0.094771
     6  N   -0.375237
     8  C   -0.258388
    12  O   -0.126878
 APT charges:
               1
     1  C   -0.015296
     2  C   -0.249505
     3  C   -0.160495
     4  H    0.037146
     5  C   -0.157197
     6  N   -0.624710
     7  H    0.009706
     8  C    0.904844
     9  H    0.042160
    10  H   -0.053972
    11  H   -0.126056
    12  O   -0.924166
    13  H    0.317542
 Sum of APT charges =  -1.00000
 APT charges with hydrogens summed into heavy atoms:
               1
     1  C   -0.005590
     2  C   -0.212359
     3  C   -0.118335
     5  C   -0.157197
     6  N   -0.624710
     8  C    0.724815
    12  O   -0.606624
 Electronic spatial extent (au):  <R**2>=            990.6717
 Charge=             -1.0000 electrons
 Dipole moment (field-independent basis, Debye):
    X=             -3.8471    Y=              1.1953    Z=              1.9400  Tot=              4.4713
 Quadrupole moment (field-independent basis, Debye-Ang):
   XX=            -59.1254   YY=            -47.7756   ZZ=            -54.8087
   XY=              3.2981   XZ=              5.7742   YZ=             -3.8492
 Traceless Quadrupole moment (field-independent basis, Debye-Ang):
   XX=             -5.2222   YY=              6.1277   ZZ=             -0.9055
   XY=              3.2981   XZ=              5.7742   YZ=             -3.8492
 Octapole moment (field-independent basis, Debye-Ang**2):
  XXX=           -130.2555  YYY=             74.5110  ZZZ=             82.7243  XYY=            -34.6796
  XXY=             44.0877  XXZ=             44.1747  XZZ=            -45.7014  YZZ=             36.1053
  YYZ=             24.9893  XYZ=            -17.2587
 Hexadecapole moment (field-independent basis, Debye-Ang**3):
 XXXX=           -880.9167 YYYY=           -357.4685 ZZZZ=           -287.8648 XXXY=            199.4372
 XXXZ=            194.3341 YYYX=            126.9218 YYYZ=            -82.5182 ZZZX=            146.9250
 ZZZY=           -118.8831 XXYY=           -208.3279 XXZZ=           -223.8432 YYZZ=           -112.4511
 XXYZ=            -79.7684 YYXZ=             50.7012 ZZXY=             77.4541
 N-N= 2.763606070734D+02 E-N=-1.320065355035D+03  KE= 3.229330997272D+02
  Exact polarizability:     131.068      -6.262     111.128      -1.578      12.792      92.627
 Approx polarizability:     138.730      -4.575     122.466       0.999      15.894      97.936
 No NMR shielding tensors so no spin-rotation constants.
 Leave Link  601 at Thu Dec 14 13:26:20 2023, MaxMem= 14763950080 cpu:               0.7 elap:               0.1
 (Enter /software/commercial/gaussian/g16/AVX2/g16/l701.exe)
 ... and contract with generalized density number  0.
 Compute integral second derivatives.
 R6Disp: Adding Grimme-D3(BJ) dispersion energy 2nd derivatives to the Hessian.
 D2PCM: PCM CHGder 2nd derivatives, FixD1E=F FixD2E=F DoIter=F DoCFld=F I1PDM=0
 GePol: Maximum number of non-zero 2nd derivatives   =     200
 Leave Link  701 at Thu Dec 14 13:26:23 2023, MaxMem= 14763950080 cpu:              23.4 elap:               2.3
 (Enter /software/commercial/gaussian/g16/AVX2/g16/l702.exe)
 L702 exits ... SP integral derivatives will be done elsewhere.
 Leave Link  702 at Thu Dec 14 13:26:23 2023, MaxMem= 14763950080 cpu:               0.1 elap:               0.1
 (Enter /software/commercial/gaussian/g16/AVX2/g16/l703.exe)
 Integral derivatives from FoFJK, PRISM(SPDF).
 Compute integral second derivatives, UseDBF=F ICtDFT=           0.
 Calling FoFJK, ICntrl=    100127 FMM=F ISym2X=0 I1Cent= 0 IOpClX= 0 NMat=1 NMatS=1 NMatT=0.
 FoFJK:  IHMeth= 1 ICntrl=  100127 DoSepK=F KAlg= 0 I1Cent=           0 FoldK=F
 IRaf=         0 NMat=       1 IRICut=       1 DoRegI=T DoRafI=F ISym2E= 0 IDoP0=0 IntGTp=1.
 FoFCou: FMM=F IPFlag=           0 FMFlag=      100000 FMFlg1=         800
         NFxFlg=           0 DoJE=F BraDBF=F KetDBF=F FulRan=T
         wScrn=  0.000000 ICntrl=    100127 IOpCl=  0 I1Cent=           0 NGrid=           0
         NMat0=    1 NMatS0=      1 NMatT0=    0 NMatD0=    1 NMtDS0=    0 NMtDT0=    0
 Symmetry not used in FoFCou.
 Leave Link  703 at Thu Dec 14 13:26:46 2023, MaxMem= 14763950080 cpu:             274.7 elap:              23.0
 (Enter /software/commercial/gaussian/g16/AVX2/g16/l716.exe)
 Dipole        =-1.51356857D+00 4.70265111D-01 7.63250076D-01
 Polarizability= 1.31067686D+02-6.26170810D+00 1.11127968D+02
                -1.57811913D+00 1.27918064D+01 9.26271298D+01
 HyperPolar    = 8.09443206D+02-3.44741867D+02-2.54865841D+01
                 2.20809356D+01-1.86264008D+02 1.57044573D+02
                -2.42097830D+01-1.36835084D+02 1.40151734D+01
                -4.44696052D+01
 Full mass-weighted force constant matrix:
 Low frequencies ---  -20.4424   -0.0004    0.0002    0.0003   18.5254   25.2928
 Low frequencies ---   63.0418  145.6235  276.8472
 Diagonal vibrational polarizability:
       78.3417910      20.9001021      47.9249153
 Diagonal vibrational hyperpolarizability:
       77.8581128     -86.6124569    -490.4048555
 Harmonic frequencies (cm**-1), IR intensities (KM/Mole), Raman scattering
 activities (A**4/AMU), depolarization ratios for plane and unpolarized
 incident light, reduced masses (AMU), force constants (mDyne/A),
 and normal coordinates:
                      1                      2                      3
                      A                      A                      A
 Frequencies --     61.1360               145.5947               276.8243
 Red. masses --      3.5334                 4.7354                 1.2105
 Frc consts  --      0.0078                 0.0591                 0.0547
 IR Inten    --      6.2599                 3.6488               141.4953
 Raman Activ --      4.4402                 8.9746                 4.1068
 Depolar (P) --      0.6140                 0.7395                 0.3335
 Depolar (U) --      0.7608                 0.8502                 0.5002
  Atom  AN      X      Y      Z        X      Y      Z        X      Y      Z
     1   6    -0.06  -0.03   0.08    -0.11  -0.04   0.16    -0.02   0.01  -0.03
     2   6     0.03   0.01  -0.12    -0.09  -0.07   0.18     0.00  -0.01  -0.03
     3   6     0.10   0.06  -0.11    -0.02   0.07  -0.07     0.03  -0.02   0.04
     4   1     0.04  -0.01  -0.24    -0.11  -0.18   0.34     0.01  -0.02  -0.07
     5   6     0.05   0.05   0.07    -0.00   0.17  -0.21     0.01   0.01   0.06
     6   7    -0.05   0.00   0.19    -0.06   0.11  -0.07    -0.02   0.02   0.04
     7   1    -0.14  -0.08   0.14    -0.16  -0.12   0.30    -0.05   0.02  -0.06
     8   6     0.08   0.11   0.11    -0.03   0.06  -0.04    -0.01  -0.00  -0.03
     9   1     0.17   0.10  -0.23     0.01   0.07  -0.08     0.06  -0.03   0.04
    10   1     0.17   0.02   0.42    -0.12   0.05   0.06    -0.08   0.03  -0.11
    11   1     0.18   0.44   0.02    -0.15   0.07   0.05     0.04  -0.11  -0.06
    12   8    -0.11  -0.17  -0.16     0.24  -0.22   0.01    -0.04  -0.01  -0.05
    13   1    -0.06  -0.15  -0.38     0.56  -0.19  -0.05     0.82   0.02   0.50
                      4                      5                      6
                      A                      A                      A
 Frequencies --    334.7581               425.8828               637.2458
 Red. masses --      2.0078                 5.2559                 3.3275
 Frc consts  --      0.1326                 0.5617                 0.7961
 IR Inten    --     46.4254                33.7759                13.2778
 Raman Activ --      1.8815                 9.7062                 2.0503
 Depolar (P) --      0.3832                 0.2566                 0.2358
 Depolar (U) --      0.5541                 0.4085                 0.3816
  Atom  AN      X      Y      Z        X      Y      Z        X      Y      Z
     1   6     0.07  -0.01   0.01    -0.05   0.08  -0.06    -0.00   0.11  -0.19
     2   6    -0.03   0.06   0.04    -0.08   0.12  -0.08    -0.07  -0.10   0.26
     3   6    -0.12  -0.01  -0.03    -0.15  -0.05   0.21     0.01   0.12  -0.18
     4   1    -0.03   0.14   0.10    -0.06   0.22  -0.25    -0.07  -0.13   0.26
     5   6    -0.07  -0.10  -0.07    -0.06  -0.09   0.13     0.00  -0.07   0.11
     6   7     0.02  -0.11  -0.06    -0.11  -0.08   0.18    -0.04  -0.03   0.07
     7   1     0.17   0.00   0.04     0.00   0.15  -0.19     0.06   0.28  -0.52
     8   6     0.08   0.10   0.08     0.07   0.05  -0.15     0.06  -0.05   0.01
     9   1    -0.25   0.02  -0.02    -0.23  -0.04   0.24     0.02   0.28  -0.49
    10   1     0.42  -0.02   0.33     0.09   0.06  -0.20     0.09  -0.04  -0.04
    11   1     0.01   0.53   0.12     0.09   0.00  -0.16     0.11  -0.08  -0.02
    12   8    -0.01   0.02  -0.01     0.32  -0.03  -0.13     0.02   0.00  -0.03
    13   1     0.41   0.04   0.20    -0.02  -0.03  -0.54    -0.01  -0.00   0.01
                      7                      8                      9
                      A                      A                      A
 Frequencies --    669.9012               703.4168               741.4326
 Red. masses --      4.8286                 1.2027                 1.6996
 Frc consts  --      1.2767                 0.3506                 0.5505
 IR Inten    --     16.4630               200.0548                11.1794
 Raman Activ --      8.0478                39.3472                29.3303
 Depolar (P) --      0.4582                 0.7302                 0.7371
 Depolar (U) --      0.6284                 0.8441                 0.8486
  Atom  AN      X      Y      Z        X      Y      Z        X      Y      Z
     1   6     0.14   0.02  -0.17     0.00   0.03  -0.05    -0.05  -0.00   0.05
     2   6     0.10  -0.11   0.05     0.00   0.03  -0.06    -0.03   0.01   0.04
     3   6     0.03  -0.12   0.02     0.01   0.04  -0.06     0.02   0.05  -0.02
     4   1     0.11  -0.02   0.06    -0.10  -0.34   0.69     0.01   0.12  -0.32
     5   6    -0.06   0.14  -0.18     0.01  -0.01   0.01     0.06   0.05  -0.15
     6   7     0.07  -0.12   0.24    -0.01  -0.02   0.04    -0.04  -0.03   0.06
     7   1     0.10   0.11  -0.38    -0.04  -0.11   0.23     0.06   0.28  -0.50
     8   6    -0.25   0.21  -0.04     0.01  -0.02   0.00     0.09  -0.08   0.01
     9   1     0.16  -0.19   0.08    -0.09  -0.23   0.49    -0.12  -0.24   0.60
    10   1    -0.27   0.20   0.05     0.02  -0.01  -0.01     0.12  -0.09   0.02
    11   1    -0.41   0.30   0.08     0.02  -0.02  -0.00     0.07  -0.05   0.02
    12   8    -0.01  -0.02   0.05     0.00   0.00  -0.01    -0.03   0.01   0.00
    13   1     0.08   0.00  -0.19    -0.01   0.00   0.01    -0.07  -0.01   0.15
                     10                     11                     12
                      A                      A                      A
 Frequencies --    761.9956               823.1320               907.2975
 Red. masses --      2.6359                 1.3054                 5.4528
 Frc consts  --      0.9018                 0.5211                 2.6446
 IR Inten    --     16.9958                13.5878                44.6718
 Raman Activ --     25.4352                 4.6599                22.0397
 Depolar (P) --      0.7394                 0.7382                 0.6291
 Depolar (U) --      0.8502                 0.8494                 0.7723
  Atom  AN      X      Y      Z        X      Y      Z        X      Y      Z
     1   6     0.03  -0.10   0.14     0.02   0.04  -0.09    -0.08   0.29   0.13
     2   6     0.03  -0.03  -0.00    -0.01  -0.05   0.09     0.34   0.02   0.06
     3   6     0.00   0.03  -0.17     0.00   0.03  -0.07     0.07  -0.14  -0.07
     4   1     0.05   0.07  -0.06     0.07   0.26  -0.52     0.33  -0.33  -0.12
     5   6    -0.07  -0.07   0.19    -0.01  -0.01   0.03    -0.04  -0.10  -0.02
     6   7     0.05   0.04  -0.09     0.00   0.00  -0.00    -0.25  -0.07  -0.08
     7   1     0.11   0.25  -0.58    -0.09  -0.30   0.59     0.01   0.30   0.16
     8   6    -0.12   0.10   0.01    -0.01   0.01   0.01     0.07   0.10  -0.11
     9   1    -0.06  -0.30   0.49    -0.07  -0.19   0.38    -0.41  -0.00  -0.04
    10   1    -0.15   0.12  -0.05    -0.03   0.02  -0.01    -0.03   0.12  -0.19
    11   1    -0.07   0.03  -0.03     0.01  -0.02  -0.01     0.02  -0.12  -0.05
    12   8     0.05  -0.00  -0.02     0.01   0.00  -0.01    -0.06  -0.06   0.10
    13   1     0.11   0.02  -0.20     0.01   0.00  -0.03     0.06  -0.03  -0.14
                     13                     14                     15
                      A                      A                      A
 Frequencies --    911.8032               954.4820               968.6523
 Red. masses --      5.0507                 1.8082                 2.6884
 Frc consts  --      2.4740                 0.9706                 1.4862
 IR Inten    --    229.6365                26.0788                14.4313
 Raman Activ --     74.5016                11.9960                 6.2096
 Depolar (P) --      0.4619                 0.2191                 0.6583
 Depolar (U) --      0.6319                 0.3594                 0.7939
  Atom  AN      X      Y      Z        X      Y      Z        X      Y      Z
     1   6     0.01  -0.11  -0.06     0.03  -0.02  -0.01    -0.00  -0.03  -0.01
     2   6    -0.18   0.03  -0.01     0.01   0.01   0.00     0.06  -0.01   0.01
     3   6     0.02   0.11   0.04    -0.06  -0.06  -0.02    -0.15  -0.16  -0.10
     4   1    -0.18   0.08   0.00     0.00   0.15   0.11     0.07   0.57   0.29
     5   6     0.08  -0.00   0.06     0.03   0.06  -0.04    -0.05   0.02   0.00
     6   7     0.03  -0.10  -0.05    -0.03  -0.05  -0.02     0.09   0.18   0.10
     7   1     0.22  -0.08  -0.01     0.09  -0.01  -0.00    -0.51  -0.11  -0.13
     8   6     0.20   0.25  -0.22     0.06   0.05   0.20     0.12  -0.01  -0.08
     9   1     0.13   0.04   0.10    -0.19   0.01  -0.07    -0.26  -0.13  -0.10
    10   1    -0.13   0.33  -0.38    -0.47   0.26  -0.25     0.17  -0.03  -0.07
    11   1     0.13  -0.28  -0.11     0.24  -0.61   0.08     0.12  -0.06  -0.07
    12   8    -0.15  -0.12   0.23    -0.00   0.02  -0.07    -0.04  -0.03   0.05
    13   1     0.16  -0.06  -0.37     0.10   0.04  -0.20    -0.03  -0.03   0.04
                     16                     17                     18
                      A                      A                      A
 Frequencies --   1026.9210              1090.4968              1161.4527
 Red. masses --      1.3344                 2.0433                 1.2846
 Frc consts  --      0.8291                 1.4317                 1.0210
 IR Inten    --     44.7965                31.4792                30.7925
 Raman Activ --      4.9459                52.6453                 5.9168
 Depolar (P) --      0.3901                 0.0401                 0.6550
 Depolar (U) --      0.5613                 0.0772                 0.7916
  Atom  AN      X      Y      Z        X      Y      Z        X      Y      Z
     1   6    -0.01   0.02   0.01     0.05   0.15   0.08     0.05  -0.03  -0.01
     2   6    -0.03   0.08   0.03    -0.13  -0.04  -0.04    -0.01  -0.03  -0.02
     3   6     0.07  -0.07  -0.03    -0.07  -0.11  -0.07    -0.02  -0.03  -0.02
     4   1    -0.02   0.58   0.27    -0.16  -0.48  -0.25    -0.01   0.11   0.05
     5   6    -0.02   0.00   0.00    -0.07   0.03  -0.00     0.04   0.06   0.04
     6   7    -0.08  -0.04  -0.03     0.08   0.05   0.04    -0.07   0.01  -0.00
     7   1     0.08   0.03   0.03     0.50   0.23   0.19     0.40   0.03   0.06
     8   6    -0.00  -0.02  -0.00     0.06  -0.01   0.00     0.01   0.02  -0.06
     9   1     0.69  -0.28  -0.02     0.38  -0.27  -0.07    -0.22   0.03  -0.02
    10   1     0.02  -0.02   0.02     0.09  -0.00  -0.08    -0.37  -0.01   0.37
    11   1    -0.02   0.02   0.01     0.08  -0.10  -0.00     0.25   0.14  -0.24
    12   8     0.01   0.00  -0.01    -0.01  -0.01   0.00     0.03  -0.01   0.00
    13   1    -0.01   0.00   0.02     0.00  -0.00  -0.02    -0.30  -0.07   0.49
                     19                     20                     21
                      A                      A                      A
 Frequencies --   1209.7409              1269.4566              1313.3499
 Red. masses --      1.7825                 2.6097                 2.0487
 Frc consts  --      1.5369                 2.4779                 2.0820
 IR Inten    --     23.7103                 1.7295                14.6340
 Raman Activ --     20.8048                76.8742                30.9578
 Depolar (P) --      0.7385                 0.1937                 0.7319
 Depolar (U) --      0.8496                 0.3245                 0.8452
  Atom  AN      X      Y      Z        X      Y      Z        X      Y      Z
     1   6     0.11  -0.08  -0.02     0.17  -0.08  -0.01    -0.06   0.02   0.00
     2   6    -0.00  -0.04  -0.02     0.13  -0.04  -0.00     0.05  -0.06  -0.02
     3   6     0.03  -0.00   0.01    -0.14   0.15   0.05    -0.07   0.01  -0.00
     4   1     0.01   0.15   0.07     0.15  -0.31  -0.13     0.06   0.13   0.08
     5   6     0.02  -0.01  -0.01    -0.15   0.04  -0.02     0.00   0.19   0.07
     6   7    -0.14   0.13   0.04    -0.12   0.02  -0.01     0.03  -0.11  -0.05
     7   1     0.62   0.00   0.10    -0.24  -0.16  -0.12     0.10   0.05   0.03
     8   6    -0.03  -0.05   0.01     0.06   0.01   0.01    -0.06  -0.09  -0.01
     9   1    -0.24   0.09   0.00     0.66  -0.09   0.05    -0.01   0.00  -0.01
    10   1     0.42  -0.07  -0.23     0.14   0.01  -0.09     0.30  -0.19   0.10
    11   1    -0.17  -0.01   0.11     0.26  -0.16  -0.13     0.49   0.11  -0.42
    12   8    -0.02   0.01   0.02     0.00  -0.02   0.00    -0.01   0.03   0.05
    13   1     0.22   0.05  -0.35    -0.12  -0.04   0.18     0.31   0.08  -0.46
                     22                     23                     24
                      A                      A                      A
 Frequencies --   1328.2320              1391.2343              1410.5144
 Red. masses --      1.6647                 1.4060                 3.2635
 Frc consts  --      1.7304                 1.6034                 3.8255
 IR Inten    --      4.9559                83.2099                24.5604
 Raman Activ --     85.0602                42.3955               257.5944
 Depolar (P) --      0.5739                 0.1294                 0.4035
 Depolar (U) --      0.7292                 0.2291                 0.5750
  Atom  AN      X      Y      Z        X      Y      Z        X      Y      Z
     1   6     0.06  -0.00   0.01     0.06   0.03   0.02    -0.06  -0.18  -0.10
     2   6    -0.05   0.06   0.02     0.00  -0.06  -0.03     0.06   0.28   0.14
     3   6     0.04  -0.02  -0.00    -0.08   0.03   0.00     0.04  -0.12  -0.05
     4   1    -0.06  -0.15  -0.07     0.00   0.04   0.02     0.05  -0.61  -0.29
     5   6     0.03  -0.14  -0.09     0.06  -0.01   0.02    -0.10   0.12   0.06
     6   7    -0.03   0.07   0.03    -0.03  -0.00  -0.01     0.00   0.01   0.00
     7   1    -0.21  -0.04  -0.06    -0.13   0.01  -0.02     0.24  -0.16  -0.04
     8   6    -0.07  -0.01   0.02     0.07  -0.06  -0.06     0.06  -0.06  -0.04
     9   1     0.04  -0.03  -0.01     0.12  -0.04  -0.00    -0.04  -0.11  -0.05
    10   1    -0.25  -0.04   0.26    -0.48  -0.10   0.49    -0.13  -0.12   0.32
    11   1     0.58   0.06  -0.48    -0.40   0.04   0.29    -0.16  -0.07   0.13
    12   8    -0.00   0.03   0.05    -0.02   0.05   0.01    -0.00   0.03  -0.00
    13   1     0.23   0.06  -0.31     0.26   0.09  -0.35     0.13   0.05  -0.18
                     25                     26                     27
                      A                      A                      A
 Frequencies --   1446.5590              1483.5019              1512.3390
 Red. masses --      2.5869                 1.2257                 3.5637
 Frc consts  --      3.1894                 1.5893                 4.8023
 IR Inten    --     46.7661                 9.7667                33.2525
 Raman Activ --     63.3317                30.6726                73.2894
 Depolar (P) --      0.1552                 0.4735                 0.1914
 Depolar (U) --      0.2686                 0.6427                 0.3213
  Atom  AN      X      Y      Z        X      Y      Z        X      Y      Z
     1   6     0.22   0.04   0.05    -0.04  -0.02  -0.01    -0.10  -0.03  -0.03
     2   6    -0.12   0.07   0.02     0.04   0.02   0.02     0.07   0.07   0.04
     3   6     0.01  -0.10  -0.05    -0.07   0.00  -0.01    -0.24  -0.01  -0.04
     4   1    -0.15  -0.22  -0.13     0.04  -0.06  -0.03     0.08  -0.17  -0.08
     5   6     0.13   0.13   0.08     0.07  -0.02   0.00     0.34  -0.08   0.00
     6   7    -0.10  -0.06  -0.05    -0.00   0.02   0.01    -0.01   0.03   0.01
     7   1    -0.69  -0.11  -0.16     0.11   0.00   0.02     0.17   0.01   0.03
     8   6    -0.05  -0.02  -0.00     0.02  -0.06   0.03    -0.14   0.10  -0.01
     9   1    -0.21  -0.05  -0.06     0.14  -0.07  -0.02     0.39  -0.23  -0.06
    10   1     0.27   0.00  -0.28    -0.36   0.17  -0.56     0.46  -0.07   0.24
    11   1    -0.11   0.18   0.04     0.01   0.69  -0.02    -0.10  -0.43   0.01
    12   8    -0.00  -0.01  -0.00    -0.01  -0.01   0.01     0.00  -0.01  -0.01
    13   1    -0.06  -0.02   0.08     0.01  -0.00  -0.02    -0.07  -0.02   0.11
                     28                     29                     30
                      A                      A                      A
 Frequencies --   2992.3210              3081.2524              3155.0540
 Red. masses --      1.0691                 1.0938                 1.0884
 Frc consts  --      5.6398                 6.1184                 6.3832
 IR Inten    --    142.9518                63.3770                35.3043
 Raman Activ --    391.4201               188.1319               234.8947
 Depolar (P) --      0.1594                 0.4679                 0.6150
 Depolar (U) --      0.2750                 0.6375                 0.7616
  Atom  AN      X      Y      Z        X      Y      Z        X      Y      Z
     1   6    -0.00   0.00   0.00     0.00  -0.00  -0.00     0.02  -0.07  -0.03
     2   6    -0.00   0.00   0.00     0.00  -0.00  -0.00    -0.03   0.00  -0.00
     3   6     0.00  -0.00  -0.00     0.00   0.00   0.00     0.00   0.01   0.00
     4   1     0.00   0.00   0.00     0.00  -0.00   0.00     0.36  -0.03   0.03
     5   6    -0.00  -0.00  -0.00    -0.00  -0.00  -0.00    -0.00   0.00   0.00
     6   7     0.00  -0.00   0.00     0.00   0.00   0.00    -0.00  -0.00  -0.00
     7   1    -0.00   0.00  -0.00    -0.00   0.00   0.00    -0.23   0.82   0.37
     8   6    -0.05   0.01  -0.06    -0.02  -0.08  -0.03     0.00   0.00   0.00
     9   1     0.00   0.01   0.00    -0.00  -0.01  -0.00    -0.02  -0.06  -0.03
    10   1    -0.05  -0.22  -0.06     0.16   0.93   0.23     0.00  -0.00  -0.00
    11   1     0.58   0.05   0.77     0.13  -0.00   0.16    -0.00   0.00  -0.00
    12   8     0.00   0.00  -0.00    -0.00   0.00   0.00     0.00   0.00  -0.00
    13   1    -0.00   0.01   0.00     0.00  -0.01  -0.01    -0.00  -0.00   0.00
                     31                     32                     33
                      A                      A                      A
 Frequencies --   3176.1074              3195.5728              3798.1730
 Red. masses --      1.0910                 1.1025                 1.0663
 Frc consts  --      6.4844                 6.6333                 9.0632
 IR Inten    --     59.6418                46.8289                45.5521
 Raman Activ --    159.3998               385.5372               144.6188
 Depolar (P) --      0.7495                 0.2064                 0.0913
 Depolar (U) --      0.8568                 0.3422                 0.1673
  Atom  AN      X      Y      Z        X      Y      Z        X      Y      Z
     1   6     0.00  -0.02  -0.01    -0.00   0.02   0.01     0.00  -0.00   0.00
     2   6     0.05  -0.00   0.01    -0.07   0.01  -0.01    -0.00  -0.00  -0.00
     3   6    -0.02  -0.06  -0.03    -0.01  -0.05  -0.03    -0.00  -0.00  -0.00
     4   1    -0.53   0.03  -0.06     0.76  -0.05   0.08     0.00  -0.00  -0.00
     5   6     0.00   0.00   0.00     0.00  -0.00   0.00     0.00   0.00  -0.00
     6   7    -0.00   0.00   0.00     0.00   0.00   0.00    -0.00   0.00   0.00
     7   1    -0.06   0.24   0.11     0.06  -0.22  -0.10    -0.00   0.00   0.00
     8   6    -0.00  -0.00  -0.00    -0.00  -0.00  -0.00     0.00  -0.00  -0.00
     9   1     0.22   0.68   0.36     0.16   0.50   0.27    -0.00   0.00  -0.00
    10   1     0.00   0.01   0.00     0.00   0.01   0.00     0.00   0.01   0.00
    11   1    -0.00   0.00  -0.00    -0.00   0.00  -0.00    -0.00  -0.00  -0.00
    12   8    -0.00   0.00   0.00    -0.00   0.00   0.00     0.00  -0.06  -0.00
    13   1     0.00  -0.00  -0.00     0.00  -0.00  -0.00    -0.07   0.99   0.06

 -------------------
 - Thermochemistry -
 -------------------
 Temperature   298.150 Kelvin.  Pressure   1.00000 Atm.
 Thermochemistry will use frequencies scaled by 0.9670.
 Atom     1 has atomic number  6 and mass  12.00000
 Atom     2 has atomic number  6 and mass  12.00000
 Atom     3 has atomic number  6 and mass  12.00000
 Atom     4 has atomic number  1 and mass   1.00783
 Atom     5 has atomic number  6 and mass  12.00000
 Atom     6 has atomic number  7 and mass  14.00307
 Atom     7 has atomic number  1 and mass   1.00783
 Atom     8 has atomic number  6 and mass  12.00000
 Atom     9 has atomic number  1 and mass   1.00783
 Atom    10 has atomic number  1 and mass   1.00783
 Atom    11 has atomic number  1 and mass   1.00783
 Atom    12 has atomic number  8 and mass  15.99491
 Atom    13 has atomic number  1 and mass   1.00783
 Molecular mass:    96.04494 amu.
 Principal axes and moments of inertia in atomic units:
                           1         2         3
     Eigenvalues --   262.03912 939.879411086.70555
           X            0.87849   0.46407   0.11359
           Y           -0.36159   0.80120  -0.47679
           Z           -0.31227   0.37779   0.87165
 This molecule is an asymmetric top.
 Rotational symmetry number  1.
 Rotational temperatures (Kelvin)      0.33054     0.09215     0.07970
 Rotational constants (GHZ):           6.88730     1.92018     1.66075
 Zero-point vibrational energy     256609.5 (Joules/Mol)
                                   61.33115 (Kcal/Mol)
 Warning -- explicit consideration of   6 degrees of freedom as
           vibrations may cause significant error
 Vibrational temperatures:     85.06   202.57   385.14   465.75   592.53
          (Kelvin)            886.60   932.03   978.66  1031.55  1060.16
                             1145.22  1262.32  1268.59  1327.97  1347.68
                             1428.75  1517.21  1615.93  1683.11  1766.19
                             1827.26  1847.97  1935.62  1962.44  2012.59
                             2063.99  2104.11  4163.21  4286.94  4389.62
                             4418.91  4445.99  5284.39
 
 Zero-point correction=                           0.097737 (Hartree/Particle)
 Thermal correction to Energy=                    0.104288
 Thermal correction to Enthalpy=                  0.105233
 Thermal correction to Gibbs Free Energy=         0.066895
 Sum of electronic and zero-point Energies=           -324.232225
 Sum of electronic and thermal Energies=              -324.225674
 Sum of electronic and thermal Enthalpies=            -324.224729
 Sum of electronic and thermal Free Energies=         -324.263067
 
                     E (Thermal)             CV                S
                      KCal/Mol        Cal/Mol-Kelvin    Cal/Mol-Kelvin
 Total                   65.442             23.876             80.687
 Electronic               0.000              0.000              0.000
 Translational            0.889              2.981             39.598
 Rotational               0.889              2.981             27.084
 Vibrational             63.664             17.915             14.006
 Vibration     1          0.596              1.974              4.486
 Vibration     2          0.615              1.912              2.793
 Vibration     3          0.673              1.732              1.611
 Vibration     4          0.708              1.628              1.291
 Vibration     5          0.776              1.445              0.920
 Vibration     6          0.976              0.998              0.423
                       Q            Log10(Q)             Ln(Q)
 Total Bot       0.169928D-30        -30.769735        -70.849933
 Total V=0       0.153571D+15         14.186310         32.665187
 Vib (Bot)       0.248015D-43        -43.605521       -100.405423
 Vib (Bot)    1  0.349338D+01          0.543246          1.250871
 Vib (Bot)    2  0.144394D+01          0.159548          0.367374
 Vib (Bot)    3  0.722809D+00         -0.140976         -0.324610
 Vib (Bot)    4  0.579417D+00         -0.237009         -0.545734
 Vib (Bot)    5  0.429012D+00         -0.367530         -0.846270
 Vib (Bot)    6  0.238267D+00         -0.622937         -1.434364
 Vib (V=0)       0.224142D+02          1.350524          3.109696
 Vib (V=0)    1  0.402898D+01          0.605195          1.393514
 Vib (V=0)    2  0.202806D+01          0.307080          0.707078
 Vib (V=0)    3  0.137889D+01          0.139531          0.321281
 Vib (V=0)    4  0.126533D+01          0.102202          0.235330
 Vib (V=0)    5  0.115883D+01          0.064018          0.147407
 Vib (V=0)    6  0.105387D+01          0.022787          0.052468
 Electronic      0.100000D+01          0.000000          0.000000
 Translational   0.369969D+08          7.568166         17.426345
 Rotational      0.185191D+06          5.267621         12.129145
 
                                                           PyrMeOH-isolated
                                                             IR Spectrum
 
     3                   333 3  2                                                 11111 111 1 1 1 1                                  
     7                   111 0  9                                                 54443 332 2 1 0 09999  8 77766      4  3 2    1    
     9                   975 8  9                                                 18419 216 1 6 9 26510  2 64073      2  3 7    4 6  
     8                   665 1  2                                                 24711 839 0 1 0 79427  3 21307      6  5 7    6 1  
 
     X                   XXX X  X                                                 XXXXX XXX X X X XXXXX  X XXXXX      X  X X    X X  
     X                   XXX X  X                                                 X XXX     X X X X XXX      X        X  X X         
     X                   XXX X  X                                                 X X X       X X X  XX      X        X  X X         
     X                   XX  X  X                                                   X X           X  XX      X           X X         
                          X  X  X                                                     X              X       X             X         
                             X  X                                                     X              X       X             X         
                                X                                                     X              X       X             X         
                                X                                                                    X       X             X         
                                X                                                                    X       X             X         
                                X                                                                    X       X             X         
                                X                                                                    X       X             X         
                                X                                                                    X       X             X         
                                                                                                     X       X                       
                                                                                                     X       X                       
                                                                                                     X       X                       
                                                                                                     X       X                       
                                                                                                     X       X                       
                                                                                                     X                               
                                                                                                     X                               
                                                                                                     X                               
 
 
                                                           PyrMeOH-isolated
                                                            Raman Spectrum
 
     3                   333 3  2                                                 11111 111 1 1 1 1                                  
     7                   111 0  9                                                 54443 332 2 1 0 09999  8 77766      4  3 2    1    
     9                   975 8  9                                                 18419 216 1 6 9 26510  2 64073      2  3 7    4 6  
     8                   665 1  2                                                 24711 839 0 1 0 79427  3 21307      6  5 7    6 1  
 
     X                   XXX X  X                                                 XXXXX XXX X X X XXXXX  X XXXXX      X  X X    X X  
     X                   XXX X  X                                                 XXXXX XXX     X    X       X                       
     X                   XXX X  X                                                 X XX  X X     X    X                               
     X                   XXX X  X                                                 X  X  X X          X                               
     X                   XXX X  X                                                    X                                               
     X                   XXX X  X                                                    X                                               
     X                   XXX X  X                                                    X                                               
                         XXX X  X                                                    X                                               
                         X X X  X                                                    X                                               
                         X X X  X                                                    X                                               
                         X X    X                                                    X                                               
                         X X    X                                                    X                                               
                         X      X                                                    X                                               
                         X      X                                                                                                    
                         X      X                                                                                                    
                         X      X                                                                                                    
                         X      X                                                                                                    
                         X      X                                                                                                    
                         X      X                                                                                                    
                         X      X                                                                                                    
 
 -------------------------------------------------------------------
 Center     Atomic                   Forces (Hartrees/Bohr)
 Number     Number              X              Y              Z
 -------------------------------------------------------------------
      1        6          -0.000011918   -0.000010111   -0.000000503
      2        6          -0.000002409   -0.000013774   -0.000002418
      3        6           0.000006255   -0.000001664   -0.000001947
      4        1          -0.000001749   -0.000008570   -0.000002156
      5        6           0.000001968    0.000002178   -0.000000588
      6        7          -0.000009097   -0.000001381    0.000001569
      7        1          -0.000007933   -0.000005658    0.000001589
      8        6           0.000008957    0.000008650    0.000002389
      9        1           0.000004436   -0.000007566   -0.000002874
     10        1           0.000006278    0.000004699   -0.000000636
     11        1           0.000001091    0.000005690   -0.000001223
     12        8           0.000005032    0.000040119    0.000008320
     13        1          -0.000000910   -0.000012613   -0.000001523
 -------------------------------------------------------------------
 Cartesian Forces:  Max     0.000040119 RMS     0.000008735
 Force constants in Cartesian coordinates: 
                1             2             3             4             5 
      1  0.542576D+00
      2 -0.669407D-01  0.674273D+00
      3  0.295849D-01  0.261408D+00  0.252813D+00
      4 -0.166242D+00 -0.983684D-01 -0.629319D-01  0.789048D+00
      5 -0.783050D-01 -0.189629D+00 -0.757185D-01 -0.332540D-01  0.448057D+00
      6 -0.525271D-01 -0.773087D-01 -0.105704D+00  0.805306D-01  0.162681D+00
      7  0.172566D-01  0.222911D-01  0.106425D-01 -0.164334D+00  0.771453D-01
      8 -0.232540D-01 -0.596061D-01 -0.385226D-01  0.995473D-01 -0.198843D+00
      9 -0.959965D-02 -0.318645D-01 -0.380118D-02  0.328681D-01 -0.595003D-01
     10 -0.742962D-02  0.764622D-02  0.325457D-02 -0.332398D+00  0.203317D-01
     11 -0.178381D-01  0.829657D-02  0.320933D-02  0.204894D-01 -0.518001D-01
     12 -0.962097D-02  0.655219D-02 -0.115302D-02 -0.319547D-01 -0.122390D-01
     13 -0.409393D-01  0.378535D-01  0.108128D-01 -0.659492D-01  0.526199D-01
     14  0.704010D-01 -0.618417D-01 -0.263674D-01  0.467168D-02  0.164883D-02
     15  0.220538D-01 -0.299504D-01  0.691986D-03 -0.912697D-02  0.627797D-02
     16 -0.275388D+00  0.422050D-01 -0.927554D-02 -0.776376D-01 -0.345571D-01
     17  0.650960D-01 -0.101086D+00 -0.598520D-02  0.105246D-01  0.444945D-02
     18 -0.358823D-03 -0.982025D-02 -0.732778D-01 -0.987488D-02 -0.106880D-01
     19 -0.687453D-01  0.513165D-01  0.185116D-01  0.106266D-01 -0.147185D-01
     20  0.542127D-01 -0.263489D+00 -0.111143D+00  0.919396D-02 -0.847816D-02
     21  0.199462D-01 -0.111965D+00 -0.746060D-01  0.608648D-02 -0.579724D-02
     22  0.125935D-01 -0.355634D-02 -0.815590D-03 -0.218714D-02 -0.998593D-02
     23 -0.516753D-02 -0.489074D-02 -0.475498D-02 -0.370333D-02  0.412067D-02
     24 -0.575578D-02 -0.375974D-02  0.135701D-02 -0.404138D-02  0.176918D-02
     25 -0.378778D-02  0.383609D-02  0.885331D-03  0.112286D-01  0.139021D-01
     26  0.184545D-02 -0.238647D-02 -0.254491D-02 -0.112016D-01 -0.843051D-02
     27 -0.287186D-03 -0.229522D-02  0.215416D-02 -0.357697D-02 -0.974149D-03
     28  0.994770D-04  0.116929D-02  0.103396D-02  0.162034D-03  0.197674D-03
     29  0.000000D+00 -0.572779D-03 -0.392532D-03  0.541536D-03 -0.521465D-03
     30  0.665319D-04 -0.160217D-03 -0.290275D-03  0.317655D-03 -0.226671D-03
     31 -0.254184D-02  0.454337D-03 -0.709189D-04 -0.145302D-02  0.875129D-03
     32 -0.995130D-04  0.589222D-04  0.294087D-03  0.707780D-03  0.655735D-04
     33  0.236151D-03  0.204844D-03  0.609842D-03  0.316186D-03 -0.492566D-03
     34 -0.768901D-02  0.191760D-02 -0.148661D-02 -0.171934D-02  0.633130D-02
     35 -0.584860D-03  0.140722D-02  0.576576D-04  0.727830D-03 -0.379722D-04
     36  0.598037D-02 -0.278419D-03  0.102223D-02  0.212717D-02 -0.519272D-02
     37  0.237054D-03  0.175749D-03 -0.145060D-03  0.854675D-03 -0.582508D-03
     38  0.634463D-03 -0.533682D-03  0.460076D-03  0.123322D-03 -0.601225D-03
     39  0.281544D-03 -0.762093D-03  0.183679D-03 -0.739454D-03  0.100751D-03
                6             7             8             9            10 
      6  0.194745D+00
      7  0.221543D-01  0.549635D+00
      8 -0.554262D-01  0.433186D-01  0.637840D+00
      9 -0.807963D-01  0.840604D-01  0.268270D+00  0.249901D+00
     10 -0.325038D-01 -0.651309D-02 -0.555740D-02 -0.327277D-02  0.351803D+00
     11 -0.121551D-01  0.200776D-01  0.558286D-02  0.637211D-02 -0.222107D-01
     12 -0.308898D-01  0.903971D-02  0.303071D-02  0.696471D-03  0.344078D-01
     13  0.135186D-01 -0.276842D+00 -0.621117D-01 -0.594211D-01 -0.197135D-02
     14 -0.455179D-02 -0.429706D-01 -0.942717D-01 -0.250409D-01  0.122874D-02
     15  0.132188D-01 -0.480861D-01 -0.284805D-01 -0.807366D-01 -0.910508D-05
     16 -0.315690D-01 -0.214103D-01 -0.843020D-02 -0.110422D-01 -0.308840D-02
     17 -0.512144D-02 -0.510798D-01 -0.444334D-01 -0.364134D-01 -0.100560D-02
     18  0.120632D-01 -0.291544D-01 -0.318414D-01 -0.199502D-02 -0.189233D-02
     19 -0.569095D-02 -0.263089D-02 -0.248985D-02 -0.217257D-02 -0.293275D-04
     20 -0.284022D-02 -0.250170D-02 -0.124933D-02 -0.297303D-02 -0.740811D-03
     21 -0.230869D-02 -0.183398D-02 -0.306809D-02  0.227483D-02 -0.568367D-04
     22 -0.489827D-02 -0.236134D-01  0.195526D-01  0.481868D-02  0.120064D-03
     23 -0.279738D-03 -0.168624D-02  0.404809D-02  0.435831D-02 -0.192772D-03
     24  0.453001D-02 -0.243109D-02  0.633672D-02  0.293084D-02 -0.869229D-03
     25  0.885626D-02 -0.775381D-01 -0.624743D-01 -0.395630D-01  0.103321D-03
     26 -0.492395D-02 -0.635112D-01 -0.250081D+00 -0.121993D+00  0.369926D-03
     27 -0.279167D-02 -0.391432D-01 -0.121868D+00 -0.862556D-01  0.506155D-03
     28 -0.250319D-03  0.833805D-03 -0.910345D-03  0.421048D-03  0.124060D-04
     29 -0.308789D-03 -0.121652D-02  0.154721D-02  0.223419D-03  0.462351D-04
     30  0.125000D-03 -0.827185D-04  0.623612D-03 -0.668257D-03  0.691869D-04
     31  0.135452D-02  0.168466D-03  0.386591D-02 -0.398700D-03 -0.331151D-03
     32  0.378098D-03  0.864043D-03 -0.141956D-02 -0.594943D-03  0.156469D-03
     33 -0.400090D-03 -0.931046D-04  0.255030D-03  0.654943D-03  0.986569D-04
     34  0.984684D-03  0.587496D-02 -0.135811D-02  0.353630D-02 -0.395497D-03
     35  0.682937D-04 -0.818396D-04  0.781779D-03 -0.335589D-03 -0.959978D-04
     36 -0.166597D-02 -0.505476D-02  0.938048D-03 -0.223504D-02  0.336500D-03
     37  0.403789D-04 -0.886651D-03  0.301554D-03 -0.234590D-03  0.117351D-03
     38 -0.211602D-03 -0.648779D-03  0.104374D-03 -0.507973D-03  0.239575D-04
     39 -0.125715D-03 -0.175559D-04 -0.247305D-03  0.298163D-04 -0.688631D-04
               11            12            13            14            15 
     11  0.424225D-01
     12  0.850131D-02  0.273489D-01
     13  0.309391D-02  0.397353D-03  0.714775D+00
     14 -0.428808D-02 -0.312230D-02 -0.809354D-01  0.504803D+00
     15 -0.344842D-02  0.185763D-02  0.242000D-01  0.163046D+00  0.249545D+00
     16 -0.424190D-02 -0.342489D-02 -0.909911D-01 -0.501656D-02 -0.268501D-02
     17 -0.807713D-03 -0.417563D-02 -0.245745D-01 -0.227732D+00 -0.826082D-01
     18 -0.443115D-02  0.431961D-02 -0.171860D-01 -0.749525D-01 -0.112140D+00
     19  0.862610D-03  0.744301D-03 -0.614776D-02  0.141569D-02 -0.902456D-03
     20 -0.409076D-03  0.888401D-03  0.264137D-02  0.163465D-02 -0.145899D-02
     21  0.107032D-02 -0.188171D-02 -0.465728D-03 -0.170547D-02  0.435586D-02
     22  0.371132D-03  0.681376D-03 -0.189800D+00  0.573913D-01  0.560624D-02
     23  0.128505D-02 -0.748395D-03  0.567277D-01 -0.118124D+00 -0.186471D-01
     24  0.266371D-03  0.153736D-02  0.522920D-03 -0.179348D-01 -0.693000D-01
     25 -0.134009D-02 -0.313362D-03  0.391822D-02 -0.216284D-01 -0.953963D-02
     26 -0.971001D-04  0.116817D-02  0.373286D-02 -0.228950D-02  0.643846D-03
     27  0.932735D-03 -0.185168D-02  0.194297D-02 -0.312385D-02 -0.376146D-02
     28 -0.691311D-04 -0.753464D-04  0.781384D-02  0.269806D-01  0.812330D-02
     29  0.397669D-04  0.763916D-04 -0.499111D-02 -0.138346D-01 -0.585210D-02
[...]
 Beta(0;0,0):
               (au)            (10**-30 esu)      (10**-50 SI)
   || (z)    -0.152966D+03     -0.132151D+01     -0.490464D+00
   _|_(z)    -0.509887D+02     -0.440502D+00     -0.163488D+00
   x          0.194136D+04      0.167719D+02      0.622472D+01
   y         -0.925937D+03     -0.799938D+01     -0.296889D+01
   z         -0.764830D+03     -0.660754D+01     -0.245232D+01
   ||         0.456562D+03      0.394434D+01      0.146390D+01
   xxx        0.809443D+03      0.699296D+01      0.259537D+01
   xxy       -0.344742D+03     -0.297830D+01     -0.110537D+01
   yxy       -0.254866D+02     -0.220184D+00     -0.817192D-01
   yyy        0.220809D+02      0.190762D+00      0.707995D-01
   xxz       -0.186264D+03     -0.160918D+01     -0.597230D+00
   yxz        0.157045D+03      0.135674D+01      0.503542D+00
   yyz       -0.242098D+02     -0.209154D+00     -0.776253D-01
   zxz       -0.136835D+03     -0.118215D+01     -0.438743D+00
   zyz        0.140152D+02      0.121080D+00      0.449377D-01
   zzz       -0.444696D+02     -0.384183D+00     -0.142586D+00

 ----------------------------------------------------------------------

 Dipole orientation:
     6          0.22139388          1.12955128          1.22374669
     6         -1.79742362         -0.53317270          1.65881594
     6         -2.00963458         -2.00517745         -0.57017272
     1         -2.93609275         -0.67196073          3.35330212
     6         -0.10003756         -1.14471906         -2.19751603
     7          1.26390344          0.76782186         -1.10584393
     1          0.97115776          2.54743843          2.49992791
     6          0.43372010         -1.93682568         -4.83936602
     1         -3.36195885         -3.49206553         -0.95611362
     1         -0.46070491         -3.74498845         -5.27091877
     1          2.47530636         -2.12416488         -5.15258031
     8         -0.55086831         -0.17167069         -6.72173386
     1         -0.20647827          1.49047973         -6.05671803

 Electric dipole moment (dipole orientation):
 (Debye = 10**-18 statcoulomb cm , SI units = C m)
                  (au)            (Debye)         (10**-30 SI)
   Tot        0.175914D+01      0.447130D+01      0.149146D+02
   x          0.000000D+00      0.000000D+00      0.000000D+00
   y          0.000000D+00      0.000000D+00      0.000000D+00
   z          0.175914D+01      0.447130D+01      0.149146D+02

 Dipole polarizability, Alpha (dipole orientation).
 (esu units = cm**3 , SI units = C**2 m**2 J**-1)
 Alpha(0;0):
               (au)            (10**-24 esu)      (10**-40 SI)
   iso        0.111608D+03      0.165385D+02      0.184016D+02
   aniso      0.415303D+02      0.615415D+01      0.684742D+01
   xx         0.103343D+03      0.153139D+02      0.170390D+02
   yx         0.126587D+02      0.187583D+01      0.208714D+01
   yy         0.102047D+03      0.151218D+02      0.168253D+02
   zx        -0.104811D+02     -0.155314D+01     -0.172810D+01
   zy         0.813087D+01      0.120487D+01      0.134060D+01
   zz         0.129432D+03      0.191799D+02      0.213405D+02

 First dipole hyperpolarizability, Beta (dipole orientation).
 ||, _|_  parallel and perpendicular components, (z) with respect to z axis,
 vector components x,y,z.  Values do not include the 1/n! factor of 1/2.
 (esu units = statvolt**-1 cm**4 , SI units = C**3 m**3 J**-2)
 Beta(0;0,0):
               (au)            (10**-30 esu)      (10**-50 SI)
   || (z)    -0.449944D+03     -0.388716D+01     -0.144268D+01
   _|_(z)    -0.149981D+03     -0.129572D+01     -0.480894D+00
   x          0.132478D+03      0.114450D+01      0.424771D+00
   y         -0.363917D+03     -0.314396D+01     -0.116685D+01
   z         -0.224972D+04     -0.194358D+02     -0.721341D+01
   ||         0.456562D+03      0.394434D+01      0.146390D+01
   xxx       -0.169590D+03     -0.146513D+01     -0.543767D+00
   xxy        0.788975D+02      0.681613D+00      0.252974D+00
   yxy       -0.674828D+02     -0.582999D+00     -0.216374D+00
   yyy       -0.320972D+02     -0.277295D+00     -0.102915D+00
   xxz        0.973215D+01      0.840782D-01      0.312048D-01
   yxz       -0.183294D+02     -0.158352D+00     -0.587707D-01
   yyz        0.166273D+03      0.143647D+01      0.533132D+00
   zxz        0.281232D+03      0.242963D+01      0.901732D+00
   zyz       -0.168106D+03     -0.145230D+01     -0.539008D+00
   zzz       -0.925912D+03     -0.799916D+01     -0.296881D+01

 ----------------------------------------------------------------------
 Unable to Open any file for archive entry.
 1\1\GINC-NODE0635\Freq\RB3LYP\6-311+G(d,p)\C5H6N1O1(1-)\SVICCHI\14-Dec
 -2023\0\\#p freq=raman scale=0.967 guess=read geom=allcheck b3lyp/6-31
 1+G(d,p) int=grid=ultrafine EmpiricalDispersion=GD3BJ SCRF=(Solvent=et
 hanol) scf=(xqc,intrep,maxconventionalcycle=350) nosymm\\PyrMeOH-isola
 ted\\-1,1\C,-0.4046246044,0.7598499919,0.2219807704\C,-1.2606124535,-0
 .1859947347,-0.3620910996\C,-0.4250155576,-1.259456398,-0.7622470747\H
 ,-2.33536637,-0.112727052,-0.4718494704\C,0.8777620753,-0.8949272336,-
 0.3881556894\N,0.8921945381,0.3369142226,0.2129437461\H,-0.673400118,1
 .7169445261,0.6557806463\C,2.1499959486,-1.6216166892,-0.6396410808\H,
 -0.7216652949,-2.1764573148,-1.2562375641\H,1.9640509268,-2.6677391877
 ,-0.890172021\H,2.7992880836,-1.5868194343,0.244490225\O,2.904855372,-
 1.0839526316,-1.7698184257\H,2.8313164541,-0.1249090647,-1.6954629622\
 \Version=ES64L-G16RevC.02\HF=-324.329962\RMSD=5.436e-09\RMSF=8.735e-06
 \ZeroPoint=0.0977374\Thermal=0.1042884\ETot=-324.2256736\HTot=-324.224
 7294\GTot=-324.2630665\Dipole=-0.0694673,-0.6590426,-0.2617343\DipoleD
 eriv=0.2633527,0.2030944,0.2477055,0.0705737,-0.0867071,0.1378061,0.15
 00753,0.150642,-0.2225343,-0.3347919,-0.0529655,-0.0010484,0.1138051,-
 0.0397896,0.1592031,0.0664917,0.1741849,-0.3739325,0.1388443,-0.146265
 7,-0.0159965,-0.2651581,-0.2382598,0.0499972,-0.0268048,0.0440713,-0.3
 82071,-0.2477862,0.0380228,-0.0504726,0.0384092,0.1207707,-0.0706406,-
 0.051104,-0.0609556,0.2384524,-0.2880872,0.2775516,0.2231027,0.5273431
 ,-0.0185239,0.1831465,0.1460018,0.3073631,-0.1649792,-0.8331534,-0.336
 3341,-0.2393468,-0.3229908,-0.5587513,-0.0906622,-0.2580672,-0.1085678
 ,-0.4822245,0.0368662,0.0723318,0.0092705,0.113207,-0.1491202,-0.17340
 66,0.0263865,-0.1861651,0.1413718,1.1546467,-0.098751,-0.3288579,0.007
 7361,0.5877788,-0.2237994,-0.4224211,-0.092141,0.9721052,0.0709978,-0.
 0564347,-0.0588753,-0.0692044,-0.1130256,-0.196047,-0.0687028,-0.19538
 94,0.168508,0.0268712,-0.0582649,0.0075928,0.0019998,-0.2061789,-0.031
 3572,0.0453277,-0.0994337,0.0173904,-0.2076595,0.0743316,-0.1068931,-0
 .0537473,0.0457778,0.0009857,-0.1107191,0.0510681,-0.2162864,-1.231013
 4,0.0636839,0.3045583,-0.1665914,-0.5433502,0.2655718,0.5040773,0.0772
 528,-0.9981339,0.4509127,0.0199996,0.0092609,0.004618,0.1993793,-0.010
 7974,-0.0005413,-0.0619295,0.3023339\Polar=131.0676859,-6.2617081,111.
 1279681,-1.5781191,12.7918064,92.6271298\PolarDeriv=18.5829293,-14.114
 0362,-1.3634305,-7.3512868,-5.0994028,0.0912929,10.029181,-3.28064,12.
 8238575,0.0257524,-3.9175124,6.0459935,7.4551595,-2.7868912,-5.4580842
 ,-5.1061463,5.2684457,12.6450047,-3.4221503,-1.815977,-4.3070881,1.620
 4861,3.2186576,-9.2792687,-11.0337351,13.8537576,-8.0011672,13.151347,
 -2.8262033,-0.9006454,-4.789566,12.0579073,-5.3552288,-4.5730315,-0.12
 31249,-4.1598037,-11.2026526,13.1787074,-12.8908994,9.4854125,-2.43446
 53,-3.8065769,-3.0222253,-7.4629331,-0.9155002,-0.6555591,7.3134838,-3
 .5785241,-0.3906913,2.9352522,4.3615283,-3.2822274,-2.5560003,-10.9941
 2,-18.2706094,1.4650621,-0.523774,-2.3112739,-0.4042756,0.3484894,1.75
 76422,-0.9921831,-0.037432,-1.9244716,0.0962698,-0.399722,-1.9895325,-
 2.0516644,0.3808957,2.1786643,-0.4544633,0.3956538,28.3442951,-10.1124
 25,15.2292716,-8.1084148,5.1602124,11.7375122,-24.6490814,4.0340917,2.
 4879842,-1.9362691,1.755435,3.2178045,-8.6484342,-3.7647486,10.2486275
 ,6.2383042,-2.0556372,2.7084707,-8.6110021,8.9806097,8.1573213,4.92051
 68,3.7659923,2.7481476,19.0773386,-2.0252965,-3.8757412,-2.3673191,-2.
 2580991,-3.7299327,9.3609195,-2.8969472,-3.0669706,0.5515639,2.5288808
 ,3.4001185,-1.7144285,3.0836789,-3.2519281,1.0626226,-0.7337452,-0.019
 1475,1.3676114,-3.9192648,10.6415811,-2.3451057,6.5589618,2.8738011,0.
 1299358,-1.6279976,7.6740475,0.7409778,0.9431932,-1.1202651,-26.516317
 5,8.7938763,4.2308137,5.1443788,-1.8023831,-3.7759485,-0.6773521,-0.37
 34727,9.6119938,1.3582172,2.8512162,-1.9242758,7.2834797,-1.8387905,0.
 6052287,-13.1923733,3.5554336,-5.268271,-1.8160912,-2.1339565,-2.36902
 12,-1.4571624,-1.8153671,-1.2113703,-1.3257349,-3.2684559,-9.5548298,-
 2.4582941,-6.4007048,-3.2167657,-1.294038,-2.951257,-7.167259,-0.68529
 05,-1.7368873,0.4825987,-2.062102,-1.6510662,-1.9827877,0.6494366,-0.3
 936326,-0.6040847,-1.2756533,1.2047458,-13.3431069,0.4545609,-2.211409
 6,-0.8095542,-0.7020168,0.6024514,-2.4456747,0.793067,-2.3628465,-0.81
 39747,9.7631612,-2.7627302,0.4354546,4.3294799,-0.9995684,2.8079372,3.
 1814412,0.6160297,-1.0799608,-1.2084277,1.7560313,1.245946,7.9806751,-
 1.8314735,1.1396348,5.2492005,-1.4373841,9.1211957,16.1278177,-3.71467
 74,-2.4688694,-8.8246668,1.9774943,0.6623376,0.9845454,0.9055932,-7.88
 95144,0.4591099,-1.7651269,-1.8161032,-15.2678278,4.6648609,-0.5880621
 ,11.2666021,-2.4173442,-5.5256185,0.7971502,0.802934,1.1049371,0.84047
 14,-0.4395166,0.3006798,5.5860222,0.708028,9.1318359,-2.5535409,-0.952
 3418,2.9919779,0.8719371,-0.5107019,-0.328683,-0.1793107,0.8477344,-0.
 8709891\HyperPolar=809.4432058,-344.7418665,-25.4865841,22.0809356,-18
 6.2640075,157.0445726,-24.209783,-136.8350836,14.0151734,-44.4696052\Q
 uadrupole=-3.8825644,4.5557673,-0.6732029,2.4520287,4.2929942,-2.86177
 68\PG=C01 [X(C5H6N1O1)]\NImag=0\\0.54257630,-0.06694067,0.67427293,0.0
 2958487,0.26140773,0.25281295,-0.16624219,-0.09836838,-0.06293185,0.78
 904830,-0.07830504,-0.18962885,-0.07571851,-0.03325404,0.44805657,-0.0
 5252707,-0.07730873,-0.10570350,0.08053064,0.16268118,0.19474474,0.017
 25660,0.02229110,0.01064246,-0.16433407,0.07714533,0.02215435,0.549635
 05,-0.02325398,-0.05960612,-0.03852263,0.09954730,-0.19884282,-0.05542
 620,0.04331856,0.63783978,-0.00959965,-0.03186445,-0.00380118,0.032868
 12,-0.05950026,-0.08079628,0.08406043,0.26827016,0.24990113,-0.0074296
 2,0.00764622,0.00325457,-0.33239761,0.02033170,-0.03250376,-0.00651309
 ,-0.00555740,-0.00327277,0.35180290,-0.01783811,0.00829657,0.00320933,
 0.02048938,-0.05180010,-0.01215511,0.02007765,0.00558286,0.00637211,-0
 .02221066,0.04242252,-0.00962097,0.00655219,-0.00115302,-0.03195474,-0
 .01223897,-0.03088983,0.00903971,0.00303071,0.00069647,0.03440783,0.00
 850131,0.02734891,-0.04093931,0.03785347,0.01081283,-0.06594925,0.0526
 1989,0.01351859,-0.27684241,-0.06211174,-0.05942107,-0.00197135,0.0030
 9391,0.00039735,0.71477513,0.07040104,-0.06184172,-0.02636740,0.004671
 68,0.00164883,-0.00455179,-0.04297062,-0.09427165,-0.02504090,0.001228
 74,-0.00428808,-0.00312230,-0.08093543,0.50480336,0.02205380,-0.029950
 38,0.00069199,-0.00912697,0.00627797,0.01321876,-0.04808608,-0.0284804
 6,-0.08073664,-0.00000911,-0.00344842,0.00185763,0.02419997,0.16304650
 ,0.24954482,-0.27538793,0.04220501,-0.00927554,-0.07763761,-0.03455708
 ,-0.03156903,-0.02141029,-0.00843020,-0.01104221,-0.00308840,-0.004241
 90,-0.00342489,-0.09099105,-0.00501656,-0.00268501,0.47979774,0.065096
 03,-0.10108648,-0.00598520,0.01052460,0.00444945,-0.00512144,-0.051079
 75,-0.04443337,-0.03641341,-0.00100560,-0.00080771,-0.00417563,-0.0245
 7451,-0.22773170,-0.08260819,-0.02904509,0.39927229,-0.00035882,-0.009
 82025,-0.07327784,-0.00987488,-0.01068799,0.01206323,-0.02915444,-0.03
 184136,-0.00199502,-0.00189233,-0.00443115,0.00431961,-0.01718597,-0.0
 7495249,-0.11213995,0.04224607,0.13875988,0.17706867,-0.06874528,0.051
 31651,0.01851155,0.01062665,-0.01471852,-0.00569095,-0.00263089,-0.002
 48985,-0.00217257,-0.00002933,0.00086261,0.00074430,-0.00614776,0.0014
 1569,-0.00090246,-0.00562544,0.02887021,0.01447994,0.07120550,0.054212
 71,-0.26348880,-0.11114272,0.00919396,-0.00847816,-0.00284022,-0.00250
 170,-0.00124933,-0.00297303,-0.00074081,-0.00040908,0.00088840,0.00264
 137,0.00163465,-0.00145899,0.00290222,-0.00723954,0.00035441,-0.066459
 53,0.27957193,0.01994622,-0.11196526,-0.07460604,0.00608648,-0.0057972
 4,-0.00230869,-0.00183398,-0.00306809,0.00227483,-0.00005684,0.0010703
 2,-0.00188171,-0.00046573,-0.00170547,0.00435586,0.00142043,0.00456068
 ,-0.00465177,-0.02518400,0.11863654,0.07461722,0.01259352,-0.00355634,
 -0.00081559,-0.00218714,-0.00998593,-0.00489827,-0.02361340,0.01955263
 ,0.00481868,0.00012006,0.00037113,0.00068138,-0.18980003,0.05739134,0.
 00560624,-0.00478166,0.01224798,0.00730806,0.00085741,-0.00061954,-0.0
 0019432,0.47146118,-0.00516753,-0.00489074,-0.00475498,-0.00370333,0.0
 0412067,-0.00027974,-0.00168624,0.00404809,0.00435831,-0.00019277,0.00
 128505,-0.00074840,0.05672769,-0.11812402,-0.01864714,0.03398387,-0.02
 487822,-0.00402834,0.00163569,0.00003253,-0.00085175,-0.00960572,0.591
 79850,-0.00575578,-0.00375974,0.00135701,-0.00404138,0.00176918,0.0045
 3001,-0.00243109,0.00633672,0.00293084,-0.00086923,0.00026637,0.001537
 36,0.00052292,-0.01793483,-0.06930001,0.01879046,-0.00960954,-0.010527
 53,0.00034029,-0.00059826,0.00143160,0.09370662,0.06576870,0.44892217,
 -0.00378778,0.00383609,0.00088533,0.01122856,0.01390209,0.00885626,-0.
 07753808,-0.06247432,-0.03956301,0.00010332,-0.00134009,-0.00031336,0.
 00391822,-0.02162839,-0.00953963,-0.00508762,-0.00382290,-0.00356782,0
 .00104334,0.00074907,0.00025849,0.00105820,-0.00042828,0.00049500,0.06
 896888,0.00184545,-0.00238647,-0.00254491,-0.01120163,-0.00843051,-0.0
 0492395,-0.06351124,-0.25008124,-0.12199345,0.00036993,-0.00009710,0.0
 0116817,0.00373286,-0.00228950,0.00064385,-0.00039974,0.00062730,-0.00
 298408,-0.00065447,-0.00030181,-0.00094748,0.00021448,-0.00048114,0.00
 074485,0.07052947,0.26315990,-0.00028719,-0.00229522,0.00215416,-0.003
 57697,-0.00097415,-0.00279167,-0.03914322,-0.12186823,-0.08625561,0.00
 050616,0.00093273,-0.00185168,0.00194297,-0.00312385,-0.00376146,-0.00
 171256,-0.00349655,0.00456467,-0.00035769,-0.00073596,0.00107089,0.000
 27880,0.00057199,-0.00214181,0.04235300,0.13052879,0.08882374,0.000099
 48,0.00116929,0.00103396,0.00016203,0.00019767,-0.00025032,0.00083381,
 -0.00091035,0.00042105,0.00001241,-0.00006913,-0.00007535,0.00781384,0
 .02698060,0.00812330,-0.00460779,0.00266045,-0.00091754,-0.00053894,0.
 00008409,0.00030170,-0.05731006,-0.03809112,-0.01464215,-0.00012235,-0
 .00031192,-0.00005667,0.06179065,0.00000002,-0.00057278,-0.00039253,0.
 00054154,-0.00052147,-0.00030879,-0.00121652,0.00154721,0.00022342,0.0
 0004624,0.00003977,0.00007639,-0.00499111,-0.01383462,-0.00585210,0.00
 353075,-0.00059427,0.00032383,0.00035163,-0.00010308,0.00000940,-0.037
 94145,-0.28278010,-0.06261096,0.00046098,0.00015696,0.00030252,0.04733
 997,0.31124885,0.00006653,-0.00016022,-0.00029028,0.00031765,-0.000226
 67,0.00012500,-0.00008272,0.00062361,-0.00066826,0.00006919,-0.0000256
 2,0.00007852,-0.00215974,-0.00382457,-0.00086667,0.00176843,-0.0018113
 2,0.00187963,0.00017168,0.00004575,-0.00021150,-0.01675580,-0.07161984
 ,-0.06532463,0.00013673,0.00001604,0.00011811,0.00653075,0.06350526,0.
 07323437,-0.00254184,0.00045434,-0.00007092,-0.00145302,0.00087513,0.0
 0135452,0.00016847,0.00386591,-0.00039870,-0.00033115,0.00023578,0.000
 54799,-0.02271654,-0.00159397,-0.02134522,0.00366110,-0.00333905,0.000
 26035,0.00001545,0.00014478,-0.00002042,-0.13764657,-0.00805528,-0.122
 08397,0.00022016,-0.00006463,-0.00033333,-0.00220509,-0.00012455,-0.00
 345746,0.15291695,-0.00009951,0.00005892,0.00029409,0.00070778,0.00006
 557,0.00037810,0.00086404,-0.00141956,-0.00059494,0.00015647,-0.000100
 89,-0.00024260,0.01185447,0.00376288,0.01169621,-0.00092102,0.00150404
 ,0.00023785,-0.00002965,0.00011618,-0.00018999,-0.00695391,-0.05577867
 ,-0.01703352,0.00015869,0.00013273,0.00001407,-0.01870859,0.00010928,-
 0.02313204,0.00940505,0.05014569,0.00023615,0.00020484,0.00060984,0.00
 031619,-0.00049257,-0.00040009,-0.00009310,0.00025503,0.00065494,0.000
 09866,0.00014301,-0.00021649,0.00228753,-0.00264794,0.00550007,0.00025
 409,0.00110458,-0.00001882,-0.00003121,0.00006416,-0.00006678,-0.12122
 627,-0.01289146,-0.19111849,0.00000304,-0.00009276,0.00011101,-0.00584
 612,-0.00185831,-0.00452887,0.12357223,0.00739907,0.22579991,-0.007689
 01,0.00191760,-0.00148661,-0.00171934,0.00633130,0.00098468,0.00587496
 ,-0.00135811,0.00353630,-0.00039550,0.00062381,-0.00050077,-0.03137105
 ,-0.00828623,0.03354429,0.00474651,-0.00787519,-0.00096710,-0.00016185
 ,0.00050121,-0.00017162,-0.06978980,0.00018438,0.03400586,-0.00010145,
 -0.00066220,0.00030461,-0.00361670,-0.00549310,0.00927307,0.00961475,0
 .00293567,0.00052289,0.11279670,-0.00058486,0.00140722,0.00005766,0.00
 072783,-0.00003797,0.00006829,-0.00008184,0.00078178,-0.00033559,-0.00
 009600,-0.00003385,0.00031261,0.00247647,0.00799266,-0.00969846,0.0008
 8898,0.00002661,-0.00102283,-0.00007881,-0.00004842,0.00019149,-0.0211
 6161,-0.09710918,0.03752159,0.00009615,-0.00004675,0.00016775,-0.01974
 268,-0.01554999,0.03364228,-0.00222178,0.00130232,0.00978250,-0.019096
 37,0.60201814,0.00598037,-0.00027842,0.00102223,0.00212717,-0.00519272
 ,-0.00166597,-0.00505476,0.00093805,-0.00223504,0.00033650,-0.00044006
 ,0.00030443,0.02473795,-0.00065561,-0.00980194,-0.00309351,0.00480619,
 0.00244015,0.00015509,-0.00032547,-0.00005206,0.02984249,0.00765311,-0
 .11975620,0.00004701,0.00045434,0.00000018,0.00340207,0.00496700,-0.00
 017976,0.02198272,0.02049646,-0.03560683,-0.10135246,-0.00554778,0.199
 32071,0.00023705,0.00017575,-0.00014506,0.00085468,-0.00058251,0.00004
 038,-0.00088665,0.00030155,-0.00023459,0.00011735,-0.00005439,0.000071
 54,0.00022156,-0.00165789,-0.00183314,0.00041245,0.00134282,-0.0003755
 2,0.00013114,-0.00010783,-0.00008641,-0.00096173,-0.02560135,0.0019624
 4,0.00009659,0.00011364,0.00008208,-0.00231129,-0.00250439,0.00412168,
 0.00029733,0.00063051,-0.00009406,-0.01818821,0.05887453,0.02088938,0.
 01997972,0.00063446,-0.00053368,0.00046008,0.00012332,-0.00060123,-0.0
 0021160,-0.00064878,0.00010437,-0.00050797,0.00002396,-0.00008995,-0.0
 0000189,0.00161266,0.00253892,-0.00152038,-0.00089924,0.00089160,0.000
 09251,-0.00002150,-0.00003707,0.00005685,0.00004692,-0.01724276,-0.000
 86055,-0.00003857,0.00003762,-0.00002390,-0.00059829,0.00085423,0.0029
 6733,0.00041827,0.00010150,-0.00097016,0.03027722,-0.50070256,-0.02687
 509,-0.03093044,0.51467901,0.00028154,-0.00076209,0.00018368,-0.000739
 45,0.00010075,-0.00012571,-0.00001756,-0.00024730,0.00002982,-0.000068
 86,0.00000517,-0.00015020,0.00081240,0.00088066,0.00143756,-0.00167671
 ,-0.00001006,0.00027495,-0.00006398,0.00008539,0.00002814,0.00164799,0
 .03546954,-0.00254032,-0.00005104,-0.00006940,-0.00004054,0.00197530,0
 .00161488,-0.00336567,-0.00000778,0.00067723,-0.00071940,0.02230686,-0
 .06513953,-0.03378990,-0.02439872,0.02739478,0.03877760\\0.00001192,0.
 00001011,0.00000050,0.00000241,0.00001377,0.00000242,-0.00000626,0.000
 00166,0.00000195,0.00000175,0.00000857,0.00000216,-0.00000197,-0.00000
 218,0.00000059,0.00000910,0.00000138,-0.00000157,0.00000793,0.00000566
 ,-0.00000159,-0.00000896,-0.00000865,-0.00000239,-0.00000444,0.0000075
 7,0.00000287,-0.00000628,-0.00000470,0.00000064,-0.00000109,-0.0000056
 9,0.00000122,-0.00000503,-0.00004012,-0.00000832,0.00000091,0.00001261
 ,0.00000152\\\@
 The archive entry for this job was punched.


 IF AT FIRST YOU DON'T SUCCEED, TRY LOOKING IN 
 THE WASTEBASKET FOR THE DIRECTIONS.
 Job cpu time:       0 days  0 hours 14 minutes 52.6 seconds.
 Elapsed time:       0 days  0 hours  1 minutes 18.6 seconds.
 File lengths (MBytes):  RWF=    112 Int=      0 D2E=      0 Chk=     14 Scr=      1
 Normal termination of Gaussian 16 at Thu Dec 14 13:26:47 2023.
