 Entering Gaussian System, Link 0=g16
 Input=IMIDCOCH3-isolated-freq.gjf
 Output=IMIDCOCH3-isolated-freq.log
 Initial command:
 /software/commercial/gaussian/g16/AVX2/g16/l1.exe "/scratch1/svicchi/G09-1868836.pbs02/Gau-348841.inp" -scrdir="/scratch1/svicchi/G09-1868836.pbs02/"
 Entering Link 1 = /software/commercial/gaussian/g16/AVX2/g16/l1.exe PID=    348842.
  
 Copyright (c) 1988-2021, Gaussian, Inc.  All Rights Reserved.
  
 This is part of the Gaussian(R) 16 program.  It is based on
 the Gaussian(R) 09 system (copyright 2009, Gaussian, Inc.),
 the Gaussian(R) 03 system (copyright 2003, Gaussian, Inc.),
 the Gaussian(R) 98 system (copyright 1998, Gaussian, Inc.),
 the Gaussian(R) 94 system (copyright 1995, Gaussian, Inc.),
 the Gaussian 92(TM) system (copyright 1992, Gaussian, Inc.),
 the Gaussian 90(TM) system (copyright 1990, Gaussian, Inc.),
 the Gaussian 88(TM) system (copyright 1988, Gaussian, Inc.),
 the Gaussian 86(TM) system (copyright 1986, Carnegie Mellon
 University), and the Gaussian 82(TM) system (copyright 1983,
 Carnegie Mellon University). Gaussian is a federally registered
 trademark of Gaussian, Inc.
  
 This software contains proprietary and confidential information,
 including trade secrets, belonging to Gaussian, Inc.
  
 This software is provided under written license and may be
 used, copied, transmitted, or stored only in accord with that
 written license.
  
 The following legend is applicable only to US Government
 contracts under FAR:
  
                    RESTRICTED RIGHTS LEGEND
  
 Use, reproduction and disclosure by the US Government is
 subject to restrictions as set forth in subparagraphs (a)
 and (c) of the Commercial Computer Software - Restricted
 Rights clause in FAR 52.227-19.
  
 Gaussian, Inc.
 340 Quinnipiac St., Bldg. 40, Wallingford CT 06492
  
  
 ---------------------------------------------------------------
 Warning -- This program may not be used in any manner that
 competes with the business of Gaussian, Inc. or will provide
 assistance to any competitor of Gaussian, Inc.  The licensee
 of this program is prohibited from giving any competitor of
 Gaussian, Inc. access to this program.  By using this program,
 the user acknowledges that Gaussian, Inc. is engaged in the
 business of creating and licensing software in the field of
 computational chemistry and represents and warrants to the
 licensee that it is not a competitor of Gaussian, Inc. and that
 it will not use this program in any manner prohibited above.
 ---------------------------------------------------------------
  

 Cite this work as:
 Gaussian 16, Revision C.02,
 M. J. Frisch, G. W. Trucks, H. B. Schlegel, G. E. Scuseria, 
 M. A. Robb, J. R. Cheeseman, G. Scalmani, V. Barone, 
 G. A. Petersson, H. Nakatsuji, X. Li, M. Caricato, A. V. Marenich, 
 J. Bloino, B. G. Janesko, R. Gomperts, B. Mennucci, H. P. Hratchian, 
 J. V. Ortiz, A. F. Izmaylov, J. L. Sonnenberg, D. Williams-Young, 
 F. Ding, F. Lipparini, F. Egidi, J. Goings, B. Peng, A. Petrone, 
 T. Henderson, D. Ranasinghe, V. G. Zakrzewski, J. Gao, N. Rega, 
 G. Zheng, W. Liang, M. Hada, M. Ehara, K. Toyota, R. Fukuda, 
 J. Hasegawa, M. Ishida, T. Nakajima, Y. Honda, O. Kitao, H. Nakai, 
 T. Vreven, K. Throssell, J. A. Montgomery, Jr., J. E. Peralta, 
 F. Ogliaro, M. J. Bearpark, J. J. Heyd, E. N. Brothers, K. N. Kudin, 
 V. N. Staroverov, T. A. Keith, R. Kobayashi, J. Normand, 
 K. Raghavachari, A. P. Rendell, J. C. Burant, S. S. Iyengar, 
 J. Tomasi, M. Cossi, J. M. Millam, M. Klene, C. Adamo, R. Cammi, 
 J. W. Ochterski, R. L. Martin, K. Morokuma, O. Farkas, 
 J. B. Foresman, and D. J. Fox, Gaussian, Inc., Wallingford CT, 2019.
 
 ******************************************
 Gaussian 16:  ES64L-G16RevC.02  7-Dec-2021
                11-Jan-2024 
 ******************************************
 %NProcShared=12
 Will use up to   12 processors via shared memory.
 %mem=110gb
 %chk=/scratch1/svicchi/G09-1868836.pbs02/02-freq/IMIDCOCH3-isolated-freq.chk
 ----------------------------------------------------------------------
 #p freq=raman scale=0.967 guess=read geom=allcheck b3lyp/6-311+G(d,p) 
 int=grid=ultrafine EmpiricalDispersion=GD3BJ SCRF=(Solvent=ethanol) sc
 f=(xqc,intrep,maxconventionalcycle=350) nosymm
 ----------------------------------------------------------------------
 1/10=4,29=7,30=1,38=1,114=967000/1,3;
 2/12=2,15=1,40=1/2;
 3/5=4,6=6,7=111,11=2,14=-4,25=1,30=1,70=2201,71=2,72=4,74=-5,75=-5,116=-2,124=41,140=1/1,2,3;
 4/5=1/1;
 5/5=2,8=3,13=1,17=20,38=6,53=4,85=350,98=1/2,8;
 8/6=4,10=90,11=11/1;
 10/13=10,15=4,31=1/2;
 11/6=3,8=1,9=11,15=111,16=1,31=1/1,2,10;
 10/6=1,31=1/2;
 6/7=2,8=2,9=2,10=2,28=1/1;
 7/8=1,10=1,25=1,30=1/1,2,3,16;
 1/10=4,30=1/3;
 99//99;
 Leave Link    1 at Thu Jan 11 11:59:09 2024, MaxMem= 14763950080 cpu:               0.1 elap:               0.1
 (Enter /software/commercial/gaussian/g16/AVX2/g16/l101.exe)
 Structure from the checkpoint file:  "/scratch1/svicchi/G09-1868836.pbs02/02-freq/IMIDCOCH3-isolated-freq.chk"
 ------------------
 IMIDCOCH3-isolated
 ------------------
 Charge = -1 Multiplicity = 1
 No Z-Matrix found in chk file; cartesian coordinates used.
  C                                                -1.817656677872      3.792756732023     -0.210380351160
  N                                                -1.807066085630      2.424818944588     -0.172475026208
  C                                                -2.166201736787      2.062839419701     -1.421462478486
  C                                                -2.388084243281      3.220257820016     -2.188580264334
  H                                                -2.252845964314      1.025438716347     -1.718227875352
  N                                                -2.168490458573      4.309802849597     -1.424017924576
  H                                                -2.688023327173      3.296844713203     -3.226126575980
  C                                                -1.475158008661      4.611319585021      0.940008909686
  O                                                -1.491358956352      5.849172245155      0.916495718007
  C                                                -1.058252025355      3.902671373239      2.216304416887
  H                                                -1.288394218643      2.840206734294      2.195613817884
  H                                                 0.022499462433      4.025163889283      2.344217383288
  H                                                -1.545557759792      4.384036977533      3.067210250344
 Recover connectivity data from disk.
 ITRead=  0  0  0  0  0  0  0  0  0  0  0  0  0
 MicOpt= -1 -1 -1 -1 -1 -1 -1 -1 -1 -1 -1 -1 -1
 NAtoms=     13 NQM=       13 NQMF=       0 NMMI=      0 NMMIF=      0
                NMic=       0 NMicF=      0.
                    Isotopes and Nuclear Properties:
 (Nuclear quadrupole moments (NQMom) in fm**2, nuclear magnetic moments (NMagM)
  in nuclear magnetons)

  Atom         1           2           3           4           5           6           7           8           9          10
 IAtWgt=          12          14          12          12           1          14           1          12          16          12
 AtmWgt=  12.0000000  14.0030740  12.0000000  12.0000000   1.0078250  14.0030740   1.0078250  12.0000000  15.9949146  12.0000000
 NucSpn=           0           2           0           0           1           2           1           0           0           0
 AtZEff=   3.6000000   4.5500000   3.6000000   3.6000000   1.0000000   4.5500000   1.0000000   3.6000000   5.6000000   3.6000000
 NQMom=    0.0000000   2.0440000   0.0000000   0.0000000   0.0000000   2.0440000   0.0000000   0.0000000   0.0000000   0.0000000
 NMagM=    0.0000000   0.4037610   0.0000000   0.0000000   2.7928460   0.4037610   2.7928460   0.0000000   0.0000000   0.0000000
 AtZNuc=   6.0000000   7.0000000   6.0000000   6.0000000   1.0000000   7.0000000   1.0000000   6.0000000   8.0000000   6.0000000

  Atom        11          12          13
 IAtWgt=           1           1           1
 AtmWgt=   1.0078250   1.0078250   1.0078250
 NucSpn=           1           1           1
 AtZEff=   1.0000000   1.0000000   1.0000000
 NQMom=    0.0000000   0.0000000   0.0000000
 NMagM=    2.7928460   2.7928460   2.7928460
 AtZNuc=   1.0000000   1.0000000   1.0000000
 Leave Link  101 at Thu Jan 11 11:59:09 2024, MaxMem= 14763950080 cpu:               0.1 elap:               0.1
 (Enter /software/commercial/gaussian/g16/AVX2/g16/l103.exe)

 GradGradGradGradGradGradGradGradGradGradGradGradGradGradGradGradGradGrad
 Berny optimization.
 Initialization pass.
 Trust Radius=3.00D-01 FncErr=1.00D-07 GrdErr=1.00D-07 EigMax=2.50D+02 EigMin=1.00D-04
 Number of steps in this run=      2 maximum allowed number of steps=      2.
 GradGradGradGradGradGradGradGradGradGradGradGradGradGradGradGradGradGrad

 Leave Link  103 at Thu Jan 11 11:59:09 2024, MaxMem= 14763950080 cpu:               0.1 elap:               0.1
 (Enter /software/commercial/gaussian/g16/AVX2/g16/l202.exe)
                          Input orientation:                          
 ---------------------------------------------------------------------
 Center     Atomic      Atomic             Coordinates (Angstroms)
 Number     Number       Type             X           Y           Z
 ---------------------------------------------------------------------
      1          6           0       -1.817657    3.792757   -0.210380
      2          7           0       -1.807066    2.424819   -0.172475
      3          6           0       -2.166202    2.062839   -1.421462
      4          6           0       -2.388084    3.220258   -2.188580
      5          1           0       -2.252846    1.025439   -1.718228
      6          7           0       -2.168490    4.309803   -1.424018
      7          1           0       -2.688023    3.296845   -3.226127
      8          6           0       -1.475158    4.611320    0.940009
      9          8           0       -1.491359    5.849172    0.916496
     10          6           0       -1.058252    3.902671    2.216304
     11          1           0       -1.288394    2.840207    2.195614
     12          1           0        0.022499    4.025164    2.344217
     13          1           0       -1.545558    4.384037    3.067210
 ---------------------------------------------------------------------
                    Distance matrix (angstroms):
                    1          2          3          4          5
     1  C    0.000000
     2  N    1.368504   0.000000
     3  C    2.140284   1.349065   0.000000
     4  C    2.136918   2.243877   1.406172   0.000000
     5  H    3.181359   2.132214   1.082487   2.248722   0.000000
     6  N    1.365041   2.291321   2.246966   1.349031   3.298594
     7  H    3.177765   3.295649   2.247639   1.082743   2.760874
     8  C    1.452841   2.475595   3.542434   3.543523   4.530956
     9  O    2.367523   3.607177   4.500864   4.166150   5.548877
    10  C    2.545108   2.907067   4.224439   4.651575   5.018572
    11  H    2.641265   2.459555   3.802379   4.535958   4.420600
    12  H    3.156922   3.498879   4.777183   5.196638   5.538864
    13  H    3.341594   3.795060   5.091300   5.448630   5.889046
                    6          7          8          9         10
     6  N    0.000000
     7  H    2.131571   0.000000
     8  C    2.481984   4.533825   0.000000
     9  O    2.882043   5.010759   1.238182   0.000000
    10  C    3.827575   5.713426   1.518197   2.380326   0.000000
    11  H    4.004499   5.618073   2.179051   3.275853   1.087302
    12  H    4.368187   6.237477   2.135031   2.767158   1.095167
    13  H    4.534830   6.487935   2.140467   2.602908   1.092346
                   11         12         13
    11  H    0.000000
    12  H    1.773316   0.000000
    13  H    1.791431   1.763608   0.000000
 Symmetry turned off by external request.
 Stoichiometry    C5H5N2O(1-)
 Framework group  C1[X(C5H5N2O)]
 Deg. of freedom    33
 Full point group                 C1      NOp   1
 Rotational constants (GHZ):           5.0065753           1.6675049           1.2607431
 Leave Link  202 at Thu Jan 11 11:59:10 2024, MaxMem= 14763950080 cpu:               0.1 elap:               0.0
 (Enter /software/commercial/gaussian/g16/AVX2/g16/l301.exe)
 Standard basis: 6-311+G(d,p) (5D, 7F)
 Ernie: Thresh=  0.10000D-02 Tol=  0.10000D-05 Strict=F.
   206 basis functions,   328 primitive gaussians,   214 cartesian basis functions
    29 alpha electrons       29 beta electrons
       nuclear repulsion energy       337.1551169675 Hartrees.
 IExCor=  402 DFT=T Ex+Corr=B3LYP ExCW=0 ScaHFX=  0.200000
 ScaDFX=  0.800000  0.720000  1.000000  0.810000 ScalE2=  1.000000  1.000000
 IRadAn=      5 IRanWt=     -1 IRanGd=            0 ICorTp=0 IEmpDi=141
 NAtoms=   13 NActive=   13 NUniq=   13 SFac= 1.00D+00 NAtFMM=   60 NAOKFM=F Big=F
 Integral buffers will be    131072 words long.
 Raffenetti 2 integral format.
 Two-electron integral symmetry is turned off.
 R6Disp:  Grimme-D3(BJ) Dispersion energy=       -0.0196598075 Hartrees.
 Nuclear repulsion after empirical dispersion term =      337.1354571600 Hartrees.
 Force inversion solution in PCM.
 ------------------------------------------------------------------------------
 Polarizable Continuum Model (PCM)
 =================================
 Model                : PCM.
 Atomic radii         : UFF (Universal Force Field).
 Polarization charges : Total charges.
 Charge compensation  : None.
 Solution method      : Matrix inversion.
 Cavity type          : Scaled VdW (van der Waals Surface) (Alpha=1.100).
 Cavity algorithm     : GePol (No added spheres)
                        Default sphere list used, NSphG=   13.
                        Lebedev-Laikov grids with approx.  5.0 points / Ang**2.
                        Smoothing algorithm: York/Karplus (Gamma=1.0000).
                        Polarization charges: spherical gaussians, with
                                              point-specific exponents (IZeta= 3).
                        Self-potential: point-specific (ISelfS= 7).
                        Self-field    : sphere-specific E.n sum rule (ISelfD= 2).
 1st derivatives      : Analytical E(r).r(x)/FMM algorithm (CHGder, D1EAlg=3).
                        Cavity 1st derivative terms included.
 2nd derivatives      : Analytical E(r).r(xy)/FMM algorithm (CHGder, D2EAlg=3).
                        Cavity 2nd derivative terms included.
 Solvent              : Ethanol, Eps=  24.852000 Eps(inf)=   1.852593
 ------------------------------------------------------------------------------
 Spheres list:
 ISph  on   Nord     Re0    Alpha      Xe            Ye            Ze
    1   C      1    1.9255  1.100     -1.817657      3.792757     -0.210380
    2   N      2    1.8300  1.100     -1.807066      2.424819     -0.172475
    3   C      3    1.9255  1.100     -2.166202      2.062839     -1.421462
    4   C      4    1.9255  1.100     -2.388084      3.220258     -2.188580
    5   H      5    1.4430  1.100     -2.252846      1.025439     -1.718228
    6   N      6    1.8300  1.100     -2.168490      4.309803     -1.424018
    7   H      7    1.4430  1.100     -2.688023      3.296845     -3.226127
    8   C      8    1.9255  1.100     -1.475158      4.611320      0.940009
    9   O      9    1.7500  1.100     -1.491359      5.849172      0.916496
   10   C     10    1.9255  1.100     -1.058252      3.902671      2.216304
   11   H     11    1.4430  1.100     -1.288394      2.840207      2.195614
   12   H     12    1.4430  1.100      0.022499      4.025164      2.344217
   13   H     13    1.4430  1.100     -1.545558      4.384037      3.067210
 ------------------------------------------------------------------------------
 GePol: Number of generator spheres                  =      13
 GePol: Total number of spheres                      =      13
 GePol: Number of exposed spheres                    =      13 (100.00%)
 GePol: Number of points                             =    1230
 GePol: Average weight of points                     =       0.14
 GePol: Minimum weight of points                     =   0.64D-09
 GePol: Maximum weight of points                     =    0.20577
 GePol: Number of points with low weight             =      66
 GePol: Fraction of low-weight points (<1% of avg)   =       5.37%
 GePol: Cavity surface area                          =    166.078 Ang**2
 GePol: Cavity volume                                =    158.643 Ang**3
 Leave Link  301 at Thu Jan 11 11:59:10 2024, MaxMem= 14763950080 cpu:               0.1 elap:               0.1
 (Enter /software/commercial/gaussian/g16/AVX2/g16/l302.exe)
 NPDir=0 NMtPBC=     1 NCelOv=     1 NCel=       1 NClECP=     1 NCelD=      1
         NCelK=      1 NCelE2=     1 NClLst=     1 CellRange=     0.0.
 One-electron integrals computed using PRISM.
 NBasis=   206 RedAO= T EigKep=  8.45D-06  NBF=   206
 NBsUse=   206 1.00D-06 EigRej= -1.00D+00 NBFU=   206
 Precomputing XC quadrature grid using
 IXCGrd= 4 IRadAn=           5 IRanWt=          -1 IRanGd=           0 AccXCQ= 0.00D+00.
 Generated NRdTot=       0 NPtTot=           0 NUsed=           0 NTot=          32
 NSgBfM=   214   214   214   214   214 MxSgAt=    13 MxSgA2=    13.
 Leave Link  302 at Thu Jan 11 11:59:10 2024, MaxMem= 14763950080 cpu:               1.4 elap:               0.2
 (Enter /software/commercial/gaussian/g16/AVX2/g16/l303.exe)
 DipDrv:  MaxL=1.
 Leave Link  303 at Thu Jan 11 11:59:11 2024, MaxMem= 14763950080 cpu:               0.1 elap:               0.1
 (Enter /software/commercial/gaussian/g16/AVX2/g16/l401.exe)
 Initial guess from the checkpoint file:  "/scratch1/svicchi/G09-1868836.pbs02/02-freq/IMIDCOCH3-isolated-freq.chk"
 B after Tr=     0.000000    0.000000    0.000000
         Rot=    1.000000    0.000000    0.000000    0.000000 Ang=   0.00 deg.
 Guess basis will be translated and rotated to current coordinates.
 JPrj=2 DoOrth=T DoCkMO=T.
 Leave Link  401 at Thu Jan 11 11:59:11 2024, MaxMem= 14763950080 cpu:               0.5 elap:               0.2
 (Enter /software/commercial/gaussian/g16/AVX2/g16/l502.exe)
 Two-electron integral symmetry not used.
 Closed shell SCF:
 Using DIIS extrapolation, IDIIS=  1040.
 NGot= 14763950080 LenX= 14763853982 LenY= 14763807745
 Requested convergence on RMS density matrix=1.00D-08 within 350 cycles.
 Requested convergence on MAX density matrix=1.00D-06.
 Requested convergence on             energy=1.00D-06.
 No special actions if energy rises.
 Fock matrices will be formed incrementally for  20 cycles.

 Cycle   1  Pass 1  IDiag  1:
 FoFJK:  IHMeth= 1 ICntrl=       0 DoSepK=F KAlg= 0 I1Cent=           0 FoldK=F
 IRaf= 950000000 NMat=       1 IRICut=       1 DoRegI=T DoRafI=F ISym2E= 0 IDoP0=0 IntGTp=1.
 FoFCou: FMM=F IPFlag=           0 FMFlag=      100000 FMFlg1=           0
         NFxFlg=           0 DoJE=F BraDBF=F KetDBF=F FulRan=T
         wScrn=  0.000000 ICntrl=         0 IOpCl=  0 I1Cent=           0 NGrid=           0
         NMat0=    1 NMatS0=      1 NMatT0=    0 NMatD0=    1 NMtDS0=    0 NMtDT0=    0
 Symmetry not used in FoFCou.
 Inv3:  Mode=1 IEnd=     4538700.
 Iteration    1 A*A^-1 deviation from unit magnitude is 3.55D-15 for    766.
 Iteration    1 A*A^-1 deviation from orthogonality  is 1.97D-15 for   1182    756.
 Iteration    1 A^-1*A deviation from unit magnitude is 3.33D-15 for    766.
 Iteration    1 A^-1*A deviation from orthogonality  is 2.22D-15 for   1045    930.
 E= -378.534524675236    
 DIIS: error= 2.50D-08 at cycle   1 NSaved=   1.
 NSaved= 1 IEnMin= 1 EnMin= -378.534524675236     IErMin= 1 ErrMin= 2.50D-08
 ErrMax= 2.50D-08  0.00D+00 EMaxC= 1.00D-01 BMatC= 1.07D-13 BMatP= 1.07D-13
 IDIUse=1 WtCom= 1.00D+00 WtEn= 0.00D+00
 Coeff-Com:  0.100D+01
 Coeff:      0.100D+01
 Gap=     0.173 Goal=   None    Shift=    0.000
 RMSDP=6.39D-09 MaxDP=3.90D-07              OVMax= 3.85D-07

 Error on total polarization charges =  0.01987
 SCF Done:  E(RB3LYP) =  -378.534524675     A.U. after    1 cycles
            NFock=  1  Conv=0.64D-08     -V/T= 2.0042
 KE= 3.769615688174D+02 PE=-1.569461209922D+03 EE= 4.768296592695D+02
 Leave Link  502 at Thu Jan 11 11:59:13 2024, MaxMem= 14763950080 cpu:              17.8 elap:               1.9
 (Enter /software/commercial/gaussian/g16/AVX2/g16/l508.exe)
 QCSCF skips out because SCF is already converged.
 Leave Link  508 at Thu Jan 11 11:59:14 2024, MaxMem= 14763950080 cpu:               0.0 elap:               0.0
 (Enter /software/commercial/gaussian/g16/AVX2/g16/l801.exe)
 DoSCS=F DFT=T ScalE2(SS,OS)=  1.000000  1.000000
 Range of M.O.s used for correlation:     1   206
 NBasis=   206 NAE=    29 NBE=    29 NFC=     0 NFV=     0
 NROrb=    206 NOA=    29 NOB=    29 NVA=   177 NVB=   177

 **** Warning!!: The largest alpha MO coefficient is  0.85792550D+02

 Leave Link  801 at Thu Jan 11 11:59:14 2024, MaxMem= 14763950080 cpu:               0.1 elap:               0.1
 (Enter /software/commercial/gaussian/g16/AVX2/g16/l1002.exe)
 Minotr:  Closed shell wavefunction.
 NEqPCM:  Using equilibrium solvation (IEInf=0, Eps=  24.8520, EpsInf=   1.8526)
          Direct CPHF calculation.
          Differentiating once with respect to electric field.
                with respect to dipole field.
          Electric field/nuclear overlap derivatives assumed to be zero.
          Requested convergence is 1.0D-08 RMS, and 1.0D-07 maximum.
          Secondary convergence is 1.0D-12 RMS, and 1.0D-12 maximum.
          NewPWx=F KeepS1=T KeepF1=T KeepIn=T MapXYZ=F SortEE=F KeepMc=T.
         4008 words used for storage of precomputed grid.
 Two-electron integral symmetry not used.
          MDV=   14763950080 using IRadAn=       1.
          Solving linear equations simultaneously, MaxMat=     384.
          There are     3 degrees of freedom in the 1st order CPHF.  IDoFFX=0 NUNeed=     3.
      3 vectors produced by pass  0 Test12= 1.71D-13 3.33D-08 XBig12= 1.30D+02 6.82D+00.
 AX will form     3 AO Fock derivatives at one time.
 FoFJK:  IHMeth= 1 ICntrl=       0 DoSepK=F KAlg= 0 I1Cent=           0 FoldK=F
 IRaf= 950000000 NMat=       3 IRICut=       1 DoRegI=T DoRafI=F ISym2E= 0 IDoP0=0 IntGTp=1.
 FoFCou: FMM=F IPFlag=           0 FMFlag=      100000 FMFlg1=           0
         NFxFlg=           0 DoJE=F BraDBF=F KetDBF=F FulRan=T
         wScrn=  0.000000 ICntrl=         0 IOpCl=  0 I1Cent=           0 NGrid=           0
         NMat0=    3 NMatS0=      3 NMatT0=    0 NMatD0=    3 NMtDS0=    0 NMtDT0=    0
 Symmetry not used in FoFCou.
      3 vectors produced by pass  1 Test12= 1.71D-13 3.33D-08 XBig12= 6.59D+01 1.83D+00.
      3 vectors produced by pass  2 Test12= 1.71D-13 3.33D-08 XBig12= 7.88D+00 7.63D-01.
      3 vectors produced by pass  3 Test12= 1.71D-13 3.33D-08 XBig12= 4.07D+00 6.41D-01.
      3 vectors produced by pass  4 Test12= 1.71D-13 3.33D-08 XBig12= 3.54D-01 1.09D-01.
      3 vectors produced by pass  5 Test12= 1.71D-13 3.33D-08 XBig12= 1.77D-02 2.54D-02.
      3 vectors produced by pass  6 Test12= 1.71D-13 3.33D-08 XBig12= 1.12D-03 7.11D-03.
      3 vectors produced by pass  7 Test12= 1.71D-13 3.33D-08 XBig12= 9.04D-05 2.38D-03.
      3 vectors produced by pass  8 Test12= 1.71D-13 3.33D-08 XBig12= 2.19D-05 8.88D-04.
      3 vectors produced by pass  9 Test12= 1.71D-13 3.33D-08 XBig12= 1.21D-06 2.12D-04.
      3 vectors produced by pass 10 Test12= 1.71D-13 3.33D-08 XBig12= 2.97D-08 2.97D-05.
      3 vectors produced by pass 11 Test12= 1.71D-13 3.33D-08 XBig12= 9.05D-10 3.21D-06.
      3 vectors produced by pass 12 Test12= 1.71D-13 3.33D-08 XBig12= 2.22D-11 5.77D-07.
      1 vectors produced by pass 13 Test12= 1.71D-13 3.33D-08 XBig12= 4.56D-13 8.27D-08.
 InvSVY:  IOpt=1 It=  1 EMax= 3.70D-15
 Solved reduced A of dimension    40 with     3 vectors.
 End of Minotr F.D. properties file   721 does not exist.
 End of Minotr F.D. properties file   722 does not exist.
 End of Minotr F.D. properties file   788 does not exist.
 Leave Link 1002 at Thu Jan 11 11:59:33 2024, MaxMem= 14763950080 cpu:             206.7 elap:              18.4
 (Enter /software/commercial/gaussian/g16/AVX2/g16/l1101.exe)
 Using compressed storage, NAtomX=    13.
 Will process     14 centers per pass.
 R6Disp: Adding Grimme-D3(BJ) dispersion energy 1st derivatives to the gradient.
 Leave Link 1101 at Thu Jan 11 11:59:33 2024, MaxMem= 14763950080 cpu:               1.3 elap:               0.2
 (Enter /software/commercial/gaussian/g16/AVX2/g16/l1102.exe)
 Symmetrizing basis deriv contribution to polar:
 IMax=3 JMax=2 DiffMx= 0.00D+00
 Leave Link 1102 at Thu Jan 11 11:59:33 2024, MaxMem= 14763950080 cpu:               0.1 elap:               0.1
 (Enter /software/commercial/gaussian/g16/AVX2/g16/l1110.exe)
 Forming Gx(P) for the SCF density, NAtomX=    13.
 Integral derivatives from FoFJK, PRISM(SPDF).
 Do as many integral derivatives as possible in FoFJK.
 G2DrvN: MDV=   14763948605.
 G2DrvN: will do    14 centers at a time, making    1 passes.
 PxScal for G2LodP:  IOpCl= 0 ISclPx=1 IMOff=     1 NMtTot=     4 NTT=   21321 ScalPx= 6.52D+01
 Calling FoFCou, ICntrl=  3107 FMM=F I1Cent=   0 AccDes= 0.00D+00.
 FoFJK:  IHMeth= 1 ICntrl=    3107 DoSepK=F KAlg= 0 I1Cent=           0 FoldK=F
 IRaf=         0 NMat=       1 IRICut=       1 DoRegI=T DoRafI=F ISym2E= 0 IDoP0=0 IntGTp=1.
 FoFCou: FMM=F IPFlag=           0 FMFlag=      100000 FMFlg1=           0
         NFxFlg=           0 DoJE=F BraDBF=F KetDBF=F FulRan=T
         wScrn=  0.000000 ICntrl=      3107 IOpCl=  0 I1Cent=           0 NGrid=           0
         NMat0=    1 NMatS0=      1 NMatT0=    0 NMatD0=    4 NMtDS0=    3 NMtDT0=    0
 Symmetry not used in FoFCou.
 PxScal for G2LodP:  IOpCl= 0 ISclPx=0 IMOff=     1 NMtTot=     4 NTT=   21321 ScalPx= 1.00D+00
 NEqPCM:  Using equilibrium solvation (IEInf=0, Eps=  24.8520, EpsInf=   1.8526)
 G2PCM: DoFxE=T DoFxN=T DoGrad=T DoDP/DQ/DG/TGxP=TFFF NFrqRd=   0 IEInf=0 SqF1=F DoCFld=F IF1Alg=4.
 GePol: Maximum number of non-zero 1st derivatives   =     216
 End of G2Drv F.D. properties file   721 does not exist.
 End of G2Drv F.D. properties file   722 does not exist.
 End of G2Drv F.D. properties file   788 does not exist.
 Leave Link 1110 at Thu Jan 11 11:59:54 2024, MaxMem= 14763950080 cpu:             245.9 elap:              20.9
 (Enter /software/commercial/gaussian/g16/AVX2/g16/l1002.exe)
 Minotr:  Closed shell wavefunction.
          IDoAtm=1111111111111
 NEqPCM:  Using equilibrium solvation (IEInf=0, Eps=  24.8520, EpsInf=   1.8526)
          Direct CPHF calculation.
          Differentiating once with respect to electric field.
                with respect to dipole field.
          Differentiating once with respect to nuclear coordinates.
          Requested convergence is 1.0D-08 RMS, and 1.0D-07 maximum.
          Secondary convergence is 1.0D-12 RMS, and 1.0D-12 maximum.
          NewPWx=T KeepS1=F KeepF1=F KeepIn=T MapXYZ=F SortEE=F KeepMc=T.
         4008 words used for storage of precomputed grid.
 Keep R1 ints in memory in canonical form, NReq=239789045.
 FoFCou: FMM=F IPFlag=           0 FMFlag=           0 FMFlg1=           0
         NFxFlg=           0 DoJE=F BraDBF=F KetDBF=F FulRan=T
         wScrn=  0.000000 ICntrl=       600 IOpCl=  0 I1Cent=           0 NGrid=           0
         NMat0=    1 NMatS0=  21321 NMatT0=    0 NMatD0=    1 NMtDS0=    0 NMtDT0=    0
 Symmetry not used in FoFCou.
 Two-electron integral symmetry not used.
          MDV=   14763950080 using IRadAn=       1.
          Solving linear equations simultaneously, MaxMat=       0.
          There are    42 degrees of freedom in the 1st order CPHF.  IDoFFX=5 NUNeed=    42.
 Will reuse    3 saved solutions.
     36 vectors produced by pass  0 Test12= 1.22D-14 2.38D-09 XBig12= 2.63D-01 2.83D-01.
 AX will form    36 AO Fock derivatives at one time.
     36 vectors produced by pass  1 Test12= 1.22D-14 2.38D-09 XBig12= 9.16D-02 8.01D-02.
     36 vectors produced by pass  2 Test12= 1.22D-14 2.38D-09 XBig12= 8.25D-04 5.14D-03.
     36 vectors produced by pass  3 Test12= 1.22D-14 2.38D-09 XBig12= 4.80D-06 3.66D-04.
     36 vectors produced by pass  4 Test12= 1.22D-14 2.38D-09 XBig12= 1.57D-08 1.85D-05.
     33 vectors produced by pass  5 Test12= 1.22D-14 2.38D-09 XBig12= 4.35D-11 7.32D-07.
     15 vectors produced by pass  6 Test12= 1.22D-14 2.38D-09 XBig12= 8.15D-14 4.17D-08.
 InvSVY:  IOpt=1 It=  1 EMax= 1.33D-15
 Solved reduced A of dimension   228 with    36 vectors.
 FullF1:  Do perturbations      1 to       3.
 Isotropic polarizability for W=    0.000000      119.69 Bohr**3.
 FullF1:  Do perturbations      1 to       6.
 End of Minotr F.D. properties file   721 does not exist.
 End of Minotr F.D. properties file   722 does not exist.
 End of Minotr F.D. properties file   788 does not exist.
 Leave Link 1002 at Thu Jan 11 12:00:14 2024, MaxMem= 14763950080 cpu:             225.0 elap:              19.8
 (Enter /software/commercial/gaussian/g16/AVX2/g16/l601.exe)
 Copying SCF densities to generalized density rwf, IOpCl= 0 IROHF=0.

 **********************************************************************

            Population analysis using the SCF Density.

 **********************************************************************

 Alpha  occ. eigenvalues --  -19.08725 -14.27770 -14.27590 -10.24051 -10.18043
 Alpha  occ. eigenvalues --  -10.16438 -10.16299 -10.15292  -1.01593  -0.96200
 Alpha  occ. eigenvalues --   -0.81700  -0.74278  -0.69554  -0.59403  -0.55278
 Alpha  occ. eigenvalues --   -0.49008  -0.47216  -0.43155  -0.42323  -0.41372
 Alpha  occ. eigenvalues --   -0.38876  -0.38474  -0.37024  -0.33804  -0.27973
 Alpha  occ. eigenvalues --   -0.24979  -0.24862  -0.23773  -0.20513
 Alpha virt. eigenvalues --   -0.03167   0.01214   0.02814   0.03936   0.04976
 Alpha virt. eigenvalues --    0.05061   0.05643   0.05951   0.07488   0.07779
 Alpha virt. eigenvalues --    0.08661   0.09024   0.09681   0.10356   0.11049
 Alpha virt. eigenvalues --    0.13239   0.13261   0.13407   0.14596   0.15489
 Alpha virt. eigenvalues --    0.17110   0.18638   0.19212   0.20284   0.20520
 Alpha virt. eigenvalues --    0.22032   0.22595   0.23230   0.23452   0.23826
 Alpha virt. eigenvalues --    0.24093   0.25495   0.26119   0.26655   0.28069
 Alpha virt. eigenvalues --    0.29594   0.30008   0.30311   0.32174   0.32994
 Alpha virt. eigenvalues --    0.33996   0.34817   0.38470   0.41512   0.43066
 Alpha virt. eigenvalues --    0.44207   0.45867   0.47888   0.48853   0.51900
 Alpha virt. eigenvalues --    0.54932   0.57038   0.57859   0.59997   0.61564
 Alpha virt. eigenvalues --    0.62493   0.63526   0.64049   0.67850   0.69038
 Alpha virt. eigenvalues --    0.70169   0.72361   0.76951   0.77521   0.78492
 Alpha virt. eigenvalues --    0.80602   0.82297   0.84333   0.87982   0.89468
 Alpha virt. eigenvalues --    0.89897   0.91331   0.91716   0.94756   0.96187
 Alpha virt. eigenvalues --    0.98457   1.00258   1.03695   1.06736   1.08309
 Alpha virt. eigenvalues --    1.09677   1.15991   1.20564   1.20872   1.23837
 Alpha virt. eigenvalues --    1.25300   1.26793   1.28323   1.32200   1.37580
 Alpha virt. eigenvalues --    1.38239   1.46631   1.47374   1.54754   1.56447
 Alpha virt. eigenvalues --    1.56871   1.57761   1.58451   1.66190   1.70920
 Alpha virt. eigenvalues --    1.71127   1.72225   1.73895   1.78051   1.78608
 Alpha virt. eigenvalues --    1.81150   1.83810   1.84046   1.84461   1.90110
 Alpha virt. eigenvalues --    1.95648   2.03800   2.05712   2.06948   2.12587
 Alpha virt. eigenvalues --    2.17323   2.21018   2.25807   2.29732   2.35524
 Alpha virt. eigenvalues --    2.43673   2.45209   2.45696   2.48488   2.52600
 Alpha virt. eigenvalues --    2.53594   2.55429   2.56764   2.61681   2.63533
 Alpha virt. eigenvalues --    2.67150   2.68532   2.75496   2.77357   2.78467
 Alpha virt. eigenvalues --    2.79342   2.83833   2.84784   2.89573   2.89997
 Alpha virt. eigenvalues --    2.92858   2.97035   2.98046   3.01831   3.05632
 Alpha virt. eigenvalues --    3.13768   3.24557   3.27056   3.31332   3.34678
 Alpha virt. eigenvalues --    3.53500   3.61296   3.64450   3.70218   3.71375
 Alpha virt. eigenvalues --    3.80779   3.86162   3.94820   3.95208   4.08628
 Alpha virt. eigenvalues --    4.13559   4.20801   4.53005   4.60190   4.84942
 Alpha virt. eigenvalues --    5.07601   5.23085   5.28454   5.75890  23.79668
 Alpha virt. eigenvalues --   23.88336  23.90677  24.00746  24.09085  35.54694
 Alpha virt. eigenvalues --   35.75118  50.02114
          Condensed to atoms (all electrons):
               1          2          3          4          5          6
     1  C    8.895280   0.257747   0.049596  -0.423620   0.025028   0.489035
     2  N    0.257747   7.080418   0.445410  -0.137951  -0.071173   0.002952
     3  C    0.049596   0.445410   5.551182   0.176527   0.422827  -0.029192
     4  C   -0.423620  -0.137951   0.176527   5.497375  -0.053056   0.306074
     5  H    0.025028  -0.071173   0.422827  -0.053056   0.548483   0.003236
     6  N    0.489035   0.002952  -0.029192   0.306074   0.003236   6.975409
     7  H    0.028959   0.005978  -0.065806   0.443231   0.001464  -0.077766
     8  C   -2.253876  -0.348793  -0.350640   0.254329   0.012619  -0.421703
     9  O   -0.313959   0.001257  -0.021603   0.026173   0.000031   0.030133
    10  C   -0.889550   0.065925  -0.074021  -0.017019   0.000137   0.047872
    11  H    0.082040  -0.023931  -0.003012  -0.002647  -0.000000  -0.000267
    12  H   -0.045938   0.001486  -0.000360   0.001397  -0.000002   0.000341
    13  H    0.018579   0.006240   0.002964   0.000677  -0.000001  -0.000219
               7          8          9         10         11         12
     1  C    0.028959  -2.253876  -0.313959  -0.889550   0.082040  -0.045938
     2  N    0.005978  -0.348793   0.001257   0.065925  -0.023931   0.001486
     3  C   -0.065806  -0.350640  -0.021603  -0.074021  -0.003012  -0.000360
     4  C    0.443231   0.254329   0.026173  -0.017019  -0.002647   0.001397
     5  H    0.001464   0.012619   0.000031   0.000137  -0.000000  -0.000002
     6  N   -0.077766  -0.421703   0.030133   0.047872  -0.000267   0.000341
     7  H    0.550857   0.002271   0.000125  -0.000511   0.000005  -0.000001
     8  C    0.002271   8.044835   0.602312   0.561281  -0.110134   0.016488
     9  O    0.000125   0.602312   8.263561  -0.124104   0.012478  -0.005168
    10  C   -0.000511   0.561281  -0.124104   5.789194   0.417686   0.396412
    11  H    0.000005  -0.110134   0.012478   0.417686   0.515437  -0.022172
    12  H   -0.000001   0.016488  -0.005168   0.396412  -0.022172   0.517287
    13  H   -0.000001  -0.037642  -0.007306   0.386489  -0.028504  -0.025619
              13
     1  C    0.018579
     2  N    0.006240
     3  C    0.002964
     4  C    0.000677
     5  H   -0.000001
     6  N   -0.000219
     7  H   -0.000001
     8  C   -0.037642
     9  O   -0.007306
    10  C    0.386489
    11  H   -0.028504
    12  H   -0.025619
    13  H    0.533600
 Mulliken charges:
               1
     1  C    0.080679
     2  N   -0.285567
     3  C   -0.103871
     4  C   -0.071491
     5  H    0.110407
     6  N   -0.325904
     7  H    0.111195
     8  C    0.028653
     9  O   -0.463928
    10  C   -0.559789
    11  H    0.163022
    12  H    0.165850
    13  H    0.150743
 Sum of Mulliken charges =  -1.00000
 Mulliken charges with hydrogens summed into heavy atoms:
               1
     1  C    0.080679
     2  N   -0.285567
     3  C    0.006536
     4  C    0.039704
     6  N   -0.325904
     8  C    0.028653
     9  O   -0.463928
    10  C   -0.080173
 APT charges:
               1
     1  C   -0.500086
     2  N   -0.277181
     3  C   -0.144287
     4  C   -0.142270
     5  H    0.030652
     6  N   -0.299718
     7  H    0.028800
     8  C    1.684716
     9  O   -1.291974
    10  C   -0.126058
    11  H    0.043032
    12  H   -0.003305
    13  H   -0.002322
 Sum of APT charges =  -1.00000
 APT charges with hydrogens summed into heavy atoms:
               1
     1  C   -0.500086
     2  N   -0.277181
     3  C   -0.113635
     4  C   -0.113470
     6  N   -0.299718
     8  C    1.684716
     9  O   -1.291974
    10  C   -0.088653
 Electronic spatial extent (au):  <R**2>=           4551.8119
 Charge=             -1.0000 electrons
 Dipole moment (field-independent basis, Debye):
    X=              9.0112    Y=            -21.9103    Z=              1.7149  Tot=             23.7530
 Quadrupole moment (field-independent basis, Debye-Ang):
   XX=            -67.6441   YY=           -164.8848   ZZ=            -52.3743
   XY=             40.8683   XZ=             -3.3452   YZ=              7.1047
 Traceless Quadrupole moment (field-independent basis, Debye-Ang):
   XX=             27.3236   YY=            -69.9171   ZZ=             42.5934
   XY=             40.8683   XZ=             -3.3452   YZ=              7.1047
 Octapole moment (field-independent basis, Debye-Ang**2):
  XXX=            307.7827  YYY=          -1210.9427  ZZZ=             21.7939  XYY=            297.3020
  XXY=           -263.7866  XXZ=             16.9998  XZZ=             91.1319  YZZ=           -205.3745
  YYZ=             24.8751  XYZ=            -17.5640
 Hexadecapole moment (field-independent basis, Debye-Ang**3):
 XXXX=          -1186.0731 YYYY=          -8460.6736 ZZZZ=           -704.3888 XXXY=           1128.8842
 XXXZ=           -168.5289 YYYX=           2107.2391 YYYZ=            -53.1095 ZZZX=           -126.9609
 ZZZY=            -22.1936 XXYY=          -1336.0366 XXZZ=           -302.2854 YYZZ=          -1019.8411
 XXYZ=             40.5196 YYXZ=           -114.2908 ZZXY=            349.3765
 N-N= 3.371354571600D+02 E-N=-1.569461206891D+03  KE= 3.769615688174D+02
  Exact polarizability:      77.212       7.541     138.505      21.922      26.924     143.362
 Approx polarizability:      85.679       8.582     164.454      22.923      31.138     155.809
 No NMR shielding tensors so no spin-rotation constants.
 Leave Link  601 at Thu Jan 11 12:00:15 2024, MaxMem= 14763950080 cpu:               1.1 elap:               0.2
 (Enter /software/commercial/gaussian/g16/AVX2/g16/l701.exe)
 ... and contract with generalized density number  0.
 Compute integral second derivatives.
 R6Disp: Adding Grimme-D3(BJ) dispersion energy 2nd derivatives to the Hessian.
 D2PCM: PCM CHGder 2nd derivatives, FixD1E=F FixD2E=F DoIter=F DoCFld=F I1PDM=0
 GePol: Maximum number of non-zero 2nd derivatives   =     216
 Leave Link  701 at Thu Jan 11 12:00:18 2024, MaxMem= 14763950080 cpu:              29.4 elap:               2.8
 (Enter /software/commercial/gaussian/g16/AVX2/g16/l702.exe)
 L702 exits ... SP integral derivatives will be done elsewhere.
 Leave Link  702 at Thu Jan 11 12:00:18 2024, MaxMem= 14763950080 cpu:               0.1 elap:               0.1
 (Enter /software/commercial/gaussian/g16/AVX2/g16/l703.exe)
 Integral derivatives from FoFJK, PRISM(SPDF).
 Compute integral second derivatives, UseDBF=F ICtDFT=           0.
 Calling FoFJK, ICntrl=    100127 FMM=F ISym2X=0 I1Cent= 0 IOpClX= 0 NMat=1 NMatS=1 NMatT=0.
 FoFJK:  IHMeth= 1 ICntrl=  100127 DoSepK=F KAlg= 0 I1Cent=           0 FoldK=F
 IRaf=         0 NMat=       1 IRICut=       1 DoRegI=T DoRafI=F ISym2E= 0 IDoP0=0 IntGTp=1.
 FoFCou: FMM=F IPFlag=           0 FMFlag=      100000 FMFlg1=         800
         NFxFlg=           0 DoJE=F BraDBF=F KetDBF=F FulRan=T
         wScrn=  0.000000 ICntrl=    100127 IOpCl=  0 I1Cent=           0 NGrid=           0
         NMat0=    1 NMatS0=      1 NMatT0=    0 NMatD0=    1 NMtDS0=    0 NMtDT0=    0
 Symmetry not used in FoFCou.
 Leave Link  703 at Thu Jan 11 12:00:42 2024, MaxMem= 14763950080 cpu:             282.4 elap:              23.7
 (Enter /software/commercial/gaussian/g16/AVX2/g16/l716.exe)
 Dipole        = 3.54529172D+00-8.62017464D+00 6.74711945D-01
 Polarizability= 7.72123451D+01 7.54097573D+00 1.38504714D+02
                 2.19215907D+01 2.69239489D+01 1.43361646D+02
 HyperPolar    =-1.03975221D+02-8.48923364D+01 1.54360891D+02
                -7.62960003D+01-5.96335425D+01 3.03708807D+02
                 5.39360582D+02 3.44884396D+02 8.62947544D+02
                 8.09408638D+02
 Full mass-weighted force constant matrix:
 Low frequencies ---   -0.0008   -0.0007    0.0004    6.8097   13.2513   25.8802
 Low frequencies ---   51.2219  101.5891  194.9444
 Diagonal vibrational polarizability:
       48.4933458      22.4263214      24.4388736
 Diagonal vibrational hyperpolarizability:
      -83.6066438    -194.2600213    -293.4819105
 Harmonic frequencies (cm**-1), IR intensities (KM/Mole), Raman scattering
 activities (A**4/AMU), depolarization ratios for plane and unpolarized
 incident light, reduced masses (AMU), force constants (mDyne/A),
 and normal coordinates:
                      1                      2                      3
                      A                      A                      A
 Frequencies --     49.3527               101.0491               194.9426
 Red. masses --      1.1620                 3.2831                 4.9910
 Frc consts  --      0.0017                 0.0198                 0.1118
 IR Inten    --      2.8022                 3.6325                 5.7625
 Raman Activ --      3.3171                 1.8090                 6.7964
 Depolar (P) --      0.6057                 0.7195                 0.7448
 Depolar (U) --      0.7544                 0.8369                 0.8538
  Atom  AN      X      Y      Z        X      Y      Z        X      Y      Z
     1   6    -0.02   0.00   0.00    -0.02   0.00   0.00     0.36  -0.00  -0.10
     2   7    -0.03   0.01   0.02     0.17   0.01  -0.04     0.19   0.00  -0.06
     3   6     0.00  -0.00   0.01     0.14   0.00  -0.03    -0.18  -0.00   0.05
     4   6     0.04  -0.00  -0.01    -0.10  -0.00   0.03    -0.20  -0.00   0.06
     5   1    -0.01  -0.00   0.01     0.28  -0.00  -0.07    -0.43   0.00   0.12
     6   7     0.03  -0.00  -0.01    -0.19   0.00   0.05     0.16  -0.00  -0.05
     7   1     0.08  -0.01  -0.02    -0.22  -0.01   0.06    -0.47   0.00   0.13
     8   6    -0.03   0.00   0.01     0.01   0.00  -0.00     0.08   0.00  -0.02
     9   8    -0.06   0.00   0.02     0.19   0.00  -0.06    -0.16  -0.00   0.04
    10   6     0.05  -0.01  -0.02    -0.20  -0.01   0.06    -0.12   0.00   0.05
    11   1    -0.40   0.08   0.17    -0.60   0.07   0.19    -0.32   0.04   0.09
    12   1     0.15  -0.49  -0.39    -0.14  -0.43  -0.00    -0.10  -0.22   0.11
    13   1     0.53   0.31   0.07     0.03   0.28   0.02    -0.08   0.15  -0.02
                      4                      5                      6
                      A                      A                      A
 Frequencies --    238.8045               400.5614               520.9388
 Red. masses --      4.3508                 4.3105                 7.2169
 Frc consts  --      0.1462                 0.4075                 1.1539
 IR Inten    --     17.4306                 3.2809                16.6687
 Raman Activ --      0.6559                 3.6094                14.7772
 Depolar (P) --      0.7445                 0.1939                 0.4125
 Depolar (U) --      0.8535                 0.3248                 0.5840
  Atom  AN      X      Y      Z        X      Y      Z        X      Y      Z
     1   6    -0.02   0.15  -0.09    -0.03   0.03  -0.10     0.03  -0.15   0.10
     2   7     0.03   0.16   0.09    -0.03   0.03  -0.10    -0.02  -0.28  -0.09
     3   6     0.04  -0.03   0.16    -0.02  -0.06  -0.08    -0.05  -0.11  -0.17
     4   6    -0.01  -0.15  -0.00    -0.04  -0.11  -0.14    -0.01   0.00  -0.00
     5   1     0.08  -0.08   0.31    -0.00  -0.08  -0.01    -0.09  -0.06  -0.32
     6   7    -0.04  -0.02  -0.16    -0.05  -0.06  -0.18     0.06  -0.15   0.15
     7   1    -0.02  -0.31  -0.01    -0.03  -0.17  -0.14    -0.03   0.20   0.02
     8   6    -0.01   0.08  -0.04     0.01  -0.03   0.05    -0.03   0.25  -0.01
     9   8     0.05   0.08   0.19     0.08  -0.02   0.27     0.08   0.30   0.23
    10   6    -0.06  -0.22  -0.18     0.06   0.19   0.18    -0.07   0.10  -0.21
    11   1    -0.05  -0.21  -0.46     0.13   0.16   0.56    -0.13   0.11  -0.50
    12   1    -0.06  -0.24  -0.10     0.05   0.32   0.12    -0.06  -0.02  -0.24
    13   1    -0.10  -0.43  -0.08     0.05   0.45   0.03    -0.00  -0.11  -0.05
                      7                      8                      9
                      A                      A                      A
 Frequencies --    590.7231               633.2134               667.0681
 Red. masses --      3.0776                 3.6821                 3.3911
 Frc consts  --      0.6328                 0.8698                 0.8891
 IR Inten    --     14.5296                54.2272                 0.6733
 Raman Activ --      1.7442                15.4045                 0.1839
 Depolar (P) --      0.4379                 0.1363                 0.4956
 Depolar (U) --      0.6091                 0.2399                 0.6627
  Atom  AN      X      Y      Z        X      Y      Z        X      Y      Z
     1   6     0.01   0.00   0.00    -0.01   0.03   0.03     0.02  -0.00  -0.01
     2   7    -0.10  -0.01   0.01    -0.01   0.02  -0.08    -0.21   0.00   0.07
     3   6     0.01  -0.01  -0.02    -0.01  -0.04  -0.08     0.25   0.00  -0.07
     4   6     0.08  -0.01  -0.04    -0.06  -0.07  -0.08    -0.22   0.00   0.07
     5   1     0.00  -0.01  -0.02     0.03  -0.06  -0.03     0.62   0.00  -0.18
     6   7    -0.14  -0.02   0.03     0.02  -0.06  -0.07     0.16   0.00  -0.04
     7   1     0.19  -0.00  -0.07    -0.09  -0.06  -0.06    -0.59   0.00   0.17
     8   6     0.34   0.04  -0.07    -0.03   0.14   0.19     0.05  -0.01  -0.02
     9   8    -0.12   0.04   0.02    -0.02   0.15  -0.14    -0.02  -0.01   0.01
    10   6     0.03  -0.02   0.04     0.08  -0.13   0.26     0.00   0.01  -0.01
    11   1    -0.33   0.06  -0.07     0.03  -0.12  -0.18    -0.02   0.01  -0.00
    12   1     0.00  -0.38   0.62     0.11  -0.30   0.19    -0.00  -0.01   0.06
    13   1    -0.29   0.11  -0.21     0.18  -0.50   0.53    -0.04   0.04  -0.06
                     10                     11                     12
                      A                      A                      A
 Frequencies --    744.2605               807.4090               859.7547
 Red. masses --      6.4542                 1.2347                 1.4314
 Frc consts  --      2.1064                 0.4742                 0.6234
 IR Inten    --      0.3214                83.0269                 0.4044
 Raman Activ --      0.6224                40.7473                 5.2467
 Depolar (P) --      0.7391                 0.7499                 0.7485
 Depolar (U) --      0.8500                 0.8571                 0.8562
  Atom  AN      X      Y      Z        X      Y      Z        X      Y      Z
     1   6     0.48   0.00  -0.14     0.08  -0.00  -0.02     0.01   0.00  -0.00
     2   7    -0.26   0.00   0.07    -0.01   0.00   0.00    -0.01   0.00   0.00
     3   6     0.12  -0.00  -0.04    -0.09   0.00   0.03     0.12  -0.00  -0.04
     4   6     0.15  -0.00  -0.05    -0.06  -0.00   0.02    -0.14   0.00   0.04
     5   1    -0.30  -0.00   0.09     0.73  -0.00  -0.21    -0.60   0.00   0.17
     6   7    -0.28   0.00   0.08    -0.02  -0.00   0.00     0.01  -0.00  -0.00
     7   1    -0.25  -0.01   0.07     0.61   0.00  -0.18     0.73   0.00  -0.21
     8   6    -0.12   0.00   0.05    -0.01   0.00   0.00    -0.00   0.00   0.00
     9   8     0.04   0.00  -0.02     0.00   0.00  -0.00     0.00   0.00  -0.00
    10   6    -0.04  -0.00   0.02    -0.01  -0.00   0.00    -0.00  -0.00   0.00
    11   1     0.21  -0.06  -0.00     0.02  -0.01   0.01     0.00  -0.00   0.00
    12   1    -0.01   0.19  -0.39    -0.00   0.02  -0.04    -0.00   0.00  -0.00
    13   1     0.22  -0.15   0.24     0.02  -0.01   0.02     0.00  -0.00   0.00
                     13                     14                     15
                      A                      A                      A
 Frequencies --    942.5590               951.8907               991.1770
 Red. masses --      4.3042                 7.3309                 1.9638
 Frc consts  --      2.2530                 3.9136                 1.1367
 IR Inten    --    139.4649                27.0437                14.1679
 Raman Activ --     81.8579                24.9182                 9.3976
 Depolar (P) --      0.2588                 0.4143                 0.2517
 Depolar (U) --      0.4112                 0.5859                 0.4022
  Atom  AN      X      Y      Z        X      Y      Z        X      Y      Z
     1   6     0.01   0.08   0.08    -0.03   0.09  -0.12     0.01   0.03   0.01
     2   7    -0.05   0.26  -0.19    -0.06  -0.07  -0.19    -0.02   0.09  -0.07
     3   6    -0.02  -0.13  -0.08    -0.01  -0.38  -0.04    -0.00  -0.05  -0.01
     4   6     0.01  -0.09   0.03     0.12  -0.05   0.40     0.00   0.01   0.00
     5   1     0.10  -0.26   0.35    -0.07  -0.32  -0.27     0.07  -0.13   0.25
     6   7     0.04  -0.09   0.14    -0.01   0.37  -0.04     0.03  -0.10   0.10
     7   1     0.03   0.26   0.06     0.12  -0.28   0.39     0.00   0.39   0.03
     8   6     0.07  -0.04   0.17    -0.03   0.01  -0.05    -0.04   0.03  -0.09
     9   8    -0.00  -0.13  -0.01     0.00   0.05   0.00    -0.00   0.08  -0.01
    10   6    -0.05   0.16  -0.10     0.02  -0.04   0.04     0.01  -0.15   0.01
    11   1    -0.14   0.19  -0.60     0.03  -0.05   0.15     0.16  -0.19   0.66
    12   1    -0.02  -0.05  -0.17     0.01  -0.00   0.08    -0.03   0.20   0.06
    13   1    -0.01  -0.11   0.06     0.01   0.02   0.01    -0.02   0.28  -0.25
                     16                     17                     18
                      A                      A                      A
 Frequencies --   1038.5167              1079.7236              1141.6806
 Red. masses --      1.7816                 1.6543                 3.4919
 Frc consts  --      1.1321                 1.1363                 2.6817
 IR Inten    --     11.1439                33.6830                84.5813
 Raman Activ --      8.5368                88.8643               133.8217
 Depolar (P) --      0.4128                 0.1754                 0.1561
 Depolar (U) --      0.5844                 0.2984                 0.2700
  Atom  AN      X      Y      Z        X      Y      Z        X      Y      Z
     1   6    -0.05   0.00   0.01    -0.01  -0.03  -0.04     0.05   0.04   0.17
     2   7     0.00  -0.00   0.00     0.01  -0.05   0.03     0.00  -0.10   0.01
     3   6    -0.00   0.00  -0.01     0.02  -0.12   0.08     0.00  -0.08   0.01
     4   6     0.00  -0.01   0.00    -0.02   0.12  -0.08    -0.04   0.03  -0.12
     5   1    -0.01   0.01  -0.03     0.16  -0.28   0.56     0.09  -0.18   0.32
     6   7     0.00   0.00   0.00    -0.01   0.05  -0.04    -0.03   0.13  -0.11
     7   1     0.02  -0.03  -0.00    -0.01   0.63  -0.05    -0.04  -0.11  -0.15
     8   6     0.19   0.01  -0.05    -0.01  -0.01  -0.06     0.08  -0.01   0.29
     9   8    -0.03   0.01   0.00     0.00  -0.01   0.02    -0.02   0.03  -0.05
    10   6    -0.16  -0.02   0.05     0.00   0.05   0.04    -0.04  -0.08  -0.15
    11   1     0.38  -0.13   0.08    -0.02   0.05  -0.19     0.01  -0.08   0.27
    12   1    -0.09   0.29  -0.64     0.03  -0.12  -0.00    -0.09   0.35  -0.11
    13   1     0.35  -0.10   0.37     0.03  -0.17   0.18    -0.05   0.43  -0.44
                     19                     20                     21
                      A                      A                      A
 Frequencies --   1188.9999              1230.7896              1314.9787
 Red. masses --      1.6296                 9.5306                11.3744
 Frc consts  --      1.3573                 8.5063                11.5882
 IR Inten    --     58.5429               245.6769                25.8797
 Raman Activ --      5.3001               340.5699                20.5276
 Depolar (P) --      0.5107                 0.6485                 0.6679
 Depolar (U) --      0.6762                 0.7867                 0.8009
  Atom  AN      X      Y      Z        X      Y      Z        X      Y      Z
     1   6    -0.01   0.10  -0.03    -0.06  -0.12  -0.21    -0.08   0.63  -0.27
     2   7     0.04   0.01   0.13     0.10   0.13   0.34    -0.04  -0.41  -0.15
     3   6    -0.01  -0.08  -0.05    -0.08  -0.16  -0.29     0.06   0.10   0.21
     4   6     0.01  -0.00   0.03    -0.09  -0.23  -0.29    -0.05  -0.14  -0.16
     5   1    -0.18   0.09  -0.64     0.01  -0.29   0.05     0.04   0.12   0.14
     6   7    -0.02  -0.06  -0.06     0.10   0.32   0.35     0.09  -0.03   0.32
     7   1     0.02   0.69   0.08    -0.09  -0.28  -0.32    -0.04  -0.04  -0.15
     8   6     0.02   0.00   0.06    -0.01   0.09  -0.01     0.01  -0.00   0.04
     9   8    -0.00  -0.02  -0.01     0.00  -0.02   0.01    -0.01  -0.08  -0.03
    10   6    -0.00  -0.01  -0.02     0.01  -0.04   0.01     0.01   0.01   0.04
    11   1    -0.01   0.00  -0.01     0.01  -0.03   0.06    -0.06   0.03  -0.16
    12   1    -0.01   0.05  -0.03    -0.01   0.06   0.06     0.02   0.06  -0.11
    13   1    -0.01   0.06  -0.06     0.00   0.07  -0.05    -0.05   0.08  -0.04
                     22                     23                     24
                      A                      A                      A
 Frequencies --   1368.1821              1398.5895              1441.2181
 Red. masses --      1.2847                 2.8024                 2.7507
 Frc consts  --      1.4169                 3.2297                 3.3663
 IR Inten    --     17.4179               369.3864                34.1320
 Raman Activ --     41.4519               318.1597               117.3940
 Depolar (P) --      0.3476                 0.2986                 0.4946
 Depolar (U) --      0.5158                 0.4598                 0.6619
  Atom  AN      X      Y      Z        X      Y      Z        X      Y      Z
     1   6     0.01   0.04   0.04     0.06   0.13   0.20    -0.03  -0.15  -0.10
     2   7    -0.00  -0.00  -0.00     0.00   0.04   0.01    -0.03   0.08  -0.10
     3   6     0.00  -0.02   0.01     0.01  -0.19   0.03     0.07  -0.08   0.26
     4   6    -0.01  -0.00  -0.03    -0.04   0.14  -0.13    -0.03   0.04  -0.11
     5   1    -0.02   0.00  -0.08    -0.13  -0.07  -0.46    -0.18   0.19  -0.63
     6   7     0.00   0.01   0.01     0.01  -0.02   0.03     0.02   0.03   0.06
     7   1    -0.01  -0.03  -0.03    -0.06  -0.56  -0.21    -0.04   0.02  -0.13
     8   6    -0.00  -0.00  -0.00    -0.04  -0.02  -0.14     0.01  -0.02   0.06
     9   8     0.00  -0.01  -0.00     0.00  -0.02   0.01    -0.00   0.05  -0.00
    10   6    -0.05   0.06  -0.12     0.03   0.02   0.06    -0.01  -0.03  -0.01
    11   1     0.24  -0.02   0.46     0.00   0.02  -0.01    -0.08  -0.01  -0.24
    12   1    -0.07  -0.25   0.53     0.08  -0.18  -0.31    -0.07   0.27   0.24
    13   1     0.36  -0.32   0.34    -0.31  -0.12  -0.06     0.32   0.24   0.03
                     25                     26                     27
                      A                      A                      A
 Frequencies --   1448.9896              1472.7304              1475.9080
 Red. masses --      1.7331                 1.0544                 2.2551
 Frc consts  --      2.1438                 1.3475                 2.8942
 IR Inten    --     65.0720                16.5727                86.0023
 Raman Activ --     21.0989                11.3376                 8.4471
 Depolar (P) --      0.5729                 0.6745                 0.7281
 Depolar (U) --      0.7285                 0.8056                 0.8427
  Atom  AN      X      Y      Z        X      Y      Z        X      Y      Z
     1   6    -0.02   0.05  -0.07    -0.00  -0.00  -0.01     0.06   0.05   0.20
     2   7     0.02  -0.00   0.06     0.00   0.00   0.00    -0.01  -0.02  -0.02
     3   6    -0.02  -0.05  -0.08    -0.00   0.00  -0.00    -0.00   0.04  -0.02
     4   6     0.01   0.17   0.05     0.00   0.00   0.00    -0.01  -0.15  -0.03
     5   1     0.05  -0.14   0.18     0.00  -0.00   0.01    -0.01   0.05  -0.03
     6   7    -0.00  -0.09  -0.00     0.00  -0.00   0.00    -0.01   0.08  -0.03
     7   1     0.00  -0.44   0.00     0.00  -0.01   0.00    -0.00   0.31   0.00
     8   6    -0.00   0.02   0.01    -0.02  -0.01   0.02    -0.05   0.02  -0.15
     9   8     0.00  -0.02  -0.00     0.00   0.01  -0.00     0.01  -0.04   0.02
    10   6    -0.02  -0.04  -0.00    -0.05   0.02   0.02    -0.01  -0.05   0.04
    11   1    -0.09  -0.01  -0.34     0.67  -0.14  -0.25    -0.07  -0.02  -0.47
    12   1    -0.09   0.34   0.37     0.03  -0.51   0.06    -0.07   0.30   0.34
    13   1     0.46   0.30   0.09     0.01   0.41  -0.19     0.46   0.36   0.08
                     28                     29                     30
                      A                      A                      A
 Frequencies --   1632.2076              3030.8042              3089.0125
 Red. masses --     10.1950                 1.0413                 1.0963
 Frc consts  --     16.0025                 5.6357                 6.1635
 IR Inten    --    958.8913                24.0348                25.8742
 Raman Activ --    575.2965               540.4266               207.4311
 Depolar (P) --      0.3825                 0.0682                 0.6311
 Depolar (U) --      0.5533                 0.1277                 0.7738
  Atom  AN      X      Y      Z        X      Y      Z        X      Y      Z
     1   6    -0.00  -0.10  -0.02    -0.00   0.00   0.00     0.00   0.00  -0.00
     2   7    -0.02  -0.02  -0.07     0.00   0.00   0.00     0.00   0.00   0.00
     3   6     0.03  -0.02   0.10    -0.00  -0.00  -0.00    -0.00  -0.00  -0.00
     4   6     0.00   0.07   0.01    -0.00  -0.00  -0.00    -0.00  -0.00  -0.00
     5   1    -0.02   0.04  -0.08     0.00   0.00   0.00     0.00   0.00   0.00
     6   7    -0.01  -0.01  -0.04    -0.00  -0.00  -0.00    -0.00  -0.00   0.00
     7   1     0.00   0.02   0.00     0.00  -0.00   0.00     0.00  -0.00  -0.00
     8   6    -0.00   0.73   0.02    -0.00  -0.00   0.00     0.00  -0.00   0.00
     9   8     0.01  -0.44   0.01     0.00  -0.00   0.00    -0.00   0.00   0.00
    10   6    -0.00  -0.05  -0.00    -0.04   0.00  -0.04     0.08  -0.01  -0.04
    11   1     0.22  -0.10   0.28    -0.08  -0.32  -0.01    -0.02  -0.19  -0.01
    12   1     0.02  -0.13  -0.11     0.78   0.09   0.08    -0.57  -0.07  -0.08
    13   1    -0.17   0.10  -0.16    -0.24   0.23   0.39    -0.34   0.36   0.62
                     31                     32                     33
                      A                      A                      A
 Frequencies --   3152.8818              3180.5623              3200.7128
 Red. masses --      1.0995                 1.0886                 1.1017
 Frc consts  --      6.4397                 6.4880                 6.6498
 IR Inten    --     11.2721                16.4368                67.1133
 Raman Activ --     80.9627               220.2523               375.4773
 Depolar (P) --      0.7047                 0.7438                 0.1795
 Depolar (U) --      0.8268                 0.8531                 0.3043
  Atom  AN      X      Y      Z        X      Y      Z        X      Y      Z
     1   6     0.00  -0.00   0.00     0.00  -0.00   0.00     0.00   0.00   0.00
     2   7    -0.00  -0.00  -0.00    -0.00   0.00  -0.00     0.00   0.00   0.00
     3   6     0.00  -0.00  -0.00     0.00   0.05   0.02    -0.00  -0.07  -0.02
     4   6    -0.00   0.00  -0.00    -0.02   0.00  -0.06    -0.02   0.01  -0.06
     5   1     0.00   0.01   0.00    -0.05  -0.63  -0.18     0.06   0.72   0.20
     6   7    -0.00   0.00  -0.00    -0.00   0.00  -0.00     0.00   0.00   0.00
     7   1     0.00  -0.00   0.00     0.21  -0.05   0.72     0.18  -0.05   0.63
     8   6    -0.00  -0.00  -0.00    -0.00   0.00  -0.00     0.00   0.00   0.00
     9   8    -0.00   0.00   0.00    -0.00   0.00  -0.00    -0.00  -0.00  -0.00
    10   6    -0.02  -0.09  -0.02     0.00  -0.00  -0.00     0.00   0.00   0.00
    11   1     0.20   0.91   0.02     0.00   0.00  -0.00    -0.00  -0.01   0.00
    12   1     0.16   0.00   0.01    -0.00   0.00  -0.00    -0.00  -0.00  -0.00
    13   1    -0.15   0.14   0.25    -0.00   0.00   0.00     0.00  -0.00  -0.00

 -------------------
 - Thermochemistry -
 -------------------
 Temperature   298.150 Kelvin.  Pressure   1.00000 Atm.
 Thermochemistry will use frequencies scaled by 0.9670.
 Atom     1 has atomic number  6 and mass  12.00000
 Atom     2 has atomic number  7 and mass  14.00307
 Atom     3 has atomic number  6 and mass  12.00000
 Atom     4 has atomic number  6 and mass  12.00000
 Atom     5 has atomic number  1 and mass   1.00783
 Atom     6 has atomic number  7 and mass  14.00307
 Atom     7 has atomic number  1 and mass   1.00783
 Atom     8 has atomic number  6 and mass  12.00000
 Atom     9 has atomic number  8 and mass  15.99491
 Atom    10 has atomic number  6 and mass  12.00000
 Atom    11 has atomic number  1 and mass   1.00783
 Atom    12 has atomic number  1 and mass   1.00783
 Atom    13 has atomic number  1 and mass   1.00783
 Molecular mass:   109.04019 amu.
 Principal axes and moments of inertia in atomic units:
                           1         2         3
     Eigenvalues --   360.474191082.300381431.49001
           X            0.24312  -0.15629   0.95732
           Y            0.52416   0.85160   0.00592
           Z            0.81618  -0.50035  -0.28897
 This molecule is an asymmetric top.
 Rotational symmetry number  1.
 Rotational temperatures (Kelvin)      0.24028     0.08003     0.06051
 Rotational constants (GHZ):           5.00658     1.66750     1.26074
 Zero-point vibrational energy     240497.5 (Joules/Mol)
                                   57.48029 (Kcal/Mol)
 Warning -- explicit consideration of   8 degrees of freedom as
           vibrations may cause significant error
 Vibrational temperatures:     68.66   140.59   271.22   332.25   557.30
          (Kelvin)            724.78   821.87   880.99   928.09  1035.49
                             1123.35  1196.17  1311.38  1324.36  1379.02
                             1444.89  1502.22  1588.42  1654.25  1712.39
                             1829.53  1903.55  1945.85  2005.16  2015.98
                             2049.01  2053.43  2270.89  4216.75  4297.73
                             4386.60  4425.11  4453.14
 
 Zero-point correction=                           0.091601 (Hartree/Particle)
 Thermal correction to Energy=                    0.098712
 Thermal correction to Enthalpy=                  0.099656
 Thermal correction to Gibbs Free Energy=         0.059353
 Sum of electronic and zero-point Energies=           -378.442924
 Sum of electronic and thermal Energies=              -378.435813
 Sum of electronic and thermal Enthalpies=            -378.434869
 Sum of electronic and thermal Free Energies=         -378.475172
 
                     E (Thermal)             CV                S
                      KCal/Mol        Cal/Mol-Kelvin    Cal/Mol-Kelvin
 Total                   61.943             25.095             84.825
 Electronic               0.000              0.000              0.000
 Translational            0.889              2.981             39.976
 Rotational               0.889              2.981             27.815
 Vibrational             60.165             19.133             17.034
 Vibration     1          0.595              1.978              4.910
 Vibration     2          0.603              1.951              3.499
 Vibration     3          0.633              1.856              2.242
 Vibration     4          0.653              1.794              1.872
 Vibration     5          0.756              1.497              1.010
 Vibration     6          0.859              1.242              0.649
 Vibration     7          0.927              1.093              0.502
 Vibration     8          0.972              1.006              0.429
                       Q            Log10(Q)             Ln(Q)
 Total Bot       0.500751D-27        -27.300379        -62.861445
 Total V=0       0.680718D+15         14.832967         34.154169
 Vib (Bot)       0.418251D-40        -40.378563        -92.975077
 Vib (Bot)    1  0.433256D+01          0.636744          1.466158
 Vib (Bot)    2  0.210119D+01          0.322466          0.742506
 Vib (Bot)    3  0.106227D+01          0.026235          0.060409
 Vib (Bot)    4  0.852568D+00         -0.069271         -0.159502
 Vib (Bot)    5  0.464373D+00         -0.333133         -0.767068
 Vib (Bot)    6  0.325173D+00         -0.487885         -1.123397
 Vib (Bot)    7  0.269101D+00         -0.570085         -1.312670
 Vib (Bot)    8  0.240765D+00         -0.618406         -1.423932
 Vib (V=0)       0.568568D+02          1.754783          4.040537
 Vib (V=0)    1  0.486131D+01          0.686754          1.581309
 Vib (V=0)    2  0.265987D+01          0.424860          0.978275
 Vib (V=0)    3  0.167406D+01          0.223771          0.515253
 Vib (V=0)    4  0.148837D+01          0.172710          0.397681
 Vib (V=0)    5  0.118238D+01          0.072757          0.167529
 Vib (V=0)    6  0.109644D+01          0.039984          0.092066
 Vib (V=0)    7  0.106782D+01          0.028496          0.065616
 Vib (V=0)    8  0.105495D+01          0.023231          0.053492
 Electronic      0.100000D+01          0.000000          0.000000
 Translational   0.447542D+08          7.650834         17.616696
 Rotational      0.267517D+06          5.427351         12.496937
 
                                                          IMIDCOCH3-isolated
                                                             IR Spectrum
 
     333  3 3                                                       1   1111 11 1   11 1  11                                         
     211  0 0                                                       6   4444 33 3   21 1  00 999  8 8  7  66 5  5    4     2 1  1    
     085  8 3                                                       3   7744 96 1   38 4  83 954  6 0  4  63 9  2    0     3 9  0  4 
     113  9 1                                                       2   6391 98 5   19 2  09 123  0 7  4  73 1  1    1     9 5  1  9 
 
     XXX  X X                                                       X   XXXX XX X   XX X  XX XXX  X X  X  XX X  X    X     X X  X  X 
                                                                    X   X    X      X  X       X    X                                
                                                                    X        X      X          X                                     
                                                                    X        X      X                                                
                                                                    X        X      X                                                
                                                                    X        X                                                       
                                                                    X        X                                                       
                                                                    X        X                                                       
                                                                    X                                                                
                                                                    X                                                                
                                                                    X                                                                
                                                                    X                                                                
                                                                    X                                                                
                                                                    X                                                                
                                                                    X                                                                
                                                                    X                                                                
                                                                    X                                                                
                                                                    X                                                                
                                                                    X                                                                
                                                                    X                                                                
 
 
                                                          IMIDCOCH3-isolated
                                                            Raman Spectrum
 
     333  3 3                                                       1   1111 11 1   11 1  11                                         
     211  0 0                                                       6   4444 33 3   21 1  00 999  8 8  7  66 5  5    4     2 1  1    
     085  8 3                                                       3   7744 96 1   38 4  83 954  6 0  4  63 9  2    0     3 9  0  4 
     113  9 1                                                       2   6391 98 5   19 2  09 123  0 7  4  73 1  1    1     9 5  1  9 
 
     XXX  X X                                                       X   XXXX XX X   XX X  XX XXX  X X  X  XX X  X    X     X X  X  X 
     XXX  X X                                                       X      X X      X  X  X    X                                     
     XXX  X X                                                       X      X X      X  X  X    X                                     
     XX   X X                                                       X      X X      X  X                                             
     XX   X X                                                       X        X      X  X                                             
     XX   X X                                                       X        X      X                                                
     XX   X X                                                       X        X      X                                                
     XX     X                                                       X        X      X                                                
     X      X                                                       X        X      X                                                
     X      X                                                       X        X      X                                                
     X      X                                                       X        X      X                                                
     X      X                                                       X               X                                                
     X      X                                                       X                                                                
            X                                                       X                                                                
            X                                                       X                                                                
            X                                                       X                                                                
            X                                                       X                                                                
            X                                                       X                                                                
            X                                                       X                                                                
                                                                    X                                                                
 
 -------------------------------------------------------------------
 Center     Atomic                   Forces (Hartrees/Bohr)
 Number     Number              X              Y              Z
 -------------------------------------------------------------------
      1        6          -0.000001858    0.000004123   -0.000000400
      2        7          -0.000004840   -0.000000241   -0.000007185
      3        6          -0.000016135    0.000022891   -0.000002347
      4        6          -0.000011658    0.000008574    0.000018453
      5        1          -0.000004524   -0.000010109   -0.000006010
      6        7          -0.000007978    0.000006610    0.000008074
      7        1          -0.000016897    0.000010718   -0.000012093
      8        6           0.000010035   -0.000001070    0.000001946
      9        8           0.000014589   -0.000013527    0.000006984
     10        6           0.000029482   -0.000011296    0.000013716
     11        1           0.000011776    0.000004018   -0.000002044
     12        1          -0.000019453   -0.000003975   -0.000011696
     13        1           0.000017462   -0.000016716   -0.000007399
 -------------------------------------------------------------------
 Cartesian Forces:  Max     0.000029482 RMS     0.000011743
 Force constants in Cartesian coordinates: 
                1             2             3             4             5 
      1  0.194544D+00
      2  0.213282D-01  0.624203D+00
      3  0.142449D+00  0.716502D-01  0.638102D+00
      4 -0.767292D-01  0.323865D-02  0.178210D-02  0.138636D+00
      5  0.142240D-01 -0.253710D+00  0.498198D-01 -0.552229D-03  0.463451D+00
      6  0.178732D-02  0.106107D-01 -0.706999D-01  0.111927D+00 -0.123084D-03
      7  0.509684D-02 -0.253967D-01 -0.203823D-01 -0.886458D-01 -0.153114D-01
      8 -0.784599D-02 -0.630615D-01 -0.273335D-01 -0.133749D-01 -0.116211D+00
      9 -0.203273D-01 -0.880799D-01 -0.599647D-01 -0.621165D-01 -0.532405D-01
     10  0.149724D-02 -0.380111D-02 -0.310176D-01  0.130405D-01 -0.958094D-03
     11 -0.232248D-01 -0.171000D-01 -0.806301D-01  0.195642D-01  0.144478D-01
     12 -0.308344D-01 -0.134566D-01 -0.963072D-01 -0.260518D-01 -0.347372D-02
     13  0.665524D-02 -0.298283D-03 -0.394963D-02 -0.670413D-02 -0.889739D-02
     14 -0.178014D-03 -0.522622D-03 -0.607774D-03 -0.631043D-03 -0.174828D-02
     15 -0.401768D-02 -0.977864D-03 -0.606847D-02  0.813541D-04 -0.310235D-01
     16 -0.895792D-01  0.274781D-01 -0.341403D-01  0.213671D-01  0.166144D-01
     17  0.189143D-01 -0.117978D+00  0.660102D-01  0.211419D-02 -0.732953D-01
     18 -0.346195D-01  0.959618D-01 -0.198684D+00 -0.199796D-01  0.571516D-01
     19  0.732492D-02 -0.643840D-03 -0.275288D-02  0.576123D-02  0.309586D-03
     20 -0.894176D-03 -0.559651D-02 -0.315763D-02  0.150424D-02 -0.327700D-02
     21 -0.269528D-02 -0.245435D-02 -0.117615D-02 -0.218044D-02  0.121702D-02
     22 -0.753611D-01 -0.144536D-01 -0.363822D-01 -0.121355D-01 -0.628681D-02
     23 -0.709229D-02 -0.106828D+00 -0.251040D-01 -0.128472D-01 -0.436874D-01
     24 -0.365329D-01 -0.502492D-01 -0.187580D+00  0.143982D-02 -0.201591D-01
     25  0.165058D-01 -0.111439D-01 -0.296770D-02  0.639774D-02  0.173032D-03
     26 -0.128570D-01 -0.699016D-01 -0.438103D-01  0.214227D-02  0.169212D-01
     27 -0.265363D-02 -0.374746D-01  0.830387D-02 -0.306939D-02  0.175782D-04
     28  0.104791D-01  0.165588D-02 -0.122031D-01 -0.460979D-03  0.127719D-02
     29 -0.360698D-02  0.125385D-01 -0.983580D-02  0.635488D-03 -0.577619D-04
     30 -0.114989D-01  0.105114D-01 -0.201821D-01 -0.118915D-02 -0.146114D-02
     31 -0.888935D-04 -0.395757D-03  0.985854D-04 -0.704573D-03 -0.166755D-03
     32  0.583562D-03 -0.266655D-03  0.957670D-03 -0.108736D-02 -0.191926D-02
     33 -0.896870D-03 -0.375741D-03 -0.138382D-02 -0.741190D-03 -0.483892D-04
     34  0.178380D-03  0.107521D-02 -0.422538D-03  0.116612D-03  0.884126D-04
     35 -0.650643D-03 -0.599330D-03  0.695683D-03 -0.414914D-03 -0.562730D-04
     36  0.142070D-02  0.113596D-02 -0.256713D-02 -0.907418D-04  0.719473D-03
     37 -0.523116D-03  0.135698D-02 -0.111855D-03  0.607424D-04 -0.514051D-03
     38  0.129979D-02 -0.117695D-02  0.134550D-02 -0.291328D-03 -0.857845D-03
     39 -0.158092D-02  0.319825D-02 -0.179296D-02  0.188758D-03  0.603920D-03
                6             7             8             9            10 
      6  0.492996D+00
      7 -0.620498D-01  0.162179D+00
      8 -0.464268D-01  0.240973D-01  0.814666D+00
      9 -0.285379D+00  0.116410D+00  0.821276D-01  0.531963D+00
     10 -0.260718D-01 -0.744848D-01  0.295963D-01 -0.254371D-01  0.185009D+00
     11  0.686335D-01  0.194812D-01 -0.228744D+00  0.680749D-01 -0.469079D-02
     12 -0.703898D-01 -0.253208D-01  0.102651D+00 -0.154372D+00  0.188951D+00
     13  0.620503D-04 -0.307143D-01 -0.185099D-01 -0.127945D-01 -0.484298D-03
     14 -0.224363D-02 -0.195923D-01 -0.319652D+00 -0.669286D-01 -0.340714D-02
     15 -0.632499D-02 -0.128340D-01 -0.627998D-01 -0.715075D-01  0.358603D-02
     16 -0.202853D-01  0.216140D-01 -0.119153D-01  0.118902D-02 -0.772280D-01
     17  0.690357D-02  0.877904D-02 -0.871317D-01  0.303887D-01 -0.275703D-01
     18 -0.428187D-01  0.930761D-03 -0.410423D-01  0.246755D-01 -0.276424D-01
     19 -0.219134D-02 -0.146229D-02 -0.167844D-02 -0.930950D-03 -0.516174D-01
     20  0.526040D-02  0.534362D-02  0.921317D-02  0.184504D-01  0.893254D-02
     21 -0.118690D-02 -0.949957D-03 -0.565478D-02 -0.445743D-02 -0.813723D-01
     22  0.503942D-03  0.825837D-02  0.104992D-03  0.615234D-02  0.487776D-02
     23 -0.438072D-01  0.868164D-02 -0.132791D-01  0.300941D-01  0.352135D-02
     24 -0.973632D-02  0.516799D-02  0.101569D-02  0.253443D-01 -0.125159D-02
     25 -0.274235D-02 -0.215659D-02 -0.856682D-03 -0.815658D-03  0.114386D-03
     26  0.678118D-02 -0.644590D-02  0.306541D-02 -0.220765D-01 -0.126132D-02
     27 -0.272577D-02 -0.443773D-03 -0.319080D-02 -0.356617D-02  0.441775D-03
     28  0.704288D-03  0.487434D-03  0.246938D-03 -0.122805D-02 -0.779032D-03
     29  0.216710D-03 -0.375386D-03  0.182432D-03  0.412523D-03 -0.235870D-03
     30 -0.385715D-02 -0.143793D-03  0.892776D-03 -0.259187D-03 -0.499014D-04
     31 -0.103245D-02 -0.125984D-03  0.379491D-04 -0.109795D-03  0.657493D-04
     32 -0.373278D-02  0.386885D-03  0.447276D-03  0.271561D-03 -0.343141D-04
     33 -0.740400D-03 -0.816090D-04 -0.589082D-03 -0.110125D-02  0.193536D-03
     34 -0.379114D-04 -0.476050D-04  0.156987D-03 -0.340599D-03 -0.282888D-04
     35 -0.520041D-03  0.569995D-03  0.119967D-03  0.325331D-04  0.116993D-03
     36  0.509219D-03 -0.136455D-03  0.175530D-03 -0.835282D-03 -0.264487D-03
     37 -0.573443D-03  0.178101D-05 -0.592990D-04  0.349593D-03  0.167895D-04
     38 -0.155250D-02 -0.218112D-03  0.384193D-03  0.473084D-03 -0.208194D-03
     39  0.353095D-03 -0.165788D-03  0.174863D-03 -0.539985D-03 -0.647270D-04
               11            12            13            14            15 
     11  0.540802D+00
     12 -0.175485D-01  0.784656D+00
     13  0.366088D-02  0.358508D-02  0.259861D-01
     14 -0.733781D-02 -0.116572D-01  0.233479D-01  0.333866D+00
     15  0.124823D-01  0.108053D-01  0.148327D-01  0.798665D-01  0.730261D-01
     16 -0.291552D-01 -0.277355D-01  0.555099D-02  0.246269D-03 -0.186177D-02
     17 -0.247530D+00 -0.940873D-01  0.138211D-02 -0.410027D-02  0.482427D-02
     18 -0.100575D+00 -0.165599D+00 -0.190197D-02  0.803889D-03 -0.288635D-03
     19  0.774682D-02 -0.814211D-01 -0.118851D-02  0.196068D-03  0.226417D-03
[...]
   || (z)     0.773481D+03      0.668228D+01      0.248006D+01
   _|_(z)     0.257827D+03      0.222743D+01      0.826687D+00
   x          0.118581D+04      0.102445D+02      0.380214D+01
   y          0.210528D+04      0.181880D+02      0.675028D+01
   z          0.386741D+04      0.334114D+02      0.124003D+02
   ||         0.912035D+03      0.787927D+01      0.292431D+01
   xxx       -0.103975D+03     -0.898265D+00     -0.333382D+00
   xxy       -0.848923D+02     -0.733404D+00     -0.272196D+00
   yxy        0.154361D+03      0.133356D+01      0.494937D+00
   yyy       -0.762960D+02     -0.659138D+00     -0.244633D+00
   xxz       -0.596335D+02     -0.515187D+00     -0.191207D+00
   yxz        0.303709D+03      0.262381D+01      0.973800D+00
   yyz        0.539361D+03      0.465966D+01      0.172938D+01
   zxz        0.344884D+03      0.297953D+01      0.110582D+01
   zyz        0.862948D+03      0.745519D+01      0.276692D+01
   zzz        0.809409D+03      0.699266D+01      0.259526D+01

 ----------------------------------------------------------------------

 Dipole orientation:
     6         -0.48374182         -0.00823645         -7.94305458
     7         -1.33728501         -0.46926139         -5.54580197
     6         -1.25269820         -3.00911415         -5.34270166
     6         -0.35190314         -4.03163934         -7.62396106
     1         -1.82153142         -3.98454137         -3.63698696
     7          0.13123644         -2.13844295         -9.26143234
     1         -0.05155909         -5.99532900         -8.11405049
     6         -0.24325739          2.52759862         -8.96741696
     8          0.51055715          2.95950457        -11.13997327
     6         -0.91323075          4.73303309         -7.25913585
     1         -1.93021526          4.14055728         -5.57493997
     1          0.83879501          5.67035479         -6.68040195
     1         -2.02362816          6.10349669         -8.33147662

 Electric dipole moment (dipole orientation):
 (Debye = 10**-18 statcoulomb cm , SI units = C m)
                  (au)            (Debye)         (10**-30 SI)
   Tot        0.934515D+01      0.237530D+02      0.792314D+02
   x          0.000000D+00      0.000000D+00      0.000000D+00
   y          0.000000D+00      0.000000D+00      0.000000D+00
   z          0.934515D+01      0.237530D+02      0.792314D+02

 Dipole polarizability, Alpha (dipole orientation).
 (esu units = cm**3 , SI units = C**2 m**2 J**-1)
 Alpha(0;0):
               (au)            (10**-24 esu)      (10**-40 SI)
   iso        0.119693D+03      0.177367D+02      0.197347D+02
   aniso      0.886848D+02      0.131417D+02      0.146222D+02
   xx         0.764559D+02      0.113296D+02      0.126059D+02
   yx         0.392166D+01      0.581131D+00      0.646595D+00
   yy         0.160577D+03      0.237951D+02      0.264756D+02
   zx        -0.170815D+02     -0.253121D+01     -0.281635D+01
   zy        -0.232649D+02     -0.344750D+01     -0.383586D+01
   zz         0.122046D+03      0.180853D+02      0.201226D+02

 First dipole hyperpolarizability, Beta (dipole orientation).
 ||, _|_  parallel and perpendicular components, (z) with respect to z axis,
 vector components x,y,z.  Values do not include the 1/n! factor of 1/2.
 (esu units = statvolt**-1 cm**4 , SI units = C**3 m**3 J**-2)
 Beta(0;0,0):
               (au)            (10**-30 esu)      (10**-50 SI)
   || (z)    -0.242574D+03     -0.209565D+01     -0.777779D+00
   _|_(z)    -0.808579D+02     -0.698549D+00     -0.259260D+00
   x          0.246564D+03      0.213012D+01      0.790573D+00
   y          0.438900D+04      0.379176D+02      0.140727D+02
   z         -0.121287D+04     -0.104782D+02     -0.388889D+01
   ||         0.912035D+03      0.787927D+01      0.292431D+01
   xxx       -0.932473D+02     -0.805584D+00     -0.298984D+00
   xxy       -0.199767D+03     -0.172583D+01     -0.640527D+00
   yxy        0.191890D+03      0.165778D+01      0.615268D+00
   yyy        0.153314D+04      0.132451D+02      0.491580D+01
   xxz        0.131962D+03      0.114005D+01      0.423118D+00
   yxz       -0.689335D+02     -0.595532D+00     -0.221026D+00
   yyz       -0.815152D+03     -0.704228D+01     -0.261367D+01
   zxz       -0.164547D+02     -0.142156D+00     -0.527597D-01
   zyz        0.129627D+03      0.111988D+01      0.415631D+00
   zzz        0.278900D+03      0.240948D+01      0.894255D+00

 ----------------------------------------------------------------------
 Unable to Open any file for archive entry.
 1\1\GINC-NODE2011\Freq\RB3LYP\6-311+G(d,p)\C5H5N2O1(1-)\SVICCHI\11-Jan
 -2024\0\\#p freq=raman scale=0.967 guess=read geom=allcheck b3lyp/6-31
 1+G(d,p) int=grid=ultrafine EmpiricalDispersion=GD3BJ SCRF=(Solvent=et
 hanol) scf=(xqc,intrep,maxconventionalcycle=350) nosymm\\IMIDCOCH3-iso
 lated\\-1,1\C,-1.8176566779,3.792756732,-0.2103803512\N,-1.8070660856,
 2.4248189446,-0.1724750262\C,-2.1662017368,2.0628394197,-1.4214624785\
 C,-2.3880842433,3.22025782,-2.1885802643\H,-2.2528459643,1.0254387163,
 -1.7182278754\N,-2.1684904586,4.3098028496,-1.4240179246\H,-2.68802332
 72,3.2968447132,-3.226126576\C,-1.4751580087,4.611319585,0.9400089097\
 O,-1.4913589564,5.8491722452,0.916495718\C,-1.0582520254,3.9026713732,
 2.2163044169\H,-1.2883942186,2.8402067343,2.1956138179\H,0.0224994624,
 4.0251638893,2.3442173833\H,-1.5455577598,4.3840369775,3.0672102503\\V
 ersion=ES64L-G16RevC.02\HF=-378.5345247\RMSD=6.387e-09\RMSF=1.174e-05\
 ZeroPoint=0.0916007\Thermal=0.0987118\ETot=-378.4358128\HTot=-378.4348
 687\GTot=-378.4751719\Dipole=0.1986794,-1.490719,0.5034611\DipoleDeriv
 =-0.1110726,-0.3406508,-0.3095404,-0.2600634,-0.3161004,-0.8881499,-0.
 3166097,-1.1521415,-1.0730845,-0.3684015,0.1964667,0.0401696,0.2325933
 ,-0.1903949,0.8106155,0.0303398,0.6645733,-0.2727458,-0.2381577,-0.209
 5181,-0.0829981,0.0540513,0.2999361,0.1729962,-0.0880372,-0.7278675,-0
 .4946402,-0.1881305,-0.0135323,0.0568588,-0.2444378,-0.2391094,-0.8206
 336,0.0581005,-0.0294062,0.0004284,0.1956499,-0.0171986,-0.0393495,-0.
 0341105,-0.1710736,-0.1150369,-0.0407406,-0.0584154,0.067381,-0.339337
 3,0.174714,0.1462364,0.1240025,-0.6872863,0.4191917,0.149376,0.5842526
 ,0.1274711,0.1689779,-0.0057883,-0.1068619,0.0093354,0.090005,0.032149
 5,-0.1081508,-0.0224455,-0.1725814,0.3973533,0.1996251,0.6105217,0.312
 7931,2.6224852,1.1839111,0.5838114,0.6930676,2.0343089,-0.5585556,-0.0
 370988,-0.1315568,-0.2502684,-2.4208306,-0.933479,-0.1188863,-0.129633
 4,-0.8965346,0.0090367,0.076784,-0.2627436,0.0439694,-0.0338463,0.1186
 461,-0.1735205,0.2475189,-0.3533657,0.0966577,-0.0483597,0.0159019,-0.
 0154461,-0.0677405,0.0746979,-0.0079774,0.0012098,0.100179,-0.125724,-
 0.0381016,-0.059707,-0.039158,0.0844333,0.022123,-0.013666,0.0016657,0
 .0313772,0.0617035,0.0626582,0.123069,0.0667392,0.0295225,-0.0770315,0
 .0459608,-0.0723783,-0.0981933\Polar=77.2123451,7.5409757,138.5047138,
 21.9215907,26.9239489,143.3616457\PolarDeriv=2.805657,4.9634536,6.4729
 297,6.4114773,4.6228423,2.4858273,0.6976876,3.4266605,11.2794191,5.158
 1538,11.250517,16.8331588,-1.489027,4.817653,18.7598316,4.8053019,19.4
 328257,18.4190934,2.0919747,-4.8217235,1.36315,0.5413288,-3.2508791,-5
 .0024397,-1.7870217,-3.9115678,-9.3234579,-6.6301564,-12.9408012,-22.7
 550445,2.3956483,-3.479847,5.1711649,-5.3333064,-15.4455399,-11.541049
 7,-2.7377202,-8.2713702,0.7212204,-2.4596825,9.6922933,10.9244804,-8.4
 073804,-2.9943044,-11.4225399,-2.2423388,-10.261967,-15.1986803,2.4612
 09,9.8672524,2.2656492,9.6742121,22.4124891,26.0280882,-8.4260207,-2.0
 486396,-1.2356791,-9.9992101,0.5986807,3.8836622,3.947975,8.3295995,13
 .9361026,6.3033776,28.1768938,23.4716141,-5.3829974,0.6733981,-3.71061
 81,2.4512489,0.3062171,-10.0731005,0.6517279,1.3345266,-1.2047293,0.99
 63395,-1.6142227,-1.5565736,-0.4375765,-1.6364668,-16.7343452,-0.67029
 81,-5.4473488,-2.508714,-0.6924939,-1.6107026,-4.1885331,-1.0629867,-3
 .7186866,-2.4538511,-1.0954925,1.9380271,-3.813475,-3.3429637,-6.42699
 64,-2.9137045,3.9308322,-3.1497457,3.548096,-0.6943229,-10.5374034,1.6
 976437,0.929117,-6.5299523,-12.7571813,-4.2662968,-18.2094905,-14.5932
 837,0.6026039,0.8548341,-0.2113757,0.2461479,-0.4650061,-6.1634704,-0.
 125898,-0.7342336,-0.2438994,0.1168857,-2.5524083,0.1845536,-2.0906724
 ,-0.4762113,-0.7426254,-5.5244691,-0.6671096,-17.3298056,3.5319531,0.7
 266656,-3.839239,2.6041646,-3.9572837,-5.3670535,2.0439301,-11.3366492
 ,-33.84151,-10.5893981,-37.4293098,-28.3523403,4.2449787,-2.7808923,-5
 .6740966,-2.733891,-6.1081683,1.1345052,0.1925044,6.4714633,-0.0656272
 ,1.5484963,0.256661,0.9612716,1.5431011,10.4930551,43.7615241,10.17043
 59,35.8570053,32.122449,-1.213236,-0.2650494,-1.2084072,0.7516794,5.14
 45596,1.9079907,-9.909941,-2.1130305,3.2091451,-6.3519772,1.1995604,3.
 2066197,-2.6414147,1.9398181,6.2563865,-0.3127683,-1.5715981,-9.670488
 6,-2.5114211,-0.6231761,-2.1312692,1.3806524,-9.3964321,-9.9719975,0.0
 095682,-1.2467084,-1.484191,0.7194246,0.1439412,-1.1875861,-1.5837514,
 -1.028968,-9.2537432,-0.826755,1.5749956,-4.4879839,0.2435852,0.199561
 2,1.2860695,-0.7909273,-0.7168656,0.20209,13.3965757,1.2325426,2.13872
 09,6.0041335,1.1796073,6.2674017,1.2398377,1.8557521,-0.3188964,0.5593
 797,0.9654739,2.2704349,1.3501379,0.4985931,0.6853752,2.5868623,2.3352
 837,4.971959,-1.1133903,0.9799593,-2.0508498,3.0823209,-1.9791983,-5.5
 38435,1.579679,-1.2529498,2.3568638,-0.3421952,2.915951,6.3933976,1.75
 51717,-0.2906267,2.2446405,-1.9380796,4.6309175,13.2993613\HyperPolar=
 -103.9752211,-84.8923364,154.3608913,-76.2960003,-59.6335425,303.70880
 72,539.360582,344.8843961,862.9475441,809.4086379\Quadrupole=20.314448
 9,-51.9816342,31.6671852,30.3845724,-2.487041,5.2821398\PG=C01 [X(C5H5
 N2O1)]\NImag=0\\0.19454398,0.02132822,0.62420255,0.14244941,0.07165020
 ,0.63810204,-0.07672918,0.00323865,0.00178210,0.13863624,0.01422405,-0
 .25371046,0.04981979,-0.00055223,0.46345120,0.00178732,0.01061065,-0.0
 7069991,0.11192681,-0.00012308,0.49299615,0.00509684,-0.02539666,-0.02
 038229,-0.08864580,-0.01531137,-0.06204984,0.16217890,-0.00784599,-0.0
 6306150,-0.02733348,-0.01337491,-0.11621059,-0.04642684,0.02409735,0.8
 1466594,-0.02032734,-0.08807993,-0.05996469,-0.06211652,-0.05324045,-0
 .28537859,0.11640954,0.08212765,0.53196258,0.00149724,-0.00380111,-0.0
 3101764,0.01304049,-0.00095809,-0.02607180,-0.07448483,0.02959625,-0.0
 2543711,0.18500939,-0.02322479,-0.01709998,-0.08063010,0.01956415,0.01
 444782,0.06863354,0.01948117,-0.22874386,0.06807493,-0.00469079,0.5408
 0245,-0.03083442,-0.01345656,-0.09630723,-0.02605184,-0.00347372,-0.07
 038977,-0.02532080,0.10265057,-0.15437232,0.18895068,-0.01754850,0.784
 65581,0.00665524,-0.00029828,-0.00394963,-0.00670413,-0.00889739,0.000
 06205,-0.03071427,-0.01850987,-0.01279448,-0.00048430,0.00366088,0.003
 58508,0.02598614,-0.00017801,-0.00052262,-0.00060777,-0.00063104,-0.00
 174828,-0.00224363,-0.01959226,-0.31965169,-0.06692856,-0.00340714,-0.
 00733781,-0.01165716,0.02334786,0.33386639,-0.00401768,-0.00097786,-0.
 00606847,0.00008135,-0.03102350,-0.00632499,-0.01283399,-0.06279982,-0
 .07150754,0.00358603,0.01248229,0.01080527,0.01483271,0.07986653,0.073
 02614,-0.08957918,0.02747815,-0.03414026,0.02136710,0.01661443,-0.0202
 8527,0.02161404,-0.01191527,0.00118902,-0.07722799,-0.02915518,-0.0277
 3554,0.00555099,0.00024627,-0.00186177,0.13180808,0.01891431,-0.117977
 74,0.06601023,0.00211419,-0.07329534,0.00690357,0.00877904,-0.08713168
 ,0.03038867,-0.02757031,-0.24753049,-0.09408732,0.00138211,-0.00410027
 ,0.00482427,0.00568927,0.51587318,-0.03461955,0.09596176,-0.19868361,-
 0.01997957,0.05715164,-0.04281867,0.00093076,-0.04104228,0.02467553,-0
 .02764244,-0.10057544,-0.16559851,-0.00190197,0.00080389,-0.00028864,0
 .09902924,0.01584515,0.44658131,0.00732492,-0.00064384,-0.00275288,0.0
 0576123,0.00030959,-0.00219134,-0.00146229,-0.00167844,-0.00093095,-0.
 05161738,0.00774682,-0.08142106,-0.00118851,0.00019607,0.00022642,-0.0
 0709091,0.00015215,-0.00183679,0.04785988,-0.00089418,-0.00559651,-0.0
 0315763,0.00150424,-0.00327700,0.00526040,0.00534362,0.00921317,0.0184
 5036,0.00893254,-0.06117323,0.03072846,-0.00019521,-0.00039147,-0.0006
 7804,-0.00814323,0.00559731,-0.02812037,-0.00619582,0.05445234,-0.0026
 9528,-0.00245435,-0.00117615,-0.00218044,0.00121702,-0.00118690,-0.000
 94996,-0.00565478,-0.00445743,-0.08137233,0.02675816,-0.30956611,0.000
 22749,0.00066251,-0.00046742,-0.00193124,0.00039198,-0.01322507,0.0891
 7743,-0.02127633,0.33053341,-0.07536108,-0.01445358,-0.03638225,-0.012
 13549,-0.00628681,0.00050394,0.00825837,0.00010499,0.00615234,0.004877
 76,0.00876311,-0.00110066,0.00223526,0.00026891,-0.00017746,-0.0115256
 6,-0.00764887,-0.01322821,0.00149692,-0.00025646,-0.00034632,0.2474600
 9,-0.00709229,-0.10682769,-0.02510403,-0.01284719,-0.04368737,-0.04380
 717,0.00868164,-0.01327907,0.03009411,0.00352135,0.02834720,0.01205804
 ,-0.00023503,0.00080532,-0.00068886,-0.00600317,0.00178344,-0.01975755
 ,0.00044157,0.00131418,0.00160298,-0.00549000,0.80504810,-0.03653285,-
 0.05024920,-0.18757979,0.00143982,-0.02015914,-0.00973632,0.00516799,0
 .00101569,0.02534433,-0.00125159,0.02785462,0.00102659,-0.00022222,0.0
 0082736,0.00157504,-0.01292497,-0.02525241,-0.05135534,-0.00026424,-0.
 00086940,0.00031636,0.08456316,0.00196541,0.49946392,0.01650578,-0.011
 14386,-0.00296770,0.00639774,0.00017303,-0.00274235,-0.00215659,-0.000
 85668,-0.00081566,0.00011439,-0.00139654,0.00041236,-0.00114874,-0.000
 16536,0.00013672,0.00002931,-0.00074192,0.00051365,0.00011442,0.000026
 95,-0.00012272,-0.07194170,0.00843982,-0.00787546,0.03373132,-0.012857
 04,-0.06990165,-0.04381026,0.00214227,0.01692116,0.00678118,-0.0064459
 0,0.00306541,-0.02207647,-0.00126132,-0.02316084,-0.00379445,-0.000255
 30,-0.00083279,-0.00100399,0.00655540,0.00868182,0.02339921,-0.0002678
 1,-0.00002024,-0.00088365,0.01378749,-0.57400847,0.03150141,-0.0099642
 3,0.68517827,-0.00265363,-0.03747461,0.00830387,-0.00306939,0.00001758
 ,-0.00272577,-0.00044377,-0.00319080,-0.00356617,0.00044178,-0.0036151
 1,0.00163190,0.00016087,-0.00052185,-0.00069804,0.00021926,-0.00108998
 ,0.00069361,-0.00012450,0.00008909,-0.00025247,-0.00807080,0.01461441,
 -0.09746409,0.01907444,-0.01619728,0.09147552,0.01047906,0.00165588,-0
 .01220306,-0.00046098,0.00127719,0.00070429,0.00048743,0.00024694,-0.0
 0122805,-0.00077903,-0.00092255,-0.00029559,-0.00013554,-0.00005316,0.
 00002893,0.00533388,-0.00058093,-0.00036753,-0.00116646,-0.00009989,0.
 00029019,-0.08739085,0.00570233,-0.02179222,0.01507563,0.00828052,-0.0
 0286062,0.50872914,-0.00360698,0.01253853,-0.00983580,0.00063549,-0.00
 005776,0.00021671,-0.00037539,0.00018243,0.00041252,-0.00023587,0.0004
 9035,-0.00094455,0.00002600,-0.00004757,0.00001767,-0.00146370,-0.0022
 9928,-0.00300873,0.00008878,-0.00029767,-0.00029385,0.00774900,-0.0916
 1278,0.02745739,0.01587687,-0.04404463,0.04145922,0.01728086,0.5807318
 4,-0.01149890,0.01051143,-0.02018214,-0.00118915,-0.00146114,-0.003857
 15,-0.00014379,0.00089278,-0.00025919,-0.00004990,0.00041486,-0.001392
 80,0.00000805,-0.00015593,-0.00003971,-0.00205454,-0.00283825,-0.00060
 451,0.00024296,-0.00021763,-0.00040877,-0.02584454,0.02103880,-0.16237
 523,-0.00294749,0.02231180,0.00380722,-0.02430159,0.04507908,0.4803634
 0,-0.00008889,-0.00039576,0.00009859,-0.00070457,-0.00016675,-0.001032
 45,-0.00012598,0.00003795,-0.00010979,0.00006575,-0.00004200,-0.000012
 00,-0.00001537,0.00000205,0.00001136,0.00004537,0.00006190,0.00008429,
 0.00001205,0.00001958,0.00000146,0.00010097,0.00982502,0.00293729,0.00
 092243,0.00214339,-0.00345533,-0.05857981,-0.05849058,0.00083867,0.060
 42784,0.00058356,-0.00026666,0.00095767,-0.00108736,-0.00191926,-0.003
 73278,0.00038689,0.00044728,0.00027156,-0.00003431,0.00047265,-0.00032
 529,-0.00004010,-0.00001460,0.00000549,-0.00003652,0.00000509,-0.00046
 328,-0.00009979,0.00006987,-0.00004844,-0.00374700,-0.01276951,-0.0052
 5179,0.00115888,-0.00213623,0.00469304,-0.05724127,-0.30891923,-0.0024
 8646,0.06287779,0.33535955,-0.00089687,-0.00037574,-0.00138382,-0.0007
 4119,-0.00004839,-0.00074040,-0.00008161,-0.00058908,-0.00110125,0.000
 19354,-0.00084427,0.00031895,-0.00000520,0.00006440,0.00005090,0.00030
 340,-0.00006355,0.00130932,0.00000886,-0.00006110,0.00008370,0.0111439
 3,0.02483996,0.00972008,-0.00412350,0.00615264,-0.00658407,-0.00072479
 ,-0.00907962,-0.04926953,0.00229813,0.00592428,0.04781115,0.00017838,0
 .00107521,-0.00042254,0.00011661,0.00008841,-0.00003791,-0.00004760,0.
 00015699,-0.00034060,-0.00002829,-0.00021040,-0.00013642,-0.00003672,-
 0.00003155,-0.00000629,0.00019474,-0.00019076,-0.00030550,-0.00009555,
 -0.00001838,-0.00003408,-0.00913936,-0.00130489,-0.00149943,0.00197136
 ,-0.00001806,-0.00017434,-0.29727353,-0.02988981,-0.02811735,-0.005309
 29,-0.00034865,-0.00016855,0.32343906,-0.00065064,-0.00059933,0.000695
 68,-0.00041491,-0.00005627,-0.00052004,0.00057000,0.00011997,0.0000325
 3,0.00011699,0.00015551,-0.00014045,-0.00002431,-0.00000568,0.00000034
 ,-0.00038425,0.00009830,0.00009771,-0.00003490,0.00002846,0.00000132,0
 .01603200,-0.00000509,-0.00030328,-0.00217430,-0.00054710,0.00135390,-
 0.02873936,-0.04649689,-0.00208559,-0.03109861,-0.00101006,-0.00320544
 ,0.03245051,0.04695192,0.00142070,0.00113596,-0.00256713,-0.00009074,0
 .00071947,0.00050922,-0.00013645,0.00017553,-0.00083528,-0.00026449,-0
 .00064100,-0.00024801,-0.00002132,-0.00004515,-0.00001743,0.00135673,-
 0.00027882,-0.00040671,-0.00028631,-0.00005234,-0.00000086,-0.03008806
 ,-0.00296385,-0.00444995,0.00287220,-0.00125429,0.00067990,-0.03259355
 ,-0.00204637,-0.04292708,-0.00012311,-0.00008301,-0.00100420,0.0327986
 8,0.00182472,0.04795149,-0.00052312,0.00135698,-0.00011185,0.00006074,
 -0.00051405,-0.00057344,0.00000178,-0.00005930,0.00034959,0.00001679,0
 .00042613,-0.00003979,-0.00000005,-0.00000264,-0.00000633,-0.00051977,
 -0.00036018,-0.00067639,0.00005167,-0.00002376,-0.00006421,0.00306477,
 -0.00363915,-0.01174528,0.00038465,-0.00183941,0.00095605,-0.09431893,
 0.05240533,0.09505757,0.00324951,-0.00237212,-0.00720616,-0.01396980,0
 .01435180,0.02515574,0.10250175,0.00129979,-0.00117695,0.00134550,-0.0
 0029133,-0.00085784,-0.00155250,-0.00021811,0.00038419,0.00047308,-0.0
 0020819,0.00033023,-0.00000907,0.00003863,-0.00001893,-0.00002453,0.00
 051782,0.00029565,-0.00029169,-0.00001437,0.00008078,-0.00002257,-0.00
 882277,0.00489172,0.01146334,0.00076733,0.00080527,-0.00013759,0.05319
 343,-0.10016733,-0.09100374,0.01522603,-0.00931890,-0.02271409,-0.0017
 5862,0.00136627,0.00350914,-0.05972964,0.10338585,-0.00158092,0.003198
 25,-0.00179296,0.00018876,0.00060392,0.00035310,-0.00016579,0.00017486
 ,-0.00053998,-0.00006473,-0.00036398,-0.00056378,0.00001859,-0.0000646
 5,-0.00004511,-0.00116407,-0.00075353,-0.00027870,0.00015240,-0.000095
 46,-0.00019229,0.01287493,-0.01389222,-0.02448560,-0.00141450,-0.00112
 584,0.00469858,0.09534360,-0.08943366,-0.20285451,-0.00153711,0.000539
 01,0.00078917,-0.00155567,0.00224860,0.00331605,-0.10109549,0.09896470
 ,0.22159604\\0.00000186,-0.00000412,0.00000040,0.00000484,0.00000024,0
 .00000718,0.00001614,-0.00002289,0.00000235,0.00001166,-0.00000857,-0.
 00001845,0.00000452,0.00001011,0.00000601,0.00000798,-0.00000661,-0.00
 000807,0.00001690,-0.00001072,0.00001209,-0.00001003,0.00000107,-0.000
 00195,-0.00001459,0.00001353,-0.00000698,-0.00002948,0.00001130,-0.000
 01372,-0.00001178,-0.00000402,0.00000204,0.00001945,0.00000398,0.00001
 170,-0.00001746,0.00001672,0.00000740\\\@
 The archive entry for this job was punched.


 WHERE THERE IS MUCH DESIRE TO LEARN, THERE OF NECESSITY WILL BE
 MUCH ARGUING, MUCH WRITING, MANY OPINIONS; FOR OPINION IN GOOD MEN
 IS BUT KNOWLEDGE IN THE MAKING. -- JOHN MILTON.
 Job cpu time:       0 days  0 hours 16 minutes 52.9 seconds.
 Elapsed time:       0 days  0 hours  1 minutes 29.3 seconds.
 File lengths (MBytes):  RWF=    123 Int=      0 D2E=      0 Chk=     15 Scr=      1
 Normal termination of Gaussian 16 at Thu Jan 11 12:00:43 2024.
