 Entering Gaussian System, Link 0=g16
 Input=IMIDCOOCH3-isolated-freq.gjf
 Output=IMIDCOOCH3-isolated-freq.log
 Initial command:
 /software/commercial/gaussian/g16/AVX2/g16/l1.exe "/scratch1/svicchi/G09-1868846.pbs02/Gau-394269.inp" -scrdir="/scratch1/svicchi/G09-1868846.pbs02/"
 Entering Link 1 = /software/commercial/gaussian/g16/AVX2/g16/l1.exe PID=    394270.
  
 Copyright (c) 1988-2021, Gaussian, Inc.  All Rights Reserved.
  
 This is part of the Gaussian(R) 16 program.  It is based on
 the Gaussian(R) 09 system (copyright 2009, Gaussian, Inc.),
 the Gaussian(R) 03 system (copyright 2003, Gaussian, Inc.),
 the Gaussian(R) 98 system (copyright 1998, Gaussian, Inc.),
 the Gaussian(R) 94 system (copyright 1995, Gaussian, Inc.),
 the Gaussian 92(TM) system (copyright 1992, Gaussian, Inc.),
 the Gaussian 90(TM) system (copyright 1990, Gaussian, Inc.),
 the Gaussian 88(TM) system (copyright 1988, Gaussian, Inc.),
 the Gaussian 86(TM) system (copyright 1986, Carnegie Mellon
 University), and the Gaussian 82(TM) system (copyright 1983,
 Carnegie Mellon University). Gaussian is a federally registered
 trademark of Gaussian, Inc.
  
 This software contains proprietary and confidential information,
 including trade secrets, belonging to Gaussian, Inc.
  
 This software is provided under written license and may be
 used, copied, transmitted, or stored only in accord with that
 written license.
  
 The following legend is applicable only to US Government
 contracts under FAR:
  
                    RESTRICTED RIGHTS LEGEND
  
 Use, reproduction and disclosure by the US Government is
 subject to restrictions as set forth in subparagraphs (a)
 and (c) of the Commercial Computer Software - Restricted
 Rights clause in FAR 52.227-19.
  
 Gaussian, Inc.
 340 Quinnipiac St., Bldg. 40, Wallingford CT 06492
  
  
 ---------------------------------------------------------------
 Warning -- This program may not be used in any manner that
 competes with the business of Gaussian, Inc. or will provide
 assistance to any competitor of Gaussian, Inc.  The licensee
 of this program is prohibited from giving any competitor of
 Gaussian, Inc. access to this program.  By using this program,
 the user acknowledges that Gaussian, Inc. is engaged in the
 business of creating and licensing software in the field of
 computational chemistry and represents and warrants to the
 licensee that it is not a competitor of Gaussian, Inc. and that
 it will not use this program in any manner prohibited above.
 ---------------------------------------------------------------
  

 Cite this work as:
 Gaussian 16, Revision C.02,
 M. J. Frisch, G. W. Trucks, H. B. Schlegel, G. E. Scuseria, 
 M. A. Robb, J. R. Cheeseman, G. Scalmani, V. Barone, 
 G. A. Petersson, H. Nakatsuji, X. Li, M. Caricato, A. V. Marenich, 
 J. Bloino, B. G. Janesko, R. Gomperts, B. Mennucci, H. P. Hratchian, 
 J. V. Ortiz, A. F. Izmaylov, J. L. Sonnenberg, D. Williams-Young, 
 F. Ding, F. Lipparini, F. Egidi, J. Goings, B. Peng, A. Petrone, 
 T. Henderson, D. Ranasinghe, V. G. Zakrzewski, J. Gao, N. Rega, 
 G. Zheng, W. Liang, M. Hada, M. Ehara, K. Toyota, R. Fukuda, 
 J. Hasegawa, M. Ishida, T. Nakajima, Y. Honda, O. Kitao, H. Nakai, 
 T. Vreven, K. Throssell, J. A. Montgomery, Jr., J. E. Peralta, 
 F. Ogliaro, M. J. Bearpark, J. J. Heyd, E. N. Brothers, K. N. Kudin, 
 V. N. Staroverov, T. A. Keith, R. Kobayashi, J. Normand, 
 K. Raghavachari, A. P. Rendell, J. C. Burant, S. S. Iyengar, 
 J. Tomasi, M. Cossi, J. M. Millam, M. Klene, C. Adamo, R. Cammi, 
 J. W. Ochterski, R. L. Martin, K. Morokuma, O. Farkas, 
 J. B. Foresman, and D. J. Fox, Gaussian, Inc., Wallingford CT, 2019.
 
 ******************************************
 Gaussian 16:  ES64L-G16RevC.02  7-Dec-2021
                11-Jan-2024 
 ******************************************
 %NProcShared=12
 Will use up to   12 processors via shared memory.
 %mem=110gb
 %chk=/scratch1/svicchi/G09-1868846.pbs02/02-freq/IMIDCOOCH3-isolated-freq.chk
 ----------------------------------------------------------------------
 #p freq=raman scale=0.967 guess=read geom=allcheck b3lyp/6-311+G(d,p) 
 int=grid=ultrafine EmpiricalDispersion=GD3BJ SCRF=(Solvent=ethanol) sc
 f=(xqc,intrep,maxconventionalcycle=350) nosymm
 ----------------------------------------------------------------------
 1/10=4,29=7,30=1,38=1,114=967000/1,3;
 2/12=2,15=1,40=1/2;
 3/5=4,6=6,7=111,11=2,14=-4,25=1,30=1,70=2201,71=2,72=4,74=-5,75=-5,116=-2,124=41,140=1/1,2,3;
 4/5=1/1;
 5/5=2,8=3,13=1,17=20,38=6,53=4,85=350,98=1/2,8;
 8/6=4,10=90,11=11/1;
 10/13=10,15=4,31=1/2;
 11/6=3,8=1,9=11,15=111,16=1,31=1/1,2,10;
 10/6=1,31=1/2;
 6/7=2,8=2,9=2,10=2,28=1/1;
 7/8=1,10=1,25=1,30=1/1,2,3,16;
 1/10=4,30=1/3;
 99//99;
 Leave Link    1 at Thu Jan 11 13:26:37 2024, MaxMem= 14763950080 cpu:               0.1 elap:               0.1
 (Enter /software/commercial/gaussian/g16/AVX2/g16/l101.exe)
 Structure from the checkpoint file:  "/scratch1/svicchi/G09-1868846.pbs02/02-freq/IMIDCOOCH3-isolated-freq.chk"
 -------------------
 IMIDCOOCH3-isolated
 -------------------
 Charge = -1 Multiplicity = 1
 No Z-Matrix found in chk file; cartesian coordinates used.
  C                                                -1.902541551302      3.788238306226     -0.174673464432
  N                                                -1.913596047132      2.430636385745     -0.086826095830
  C                                                -2.209348727487      2.033347709004     -1.347374142193
  C                                                -2.367348926283      3.164207266579     -2.160486518384
  H                                                -2.294241816347      0.987514983566     -1.613123569466
  N                                                -2.173253592330      4.277381107745     -1.414563283963
  H                                                -2.604947421818      3.215609236079     -3.215174567090
  C                                                -1.627219354922      4.678698007972      0.948086379368
  O                                                -1.630328390650      5.901725235171      0.906828607021
  O                                                -1.352943527814      4.010334436110      2.099202005998
  C                                                -1.077211030492      4.823959733740      3.249744193432
  H                                                -0.889191273082      4.124656768454      4.061641567921
  H                                                -0.199700794899      5.450063413429      3.080828033102
  H                                                -1.931397545443      5.459067410179      3.489430854517
 Recover connectivity data from disk.
 ITRead=  0  0  0  0  0  0  0  0  0  0  0  0  0  0
 MicOpt= -1 -1 -1 -1 -1 -1 -1 -1 -1 -1 -1 -1 -1 -1
 NAtoms=     14 NQM=       14 NQMF=       0 NMMI=      0 NMMIF=      0
                NMic=       0 NMicF=      0.
                    Isotopes and Nuclear Properties:
 (Nuclear quadrupole moments (NQMom) in fm**2, nuclear magnetic moments (NMagM)
  in nuclear magnetons)

  Atom         1           2           3           4           5           6           7           8           9          10
 IAtWgt=          12          14          12          12           1          14           1          12          16          16
 AtmWgt=  12.0000000  14.0030740  12.0000000  12.0000000   1.0078250  14.0030740   1.0078250  12.0000000  15.9949146  15.9949146
 NucSpn=           0           2           0           0           1           2           1           0           0           0
 AtZEff=   3.6000000   4.5500000   3.6000000   3.6000000   1.0000000   4.5500000   1.0000000   3.6000000   5.6000000   5.6000000
 NQMom=    0.0000000   2.0440000   0.0000000   0.0000000   0.0000000   2.0440000   0.0000000   0.0000000   0.0000000   0.0000000
 NMagM=    0.0000000   0.4037610   0.0000000   0.0000000   2.7928460   0.4037610   2.7928460   0.0000000   0.0000000   0.0000000
 AtZNuc=   6.0000000   7.0000000   6.0000000   6.0000000   1.0000000   7.0000000   1.0000000   6.0000000   8.0000000   8.0000000

  Atom        11          12          13          14
 IAtWgt=          12           1           1           1
 AtmWgt=  12.0000000   1.0078250   1.0078250   1.0078250
 NucSpn=           0           1           1           1
 AtZEff=   3.6000000   1.0000000   1.0000000   1.0000000
 NQMom=    0.0000000   0.0000000   0.0000000   0.0000000
 NMagM=    0.0000000   2.7928460   2.7928460   2.7928460
 AtZNuc=   6.0000000   1.0000000   1.0000000   1.0000000
 Leave Link  101 at Thu Jan 11 13:26:37 2024, MaxMem= 14763950080 cpu:               0.1 elap:               0.1
 (Enter /software/commercial/gaussian/g16/AVX2/g16/l103.exe)

 GradGradGradGradGradGradGradGradGradGradGradGradGradGradGradGradGradGrad
 Berny optimization.
 Initialization pass.
 Trust Radius=3.00D-01 FncErr=1.00D-07 GrdErr=1.00D-07 EigMax=2.50D+02 EigMin=1.00D-04
 Number of steps in this run=      2 maximum allowed number of steps=      2.
 GradGradGradGradGradGradGradGradGradGradGradGradGradGradGradGradGradGrad

 Leave Link  103 at Thu Jan 11 13:26:37 2024, MaxMem= 14763950080 cpu:               0.1 elap:               0.1
 (Enter /software/commercial/gaussian/g16/AVX2/g16/l202.exe)
                          Input orientation:                          
 ---------------------------------------------------------------------
 Center     Atomic      Atomic             Coordinates (Angstroms)
 Number     Number       Type             X           Y           Z
 ---------------------------------------------------------------------
      1          6           0       -1.902542    3.788238   -0.174673
      2          7           0       -1.913596    2.430636   -0.086826
      3          6           0       -2.209349    2.033348   -1.347374
      4          6           0       -2.367349    3.164207   -2.160487
      5          1           0       -2.294242    0.987515   -1.613124
      6          7           0       -2.173254    4.277381   -1.414563
      7          1           0       -2.604947    3.215609   -3.215175
      8          6           0       -1.627219    4.678698    0.948086
      9          8           0       -1.630328    5.901725    0.906829
     10          8           0       -1.352944    4.010334    2.099202
     11          6           0       -1.077211    4.823960    3.249744
     12          1           0       -0.889191    4.124657    4.061642
     13          1           0       -0.199701    5.450063    3.080828
     14          1           0       -1.931398    5.459067    3.489431
 ---------------------------------------------------------------------
                    Distance matrix (angstroms):
                    1          2          3          4          5
     1  C    0.000000
     2  N    1.360486   0.000000
     3  C    2.132838   1.354359   0.000000
     4  C    2.132818   2.245904   1.401770   0.000000
     5  H    3.172794   2.134731   1.082403   2.245649   0.000000
     6  N    1.360100   2.289274   2.245329   1.353968   3.298073
     7  H    3.172684   3.298593   2.245644   1.082341   2.761795
     8  C    1.459216   2.491352   3.550478   3.536198   4.541976
     9  O    2.389681   3.621608   4.514536   4.176796   5.562410
    10  O    2.349871   2.754722   4.064578   4.459809   4.879021
    11  C    3.671584   4.190494   5.495703   5.804294   6.312444
    12  H    4.368801   4.596618   5.947591   6.467016   6.634665
    13  H    4.032322   4.699831   5.943198   6.115163   6.806954
    14  H    4.027178   4.686291   5.933590   6.113755   6.794299
                    6          7          8          9         10
     6  N    0.000000
     7  H    2.134460   0.000000
     8  C    2.457910   4.519881   0.000000
     9  O    2.884809   5.015577   1.223727   0.000000
    10  O    3.618117   5.517400   1.359045   2.253010   0.000000
    11  C    4.822429   6.834906   2.370915   2.637569   1.435884
    12  H    5.626807   7.531417   3.247441   3.695957   2.019729
    13  H    5.047637   7.100538   2.679814   2.641395   2.089588
    14  H    5.050152   7.102007   2.675805   2.637503   2.089539
                   11         12         13         14
    11  C    0.000000
    12  H    1.087912   0.000000
    13  H    1.091129   1.787203   0.000000
    14  H    1.091076   1.787252   1.779273   0.000000
 Symmetry turned off by external request.
 Stoichiometry    C5H5N2O2(1-)
 Framework group  C1[X(C5H5N2O2)]
 Deg. of freedom    36
 Full point group                 C1      NOp   1
 Rotational constants (GHZ):           4.7469291           1.0969166           0.8960972
 Leave Link  202 at Thu Jan 11 13:26:37 2024, MaxMem= 14763950080 cpu:               0.1 elap:               0.0
 (Enter /software/commercial/gaussian/g16/AVX2/g16/l301.exe)
 Standard basis: 6-311+G(d,p) (5D, 7F)
 Ernie: Thresh=  0.10000D-02 Tol=  0.10000D-05 Strict=F.
   228 basis functions,   364 primitive gaussians,   237 cartesian basis functions
    33 alpha electrons       33 beta electrons
       nuclear repulsion energy       420.1188537453 Hartrees.
 IExCor=  402 DFT=T Ex+Corr=B3LYP ExCW=0 ScaHFX=  0.200000
 ScaDFX=  0.800000  0.720000  1.000000  0.810000 ScalE2=  1.000000  1.000000
 IRadAn=      5 IRanWt=     -1 IRanGd=            0 ICorTp=0 IEmpDi=141
 NAtoms=   14 NActive=   14 NUniq=   14 SFac= 1.00D+00 NAtFMM=   60 NAOKFM=F Big=F
 Integral buffers will be    131072 words long.
 Raffenetti 2 integral format.
 Two-electron integral symmetry is turned off.
 R6Disp:  Grimme-D3(BJ) Dispersion energy=       -0.0204653664 Hartrees.
 Nuclear repulsion after empirical dispersion term =      420.0983883789 Hartrees.
 Force inversion solution in PCM.
 ------------------------------------------------------------------------------
 Polarizable Continuum Model (PCM)
 =================================
 Model                : PCM.
 Atomic radii         : UFF (Universal Force Field).
 Polarization charges : Total charges.
 Charge compensation  : None.
 Solution method      : Matrix inversion.
 Cavity type          : Scaled VdW (van der Waals Surface) (Alpha=1.100).
 Cavity algorithm     : GePol (No added spheres)
                        Default sphere list used, NSphG=   14.
                        Lebedev-Laikov grids with approx.  5.0 points / Ang**2.
                        Smoothing algorithm: York/Karplus (Gamma=1.0000).
                        Polarization charges: spherical gaussians, with
                                              point-specific exponents (IZeta= 3).
                        Self-potential: point-specific (ISelfS= 7).
                        Self-field    : sphere-specific E.n sum rule (ISelfD= 2).
 1st derivatives      : Analytical E(r).r(x)/FMM algorithm (CHGder, D1EAlg=3).
                        Cavity 1st derivative terms included.
 2nd derivatives      : Analytical E(r).r(xy)/FMM algorithm (CHGder, D2EAlg=3).
                        Cavity 2nd derivative terms included.
 Solvent              : Ethanol, Eps=  24.852000 Eps(inf)=   1.852593
 ------------------------------------------------------------------------------
 Spheres list:
 ISph  on   Nord     Re0    Alpha      Xe            Ye            Ze
    1   C      1    1.9255  1.100     -1.902542      3.788238     -0.174673
    2   N      2    1.8300  1.100     -1.913596      2.430636     -0.086826
    3   C      3    1.9255  1.100     -2.209349      2.033348     -1.347374
    4   C      4    1.9255  1.100     -2.367349      3.164207     -2.160487
    5   H      5    1.4430  1.100     -2.294242      0.987515     -1.613124
    6   N      6    1.8300  1.100     -2.173254      4.277381     -1.414563
    7   H      7    1.4430  1.100     -2.604947      3.215609     -3.215175
    8   C      8    1.9255  1.100     -1.627219      4.678698      0.948086
    9   O      9    1.7500  1.100     -1.630328      5.901725      0.906829
   10   O     10    1.7500  1.100     -1.352944      4.010334      2.099202
   11   C     11    1.9255  1.100     -1.077211      4.823960      3.249744
   12   H     12    1.4430  1.100     -0.889191      4.124657      4.061642
   13   H     13    1.4430  1.100     -0.199701      5.450063      3.080828
   14   H     14    1.4430  1.100     -1.931398      5.459067      3.489431
 ------------------------------------------------------------------------------
 GePol: Number of generator spheres                  =      14
 GePol: Total number of spheres                      =      14
 GePol: Number of exposed spheres                    =      14 (100.00%)
 GePol: Number of points                             =    1355
 GePol: Average weight of points                     =       0.13
 GePol: Minimum weight of points                     =   0.49D-10
 GePol: Maximum weight of points                     =    0.20577
 GePol: Number of points with low weight             =      69
 GePol: Fraction of low-weight points (<1% of avg)   =       5.09%
 GePol: Cavity surface area                          =    178.894 Ang**2
 GePol: Cavity volume                                =    171.851 Ang**3
 Leave Link  301 at Thu Jan 11 13:26:38 2024, MaxMem= 14763950080 cpu:               0.1 elap:               0.1
 (Enter /software/commercial/gaussian/g16/AVX2/g16/l302.exe)
 NPDir=0 NMtPBC=     1 NCelOv=     1 NCel=       1 NClECP=     1 NCelD=      1
         NCelK=      1 NCelE2=     1 NClLst=     1 CellRange=     0.0.
 One-electron integrals computed using PRISM.
 NBasis=   228 RedAO= T EigKep=  3.43D-06  NBF=   228
 NBsUse=   228 1.00D-06 EigRej= -1.00D+00 NBFU=   228
 Precomputing XC quadrature grid using
 IXCGrd= 4 IRadAn=           5 IRanWt=          -1 IRanGd=           0 AccXCQ= 0.00D+00.
 Generated NRdTot=       0 NPtTot=           0 NUsed=           0 NTot=          32
 NSgBfM=   237   237   237   237   237 MxSgAt=    14 MxSgA2=    14.
 Leave Link  302 at Thu Jan 11 13:26:38 2024, MaxMem= 14763950080 cpu:               1.4 elap:               0.2
 (Enter /software/commercial/gaussian/g16/AVX2/g16/l303.exe)
 DipDrv:  MaxL=1.
 Leave Link  303 at Thu Jan 11 13:26:38 2024, MaxMem= 14763950080 cpu:               0.1 elap:               0.1
 (Enter /software/commercial/gaussian/g16/AVX2/g16/l401.exe)
 Initial guess from the checkpoint file:  "/scratch1/svicchi/G09-1868846.pbs02/02-freq/IMIDCOOCH3-isolated-freq.chk"
 B after Tr=     0.000000    0.000000    0.000000
         Rot=    1.000000    0.000000    0.000000    0.000000 Ang=   0.00 deg.
 Guess basis will be translated and rotated to current coordinates.
 JPrj=2 DoOrth=T DoCkMO=T.
 Leave Link  401 at Thu Jan 11 13:26:39 2024, MaxMem= 14763950080 cpu:               0.5 elap:               0.2
 (Enter /software/commercial/gaussian/g16/AVX2/g16/l502.exe)
 Two-electron integral symmetry not used.
 Closed shell SCF:
 Using DIIS extrapolation, IDIIS=  1040.
 NGot= 14763950080 LenX= 14763832791 LenY= 14763776181
 Requested convergence on RMS density matrix=1.00D-08 within 350 cycles.
 Requested convergence on MAX density matrix=1.00D-06.
 Requested convergence on             energy=1.00D-06.
 No special actions if energy rises.
 Fock matrices will be formed incrementally for  20 cycles.

 Cycle   1  Pass 1  IDiag  1:
 FoFJK:  IHMeth= 1 ICntrl=       0 DoSepK=F KAlg= 0 I1Cent=           0 FoldK=F
 IRaf= 910000000 NMat=       1 IRICut=       1 DoRegI=T DoRafI=F ISym2E= 0 IDoP0=0 IntGTp=1.
 FoFCou: FMM=F IPFlag=           0 FMFlag=      100000 FMFlg1=           0
         NFxFlg=           0 DoJE=F BraDBF=F KetDBF=F FulRan=T
         wScrn=  0.000000 ICntrl=         0 IOpCl=  0 I1Cent=           0 NGrid=           0
         NMat0=    1 NMatS0=      1 NMatT0=    0 NMatD0=    1 NMtDS0=    0 NMtDT0=    0
 Symmetry not used in FoFCou.
 Inv3:  Mode=1 IEnd=     5508075.
 Iteration    1 A*A^-1 deviation from unit magnitude is 2.66D-15 for    379.
 Iteration    1 A*A^-1 deviation from orthogonality  is 1.70D-15 for   1008     83.
 Iteration    1 A^-1*A deviation from unit magnitude is 2.44D-15 for      9.
 Iteration    1 A^-1*A deviation from orthogonality  is 6.32D-15 for   1033   1001.
 E= -453.787050360563    
 DIIS: error= 2.71D-08 at cycle   1 NSaved=   1.
 NSaved= 1 IEnMin= 1 EnMin= -453.787050360563     IErMin= 1 ErrMin= 2.71D-08
 ErrMax= 2.71D-08  0.00D+00 EMaxC= 1.00D-01 BMatC= 9.44D-14 BMatP= 9.44D-14
 IDIUse=1 WtCom= 1.00D+00 WtEn= 0.00D+00
 Coeff-Com:  0.100D+01
 Coeff:      0.100D+01
 Gap=     0.188 Goal=   None    Shift=    0.000
 RMSDP=5.12D-09 MaxDP=2.67D-07              OVMax= 3.26D-07

 Error on total polarization charges =  0.01937
 SCF Done:  E(RB3LYP) =  -453.787050361     A.U. after    1 cycles
            NFock=  1  Conv=0.51D-08     -V/T= 2.0039
 KE= 4.520080441011D+02 PE=-1.914527422237D+03 EE= 5.886339393959D+02
 Leave Link  502 at Thu Jan 11 13:26:41 2024, MaxMem= 14763950080 cpu:              20.2 elap:               2.2
 (Enter /software/commercial/gaussian/g16/AVX2/g16/l508.exe)
 QCSCF skips out because SCF is already converged.
 Leave Link  508 at Thu Jan 11 13:26:42 2024, MaxMem= 14763950080 cpu:               0.1 elap:               0.0
 (Enter /software/commercial/gaussian/g16/AVX2/g16/l801.exe)
 DoSCS=F DFT=T ScalE2(SS,OS)=  1.000000  1.000000
 Range of M.O.s used for correlation:     1   228
 NBasis=   228 NAE=    33 NBE=    33 NFC=     0 NFV=     0
 NROrb=    228 NOA=    33 NOB=    33 NVA=   195 NVB=   195

 **** Warning!!: The largest alpha MO coefficient is  0.11002154D+03

 Leave Link  801 at Thu Jan 11 13:26:42 2024, MaxMem= 14763950080 cpu:               0.1 elap:               0.1
 (Enter /software/commercial/gaussian/g16/AVX2/g16/l1002.exe)
 Minotr:  Closed shell wavefunction.
 NEqPCM:  Using equilibrium solvation (IEInf=0, Eps=  24.8520, EpsInf=   1.8526)
          Direct CPHF calculation.
          Differentiating once with respect to electric field.
                with respect to dipole field.
          Electric field/nuclear overlap derivatives assumed to be zero.
          Requested convergence is 1.0D-08 RMS, and 1.0D-07 maximum.
          Secondary convergence is 1.0D-12 RMS, and 1.0D-12 maximum.
          NewPWx=F KeepS1=T KeepF1=T KeepIn=T MapXYZ=F SortEE=F KeepMc=T.
         4320 words used for storage of precomputed grid.
 Two-electron integral symmetry not used.
          MDV=   14763950080 using IRadAn=       1.
          Solving linear equations simultaneously, MaxMat=     384.
          There are     3 degrees of freedom in the 1st order CPHF.  IDoFFX=0 NUNeed=     3.
      3 vectors produced by pass  0 Test12= 2.14D-13 3.33D-08 XBig12= 1.17D+02 6.18D+00.
 AX will form     3 AO Fock derivatives at one time.
 FoFJK:  IHMeth= 1 ICntrl=       0 DoSepK=F KAlg= 0 I1Cent=           0 FoldK=F
 IRaf= 910000000 NMat=       3 IRICut=       1 DoRegI=T DoRafI=F ISym2E= 0 IDoP0=0 IntGTp=1.
 FoFCou: FMM=F IPFlag=           0 FMFlag=      100000 FMFlg1=           0
         NFxFlg=           0 DoJE=F BraDBF=F KetDBF=F FulRan=T
         wScrn=  0.000000 ICntrl=         0 IOpCl=  0 I1Cent=           0 NGrid=           0
         NMat0=    3 NMatS0=      3 NMatT0=    0 NMatD0=    3 NMtDS0=    0 NMtDT0=    0
 Symmetry not used in FoFCou.
      3 vectors produced by pass  1 Test12= 2.14D-13 3.33D-08 XBig12= 5.99D+01 1.70D+00.
      3 vectors produced by pass  2 Test12= 2.14D-13 3.33D-08 XBig12= 6.13D+00 5.16D-01.
      3 vectors produced by pass  3 Test12= 2.14D-13 3.33D-08 XBig12= 1.98D+00 3.93D-01.
      3 vectors produced by pass  4 Test12= 2.14D-13 3.33D-08 XBig12= 2.23D-01 8.22D-02.
      3 vectors produced by pass  5 Test12= 2.14D-13 3.33D-08 XBig12= 5.39D-02 6.41D-02.
      3 vectors produced by pass  6 Test12= 2.14D-13 3.33D-08 XBig12= 1.14D-02 1.42D-02.
      3 vectors produced by pass  7 Test12= 2.14D-13 3.33D-08 XBig12= 1.10D-03 4.71D-03.
      3 vectors produced by pass  8 Test12= 2.14D-13 3.33D-08 XBig12= 4.42D-05 1.36D-03.
      3 vectors produced by pass  9 Test12= 2.14D-13 3.33D-08 XBig12= 1.71D-06 2.48D-04.
      3 vectors produced by pass 10 Test12= 2.14D-13 3.33D-08 XBig12= 3.71D-08 3.09D-05.
      3 vectors produced by pass 11 Test12= 2.14D-13 3.33D-08 XBig12= 8.76D-10 5.16D-06.
      3 vectors produced by pass 12 Test12= 2.14D-13 3.33D-08 XBig12= 1.78D-11 1.03D-06.
      2 vectors produced by pass 13 Test12= 2.14D-13 3.33D-08 XBig12= 6.47D-13 2.67D-07.
      1 vectors produced by pass 14 Test12= 2.14D-13 3.33D-08 XBig12= 1.93D-14 3.70D-08.
 InvSVY:  IOpt=1 It=  1 EMax= 1.07D-14
 Solved reduced A of dimension    42 with     3 vectors.
 End of Minotr F.D. properties file   721 does not exist.
 End of Minotr F.D. properties file   722 does not exist.
 End of Minotr F.D. properties file   788 does not exist.
 Leave Link 1002 at Thu Jan 11 13:27:05 2024, MaxMem= 14763950080 cpu:             264.8 elap:              23.4
 (Enter /software/commercial/gaussian/g16/AVX2/g16/l1101.exe)
 Using compressed storage, NAtomX=    14.
 Will process     15 centers per pass.
 R6Disp: Adding Grimme-D3(BJ) dispersion energy 1st derivatives to the gradient.
 Leave Link 1101 at Thu Jan 11 13:27:06 2024, MaxMem= 14763950080 cpu:               1.4 elap:               0.2
 (Enter /software/commercial/gaussian/g16/AVX2/g16/l1102.exe)
 Symmetrizing basis deriv contribution to polar:
 IMax=3 JMax=2 DiffMx= 0.00D+00
 Leave Link 1102 at Thu Jan 11 13:27:06 2024, MaxMem= 14763950080 cpu:               0.1 elap:               0.1
 (Enter /software/commercial/gaussian/g16/AVX2/g16/l1110.exe)
 Forming Gx(P) for the SCF density, NAtomX=    14.
 Integral derivatives from FoFJK, PRISM(SPDF).
 Do as many integral derivatives as possible in FoFJK.
 G2DrvN: MDV=   14763948502.
 G2DrvN: will do    15 centers at a time, making    1 passes.
 PxScal for G2LodP:  IOpCl= 0 ISclPx=1 IMOff=     1 NMtTot=     4 NTT=   26106 ScalPx= 8.94D+01
 Calling FoFCou, ICntrl=  3107 FMM=F I1Cent=   0 AccDes= 0.00D+00.
 FoFJK:  IHMeth= 1 ICntrl=    3107 DoSepK=F KAlg= 0 I1Cent=           0 FoldK=F
 IRaf=         0 NMat=       1 IRICut=       1 DoRegI=T DoRafI=F ISym2E= 0 IDoP0=0 IntGTp=1.
 FoFCou: FMM=F IPFlag=           0 FMFlag=      100000 FMFlg1=           0
         NFxFlg=           0 DoJE=F BraDBF=F KetDBF=F FulRan=T
         wScrn=  0.000000 ICntrl=      3107 IOpCl=  0 I1Cent=           0 NGrid=           0
         NMat0=    1 NMatS0=      1 NMatT0=    0 NMatD0=    4 NMtDS0=    3 NMtDT0=    0
 Symmetry not used in FoFCou.
 PxScal for G2LodP:  IOpCl= 0 ISclPx=0 IMOff=     1 NMtTot=     4 NTT=   26106 ScalPx= 1.00D+00
 NEqPCM:  Using equilibrium solvation (IEInf=0, Eps=  24.8520, EpsInf=   1.8526)
 G2PCM: DoFxE=T DoFxN=T DoGrad=T DoDP/DQ/DG/TGxP=TFFF NFrqRd=   0 IEInf=0 SqF1=F DoCFld=F IF1Alg=4.
 GePol: Maximum number of non-zero 1st derivatives   =     225
 End of G2Drv F.D. properties file   721 does not exist.
 End of G2Drv F.D. properties file   722 does not exist.
 End of G2Drv F.D. properties file   788 does not exist.
 Leave Link 1110 at Thu Jan 11 13:27:31 2024, MaxMem= 14763950080 cpu:             291.5 elap:              24.8
 (Enter /software/commercial/gaussian/g16/AVX2/g16/l1002.exe)
 Minotr:  Closed shell wavefunction.
          IDoAtm=11111111111111
 NEqPCM:  Using equilibrium solvation (IEInf=0, Eps=  24.8520, EpsInf=   1.8526)
          Direct CPHF calculation.
          Differentiating once with respect to electric field.
                with respect to dipole field.
          Differentiating once with respect to nuclear coordinates.
          Requested convergence is 1.0D-08 RMS, and 1.0D-07 maximum.
          Secondary convergence is 1.0D-12 RMS, and 1.0D-12 maximum.
          NewPWx=T KeepS1=F KeepF1=F KeepIn=T MapXYZ=F SortEE=F KeepMc=T.
         4320 words used for storage of precomputed grid.
 Keep R1 ints in memory in canonical form, NReq=353559706.
 FoFCou: FMM=F IPFlag=           0 FMFlag=           0 FMFlg1=           0
         NFxFlg=           0 DoJE=F BraDBF=F KetDBF=F FulRan=T
         wScrn=  0.000000 ICntrl=       600 IOpCl=  0 I1Cent=           0 NGrid=           0
         NMat0=    1 NMatS0=  26106 NMatT0=    0 NMatD0=    1 NMtDS0=    0 NMtDT0=    0
 Symmetry not used in FoFCou.
 Two-electron integral symmetry not used.
          MDV=   14763950080 using IRadAn=       1.
          Solving linear equations simultaneously, MaxMat=       0.
          There are    45 degrees of freedom in the 1st order CPHF.  IDoFFX=5 NUNeed=    45.
 Will reuse    3 saved solutions.
     39 vectors produced by pass  0 Test12= 1.43D-14 2.22D-09 XBig12= 3.60D-01 2.81D-01.
 AX will form    39 AO Fock derivatives at one time.
     39 vectors produced by pass  1 Test12= 1.43D-14 2.22D-09 XBig12= 9.23D-02 8.71D-02.
     39 vectors produced by pass  2 Test12= 1.43D-14 2.22D-09 XBig12= 1.25D-03 5.28D-03.
     39 vectors produced by pass  3 Test12= 1.43D-14 2.22D-09 XBig12= 7.93D-06 5.35D-04.
     39 vectors produced by pass  4 Test12= 1.43D-14 2.22D-09 XBig12= 3.82D-08 4.00D-05.
     36 vectors produced by pass  5 Test12= 1.43D-14 2.22D-09 XBig12= 9.34D-11 2.25D-06.
     18 vectors produced by pass  6 Test12= 1.43D-14 2.22D-09 XBig12= 1.60D-13 7.67D-08.
      1 vectors produced by pass  7 Test12= 1.43D-14 2.22D-09 XBig12= 2.88D-16 2.56D-09.
 InvSVY:  IOpt=1 It=  1 EMax= 1.22D-15
 Solved reduced A of dimension   250 with    39 vectors.
 FullF1:  Do perturbations      1 to       3.
 Isotropic polarizability for W=    0.000000      120.52 Bohr**3.
 FullF1:  Do perturbations      1 to       6.
 End of Minotr F.D. properties file   721 does not exist.
 End of Minotr F.D. properties file   722 does not exist.
 End of Minotr F.D. properties file   788 does not exist.
 Leave Link 1002 at Thu Jan 11 13:28:06 2024, MaxMem= 14763950080 cpu:             288.5 elap:              34.5
 (Enter /software/commercial/gaussian/g16/AVX2/g16/l601.exe)
 Copying SCF densities to generalized density rwf, IOpCl= 0 IROHF=0.

 **********************************************************************

            Population analysis using the SCF Density.

 **********************************************************************

 Alpha  occ. eigenvalues --  -19.15516 -19.09627 -14.27591 -14.27566 -10.28736
 Alpha  occ. eigenvalues --  -10.21458 -10.18593 -10.16130 -10.16077  -1.09357
 Alpha  occ. eigenvalues --   -1.00334  -0.96298  -0.81518  -0.74563  -0.69328
 Alpha  occ. eigenvalues --   -0.59966  -0.55628  -0.53420  -0.48327  -0.47500
 Alpha  occ. eigenvalues --   -0.46513  -0.44190  -0.40808  -0.39828  -0.38782
 Alpha  occ. eigenvalues --   -0.37023  -0.35167  -0.29998  -0.27986  -0.27492
 Alpha  occ. eigenvalues --   -0.24604  -0.24451  -0.20454
 Alpha virt. eigenvalues --   -0.01700   0.01092   0.02306   0.03952   0.04138
 Alpha virt. eigenvalues --    0.04947   0.05245   0.06041   0.06488   0.06807
 Alpha virt. eigenvalues --    0.07896   0.08579   0.10391   0.10734   0.11780
 Alpha virt. eigenvalues --    0.12428   0.12674   0.13396   0.14177   0.15312
 Alpha virt. eigenvalues --    0.16045   0.17089   0.18317   0.18365   0.20073
 Alpha virt. eigenvalues --    0.20490   0.20762   0.21312   0.21881   0.22905
 Alpha virt. eigenvalues --    0.23065   0.23964   0.24766   0.25127   0.26232
 Alpha virt. eigenvalues --    0.27550   0.27689   0.29043   0.29786   0.29917
 Alpha virt. eigenvalues --    0.30505   0.32569   0.32867   0.33243   0.34979
 Alpha virt. eigenvalues --    0.37527   0.38428   0.43371   0.43846   0.43968
 Alpha virt. eigenvalues --    0.45581   0.46846   0.49347   0.51573   0.55609
 Alpha virt. eigenvalues --    0.56940   0.58109   0.58494   0.60131   0.61341
 Alpha virt. eigenvalues --    0.62823   0.63554   0.65138   0.65454   0.69196
 Alpha virt. eigenvalues --    0.70803   0.71165   0.76924   0.77967   0.79638
 Alpha virt. eigenvalues --    0.80157   0.85066   0.85928   0.89063   0.89101
 Alpha virt. eigenvalues --    0.89895   0.91404   0.91949   0.93848   0.94175
 Alpha virt. eigenvalues --    0.99620   1.00865   1.02418   1.04838   1.07653
 Alpha virt. eigenvalues --    1.09265   1.10671   1.15385   1.15960   1.19758
 Alpha virt. eigenvalues --    1.20050   1.22059   1.23950   1.24272   1.28671
 Alpha virt. eigenvalues --    1.33029   1.35199   1.37290   1.39321   1.44457
 Alpha virt. eigenvalues --    1.44833   1.51745   1.54569   1.55543   1.57272
 Alpha virt. eigenvalues --    1.62892   1.66212   1.69180   1.69445   1.70694
 Alpha virt. eigenvalues --    1.71778   1.72057   1.74166   1.77468   1.79274
 Alpha virt. eigenvalues --    1.83251   1.85165   1.85352   1.86084   1.93760
 Alpha virt. eigenvalues --    2.02102   2.05564   2.07591   2.09459   2.11848
 Alpha virt. eigenvalues --    2.16223   2.18255   2.26441   2.28670   2.38383
 Alpha virt. eigenvalues --    2.40980   2.43170   2.45319   2.48230   2.51980
 Alpha virt. eigenvalues --    2.53521   2.53858   2.60807   2.61739   2.64587
 Alpha virt. eigenvalues --    2.67611   2.67893   2.74924   2.76384   2.81254
 Alpha virt. eigenvalues --    2.81695   2.82482   2.85278   2.85972   2.88786
 Alpha virt. eigenvalues --    2.93841   2.94151   2.96982   3.03421   3.04449
 Alpha virt. eigenvalues --    3.05580   3.11664   3.19254   3.22357   3.22600
 Alpha virt. eigenvalues --    3.31574   3.36170   3.37029   3.59250   3.61267
 Alpha virt. eigenvalues --    3.62880   3.69152   3.70931   3.78366   3.84525
 Alpha virt. eigenvalues --    3.94620   3.95117   4.04876   4.11787   4.12446
 Alpha virt. eigenvalues --    4.13677   4.51990   4.60466   4.81679   4.98129
 Alpha virt. eigenvalues --    5.06507   5.23861   5.27830   5.37947   5.68634
 Alpha virt. eigenvalues --    5.86533  23.80819  23.87574  23.92168  23.94151
 Alpha virt. eigenvalues --   24.10280  35.54733  35.75666  49.90803  50.04127
          Condensed to atoms (all electrons):
               1          2          3          4          5          6
     1  C   16.175887   0.575598   0.790235  -0.308531   0.026193   0.087105
     2  N    0.575598   7.047189   0.351054  -0.063709  -0.075636  -0.002918
     3  C    0.790235   0.351054   5.926260   0.219263   0.429203  -0.102589
     4  C   -0.308531  -0.063709   0.219263   5.508956  -0.064724   0.391147
     5  H    0.026193  -0.075636   0.429203  -0.064724   0.551681   0.004459
     6  N    0.087105  -0.002918  -0.102589   0.391147   0.004459   7.034899
     7  H    0.029349   0.004978  -0.062588   0.439681   0.001350  -0.074376
     8  C  -10.160294  -0.472330  -1.362794  -0.037014   0.018213  -0.041485
     9  O    0.031124   0.008043  -0.004547   0.028111   0.000029   0.015492
    10  O   -0.885111   0.024050  -0.032298   0.005818   0.000162   0.027141
    11  C   -0.789845  -0.009429  -0.046225  -0.001104   0.000097   0.016870
    12  H    0.005088   0.000138   0.000139  -0.000081  -0.000000   0.000008
    13  H    0.021955  -0.000043   0.000306  -0.000066   0.000000  -0.000206
    14  H    0.024027   0.000185   0.000469  -0.000126   0.000000  -0.000273
               7          8          9         10         11         12
     1  C    0.029349 -10.160294   0.031124  -0.885111  -0.789845   0.005088
     2  N    0.004978  -0.472330   0.008043   0.024050  -0.009429   0.000138
     3  C   -0.062588  -1.362794  -0.004547  -0.032298  -0.046225   0.000139
     4  C    0.439681  -0.037014   0.028111   0.005818  -0.001104  -0.000081
     5  H    0.001350   0.018213   0.000029   0.000162   0.000097  -0.000000
     6  N   -0.074376  -0.041485   0.015492   0.027141   0.016870   0.000008
     7  H    0.550099   0.001830   0.000082   0.000110   0.000004   0.000000
     8  C    0.001830  16.857277   0.333930   0.746997   0.523133   0.018297
     9  O    0.000082   0.333930   8.265580  -0.194076  -0.083507   0.002024
    10  O    0.000110   0.746997  -0.194076   8.356079   0.246901  -0.066981
    11  C    0.000004   0.523133  -0.083507   0.246901   5.074340   0.408593
    12  H    0.000000   0.018297   0.002024  -0.066981   0.408593   0.529170
    13  H    0.000000  -0.026700  -0.002048  -0.026635   0.408780  -0.027537
    14  H    0.000000  -0.027965  -0.001964  -0.026120   0.407683  -0.027538
              13         14
     1  C    0.021955   0.024027
     2  N   -0.000043   0.000185
     3  C    0.000306   0.000469
     4  C   -0.000066  -0.000126
     5  H    0.000000   0.000000
     6  N   -0.000206  -0.000273
     7  H    0.000000   0.000000
     8  C   -0.026700  -0.027965
     9  O   -0.002048  -0.001964
    10  O   -0.026635  -0.026120
    11  C    0.408780   0.407683
    12  H   -0.027537  -0.027538
    13  H    0.533813  -0.038162
    14  H   -0.038162   0.533024
 Mulliken charges:
               1
     1  C    0.377220
     2  N   -0.387170
     3  C   -0.105890
     4  C   -0.117621
     5  H    0.108973
     6  N   -0.355274
     7  H    0.109481
     8  C   -0.371095
     9  O   -0.398273
    10  O   -0.176039
    11  C   -0.156291
    12  H    0.158680
    13  H    0.156541
    14  H    0.156758
 Sum of Mulliken charges =  -1.00000
 Mulliken charges with hydrogens summed into heavy atoms:
               1
     1  C    0.377220
     2  N   -0.387170
     3  C    0.003084
     4  C   -0.008140
     6  N   -0.355274
     8  C   -0.371095
     9  O   -0.398273
    10  O   -0.176039
    11  C    0.315688
 APT charges:
               1
     1  C   -0.374824
     2  N   -0.335922
     3  C   -0.114412
     4  C   -0.129610
     5  H    0.032212
     6  N   -0.337433
     7  H    0.033884
     8  C    2.083604
     9  O   -1.209449
    10  O   -1.178562
    11  C    0.620685
    12  H   -0.008357
    13  H   -0.041326
    14  H   -0.040490
 Sum of APT charges =  -1.00000
 APT charges with hydrogens summed into heavy atoms:
               1
     1  C   -0.374824
     2  N   -0.335922
     3  C   -0.082200
     4  C   -0.095726
     6  N   -0.337433
     8  C    2.083604
     9  O   -1.209449
    10  O   -1.178562
    11  C    0.530512
 Electronic spatial extent (au):  <R**2>=           5705.8493
 Charge=             -1.0000 electrons
 Dipole moment (field-independent basis, Debye):
    X=              9.5630    Y=            -19.6531    Z=              2.6802  Tot=             22.0200
 Quadrupole moment (field-independent basis, Debye-Ang):
   XX=            -74.6098   YY=           -150.7929   ZZ=            -52.0164
   XY=             40.0702   XZ=             -3.9413   YZ=             15.8448
 Traceless Quadrupole moment (field-independent basis, Debye-Ang):
   XX=             17.8632   YY=            -58.3199   ZZ=             40.4567
   XY=             40.0702   XZ=             -3.9413   YZ=             15.8448
 Octapole moment (field-independent basis, Debye-Ang**2):
  XXX=            342.6820  YYY=          -1169.1384  ZZZ=             -7.1498  XYY=            293.4252
  XXY=           -293.3300  XXZ=             -1.4693  XZZ=             98.7325  YZZ=           -198.6148
  YYZ=             63.1301  XYZ=            -25.6202
 Hexadecapole moment (field-independent basis, Debye-Ang**3):
 XXXX=          -1320.9674 YYYY=          -8617.5406 ZZZZ=           -963.5740 XXXY=           1278.4329
 XXXZ=            -93.8394 YYYX=           2155.0422 YYYZ=            -13.7523 ZZZX=            -73.3468
 ZZZY=           -179.2030 XXYY=          -1494.6226 XXZZ=           -389.1608 YYZZ=          -1032.2531
 XXYZ=            -47.7402 YYXZ=           -143.1921 ZZXY=            370.4323
 N-N= 4.200983883789D+02 E-N=-1.914527426864D+03  KE= 4.520080441011D+02
  Exact polarizability:      77.866       6.003     136.554      17.343      21.181     147.139
 Approx polarizability:      85.603       5.633     160.010      17.642      18.743     156.498
 No NMR shielding tensors so no spin-rotation constants.
 Leave Link  601 at Thu Jan 11 13:28:07 2024, MaxMem= 14763950080 cpu:               1.1 elap:               0.2
 (Enter /software/commercial/gaussian/g16/AVX2/g16/l701.exe)
 ... and contract with generalized density number  0.
 Compute integral second derivatives.
 R6Disp: Adding Grimme-D3(BJ) dispersion energy 2nd derivatives to the Hessian.
 D2PCM: PCM CHGder 2nd derivatives, FixD1E=F FixD2E=F DoIter=F DoCFld=F I1PDM=0
 GePol: Maximum number of non-zero 2nd derivatives   =     225
 Leave Link  701 at Thu Jan 11 13:28:10 2024, MaxMem= 14763950080 cpu:              33.6 elap:               3.2
 (Enter /software/commercial/gaussian/g16/AVX2/g16/l702.exe)
 L702 exits ... SP integral derivatives will be done elsewhere.
 Leave Link  702 at Thu Jan 11 13:28:10 2024, MaxMem= 14763950080 cpu:               0.1 elap:               0.1
 (Enter /software/commercial/gaussian/g16/AVX2/g16/l703.exe)
 Integral derivatives from FoFJK, PRISM(SPDF).
 Compute integral second derivatives, UseDBF=F ICtDFT=           0.
 Calling FoFJK, ICntrl=    100127 FMM=F ISym2X=0 I1Cent= 0 IOpClX= 0 NMat=1 NMatS=1 NMatT=0.
 FoFJK:  IHMeth= 1 ICntrl=  100127 DoSepK=F KAlg= 0 I1Cent=           0 FoldK=F
 IRaf=         0 NMat=       1 IRICut=       1 DoRegI=T DoRafI=F ISym2E= 0 IDoP0=0 IntGTp=1.
 FoFCou: FMM=F IPFlag=           0 FMFlag=      100000 FMFlg1=         800
         NFxFlg=           0 DoJE=F BraDBF=F KetDBF=F FulRan=T
         wScrn=  0.000000 ICntrl=    100127 IOpCl=  0 I1Cent=           0 NGrid=           0
         NMat0=    1 NMatS0=      1 NMatT0=    0 NMatD0=    1 NMtDS0=    0 NMtDT0=    0
 Symmetry not used in FoFCou.
 Leave Link  703 at Thu Jan 11 13:28:42 2024, MaxMem= 14763950080 cpu:             377.0 elap:              31.6
 (Enter /software/commercial/gaussian/g16/AVX2/g16/l716.exe)
 Dipole        = 3.76239276D+00-7.73210959D+00 1.05448371D+00
 Polarizability= 7.78659512D+01 6.00293541D+00 1.36553734D+02
                 1.73434123D+01 2.11812930D+01 1.47139220D+02
 HyperPolar    =-1.35820733D+02-8.77176175D+01 1.23833667D+02
                -5.24120912D+00-1.47209779D+02 2.19025613D+02
                 5.02099889D+02 1.82244182D+02 7.50391258D+02
                 3.40489024D+02
 Full mass-weighted force constant matrix:
 Low frequencies ---  -16.4803    0.0007    0.0009    0.0010   13.5320   18.8830
 Low frequencies ---   76.3419  109.2899  152.3121
 Diagonal vibrational polarizability:
       38.9969795      24.0778920      36.3969200
 Diagonal vibrational hyperpolarizability:
     -166.1982874    -192.4919699    -275.6334786
 Harmonic frequencies (cm**-1), IR intensities (KM/Mole), Raman scattering
 activities (A**4/AMU), depolarization ratios for plane and unpolarized
 incident light, reduced masses (AMU), force constants (mDyne/A),
 and normal coordinates:
                      1                      2                      3
                      A                      A                      A
 Frequencies --     76.0620               109.2412               152.2597
 Red. masses --      5.3422                 2.6168                 1.2533
 Frc consts  --      0.0182                 0.0184                 0.0171
 IR Inten    --      2.5071                 8.8449                 0.6349
 Raman Activ --      2.3959                 1.4193                 2.5315
 Depolar (P) --      0.7496                 0.7494                 0.7479
 Depolar (U) --      0.8569                 0.8568                 0.8558
  Atom  AN      X      Y      Z        X      Y      Z        X      Y      Z
     1   6     0.03  -0.00  -0.01    -0.10   0.00   0.02    -0.04   0.00   0.01
     2   7     0.26  -0.01  -0.06    -0.03  -0.00   0.01    -0.00   0.00   0.00
     3   6     0.12  -0.00  -0.03     0.10  -0.00  -0.02     0.03  -0.00  -0.01
     4   6    -0.20   0.01   0.04     0.10  -0.00  -0.02     0.02  -0.00  -0.00
     5   1     0.26  -0.00  -0.07     0.19  -0.00  -0.05     0.07  -0.00  -0.02
     6   7    -0.24   0.01   0.06    -0.03   0.00   0.01    -0.03   0.00   0.01
     7   1    -0.40   0.02   0.09     0.19  -0.00  -0.04     0.03  -0.00  -0.01
     8   6     0.07  -0.01  -0.02    -0.11   0.00   0.03    -0.02   0.00   0.00
     9   8     0.28  -0.01  -0.07    -0.00  -0.00   0.00     0.08   0.00  -0.02
    10   8    -0.17   0.00   0.05    -0.18  -0.00   0.04    -0.08   0.00   0.02
    11   6    -0.14   0.01   0.03     0.22   0.00  -0.05     0.02  -0.00  -0.00
    12   1    -0.48   0.02   0.12    -0.00   0.00   0.00     0.59  -0.01  -0.14
    13   1     0.06  -0.25   0.14     0.46  -0.38  -0.19    -0.30   0.37  -0.26
    14   1    -0.01   0.27  -0.17     0.50   0.38  -0.05    -0.15  -0.38   0.38
                      4                      5                      6
                      A                      A                      A
 Frequencies --    177.6834               229.8966               333.6331
 Red. masses --      4.4943                 5.6392                 4.6595
 Frc consts  --      0.0836                 0.1756                 0.3056
 IR Inten    --     11.8822                 0.5573                19.1087
 Raman Activ --      0.4775                 5.4547                 1.0257
 Depolar (P) --      0.5408                 0.7484                 0.3261
 Depolar (U) --      0.7020                 0.8561                 0.4918
  Atom  AN      X      Y      Z        X      Y      Z        X      Y      Z
     1   6     0.02  -0.14   0.06     0.35  -0.00  -0.09    -0.01   0.09  -0.07
     2   7    -0.03  -0.15  -0.12     0.19   0.00  -0.04     0.01   0.10   0.02
     3   6    -0.05   0.03  -0.18    -0.18   0.00   0.05     0.02  -0.00   0.07
     4   6    -0.01   0.14  -0.03    -0.17  -0.00   0.04    -0.01  -0.07  -0.02
     5   1    -0.10   0.07  -0.32    -0.42   0.01   0.11     0.03  -0.02   0.15
     6   7     0.04   0.03   0.12     0.19  -0.01  -0.05    -0.02   0.01  -0.11
     7   1    -0.00   0.29  -0.02    -0.40  -0.01   0.09    -0.01  -0.16  -0.02
     8   6     0.01  -0.14   0.06     0.01   0.00  -0.00     0.01  -0.06   0.03
     9   8    -0.02  -0.14  -0.04    -0.15   0.01   0.04     0.08  -0.05   0.32
    10   8     0.03   0.02   0.15    -0.25   0.00   0.06    -0.01  -0.17  -0.02
    11   6     0.00   0.29  -0.02     0.09  -0.01  -0.02    -0.06   0.16  -0.24
    12   1     0.07   0.49   0.14     0.28  -0.02  -0.07     0.01   0.42  -0.03
    13   1    -0.05   0.32  -0.18     0.08  -0.06  -0.28    -0.13   0.20  -0.45
    14   1    -0.04   0.29  -0.15     0.20   0.04   0.23    -0.10   0.17  -0.44
                      7                      8                      9
                      A                      A                      A
 Frequencies --    410.9132               509.5407               665.4482
 Red. masses --      6.8924                 9.9713                 3.4150
 Frc consts  --      0.6857                 1.5253                 0.8910
 IR Inten    --      7.9830                 5.3977                 0.2914
 Raman Activ --      8.2954                 3.0177                 0.0362
 Depolar (P) --      0.1675                 0.4664                 0.7202
 Depolar (U) --      0.2870                 0.6361                 0.8373
  Atom  AN      X      Y      Z        X      Y      Z        X      Y      Z
     1   6    -0.03   0.03  -0.14     0.03  -0.19   0.12     0.01  -0.00  -0.00
     2   7    -0.04   0.01  -0.17    -0.02  -0.33  -0.07     0.17  -0.01  -0.04
     3   6    -0.03  -0.11  -0.14    -0.04  -0.12  -0.18    -0.24   0.01   0.05
     4   6    -0.05  -0.18  -0.21    -0.00   0.02   0.01     0.25  -0.01  -0.06
     5   1    -0.01  -0.14  -0.04    -0.09  -0.07  -0.37    -0.61   0.01   0.14
     6   7    -0.06  -0.11  -0.26     0.05  -0.15   0.21    -0.20   0.00   0.05
     7   1    -0.05  -0.24  -0.21    -0.00   0.25   0.02     0.62  -0.01  -0.14
     8   6     0.02   0.05   0.08    -0.01   0.25  -0.04     0.03   0.00  -0.01
     9   8     0.05   0.06   0.20     0.09   0.31   0.34    -0.00   0.00   0.00
    10   8     0.05   0.14   0.19    -0.05   0.17  -0.22    -0.01   0.00   0.00
    11   6     0.08   0.09   0.32    -0.04  -0.03  -0.17    -0.00  -0.00   0.00
    12   1     0.05  -0.03   0.23    -0.06  -0.15  -0.27    -0.00  -0.00  -0.00
    13   1     0.10   0.07   0.40    -0.03  -0.03  -0.08    -0.00  -0.00  -0.00
    14   1     0.09   0.08   0.39    -0.02  -0.04  -0.08    -0.00   0.00   0.00
                     10                     11                     12
                      A                      A                      A
 Frequencies --    693.2678               792.2892               805.3165
 Red. masses --     12.2140                 1.5284                 5.6090
 Frc consts  --      3.4587                 0.5653                 2.1432
 IR Inten    --     26.7645                97.9417                16.1308
 Raman Activ --      0.0866                20.7330                37.0687
 Depolar (P) --      0.7040                 0.7498                 0.1209
 Depolar (U) --      0.8263                 0.8570                 0.2157
  Atom  AN      X      Y      Z        X      Y      Z        X      Y      Z
     1   6     0.45  -0.01  -0.10    -0.06   0.00   0.01    -0.01  -0.06  -0.09
     2   7    -0.43   0.01   0.10     0.03  -0.00  -0.01     0.01   0.00   0.07
     3   6     0.20  -0.01  -0.05    -0.09   0.00   0.02     0.01   0.04   0.07
     4   6     0.13  -0.00  -0.03    -0.09   0.00   0.02     0.01   0.04   0.05
     5   1     0.15  -0.00  -0.04     0.67  -0.02  -0.15     0.05   0.06   0.01
     6   7    -0.37   0.01   0.09     0.04  -0.00  -0.01    -0.00   0.09  -0.01
     7   1    -0.02   0.01   0.01     0.67  -0.01  -0.15     0.06  -0.05   0.04
     8   6     0.52  -0.00  -0.12     0.14   0.00  -0.03    -0.05  -0.21  -0.12
     9   8    -0.15   0.00   0.04    -0.04   0.00   0.01     0.04  -0.27   0.16
    10   8    -0.12   0.00   0.03    -0.03  -0.00   0.01    -0.03   0.32  -0.16
    11   6    -0.01  -0.00   0.00    -0.00  -0.00   0.00     0.00   0.05   0.00
    12   1     0.06  -0.00  -0.02     0.01   0.00  -0.00    -0.10  -0.45  -0.40
    13   1     0.01  -0.06  -0.11    -0.00  -0.01  -0.02     0.11  -0.01   0.36
    14   1     0.06   0.06   0.10     0.01   0.01   0.02     0.06  -0.01   0.37
                     13                     14                     15
                      A                      A                      A
 Frequencies --    810.1771               852.6434               946.6439
 Red. masses --      3.7436                 1.4171                 6.3753
 Frc consts  --      1.4478                 0.6070                 3.3661
 IR Inten    --      4.8342                 0.0177               111.4350
 Raman Activ --     16.7536                 6.3675                79.8026
 Depolar (P) --      0.7467                 0.7499                 0.3621
 Depolar (U) --      0.8550                 0.8571                 0.5317
  Atom  AN      X      Y      Z        X      Y      Z        X      Y      Z
     1   6    -0.30   0.00   0.07     0.00   0.00  -0.00     0.02   0.13   0.09
     2   7     0.08  -0.00  -0.01    -0.01  -0.00   0.00    -0.06   0.29  -0.28
     3   6     0.05   0.00  -0.01     0.13  -0.00  -0.03    -0.03  -0.22  -0.10
     4   6     0.04   0.00  -0.01    -0.13   0.00   0.03     0.02  -0.11   0.09
     5   1    -0.60   0.02   0.14    -0.68   0.02   0.15     0.08  -0.36   0.41
     6   7     0.08   0.00  -0.02     0.01  -0.00  -0.00     0.04  -0.07   0.17
     7   1    -0.59   0.01   0.14     0.68  -0.02  -0.15     0.03   0.32   0.12
     8   6     0.33  -0.01  -0.08    -0.00  -0.00   0.00     0.05  -0.04   0.23
     9   8    -0.09  -0.01   0.03     0.00   0.00  -0.00    -0.01  -0.08  -0.03
    10   8    -0.07   0.01   0.01    -0.00  -0.00   0.00     0.01   0.16   0.03
    11   6    -0.01   0.00   0.00    -0.00   0.00   0.00    -0.04  -0.09  -0.18
    12   1     0.03  -0.02  -0.02    -0.00   0.00   0.00    -0.06  -0.18  -0.25
    13   1     0.01  -0.03  -0.04    -0.00   0.00   0.00    -0.02  -0.09  -0.08
    14   1     0.03   0.03   0.06    -0.00  -0.00  -0.00    -0.02  -0.09  -0.08
                     16                     17                     18
                      A                      A                      A
 Frequencies --    952.3132              1009.3398              1084.3632
 Red. masses --      7.2751                 4.3016                 1.9178
 Frc consts  --      3.8873                 2.5820                 1.3286
 IR Inten    --     14.2233                32.7764               173.9723
 Raman Activ --     28.1187                 0.6936               153.6205
 Depolar (P) --      0.4076                 0.5352                 0.2185
 Depolar (U) --      0.5791                 0.6972                 0.3587
  Atom  AN      X      Y      Z        X      Y      Z        X      Y      Z
     1   6    -0.03   0.05  -0.14    -0.01   0.01  -0.03    -0.01  -0.02  -0.03
     2   7    -0.04  -0.11  -0.16    -0.01   0.14  -0.07     0.00  -0.06   0.02
     3   6    -0.01  -0.34  -0.01     0.00  -0.04   0.01     0.02  -0.12   0.08
     4   6     0.09  -0.02   0.40    -0.00   0.03  -0.01    -0.02   0.12  -0.08
     5   1    -0.07  -0.27  -0.31     0.10  -0.16   0.45     0.13  -0.27   0.60
     6   7    -0.00   0.37  -0.06     0.03  -0.14   0.15    -0.01   0.05  -0.05
     7   1     0.08  -0.30   0.40     0.02   0.61   0.02     0.00   0.68  -0.07
     8   6    -0.02   0.02  -0.10    -0.04  -0.01  -0.18    -0.02   0.00  -0.07
     9   8     0.00   0.05   0.01     0.01  -0.01   0.03     0.00   0.02   0.01
    10   8    -0.01  -0.09  -0.03    -0.05  -0.16  -0.19     0.02   0.03   0.10
    11   6     0.02   0.05   0.10     0.06   0.17   0.24    -0.01  -0.05  -0.06
    12   1     0.03   0.09   0.13     0.03   0.06   0.14     0.01   0.04   0.03
    13   1     0.01   0.05   0.04     0.07   0.12   0.18    -0.02  -0.02  -0.02
    14   1     0.01   0.05   0.04     0.02   0.12   0.19     0.01  -0.02  -0.03
                     19                     20                     21
                      A                      A                      A
 Frequencies --   1156.3642              1166.4942              1183.1474
 Red. masses --      6.2588                 1.2803                 1.6236
 Frc consts  --      4.9309                 1.0264                 1.3391
 IR Inten    --    686.2167                 2.0699                42.6746
 Raman Activ --     51.6901                 4.5195                 8.4744
 Depolar (P) --      0.5802                 0.7474                 0.6861
 Depolar (U) --      0.7344                 0.8554                 0.8138
  Atom  AN      X      Y      Z        X      Y      Z        X      Y      Z
     1   6     0.03   0.02   0.11     0.00  -0.00   0.00    -0.01   0.09  -0.04
     2   7     0.02  -0.11   0.11    -0.00  -0.00   0.00     0.03   0.02   0.13
     3   6    -0.01  -0.12  -0.03     0.00  -0.00  -0.00    -0.01  -0.09  -0.05
     4   6    -0.05  -0.02  -0.22    -0.00  -0.00  -0.00     0.01   0.01   0.04
     5   1     0.10  -0.28   0.50     0.00  -0.00   0.01    -0.14   0.07  -0.65
     6   7    -0.01   0.23  -0.05     0.00   0.00   0.00    -0.02  -0.06  -0.06
     7   1    -0.06  -0.08  -0.25    -0.00  -0.01  -0.00     0.03   0.68   0.07
     8   6     0.09  -0.03   0.40     0.01  -0.00   0.00     0.01  -0.00   0.06
     9   8    -0.01   0.01  -0.06    -0.00   0.00   0.00    -0.00  -0.01  -0.01
    10   8    -0.06  -0.06  -0.26    -0.06  -0.00   0.01    -0.00  -0.01  -0.01
    11   6     0.01   0.14   0.09     0.13   0.00  -0.03    -0.00   0.03  -0.02
    12   1    -0.04  -0.26  -0.26    -0.29  -0.00   0.06    -0.03  -0.11  -0.13
    13   1     0.09  -0.04  -0.03    -0.05   0.41   0.52     0.04  -0.01   0.08
    14   1    -0.05   0.02   0.08    -0.28  -0.41  -0.44    -0.01  -0.02   0.08
                     22                     23                     24
                      A                      A                      A
 Frequencies --   1196.4763              1238.8650              1328.1682
 Red. masses --      1.6284                 7.0480                10.8866
 Frc consts  --      1.3735                 6.3733                11.3149
 IR Inten    --    114.5220                51.8749                24.7107
 Raman Activ --    133.9858               160.7978                22.1514
 Depolar (P) --      0.5139                 0.6575                 0.7497
 Depolar (U) --      0.6790                 0.7933                 0.8570
  Atom  AN      X      Y      Z        X      Y      Z        X      Y      Z
     1   6    -0.01  -0.02  -0.04    -0.04  -0.11  -0.16    -0.06   0.56  -0.33
     2   7     0.02   0.04   0.07     0.06   0.17   0.25    -0.04  -0.37  -0.12
     3   6    -0.01  -0.03  -0.05    -0.06  -0.12  -0.24     0.06   0.09   0.24
     4   6    -0.01  -0.03  -0.02    -0.05  -0.20  -0.20    -0.04  -0.20  -0.17
     5   1    -0.02  -0.02  -0.09    -0.02  -0.18  -0.04    -0.04   0.20  -0.18
     6   7     0.01   0.03   0.03     0.07   0.22   0.29     0.08   0.01   0.34
     7   1    -0.00   0.10  -0.02    -0.05  -0.28  -0.22    -0.03   0.23  -0.15
     8   6     0.00  -0.00   0.01    -0.04   0.07  -0.16     0.01   0.00   0.03
     9   8     0.00  -0.03   0.01     0.00   0.01   0.01    -0.00  -0.07  -0.02
    10   8    -0.01   0.09  -0.06     0.04  -0.06   0.15     0.01   0.03   0.02
    11   6     0.02  -0.11   0.10    -0.02   0.03  -0.10    -0.00  -0.02  -0.00
    12   1     0.13   0.41   0.52    -0.06  -0.16  -0.25     0.01   0.02   0.03
    13   1    -0.21   0.07  -0.43     0.13  -0.06   0.32    -0.02   0.01  -0.03
    14   1    -0.00   0.07  -0.48     0.02  -0.05   0.35     0.01   0.01  -0.04
                     25                     26                     27
                      A                      A                      A
 Frequencies --   1391.8165              1440.2988              1447.7704
 Red. masses --      3.8956                 2.9006                 2.6295
 Frc consts  --      4.4462                 3.5452                 3.2473
 IR Inten    --    326.5790                70.9233                17.0327
 Raman Activ --    445.5257                91.7247                12.6676
 Depolar (P) --      0.3223                 0.3444                 0.4341
 Depolar (U) --      0.4875                 0.5124                 0.6054
  Atom  AN      X      Y      Z        X      Y      Z        X      Y      Z
     1   6     0.07   0.22   0.30    -0.01  -0.15  -0.04    -0.03   0.07  -0.16
     2   7     0.00   0.00   0.02    -0.02   0.10  -0.09     0.02  -0.00   0.08
     3   6    -0.00  -0.19   0.01     0.06  -0.11   0.27    -0.02  -0.09  -0.08
     4   6    -0.03   0.12  -0.14    -0.03   0.06  -0.13     0.01   0.25   0.03
     5   1    -0.09  -0.12  -0.40    -0.16   0.14  -0.74     0.04  -0.18   0.20
     6   7    -0.00  -0.01  -0.01     0.01   0.03   0.06     0.01  -0.13   0.04
     7   1    -0.06  -0.54  -0.20    -0.04  -0.06  -0.17    -0.02  -0.66  -0.01
     8   6    -0.04   0.03  -0.17     0.01  -0.04   0.03     0.01  -0.02   0.04
     9   8     0.00  -0.09   0.02     0.00   0.06  -0.00    -0.00   0.02  -0.01
    10   8    -0.00   0.00  -0.01     0.00   0.00   0.01     0.01   0.01   0.03
    11   6    -0.00  -0.03  -0.02     0.01   0.02   0.04     0.01   0.02   0.05
    12   1     0.05   0.25   0.22    -0.04  -0.25  -0.19    -0.05  -0.31  -0.24
    13   1    -0.04   0.10   0.21    -0.00  -0.05  -0.23    -0.02  -0.05  -0.30
    14   1     0.13   0.10   0.17    -0.10  -0.05  -0.21    -0.12  -0.05  -0.28
                     28                     29                     30
                      A                      A                      A
 Frequencies --   1472.7873              1473.5303              1489.9847
 Red. masses --      1.3290                 1.1499                 1.0797
 Frc consts  --      1.6985                 1.4711                 1.4122
 IR Inten    --     78.3706                38.8601                 7.1452
 Raman Activ --     17.6152                20.0813                12.0862
 Depolar (P) --      0.4159                 0.6367                 0.7424
 Depolar (U) --      0.5875                 0.7780                 0.8521
  Atom  AN      X      Y      Z        X      Y      Z        X      Y      Z
     1   6    -0.02  -0.04  -0.08    -0.01  -0.02  -0.05    -0.01  -0.02  -0.03
     2   7     0.00   0.01  -0.00    -0.00   0.01  -0.00     0.00   0.01  -0.00
     3   6     0.01  -0.02   0.03     0.00  -0.01   0.02     0.00  -0.00   0.01
     4   6     0.00   0.06  -0.00     0.00   0.04   0.00     0.00   0.01   0.00
     5   1    -0.01  -0.01  -0.04    -0.01  -0.00  -0.02    -0.00   0.00  -0.01
     6   7     0.00  -0.03   0.02     0.00  -0.02   0.01     0.00  -0.01   0.00
     7   1    -0.00  -0.12  -0.01    -0.00  -0.07  -0.01    -0.00  -0.02  -0.00
     8   6     0.02   0.00   0.07     0.01   0.00   0.04     0.01  -0.00   0.03
     9   8    -0.00   0.01  -0.01    -0.00   0.00  -0.00    -0.00   0.01  -0.01
    10   8    -0.00   0.00  -0.04    -0.01   0.00  -0.02    -0.00  -0.02  -0.01
    11   6     0.02  -0.02  -0.08    -0.06  -0.01  -0.03    -0.00  -0.06  -0.01
    12   1    -0.35   0.45   0.43     0.67   0.26   0.04    -0.05  -0.14  -0.09
    13   1     0.01   0.02   0.09     0.20  -0.17   0.59    -0.38   0.55   0.19
    14   1     0.08  -0.18   0.63     0.02   0.12  -0.18     0.43   0.54   0.03
                     31                     32                     33
                      A                      A                      A
 Frequencies --   1683.4013              3043.7103              3112.7893
 Red. masses --     11.5599                 1.0301                 1.1068
 Frc consts  --     19.3011                 5.6228                 6.3187
 IR Inten    --    965.0119                63.9047                39.5482
 Raman Activ --    530.5483               352.6433               124.6831
 Depolar (P) --      0.3217                 0.0135                 0.7496
 Depolar (U) --      0.4868                 0.0267                 0.8569
  Atom  AN      X      Y      Z        X      Y      Z        X      Y      Z
     1   6    -0.02  -0.14  -0.09    -0.00   0.00  -0.00    -0.00  -0.00   0.00
     2   7    -0.01  -0.01  -0.05    -0.00   0.00   0.00    -0.00   0.00  -0.00
     3   6     0.02  -0.01   0.09    -0.00  -0.00  -0.00     0.00  -0.00  -0.00
     4   6     0.01   0.06   0.02    -0.00  -0.00  -0.00    -0.00   0.00  -0.00
     5   1    -0.01   0.03  -0.04     0.00   0.00   0.00     0.00   0.00  -0.00
     6   7    -0.01  -0.01  -0.03     0.00  -0.00   0.00    -0.00   0.00   0.00
     7   1     0.00   0.01   0.01     0.00  -0.00   0.00     0.00   0.00  -0.00
     8   6     0.03   0.78   0.08     0.00  -0.00   0.00     0.00   0.00  -0.00
     9   8    -0.00  -0.47   0.00    -0.00   0.00  -0.00     0.00  -0.00  -0.00
    10   8    -0.00  -0.05  -0.00    -0.00  -0.00  -0.00     0.00  -0.00  -0.00
    11   6     0.00   0.03   0.02    -0.01  -0.04  -0.03    -0.09   0.00   0.02
    12   1    -0.04  -0.21  -0.19     0.07  -0.28   0.31    -0.02  -0.00   0.01
    13   1     0.00   0.02  -0.13     0.52   0.36  -0.11     0.56   0.41  -0.12
    14   1    -0.06   0.02  -0.12    -0.51   0.37   0.13     0.55  -0.41  -0.14
                     34                     35                     36
                      A                      A                      A
 Frequencies --   3148.6291              3182.8753              3203.2295
 Red. masses --      1.1050                 1.0884                 1.1021
 Frc consts  --      6.4544                 6.4962                 6.6626
 IR Inten    --     26.9768                15.5879                61.9761
 Raman Activ --    137.8060               207.0590               347.9206
 Depolar (P) --      0.6807                 0.7489                 0.1778
 Depolar (U) --      0.8100                 0.8565                 0.3019
  Atom  AN      X      Y      Z        X      Y      Z        X      Y      Z
     1   6    -0.00  -0.00  -0.00    -0.00   0.00  -0.00     0.00   0.00   0.00
     2   7     0.00   0.00  -0.00     0.00  -0.00   0.00     0.00   0.00   0.00
     3   6    -0.00  -0.00  -0.00    -0.00  -0.06  -0.02    -0.00  -0.06  -0.01
     4   6    -0.00  -0.00  -0.00     0.01  -0.00   0.06    -0.01   0.01  -0.06
     5   1     0.00   0.00   0.00     0.06   0.69   0.18     0.05   0.67   0.16
     6   7    -0.00   0.00   0.00     0.00  -0.00   0.00     0.00   0.00   0.00
     7   1     0.00  -0.00   0.00    -0.15   0.03  -0.67     0.16  -0.04   0.70
     8   6     0.00   0.00   0.00    -0.00   0.00  -0.00     0.00   0.00   0.00
     9   8    -0.00  -0.00  -0.00     0.00  -0.00   0.00    -0.00  -0.00  -0.00
    10   8     0.00  -0.00   0.00    -0.00  -0.00   0.00    -0.00  -0.00  -0.00
    11   6    -0.01   0.08  -0.05     0.00  -0.00   0.00     0.00   0.00   0.00
    12   1     0.16  -0.59   0.67    -0.00   0.00  -0.00    -0.00   0.00  -0.00
    13   1    -0.25  -0.15   0.04    -0.00  -0.00  -0.00    -0.00  -0.00  -0.00
    14   1     0.23  -0.15  -0.07     0.00  -0.00  -0.00     0.00  -0.00  -0.00

 -------------------
 - Thermochemistry -
 -------------------
 Temperature   298.150 Kelvin.  Pressure   1.00000 Atm.
 Thermochemistry will use frequencies scaled by 0.9670.
 Atom     1 has atomic number  6 and mass  12.00000
 Atom     2 has atomic number  7 and mass  14.00307
 Atom     3 has atomic number  6 and mass  12.00000
 Atom     4 has atomic number  6 and mass  12.00000
 Atom     5 has atomic number  1 and mass   1.00783
 Atom     6 has atomic number  7 and mass  14.00307
 Atom     7 has atomic number  1 and mass   1.00783
 Atom     8 has atomic number  6 and mass  12.00000
 Atom     9 has atomic number  8 and mass  15.99491
 Atom    10 has atomic number  8 and mass  15.99491
 Atom    11 has atomic number  6 and mass  12.00000
 Atom    12 has atomic number  1 and mass   1.00783
 Atom    13 has atomic number  1 and mass   1.00783
 Atom    14 has atomic number  1 and mass   1.00783
 Molecular mass:   125.03510 amu.
 Principal axes and moments of inertia in atomic units:
                           1         2         3
     Eigenvalues --   380.191311645.285752014.00161
           X            0.21055  -0.08968   0.97346
           Y            0.44864   0.89359  -0.01471
           Z            0.86856  -0.43983  -0.22838
 This molecule is an asymmetric top.
 Rotational symmetry number  1.
 Rotational temperatures (Kelvin)      0.22782     0.05264     0.04301
 Rotational constants (GHZ):           4.74693     1.09692     0.89610
 Zero-point vibrational energy     254328.0 (Joules/Mol)
                                   60.78584 (Kcal/Mol)
 Warning -- explicit consideration of   8 degrees of freedom as
           vibrations may cause significant error
 Vibrational temperatures:    105.82   151.99   211.84   247.21   319.85
          (Kelvin)            464.18   571.70   708.92   925.84   964.54
                             1102.31  1120.43  1127.20  1186.28  1317.06
                             1324.95  1404.29  1508.67  1608.85  1622.94
                             1646.11  1664.65  1723.63  1847.88  1936.43
                             2003.88  2014.28  2049.08  2050.12  2073.01
                             2342.11  4234.71  4330.82  4380.68  4428.33
                             4456.64
 
 Zero-point correction=                           0.096868 (Hartree/Particle)
 Thermal correction to Energy=                    0.104852
 Thermal correction to Enthalpy=                  0.105796
 Thermal correction to Gibbs Free Energy=         0.063578
 Sum of electronic and zero-point Energies=           -453.690182
 Sum of electronic and thermal Energies=              -453.682199
 Sum of electronic and thermal Enthalpies=            -453.681255
 Sum of electronic and thermal Free Energies=         -453.723472
 
                     E (Thermal)             CV                S
                      KCal/Mol        Cal/Mol-Kelvin    Cal/Mol-Kelvin
 Total                   65.795             28.069             88.854
 Electronic               0.000              0.000              0.000
 Translational            0.889              2.981             40.384
 Rotational               0.889              2.981             28.623
 Vibrational             64.018             22.107             19.847
 Vibration     1          0.599              1.966              4.056
 Vibration     2          0.605              1.945              3.348
 Vibration     3          0.617              1.906              2.708
 Vibration     4          0.626              1.877              2.415
 Vibration     5          0.648              1.807              1.940
 Vibration     6          0.708              1.630              1.297
 Vibration     7          0.764              1.476              0.972
 Vibration     8          0.848              1.266              0.677
                       Q            Log10(Q)             Ln(Q)
 Total Bot       0.570150D-29        -29.244011        -67.336823
 Total V=0       0.205269D+16         15.312323         35.257928
 Vib (Bot)       0.258220D-42        -42.588010        -98.062516
 Vib (Bot)    1  0.280266D+01          0.447570          1.030568
 Vib (Bot)    2  0.194060D+01          0.287936          0.662998
 Vib (Bot)    3  0.137827D+01          0.139333          0.320826
 Vib (Bot)    4  0.117219D+01          0.068998          0.158874
 Vib (Bot)    5  0.888899D+00         -0.051148         -0.117772
 Vib (Bot)    6  0.581752D+00         -0.235262         -0.541711
 Vib (Bot)    7  0.449426D+00         -0.347342         -0.799785
 Vib (Bot)    8  0.335706D+00         -0.474041         -1.091520
 Vib (V=0)       0.929660D+02          1.968324          4.532234
 Vib (V=0)    1  0.334691D+01          0.524644          1.208037
 Vib (V=0)    2  0.250398D+01          0.398631          0.917881
 Vib (V=0)    3  0.196616D+01          0.293618          0.676081
 Vib (V=0)    4  0.177437D+01          0.249045          0.573448
 Vib (V=0)    5  0.151987D+01          0.181807          0.418627
 Vib (V=0)    6  0.126710D+01          0.102809          0.236727
 Vib (V=0)    7  0.117230D+01          0.069038          0.158965
 Vib (V=0)    8  0.110224D+01          0.042278          0.097348
 Electronic      0.100000D+01          0.000000          0.000000
 Translational   0.549543D+08          7.740002         17.822013
 Rotational      0.401788D+06          5.603997         12.903681
 
                                                         IMIDCOOCH3-isolated
                                                             IR Spectrum
 
     33 33  3                                                     1    11111 1  1  11111  1 1                                        
     21 11  0                                                     6    44444 3  3  21111  0 0 99  8887   66     5   4  3   2 11 1    
     08 41  4                                                     8    97744 9  2  39865  8 0 54  5109   96     1   1  3   3 75 07   
     33 93  4                                                     3    04380 2  8  96366  4 9 27  3052   35     0   1  4   0 82 96   
 
     XX XX  X                                                     X    XXXXX X  X  XXXXX  X X XX   XXX   XX     X   X  X   X XX XX   
                                                                  X      X   X      X  X  X    X     X                               
                                                                  X          X         X  X                                          
                                                                  X          X         X  X                                          
                                                                  X          X         X                                             
                                                                  X          X         X                                             
                                                                  X          X         X                                             
                                                                  X                    X                                             
                                                                  X                    X                                             
                                                                  X                    X                                             
                                                                  X                    X                                             
                                                                  X                    X                                             
                                                                  X                    X                                             
                                                                  X                    X                                             
                                                                  X                                                                  
                                                                  X                                                                  
                                                                  X                                                                  
                                                                  X                                                                  
                                                                  X                                                                  
                                                                  X                                                                  
 
 
                                                         IMIDCOOCH3-isolated
                                                            Raman Spectrum
 
     33 33  3                                                     1    11111 1  1  11111  1 1                                        
     21 11  0                                                     6    44444 3  3  21111  0 0 99  8887   66     5   4  3   2 11 1    
     08 41  4                                                     8    97744 9  2  39865  8 0 54  5109   96     1   1  3   3 75 07   
     33 93  4                                                     3    04380 2  8  96366  4 9 27  3052   35     0   1  4   0 82 96   
 
     XX XX  X                                                     X    XXXXX X  X  XXXXX  X X XX  XXXX   X      X   X  X   X XX XX   
     XX XX  X                                                     X        X X     XX  X  X    X                                     
     XX XX  X                                                     X        X X     XX     X    X                                     
     XX XX  X                                                     X          X     XX     X                                          
     XX XX  X                                                     X          X     XX     X                                          
     XX     X                                                     X          X     X      X                                          
     XX     X                                                     X          X                                                       
     XX     X                                                     X          X                                                       
     X      X                                                     X          X                                                       
     X      X                                                     X          X                                                       
     X      X                                                     X          X                                                       
     X      X                                                     X          X                                                       
     X      X                                                     X          X                                                       
                                                                  X          X                                                       
                                                                  X          X                                                       
                                                                  X          X                                                       
                                                                  X          X                                                       
                                                                  X                                                                  
                                                                  X                                                                  
                                                                  X                                                                  
 
 -------------------------------------------------------------------
 Center     Atomic                   Forces (Hartrees/Bohr)
 Number     Number              X              Y              Z
 -------------------------------------------------------------------
      1        6          -0.000002311    0.000001268   -0.000002931
      2        7          -0.000008951    0.000000648   -0.000003560
      3        6          -0.000011433    0.000001267    0.000001178
      4        6          -0.000007518   -0.000000549    0.000001450
      5        1          -0.000007255   -0.000001465    0.000000297
      6        7          -0.000000587    0.000002200    0.000005407
      7        1          -0.000003062    0.000000516    0.000003363
      8        6           0.000003324   -0.000011269   -0.000001871
      9        8           0.000007241    0.000022537   -0.000004716
     10        8           0.000006506   -0.000016190    0.000004790
     11        6           0.000019464   -0.000012512   -0.000009965
     12        1           0.000004763   -0.000006973    0.000003256
     13        1           0.000013407    0.000004918   -0.000001538
     14        1          -0.000013588    0.000015605    0.000004838
 -------------------------------------------------------------------
 Cartesian Forces:  Max     0.000022537 RMS     0.000008220
 Leave Link  716 at Thu Jan 11 13:28:42 2024, MaxMem= 14763950080 cpu:               0.1 elap:               0.1
 (Enter /software/commercial/gaussian/g16/AVX2/g16/l103.exe)

 GradGradGradGradGradGradGradGradGradGradGradGradGradGradGradGradGradGrad
 Berny optimization.
 Search for a local minimum.
 Step number   1 out of a maximum of    2
 All quantities printed in internal units (Hartrees-Bohrs-Radians)
 Second derivative matrix not updated -- analytic derivatives used.
 ITU=  0
     Eigenvalues ---    0.00070   0.00165   0.00371   0.00584   0.01384
     Eigenvalues ---    0.02233   0.04208   0.04432   0.05358   0.07035
     Eigenvalues ---    0.07685   0.09186   0.10571   0.12079   0.13122
     Eigenvalues ---    0.15372   0.18459   0.21610   0.23872   0.24444
     Eigenvalues ---    0.29962   0.30868   0.36763   0.42273   0.52510
     Eigenvalues ---    0.62256   0.70604   0.72931   0.77516   0.79233
     Eigenvalues ---    0.84657   0.87930   0.95258   1.06052   1.18944
     Eigenvalues ---    1.42469
 Angle between quadratic step and forces=  84.29 degrees.
 Linear search not attempted -- first point.
 B after Tr=     0.000062    0.000041   -0.000031
         Rot=    1.000000   -0.000002   -0.000002   -0.000006 Ang=  -0.00 deg.
 Variable       Old X    -DE/DX   Delta X   Delta X   Delta X     New X
                                 (Linear)    (Quad)   (Total)
    X1       -3.59528  -0.00000   0.00000  -0.00004  -0.00007  -3.59535
    Y1        7.15873   0.00000   0.00000  -0.00001  -0.00001   7.15872
    Z1       -0.33009  -0.00000   0.00000   0.00001   0.00002  -0.33007
    X2       -3.61617  -0.00001   0.00000  -0.00036  -0.00036  -3.61653
    Y2        4.59324   0.00000   0.00000  -0.00000  -0.00001   4.59323
    Z2       -0.16408  -0.00000   0.00000   0.00007   0.00006  -0.16401
    X3       -4.17506  -0.00001   0.00000  -0.00019  -0.00019  -4.17525
[...]
     1          0.71652660          8.05103543         -8.64734767
     1         -2.33512920          7.61433119         -9.98973453

 Electric dipole moment (dipole orientation):
 (Debye = 10**-18 statcoulomb cm , SI units = C m)
                  (au)            (Debye)         (10**-30 SI)
   Tot        0.866332D+01      0.220200D+02      0.734507D+02
   x          0.000000D+00      0.000000D+00      0.000000D+00
   y          0.000000D+00      0.000000D+00      0.000000D+00
   z          0.866332D+01      0.220200D+02      0.734507D+02

 Dipole polarizability, Alpha (dipole orientation).
 (esu units = cm**3 , SI units = C**2 m**2 J**-1)
 Alpha(0;0):
               (au)            (10**-24 esu)      (10**-40 SI)
   iso        0.120520D+03      0.178592D+02      0.198710D+02
   aniso      0.808330D+02      0.119782D+02      0.133276D+02
   xx         0.825015D+02      0.122255D+02      0.136027D+02
   yx        -0.466862D+01     -0.691818D+00     -0.769752D+00
   yy         0.160838D+03      0.238337D+02      0.265186D+02
   zx        -0.177317D+02     -0.262756D+01     -0.292355D+01
   zy        -0.174262D+02     -0.258230D+01     -0.287320D+01
   zz         0.118220D+03      0.175183D+02      0.194918D+02

 First dipole hyperpolarizability, Beta (dipole orientation).
 ||, _|_  parallel and perpendicular components, (z) with respect to z axis,
 vector components x,y,z.  Values do not include the 1/n! factor of 1/2.
 (esu units = statvolt**-1 cm**4 , SI units = C**3 m**3 J**-2)
 Beta(0;0,0):
               (au)            (10**-30 esu)      (10**-50 SI)
   || (z)    -0.256911D+03     -0.221951D+01     -0.823749D+00
   _|_(z)    -0.856369D+02     -0.739836D+00     -0.274583D+00
   x          0.200426D+03      0.173153D+01      0.642639D+00
   y          0.261009D+04      0.225491D+02      0.836889D+01
   z         -0.128455D+04     -0.110975D+02     -0.411874D+01
   ||         0.583192D+03      0.503832D+01      0.186992D+01
   xxx       -0.926113D+01     -0.800090D-01     -0.296945D-01
   xxy       -0.250793D+03     -0.216666D+01     -0.804133D+00
   yxy        0.102882D+03      0.888822D+00      0.329877D+00
   yyy        0.109167D+04      0.943114D+01      0.350027D+01
   xxz        0.914965D+02      0.790459D+00      0.293371D+00
   yxz       -0.703383D+01     -0.607668D-01     -0.225530D-01
   yyz       -0.733373D+03     -0.633577D+01     -0.235146D+01
   zxz       -0.268123D+02     -0.231637D+00     -0.859698D-01
   zyz        0.291576D+02      0.251899D+00      0.934897D-01
   zzz        0.213691D+03      0.184613D+01      0.685172D+00

 ----------------------------------------------------------------------
 Unable to Open any file for archive entry.
 1\1\GINC-NODE2011\Freq\RB3LYP\6-311+G(d,p)\C5H5N2O2(1-)\SVICCHI\11-Jan
 -2024\0\\#p freq=raman scale=0.967 guess=read geom=allcheck b3lyp/6-31
 1+G(d,p) int=grid=ultrafine EmpiricalDispersion=GD3BJ SCRF=(Solvent=et
 hanol) scf=(xqc,intrep,maxconventionalcycle=350) nosymm\\IMIDCOOCH3-is
 olated\\-1,1\C,-1.9025415513,3.7882383062,-0.1746734644\N,-1.913596047
 1,2.4306363857,-0.0868260958\C,-2.2093487275,2.033347709,-1.3473741422
 \C,-2.3673489263,3.1642072666,-2.1604865184\H,-2.2942418163,0.98751498
 36,-1.6131235695\N,-2.1732535923,4.2773811077,-1.414563284\H,-2.604947
 4218,3.2156092361,-3.2151745671\C,-1.6272193549,4.678698008,0.94808637
 94\O,-1.6303283906,5.9017252352,0.906828607\O,-1.3529435278,4.01033443
 61,2.099202006\C,-1.0772110305,4.8239597337,3.2497441934\H,-0.88919127
 31,4.1246567685,4.0616415679\H,-0.1997007949,5.4500634134,3.0808280331
 \H,-1.9313975454,5.4590674102,3.4894308545\\Version=ES64L-G16RevC.02\H
 F=-453.7870504\RMSD=5.116e-09\RMSF=8.220e-06\ZeroPoint=0.0968684\Therm
 al=0.1048515\ETot=-453.6821989\HTot=-453.6812547\GTot=-453.723472\Dipo
 le=0.4046222,-0.2772791,1.706698\DipoleDeriv=-0.0859311,-0.2287396,-0.
 192321,-0.2107462,-0.2424322,-0.9173067,-0.1955585,-0.9913811,-0.79610
 92,-0.3731694,0.1332577,0.0140279,0.1603495,-0.2524401,0.69358,0.01602
 38,0.5928462,-0.3821578,-0.2385537,-0.1378157,-0.0215758,0.0341691,0.2
 263688,0.1040037,-0.0369974,-0.6370431,-0.3310505,-0.2187787,-0.001601
 4,0.0383727,-0.1604175,-0.1657467,-0.7089134,0.0512427,-0.0132936,-0.0
 043041,0.2027687,-0.0198054,-0.0339566,-0.0332117,-0.173827,-0.1057778
 ,-0.0337603,-0.0528322,0.0676943,-0.3619866,0.1228651,0.1178574,0.0893
 598,-0.7204626,0.4222081,0.1176977,0.5605176,0.0701508,0.1911961,-0.00
 95167,-0.0890135,0.0031409,0.0875148,0.0265046,-0.0888431,-0.0255795,-
 0.1770602,0.5418728,0.1800115,0.6416708,0.1080592,2.6849931,0.3979427,
 0.6405783,0.6966136,3.0239465,-0.5157406,-0.0551769,-0.113746,-0.11782
 74,-2.1869505,-0.4508037,-0.1072542,-0.1885781,-0.9256556,-0.4772016,-
 0.0426854,-0.4780948,0.075502,-0.7287357,0.3220189,-0.4758481,-0.18398
 58,-2.3297472,0.4093781,0.0603468,0.1429915,0.0802342,0.4923671,0.3335
 26,0.1413771,0.2424841,0.9603092,0.0946542,0.0101537,-0.0477075,0.0280
 355,-0.0199143,0.1220514,-0.048698,0.046343,-0.0998122,-0.085395,-0.11
 60211,-0.028622,-0.1182864,0.0003275,-0.0980796,0.0491104,0.0015498,-0
 .038911,-0.0831133,0.1047273,0.0501169,0.0616391,-0.0010621,-0.1409542
 ,-0.0290705,-0.0476609,-0.0372932\Polar=77.8659512,6.0029354,136.55373
 39,17.3434123,21.181293,147.1392205\PolarDeriv=2.850219,5.6769825,5.16
 21443,7.417024,4.1625978,2.9820097,0.0749078,3.4281274,12.3547612,5.47
 96062,14.3652596,22.3260869,-0.8916863,4.6139197,22.5383184,5.1220224,
 22.6633909,25.0252898,1.8300448,-4.2145813,1.1380664,1.7928546,-2.9606
 107,-4.0333532,-1.151719,-3.1223161,-8.8760164,-5.4362807,-13.391027,-
 22.2645837,3.0716287,-2.5680067,4.8391178,-4.0331875,-15.1613527,-9.04
 2238,-2.4847362,-9.1467166,0.8895197,-3.0138765,7.5421971,7.3649943,-8
 .5660883,-1.658731,-10.5720211,-1.1059594,-8.1809261,-12.9201118,2.161
 4865,7.6501167,3.1639664,6.8868219,22.5737355,23.4146033,-6.5770013,-1
 .3134284,-0.5805598,-10.2108387,1.3389566,3.4974627,3.8243653,6.579774
 8,14.8939725,4.5019939,27.3995608,18.7272682,-6.6061226,0.5305098,-4.2
 781996,2.1933185,0.4091158,-9.6122081,0.5107704,1.4646336,-1.2896111,0
 .976155,-1.3617688,-1.1434291,-0.3854333,-1.540866,-16.6481426,-0.6217
 566,-4.848431,-2.2783616,-0.5637078,-1.2876198,-3.6955341,-0.8077798,-
 3.4740534,-2.2021835,-0.5909753,2.5705428,-3.4983208,-3.1819967,-5.506
 334,-2.1624587,3.9354333,-2.7712425,2.7377268,-0.7956014,-11.4978987,1
 .4431813,0.8928697,-5.6707597,-14.8864083,-3.596016,-19.240075,-14.431
 5113,0.6130209,0.6599016,-0.1889606,0.8908755,-0.4057185,-4.8606593,-0
 .2428419,-0.5793903,-0.2382105,-0.0487964,-2.496123,-0.0013586,-1.3647
 959,-0.3471456,-0.7923704,-4.3783491,-0.724031,-17.458119,1.6901253,-1
 .1332626,-3.5050769,-0.7612618,-5.9299556,-6.0940646,1.5383237,-6.7864
 948,-25.790249,-8.2410125,-27.4979133,-29.7897731,4.5143469,-5.8699252
 ,-14.0698492,-7.3515415,-23.8308356,-22.3198267,-0.2759018,4.9584709,-
 0.4268816,0.2003043,0.1076026,0.7129223,1.6289073,7.0431538,37.9469295
 ,8.5989676,28.6267933,34.5264332,-1.0722115,-0.1644728,-2.141966,0.758
 1118,4.5265115,1.964895,0.2480872,-0.8964791,2.0113496,1.4472598,3.240
 3651,3.47734,-0.2799831,-1.270764,-8.5049709,-2.8979844,-5.1797182,-11
 .550101,-0.3544553,3.2603745,8.2589465,3.8251924,11.7205074,14.4185081
 ,-1.4823119,-6.591257,-0.7576278,-2.5370905,1.4817406,0.9049418,-6.981
 3532,-1.4894998,-2.3929789,2.4129643,-6.5452606,2.6963727,-0.1662041,1
 .513814,-3.3273039,0.4287163,-0.3290503,-1.2451393,1.1255492,-0.316279
 9,0.4524517,2.1655654,-0.7276597,1.3160354,-0.773686,0.7438446,-4.0045
 023,-1.3458038,3.2224785,-6.1881168,0.9711804,-0.7469142,1.9838782,1.6
 078849,-3.3254926,9.4049323,8.1127544,4.7818709,3.5100764,2.2316485,1.
 2101659,2.4647513,4.2523549,3.6703272,4.5220656,0.8515058,2.3082699,2.
 0537946,-0.7429772,0.2911256,0.5092636,1.9694497,1.5286363,-0.813831,-
 5.5696448,3.4996027,-2.9165694,2.5833773,-2.1915782,-4.4264927,3.12681
 25,-2.2459234,4.571636,-1.3518426,3.7149357,3.2192698,0.1506485,-1.205
 0164,1.8981407,-2.624644,2.662993,2.8968282\HyperPolar=-135.8207327,-8
 7.7176175,123.8336666,-5.2412091,-147.2097791,219.0256126,502.0998887,
 182.244182,750.391258,340.4890236\Quadrupole=13.2808665,-43.3594106,30
 .0785441,29.7912283,-2.9302771,11.780251\PG=C01 [X(C5H5N2O2)]\NImag=0\
 \0.18072267,0.02545951,0.64629384,0.11718134,0.06590734,0.65995308,-0.
 07726787,-0.00002140,0.00121577,0.12396587,0.00793997,-0.26631854,0.05
 451317,0.00706042,0.47531180,0.00064556,0.01981630,-0.07621282,0.08877
 130,-0.00643172,0.49180094,0.00743432,-0.02250823,-0.01510188,-0.08100
 516,-0.01404022,-0.04905573,0.14989309,-0.00822381,-0.06836655,-0.0278
 3980,-0.01205546,-0.11568962,-0.04806323,0.03111018,0.82381995,-0.0165
 4076,-0.09147135,-0.05228915,-0.04943150,-0.05691307,-0.28029452,0.093
 84947,0.06510029,0.53362714,0.00488072,-0.00385072,-0.02623468,0.01581
 252,-0.00195788,-0.02007327,-0.07101683,0.02126190,-0.02059221,0.16322
 299,-0.01840105,-0.02104135,-0.07787880,0.01433568,0.01368891,0.064402
 02,0.01396175,-0.22991949,0.07852066,0.00498095,0.53999967,-0.02465020
 ,-0.01388066,-0.09674683,-0.02168214,-0.00802697,-0.07446727,-0.019871
 37,0.11058638,-0.16491355,0.15318894,-0.02110916,0.80603150,0.00655829
 ,-0.00044393,-0.00307939,-0.00681854,-0.00704382,0.00029888,-0.0296344
 6,-0.01952734,-0.01083750,-0.00085263,0.00287178,0.00260741,0.02501363
 ,-0.00031992,-0.00051068,-0.00061179,-0.00039217,-0.00271421,-0.002204
 92,-0.02048686,-0.32344321,-0.05937511,-0.00271720,-0.00740088,-0.0113
 5133,0.02379877,0.33858793,-0.00313823,-0.00141038,-0.00633409,-0.0003
 8101,-0.03121633,-0.00517682,-0.01075312,-0.05520783,-0.06856025,0.003
 18536,0.01322090,0.01116934,0.01247838,0.07192743,0.06925400,-0.084004
 62,0.02201348,-0.03078092,0.02528970,0.01189448,-0.01660807,0.02038752
 ,-0.01140390,0.00121925,-0.07527580,-0.02599336,-0.02193392,0.00601169
 ,-0.00001125,-0.00146847,0.12268467,0.01456434,-0.11491478,0.06703801,
 -0.00026318,-0.07118688,0.00860399,0.00518335,-0.08718516,0.03363001,-
 0.02410184,-0.24529888,-0.08756934,0.00090032,-0.00399313,0.00501352,0
 .01097937,0.51242787,-0.03030447,0.09988887,-0.22083645,-0.01507749,0.
 06293251,-0.04474599,-0.00057547,-0.03911764,0.02188239,-0.02220661,-0
 .09652151,-0.15787961,-0.00157319,0.00101168,-0.00063038,0.08133406,0.
 00527245,0.46261268,0.00674056,-0.00081159,-0.00204888,0.00596751,0.00
 008634,-0.00168820,-0.00162927,-0.00113544,-0.00036480,-0.04151818,0.0
 0394963,-0.06595151,-0.00130713,0.00017370,0.00019143,-0.00717227,0.00
 026521,-0.00188676,0.03788372,-0.00096195,-0.00578963,-0.00299785,0.00
 099322,-0.00298579,0.00533471,0.00441451,0.00953580,0.01837289,0.00490
 569,-0.05953405,0.02507720,-0.00013470,-0.00037828,-0.00069871,-0.0062
 8768,0.00478892,-0.02893956,-0.00262628,0.05333513,-0.00195620,-0.0022
 2833,-0.00122893,-0.00176228,0.00131843,-0.00160533,-0.00092535,-0.006
 17746,-0.00499157,-0.06602861,0.02089610,-0.32067442,0.00022257,0.0006
 6109,-0.00043523,-0.00128347,0.00005734,-0.01237493,0.07211077,-0.0148
 4409,0.34183376,-0.07175736,-0.01565325,-0.02254644,-0.01286745,-0.005
 89054,-0.00055064,0.00784877,0.00011456,0.00564453,0.00570422,0.007175
 35,-0.00092239,0.00225599,0.00021564,-0.00017866,-0.01243093,-0.005427
 74,-0.01005863,0.00193632,-0.00011971,-0.00024094,0.23154906,-0.012752
 10,-0.12414181,-0.05013131,-0.00851790,-0.03695610,-0.03627792,0.00517
 962,-0.01060558,0.02443391,0.00278165,0.02260569,0.01078809,-0.0002077
 5,0.00055678,-0.00066725,-0.00379048,0.00046756,-0.01748867,0.00031623
 ,0.00114678,0.00125074,0.01546269,0.86832913,-0.02281100,-0.06227256,-
 0.16080994,0.00004770,-0.02309920,-0.01067159,0.00511420,0.00211429,0.
 02864192,-0.00049400,0.02998949,0.00073055,-0.00018392,0.00111075,0.00
 160184,-0.01032348,-0.02479759,-0.05229332,-0.00025166,-0.00046338,0.0
 0079828,0.07550415,0.04676024,0.52844424,0.01732908,-0.00761283,-0.002
 33046,0.00573767,-0.00006173,-0.00206480,-0.00162980,-0.00067754,-0.00
 054424,-0.00003416,-0.00084001,0.00023176,-0.00107625,-0.00010123,0.00
 009713,0.00061897,-0.00075780,0.00020684,-0.00010452,-0.00000950,-0.00
 006684,-0.08044802,-0.00257980,-0.00565460,0.03797797,-0.00637826,-0.0
 6008681,-0.02397084,0.00045905,0.01154560,0.00150183,-0.00376952,0.000
 88334,-0.01639702,-0.00101627,-0.01736550,-0.00272216,-0.00020901,-0.0
 0068935,-0.00096505,0.00407743,0.00725921,0.01860878,-0.00018736,-0.00
 001897,-0.00071015,-0.00214957,-0.60230486,0.00343013,-0.00351395,0.73
 179784,-0.00218882,-0.02877459,0.00950905,-0.00218461,-0.00055325,-0.0
 0342157,-0.00036273,-0.00331980,-0.00259915,0.00023898,-0.00252069,0.0
 0128160,0.00009704,-0.00053589,-0.00063380,-0.00017526,-0.00238122,-0.
 00064658,-0.00006053,-0.00004074,-0.00035610,-0.00574843,0.00184286,-0
 .10323473,0.01783418,-0.03349859,0.10826243,0.00585341,0.00195120,-0.0
 1570409,0.00184308,0.00212146,-0.00002443,-0.00117495,0.00064466,-0.00
 258488,-0.00069104,-0.00240907,-0.00104833,-0.00013079,-0.00017258,-0.
 00005044,0.00260392,-0.00098633,0.00080471,-0.00044388,-0.00015079,-0.
 00015321,-0.06989511,0.00936457,-0.02739610,0.02519218,0.01483636,-0.0
 0933055,0.09418785,-0.00175061,0.01694156,-0.00755786,-0.00138019,-0.0
 0407008,-0.00582818,0.00079432,0.00070936,0.00336649,-0.00030582,0.003
 74272,-0.00187756,-0.00001036,-0.00005097,-0.00002045,-0.00159232,-0.0
 0301188,-0.00612326,-0.00004984,-0.00020452,-0.00027686,0.00395496,-0.
 13248607,0.01769548,0.01477938,-0.07100494,0.06303632,0.00281451,0.337
 56962,-0.01568457,0.00850923,-0.05582412,0.00005867,0.00773953,0.00395
 873,-0.00242242,0.00228777,-0.01150278,-0.00103203,-0.01021945,-0.0043
 8478,-0.00004862,-0.00068153,-0.00030361,0.00068019,-0.00371092,0.0059
 5274,-0.00014773,-0.00067640,-0.00097331,-0.02747720,0.04138875,-0.178
 30449,-0.00952588,0.06297144,-0.01311553,0.09154282,0.00877087,0.45289
 096,0.00416676,0.00140732,-0.00009714,-0.00057341,-0.00032059,0.000287
 36,0.00059882,-0.00017850,0.00053325,-0.00013586,0.00071767,0.00019985
 ,-0.00004684,0.00003797,0.00004119,0.00120076,-0.00032614,-0.00083725,
 -0.00035431,-0.00000799,0.00011778,-0.00426682,-0.00135521,-0.01558095
 ,-0.00466727,-0.00329375,0.00225103,-0.06673590,-0.00972543,-0.0178602
 1,0.57374097,0.00119957,-0.00269003,0.00504851,-0.00018294,-0.00099435
 ,-0.00077860,0.00031262,0.00010089,0.00139771,0.00012421,0.00114113,0.
 00052766,0.00001671,0.00009541,0.00006624,0.00009039,0.00088657,0.0003
 3385,0.00004010,0.00014611,0.00014085,0.00039894,0.02392657,0.00135950
 ,0.00118205,-0.00634550,0.00549163,-0.01516785,-0.13128709,-0.06269024
 ,-0.02102007,0.54805465,-0.00005388,0.00565067,0.00337899,0.00038515,-
 0.00118484,0.00062769,0.00043542,-0.00066801,0.00248453,0.00022972,0.0
 0269938,0.00060750,0.00004234,0.00014956,0.00011415,-0.00082677,-0.001
 04504,-0.00182451,0.00013332,-0.00006321,0.00014120,-0.01550976,-0.005
 39415,-0.06540296,0.00223272,-0.01364219,0.00455585,-0.01800556,-0.040
 04630,-0.13682279,-0.01989314,-0.08845971,0.49521704,0.00018018,0.0002
 7441,-0.00030600,-0.00001310,0.00004924,0.00004127,-0.00003707,-0.0000
 0018,-0.00010269,-0.00004454,-0.00008320,-0.00005537,0.00000335,-0.000
 00863,-0.00000720,0.00003384,-0.00008385,-0.00002519,-0.00001222,-0.00
 001179,-0.00001056,0.00034946,-0.00155637,0.00008126,0.00054401,0.0002
 7148,0.00005272,-0.00172612,0.00321875,-0.00850212,-0.05893693,0.02993
 278,-0.03133230,0.05552681,-0.00012144,0.00099657,-0.00051842,0.000028
 11,0.00003381,0.00010757,-0.00000124,-0.00002434,-0.00000579,-0.000017
 98,0.00003822,-0.00009187,-0.00000039,-0.00000083,-0.00000226,-0.00005
 543,-0.00020418,-0.00020196,-0.00000266,-0.00002788,-0.00001295,-0.000
 64407,-0.00542246,-0.00263986,0.00055329,0.00206516,0.00224488,-0.0060
 3701,0.01322644,-0.02572736,0.03276265,-0.17173129,0.14127267,-0.03186
 874,0.18008504,-0.00030219,0.00112739,-0.00103896,0.00003792,0.0002239
 4,0.00015955,-0.00010124,0.00000282,-0.00045894,-0.00005493,-0.0003684
 0,-0.00026521,-0.00000775,-0.00003623,-0.00002549,-0.00003460,-0.00033
 189,-0.00004509,-0.00001043,-0.00004942,-0.00005397,0.00013669,-0.0065
 2864,0.00081137,0.00003409,0.00111540,0.00067311,-0.00836645,0.0133764
 5,-0.03515867,-0.03139063,0.12933041,-0.18770695,0.03975226,-0.1379043
 7,0.21775702,-0.00026121,0.00003747,-0.00035619,-0.00006733,0.00015252
 ,0.00000671,-0.00000576,0.00008566,-0.00019259,-0.00004192,-0.00019736
 ,-0.00011841,0.00000693,-0.00001214,-0.00000967,0.00007546,0.00001292,
 0.00011739,-0.00001200,-0.00000480,-0.00001526,0.00112518,-0.00393473,
 0.00307203,0.00038602,0.00202399,0.00092406,-0.00153450,-0.00471784,-0
 .00895451,-0.22203344,-0.11741820,0.04043895,0.00662442,0.00449557,-0.
 00019872,0.23493807,-0.00010255,-0.00017987,-0.00049477,-0.00011993,0.
 00016644,-0.00007338,0.00000529,0.00008979,-0.00034529,-0.00007373,-0.
 00032395,-0.00016824,0.00000343,-0.00002966,-0.00002214,0.00018529,-0.
 00002414,0.00013412,-0.00003927,-0.00000623,-0.00003087,0.00153181,-0.
 00255339,0.00534593,-0.00000003,0.00205564,-0.00054352,-0.01687764,-0.
 01495641,-0.01079847,-0.11673105,-0.12941894,0.02812309,-0.01629807,-0
 .00945138,0.00385688,0.13355709,0.14289088,0.00080002,-0.00046549,-0.0
 0092077,-0.00011028,0.00033468,0.00005497,-0.00001263,0.00013616,-0.00
 052656,-0.00006831,-0.00054203,-0.00022944,-0.00002525,-0.00003106,-0.
 00001588,0.00027805,0.00010007,0.00035994,-0.00008233,-0.00000414,-0.0
 0002349,-0.00051953,-0.00428764,0.00471500,-0.00046012,0.00171080,-0.0
 0047709,-0.02888038,-0.02229258,-0.00616889,0.04662542,0.03225380,-0.0
 5880507,0.01915940,0.01120627,-0.00197080,-0.04059242,-0.02268861,0.06
 368044,-0.00057495,-0.00024144,0.00018896,-0.00000349,0.00001036,0.000
 01406,-0.00002920,-0.00001478,-0.00005531,-0.00000948,-0.00006877,0.00
 000569,0.00001676,-0.00000410,-0.00000669,-0.00002291,0.00004137,0.000
 08207,0.00002568,0.00000178,-0.00000839,0.00089669,0.00158958,-0.00112
 363,0.00017411,-0.00115063,-0.00134705,0.01265185,-0.00602951,-0.00062
 640,-0.22195655,0.12049170,0.04172378,-0.00249210,0.00090932,0.0005059
 7,-0.01919992,0.01495937,0.00388836,0.23052352,-0.00015170,-0.00019191
 ,-0.00050559,0.00005669,0.00016902,-0.00010847,-0.00015556,0.00009482,
 -0.00031432,-0.00001296,-0.00033224,-0.00018205,-0.00001372,-0.0000289
 1,-0.00001770,-0.00010601,-0.00001110,0.00021035,0.00002123,-0.0000074
 0,-0.00004382,0.00103094,-0.00256224,0.00546680,-0.00036031,0.00220913
 ,-0.00044743,0.01006852,-0.01511773,-0.01716322,0.11803312,-0.13188413
 ,-0.02739192,0.01616416,-0.00958287,-0.00381432,-0.01408015,0.01174121
 ,0.00456977,-0.13049425,0.14550434,-0.00099660,-0.00039642,-0.00059908
 ,0.00011281,0.00036314,-0.00000596,-0.00021714,0.00016607,-0.00049950,
 -0.00005833,-0.00056849,-0.00025937,0.00000900,-0.00003265,-0.00002379
 ,-0.00007659,0.00012061,0.00046909,0.00005732,-0.00000731,-0.00005595,
 0.00246725,-0.00568902,0.00497381,0.00001023,0.00256761,0.00020250,0.0
 1919688,-0.02222256,-0.02024346,0.03560343,-0.02402162,-0.05656467,-0.
 01874547,0.01227345,0.00732302,0.00587863,-0.00229474,0.00032764,-0.04
 324141,0.03974192,0.06495571\\0.00000231,-0.00000127,0.00000293,0.0000
 0895,-0.00000065,0.00000356,0.00001143,-0.00000127,-0.00000118,0.00000
 752,0.00000055,-0.00000145,0.00000725,0.00000147,-0.00000030,0.0000005
 9,-0.00000220,-0.00000541,0.00000306,-0.00000052,-0.00000336,-0.000003
 32,0.00001127,0.00000187,-0.00000724,-0.00002254,0.00000472,-0.0000065
 1,0.00001619,-0.00000479,-0.00001946,0.00001251,0.00000997,-0.00000476
 ,0.00000697,-0.00000326,-0.00001341,-0.00000492,0.00000154,0.00001359,
 -0.00001561,-0.00000484\\\@
 The archive entry for this job was punched.


 THE ONLY DIFFERENCE BETWEEN ECCENTRICS AND JOGGERS
 IS THAT JOGGERS WEAR SWEATBANDS WHEN THEY RUN IN THE RAIN.
 Job cpu time:       0 days  0 hours 21 minutes 21.4 seconds.
 Elapsed time:       0 days  0 hours  2 minutes  1.5 seconds.
 File lengths (MBytes):  RWF=    125 Int=      0 D2E=      0 Chk=     17 Scr=      1
 Normal termination of Gaussian 16 at Thu Jan 11 13:28:43 2024.
