 Entering Gaussian System, Link 0=g16
 Input=IMID-isolated-freq.gjf
 Output=IMID-isolated-freq.log
 Initial command:
 /software/commercial/gaussian/g16/AVX/g16/l1.exe "/scratch1/svicchi/G09-659793.pbs02/Gau-2427766.inp" -scrdir="/scratch1/svicchi/G09-659793.pbs02/"
 Entering Link 1 = /software/commercial/gaussian/g16/AVX/g16/l1.exe PID=   2427767.
  
 Copyright (c) 1988-2019, Gaussian, Inc.  All Rights Reserved.
  
 This is part of the Gaussian(R) 16 program.  It is based on
 the Gaussian(R) 09 system (copyright 2009, Gaussian, Inc.),
 the Gaussian(R) 03 system (copyright 2003, Gaussian, Inc.),
 the Gaussian(R) 98 system (copyright 1998, Gaussian, Inc.),
 the Gaussian(R) 94 system (copyright 1995, Gaussian, Inc.),
 the Gaussian 92(TM) system (copyright 1992, Gaussian, Inc.),
 the Gaussian 90(TM) system (copyright 1990, Gaussian, Inc.),
 the Gaussian 88(TM) system (copyright 1988, Gaussian, Inc.),
 the Gaussian 86(TM) system (copyright 1986, Carnegie Mellon
 University), and the Gaussian 82(TM) system (copyright 1983,
 Carnegie Mellon University). Gaussian is a federally registered
 trademark of Gaussian, Inc.
  
 This software contains proprietary and confidential information,
 including trade secrets, belonging to Gaussian, Inc.
  
 This software is provided under written license and may be
 used, copied, transmitted, or stored only in accord with that
 written license.
  
 The following legend is applicable only to US Government
 contracts under FAR:
  
                    RESTRICTED RIGHTS LEGEND
  
 Use, reproduction and disclosure by the US Government is
 subject to restrictions as set forth in subparagraphs (a)
 and (c) of the Commercial Computer Software - Restricted
 Rights clause in FAR 52.227-19.
  
 Gaussian, Inc.
 340 Quinnipiac St., Bldg. 40, Wallingford CT 06492
  
  
 ---------------------------------------------------------------
 Warning -- This program may not be used in any manner that
 competes with the business of Gaussian, Inc. or will provide
 assistance to any competitor of Gaussian, Inc.  The licensee
 of this program is prohibited from giving any competitor of
 Gaussian, Inc. access to this program.  By using this program,
 the user acknowledges that Gaussian, Inc. is engaged in the
 business of creating and licensing software in the field of
 computational chemistry and represents and warrants to the
 licensee that it is not a competitor of Gaussian, Inc. and that
 it will not use this program in any manner prohibited above.
 ---------------------------------------------------------------
  

 Cite this work as:
 Gaussian 16, Revision C.01,
 M. J. Frisch, G. W. Trucks, H. B. Schlegel, G. E. Scuseria, 
 M. A. Robb, J. R. Cheeseman, G. Scalmani, V. Barone, 
 G. A. Petersson, H. Nakatsuji, X. Li, M. Caricato, A. V. Marenich, 
 J. Bloino, B. G. Janesko, R. Gomperts, B. Mennucci, H. P. Hratchian, 
 J. V. Ortiz, A. F. Izmaylov, J. L. Sonnenberg, D. Williams-Young, 
 F. Ding, F. Lipparini, F. Egidi, J. Goings, B. Peng, A. Petrone, 
 T. Henderson, D. Ranasinghe, V. G. Zakrzewski, J. Gao, N. Rega, 
 G. Zheng, W. Liang, M. Hada, M. Ehara, K. Toyota, R. Fukuda, 
 J. Hasegawa, M. Ishida, T. Nakajima, Y. Honda, O. Kitao, H. Nakai, 
 T. Vreven, K. Throssell, J. A. Montgomery, Jr., J. E. Peralta, 
 F. Ogliaro, M. J. Bearpark, J. J. Heyd, E. N. Brothers, K. N. Kudin, 
 V. N. Staroverov, T. A. Keith, R. Kobayashi, J. Normand, 
 K. Raghavachari, A. P. Rendell, J. C. Burant, S. S. Iyengar, 
 J. Tomasi, M. Cossi, J. M. Millam, M. Klene, C. Adamo, R. Cammi, 
 J. W. Ochterski, R. L. Martin, K. Morokuma, O. Farkas, 
 J. B. Foresman, and D. J. Fox, Gaussian, Inc., Wallingford CT, 2019.
 
 ******************************************
 Gaussian 16:  ES64L-G16RevC.01  3-Jul-2019
                 2-Jun-2023 
 ******************************************
 %NProcShared=2
 Will use up to    2 processors via shared memory.
 %mem=55gb
 %chk=/scratch1/svicchi/G09-659793.pbs02/02-freq/IMID-isolated-freq.chk
 ----------------------------------------------------------------------
 #p freq=raman scale=0.967 pop=(nbo,full,hirshfeld) guess=read geom=all
 check b3lyp/6-311+G(d,p) int=grid=ultrafine EmpiricalDispersion=GD3BJ 
 SCRF=(Solvent=ethanol) scf=(xqc,intrep,maxconventionalcycle=350) nosym
 m
 ----------------------------------------------------------------------
 1/10=4,29=7,30=1,38=1,114=967000/1,3;
 2/12=2,15=1,40=1/2;
 3/5=4,6=6,7=111,11=2,14=-4,25=1,30=1,70=2201,71=2,72=4,74=-5,75=-5,116=-2,124=41,140=1/1,2,3;
 4/5=1/1;
 5/5=2,8=3,13=1,17=20,38=6,53=4,85=350,98=1/2,8;
 8/6=4,10=90,11=11/1;
 10/13=10,15=4,31=1/2;
 11/6=3,8=1,9=11,15=111,16=1,31=1/1,2,10;
 10/6=1,31=1/2;
 6/7=3,28=1,40=1,79=1/1,7;
 7/8=1,10=1,25=1,30=1/1,2,3,16;
 1/10=4,30=1/3;
 99//99;
 Leave Link    1 at Fri Jun  2 11:07:50 2023, MaxMem=  7381975040 cpu:               1.9 elap:               1.9
 (Enter /software/commercial/gaussian/g16/AVX/g16/l101.exe)
 Structure from the checkpoint file:  "/scratch1/svicchi/G09-659793.pbs02/02-freq/IMID-isolated-freq.chk"
 -----------------
 IMID-isolated.gjf
 -----------------
 Charge = -1 Multiplicity = 1
 No Z-Matrix found in chk file; cartesian coordinates used.
  C                                                -2.261893668647      3.428022920201      0.322194506784
  N                                                -1.230068440185      2.600989333310      0.053057765022
  C                                                -1.845153691089      1.491830017045     -0.479538413660
  C                                                -3.216426681763      1.704660694825     -0.504968719605
  H                                                -1.280668081386      0.627423238337     -0.804961207254
  N                                                -3.485285032564      2.951137596536      0.011040375419
  H                                                -4.004155873906      1.050131696866     -0.855418364506
  H                                                -2.117530530460      4.409806502881      0.759056057800
 Recover connectivity data from disk.
 ITRead=  0  0  0  0  0  0  0  0
 MicOpt= -1 -1 -1 -1 -1 -1 -1 -1
 NAtoms=      8 NQM=        8 NQMF=       0 NMMI=      0 NMMIF=      0
                NMic=       0 NMicF=      0.
                    Isotopes and Nuclear Properties:
 (Nuclear quadrupole moments (NQMom) in fm**2, nuclear magnetic moments (NMagM)
  in nuclear magnetons)

  Atom         1           2           3           4           5           6           7           8
 IAtWgt=          12          14          12          12           1          14           1           1
 AtmWgt=  12.0000000  14.0030740  12.0000000  12.0000000   1.0078250  14.0030740   1.0078250   1.0078250
 NucSpn=           0           2           0           0           1           2           1           1
 AtZEff=   3.6000000   4.5500000   3.6000000   3.6000000   1.0000000   4.5500000   1.0000000   1.0000000
 NQMom=    0.0000000   2.0440000   0.0000000   0.0000000   0.0000000   2.0440000   0.0000000   0.0000000
 NMagM=    0.0000000   0.4037610   0.0000000   0.0000000   2.7928460   0.4037610   2.7928460   2.7928460
 AtZNuc=   6.0000000   7.0000000   6.0000000   6.0000000   1.0000000   7.0000000   1.0000000   1.0000000
 Leave Link  101 at Fri Jun  2 11:07:52 2023, MaxMem=  7381975040 cpu:               0.5 elap:               1.2
 (Enter /software/commercial/gaussian/g16/AVX/g16/l103.exe)

 GradGradGradGradGradGradGradGradGradGradGradGradGradGradGradGradGradGrad
 Berny optimization.
 Initialization pass.
 Trust Radius=3.00D-01 FncErr=1.00D-07 GrdErr=1.00D-07 EigMax=2.50D+02 EigMin=1.00D-04
 Number of steps in this run=      2 maximum allowed number of steps=      2.
 GradGradGradGradGradGradGradGradGradGradGradGradGradGradGradGradGradGrad

 Leave Link  103 at Fri Jun  2 11:07:54 2023, MaxMem=  7381975040 cpu:               0.1 elap:               0.9
 (Enter /software/commercial/gaussian/g16/AVX/g16/l202.exe)
                          Input orientation:                          
 ---------------------------------------------------------------------
 Center     Atomic      Atomic             Coordinates (Angstroms)
 Number     Number       Type             X           Y           Z
 ---------------------------------------------------------------------
      1          6           0       -2.261894    3.428023    0.322195
      2          7           0       -1.230068    2.600989    0.053058
      3          6           0       -1.845154    1.491830   -0.479538
      4          6           0       -3.216427    1.704661   -0.504969
      5          1           0       -1.280668    0.627423   -0.804961
      6          7           0       -3.485285    2.951138    0.011040
      7          1           0       -4.004156    1.050132   -0.855418
      8          1           0       -2.117531    4.409807    0.759056
 ---------------------------------------------------------------------
                    Distance matrix (angstroms):
                    1          2          3          4          5
     1  C    0.000000
     2  N    1.349475   0.000000
     3  C    2.136654   1.375581   0.000000
     4  C    2.136659   2.249537   1.387924   0.000000
     5  H    3.174373   2.152608   1.082471   2.235531   0.000000
     6  N    1.349416   2.282624   2.249506   1.375593   3.305426
     7  H    3.174369   3.305458   2.235548   1.082470   2.756558
     8  H    1.084245   2.134910   3.181649   3.181689   4.177668
                    6          7          8
     6  N    0.000000
     7  H    2.152627   0.000000
     8  H    2.134946   4.177714   0.000000
 Symmetry turned off by external request.
 Stoichiometry    C3H3N2(1-)
 Framework group  C1[X(C3H3N2)]
 Deg. of freedom    18
 Full point group                 C1      NOp   1
 Rotational constants (GHZ):          10.1156451           9.7436279           4.9630761
 Leave Link  202 at Fri Jun  2 11:07:56 2023, MaxMem=  7381975040 cpu:               0.0 elap:               0.4
 (Enter /software/commercial/gaussian/g16/AVX/g16/l301.exe)
 Standard basis: 6-311+G(d,p) (5D, 7F)
 Ernie: Thresh=  0.10000D-02 Tol=  0.10000D-05 Strict=F.
   128 basis functions,   204 primitive gaussians,   133 cartesian basis functions
    18 alpha electrons       18 beta electrons
       nuclear repulsion energy       153.1616140547 Hartrees.
 IExCor=  402 DFT=T Ex+Corr=B3LYP ExCW=0 ScaHFX=  0.200000
 ScaDFX=  0.800000  0.720000  1.000000  0.810000 ScalE2=  1.000000  1.000000
 IRadAn=      5 IRanWt=     -1 IRanGd=            0 ICorTp=0 IEmpDi=141
 NAtoms=    8 NActive=    8 NUniq=    8 SFac= 1.00D+00 NAtFMM=   60 NAOKFM=F Big=F
 Integral buffers will be    131072 words long.
 Raffenetti 2 integral format.
 Two-electron integral symmetry is turned off.
 R6Disp:  Grimme-D3(BJ) Dispersion energy=       -0.0101730271 Hartrees.
 Nuclear repulsion after empirical dispersion term =      153.1514410276 Hartrees.
 Force inversion solution in PCM.
 ------------------------------------------------------------------------------
 Polarizable Continuum Model (PCM)
 =================================
 Model                : PCM.
 Atomic radii         : UFF (Universal Force Field).
 Polarization charges : Total charges.
 Charge compensation  : None.
 Solution method      : Matrix inversion.
 Cavity type          : Scaled VdW (van der Waals Surface) (Alpha=1.100).
 Cavity algorithm     : GePol (No added spheres)
                        Default sphere list used, NSphG=    8.
                        Lebedev-Laikov grids with approx.  5.0 points / Ang**2.
                        Smoothing algorithm: York/Karplus (Gamma=1.0000).
                        Polarization charges: spherical gaussians, with
                                              point-specific exponents (IZeta= 3).
                        Self-potential: point-specific (ISelfS= 7).
                        Self-field    : sphere-specific E.n sum rule (ISelfD= 2).
 1st derivatives      : Analytical E(r).r(x)/FMM algorithm (CHGder, D1EAlg=3).
                        Cavity 1st derivative terms included.
 2nd derivatives      : Analytical E(r).r(xy)/FMM algorithm (CHGder, D2EAlg=3).
                        Cavity 2nd derivative terms included.
 Solvent              : Ethanol, Eps=  24.852000 Eps(inf)=   1.852593
 ------------------------------------------------------------------------------
 Spheres list:
 ISph  on   Nord     Re0    Alpha      Xe            Ye            Ze
    1   C      1    1.9255  1.100     -2.261894      3.428023      0.322195
    2   N      2    1.8300  1.100     -1.230068      2.600989      0.053058
    3   C      3    1.9255  1.100     -1.845154      1.491830     -0.479538
    4   C      4    1.9255  1.100     -3.216427      1.704661     -0.504969
    5   H      5    1.4430  1.100     -1.280668      0.627423     -0.804961
    6   N      6    1.8300  1.100     -3.485285      2.951138      0.011040
    7   H      7    1.4430  1.100     -4.004156      1.050132     -0.855418
    8   H      8    1.4430  1.100     -2.117531      4.409807      0.759056
 ------------------------------------------------------------------------------
 GePol: Number of generator spheres                  =       8
 GePol: Total number of spheres                      =       8
 GePol: Number of exposed spheres                    =       8 (100.00%)
 GePol: Number of points                             =     842
 GePol: Average weight of points                     =       0.14
 GePol: Minimum weight of points                     =   0.25D-08
 GePol: Maximum weight of points                     =    0.20577
 GePol: Number of points with low weight             =      37
 GePol: Fraction of low-weight points (<1% of avg)   =       4.39%
 GePol: Cavity surface area                          =    115.453 Ang**2
 GePol: Cavity volume                                =    103.502 Ang**3
 Leave Link  301 at Fri Jun  2 11:07:57 2023, MaxMem=  7381975040 cpu:               0.4 elap:               0.9
 (Enter /software/commercial/gaussian/g16/AVX/g16/l302.exe)
 NPDir=0 NMtPBC=     1 NCelOv=     1 NCel=       1 NClECP=     1 NCelD=      1
         NCelK=      1 NCelE2=     1 NClLst=     1 CellRange=     0.0.
 One-electron integrals computed using PRISM.
 NBasis=   128 RedAO= T EigKep=  6.07D-05  NBF=   128
 NBsUse=   128 1.00D-06 EigRej= -1.00D+00 NBFU=   128
 Precomputing XC quadrature grid using
 IXCGrd= 4 IRadAn=           5 IRanWt=          -1 IRanGd=           0 AccXCQ= 0.00D+00.
 Generated NRdTot=       0 NPtTot=           0 NUsed=           0 NTot=          32
 NSgBfM=   133   133   133   133   133 MxSgAt=     8 MxSgA2=     8.
 Leave Link  302 at Fri Jun  2 11:08:00 2023, MaxMem=  7381975040 cpu:               0.4 elap:               1.2
 (Enter /software/commercial/gaussian/g16/AVX/g16/l303.exe)
 DipDrv:  MaxL=1.
 Leave Link  303 at Fri Jun  2 11:08:01 2023, MaxMem=  7381975040 cpu:               0.1 elap:               0.5
 (Enter /software/commercial/gaussian/g16/AVX/g16/l401.exe)
 Initial guess from the checkpoint file:  "/scratch1/svicchi/G09-659793.pbs02/02-freq/IMID-isolated-freq.chk"
 B after Tr=     0.000000    0.000000    0.000000
         Rot=    1.000000    0.000000    0.000000    0.000000 Ang=   0.00 deg.
 Guess basis will be translated and rotated to current coordinates.
 JPrj=2 DoOrth=T DoCkMO=T.
 Leave Link  401 at Fri Jun  2 11:08:03 2023, MaxMem=  7381975040 cpu:               0.3 elap:               0.4
 (Enter /software/commercial/gaussian/g16/AVX/g16/l502.exe)
 Keep R1 ints in memory in canonical form, NReq=36005155.
 FoFCou: FMM=F IPFlag=           0 FMFlag=           0 FMFlg1=           0
         NFxFlg=           0 DoJE=F BraDBF=F KetDBF=F FulRan=T
         wScrn=  0.000000 ICntrl=       600 IOpCl=  0 I1Cent=           0 NGrid=           0
         NMat0=    1 NMatS0=   8256 NMatT0=    0 NMatD0=    1 NMtDS0=    0 NMtDT0=    0
 Symmetry not used in FoFCou.
 Two-electron integral symmetry not used.
 Closed shell SCF:
 Using DIIS extrapolation, IDIIS=  1040.
 NGot=  7381975040 LenX=  7347852721 LenY=  7347834591
 Requested convergence on RMS density matrix=1.00D-08 within 350 cycles.
 Requested convergence on MAX density matrix=1.00D-06.
 Requested convergence on             energy=1.00D-06.
 No special actions if energy rises.

 Cycle   1  Pass 1  IDiag  1:
 Inv3:  Mode=1 IEnd=     2126892.
 Iteration    1 A*A^-1 deviation from unit magnitude is 2.66D-15 for    842.
 Iteration    1 A*A^-1 deviation from orthogonality  is 1.31D-15 for    651    324.
 Iteration    1 A^-1*A deviation from unit magnitude is 3.00D-15 for    842.
 Iteration    1 A^-1*A deviation from orthogonality  is 1.07D-15 for    834    797.
 E= -225.816523714273    
 DIIS: error= 4.21D-09 at cycle   1 NSaved=   1.
 NSaved= 1 IEnMin= 1 EnMin= -225.816523714273     IErMin= 1 ErrMin= 4.21D-09
 ErrMax= 4.21D-09  0.00D+00 EMaxC= 1.00D-01 BMatC= 7.33D-16 BMatP= 7.33D-16
 IDIUse=1 WtCom= 1.00D+00 WtEn= 0.00D+00
 Coeff-Com:  0.100D+01
 Coeff:      0.100D+01
 Gap=     0.209 Goal=   None    Shift=    0.000
 RMSDP=3.93D-10 MaxDP=1.42D-08              OVMax= 3.10D-08

 Error on total polarization charges =  0.02464
 SCF Done:  E(RB3LYP) =  -225.816523714     A.U. after    1 cycles
            NFock=  1  Conv=0.39D-09     -V/T= 2.0044
 KE= 2.248287618295D+02 PE=-8.407339211558D+02 EE= 2.369371945845D+02
 Leave Link  502 at Fri Jun  2 11:08:09 2023, MaxMem=  7381975040 cpu:               8.1 elap:               5.4
 (Enter /software/commercial/gaussian/g16/AVX/g16/l508.exe)
 QCSCF skips out because SCF is already converged.
 Leave Link  508 at Fri Jun  2 11:08:11 2023, MaxMem=  7381975040 cpu:               0.0 elap:               0.6
 (Enter /software/commercial/gaussian/g16/AVX/g16/l801.exe)
 DoSCS=F DFT=T ScalE2(SS,OS)=  1.000000  1.000000
 Range of M.O.s used for correlation:     1   128
 NBasis=   128 NAE=    18 NBE=    18 NFC=     0 NFV=     0
 NROrb=    128 NOA=    18 NOB=    18 NVA=   110 NVB=   110

 **** Warning!!: The largest alpha MO coefficient is  0.53267476D+02

 Leave Link  801 at Fri Jun  2 11:08:13 2023, MaxMem=  7381975040 cpu:               0.2 elap:               0.9
 (Enter /software/commercial/gaussian/g16/AVX/g16/l1002.exe)
 Minotr:  Closed shell wavefunction.
 NEqPCM:  Using equilibrium solvation (IEInf=0, Eps=  24.8520, EpsInf=   1.8526)
          Direct CPHF calculation.
          Differentiating once with respect to electric field.
                with respect to dipole field.
          Electric field/nuclear overlap derivatives assumed to be zero.
          Requested convergence is 1.0D-08 RMS, and 1.0D-07 maximum.
          Secondary convergence is 1.0D-12 RMS, and 1.0D-12 maximum.
          NewPWx=F KeepS1=T KeepF1=T KeepIn=T MapXYZ=F SortEE=F KeepMc=T.
         2420 words used for storage of precomputed grid.
 Keep R1 ints in memory in canonical form, NReq=37186602.
 FoFCou: FMM=F IPFlag=           0 FMFlag=           0 FMFlg1=           0
         NFxFlg=           0 DoJE=F BraDBF=F KetDBF=F FulRan=T
         wScrn=  0.000000 ICntrl=       600 IOpCl=  0 I1Cent=           0 NGrid=           0
         NMat0=    1 NMatS0=   8256 NMatT0=    0 NMatD0=    1 NMtDS0=    0 NMtDT0=    0
 Symmetry not used in FoFCou.
 Two-electron integral symmetry not used.
          MDV=    7381975040 using IRadAn=       1.
          Solving linear equations simultaneously, MaxMat=       0.
          There are     3 degrees of freedom in the 1st order CPHF.  IDoFFX=0 NUNeed=     3.
      3 vectors produced by pass  0 Test12= 6.60D-14 3.33D-08 XBig12= 6.74D+01 4.68D+00.
 AX will form     3 AO Fock derivatives at one time.
      3 vectors produced by pass  1 Test12= 6.60D-14 3.33D-08 XBig12= 4.45D+01 2.39D+00.
      3 vectors produced by pass  2 Test12= 6.60D-14 3.33D-08 XBig12= 3.71D+00 5.51D-01.
      3 vectors produced by pass  3 Test12= 6.60D-14 3.33D-08 XBig12= 1.83D+00 3.60D-01.
      3 vectors produced by pass  4 Test12= 6.60D-14 3.33D-08 XBig12= 8.01D-02 1.04D-01.
      3 vectors produced by pass  5 Test12= 6.60D-14 3.33D-08 XBig12= 4.25D-03 1.45D-02.
      3 vectors produced by pass  6 Test12= 6.60D-14 3.33D-08 XBig12= 6.27D-04 4.62D-03.
      3 vectors produced by pass  7 Test12= 6.60D-14 3.33D-08 XBig12= 1.30D-05 8.79D-04.
      3 vectors produced by pass  8 Test12= 6.60D-14 3.33D-08 XBig12= 1.98D-07 7.10D-05.
      3 vectors produced by pass  9 Test12= 6.60D-14 3.33D-08 XBig12= 1.58D-09 8.79D-06.
      2 vectors produced by pass 10 Test12= 6.60D-14 3.33D-08 XBig12= 1.41D-11 9.32D-07.
      2 vectors produced by pass 11 Test12= 6.60D-14 3.33D-08 XBig12= 4.48D-13 1.77D-07.
 InvSVY:  IOpt=1 It=  1 EMax= 5.33D-15
 Solved reduced A of dimension    34 with     3 vectors.
 End of Minotr F.D. properties file   721 does not exist.
 End of Minotr F.D. properties file   722 does not exist.
 End of Minotr F.D. properties file   788 does not exist.
 Leave Link 1002 at Fri Jun  2 11:08:37 2023, MaxMem=  7381975040 cpu:              41.6 elap:              22.8
 (Enter /software/commercial/gaussian/g16/AVX/g16/l1101.exe)
 Using compressed storage, NAtomX=     8.
 Will process      9 centers per pass.
 R6Disp: Adding Grimme-D3(BJ) dispersion energy 1st derivatives to the gradient.
 Leave Link 1101 at Fri Jun  2 11:08:40 2023, MaxMem=  7381975040 cpu:               0.3 elap:               1.6
 (Enter /software/commercial/gaussian/g16/AVX/g16/l1102.exe)
 Symmetrizing basis deriv contribution to polar:
 IMax=3 JMax=2 DiffMx= 0.00D+00
 Leave Link 1102 at Fri Jun  2 11:08:41 2023, MaxMem=  7381975040 cpu:               0.1 elap:               0.5
 (Enter /software/commercial/gaussian/g16/AVX/g16/l1110.exe)
 Forming Gx(P) for the SCF density, NAtomX=     8.
 Integral derivatives from FoFJK, PRISM(SPDF).
 Do as many integral derivatives as possible in FoFJK.
 G2DrvN: MDV=    7381974096.
 G2DrvN: will do     9 centers at a time, making    1 passes.
 PxScal for G2LodP:  IOpCl= 0 ISclPx=1 IMOff=     1 NMtTot=     4 NTT=    8256 ScalPx= 7.73D+00
 Calling FoFCou, ICntrl=  3107 FMM=F I1Cent=   0 AccDes= 0.00D+00.
 FoFJK:  IHMeth= 1 ICntrl=    3107 DoSepK=F KAlg= 0 I1Cent=           0 FoldK=F
 IRaf=         0 NMat=       1 IRICut=       1 DoRegI=T DoRafI=F ISym2E= 0 IDoP0=0 IntGTp=1.
 FoFCou: FMM=F IPFlag=           0 FMFlag=      100000 FMFlg1=           0
         NFxFlg=           0 DoJE=F BraDBF=F KetDBF=F FulRan=T
         wScrn=  0.000000 ICntrl=      3107 IOpCl=  0 I1Cent=           0 NGrid=           0
         NMat0=    1 NMatS0=      1 NMatT0=    0 NMatD0=    4 NMtDS0=    3 NMtDT0=    0
 Symmetry not used in FoFCou.
 PxScal for G2LodP:  IOpCl= 0 ISclPx=0 IMOff=     1 NMtTot=     4 NTT=    8256 ScalPx= 1.00D+00
 NEqPCM:  Using equilibrium solvation (IEInf=0, Eps=  24.8520, EpsInf=   1.8526)
 G2PCM: DoFxE=T DoFxN=T DoGrad=T DoDP/DQ/DG/TGxP=TFFF NFrqRd=   0 IEInf=0 SqF1=F DoCFld=F IF1Alg=4.
 GePol: Maximum number of non-zero 1st derivatives   =     200
 End of G2Drv F.D. properties file   721 does not exist.
 End of G2Drv F.D. properties file   722 does not exist.
 End of G2Drv F.D. properties file   788 does not exist.
 Leave Link 1110 at Fri Jun  2 11:09:40 2023, MaxMem=  7381975040 cpu:             112.5 elap:              58.0
 (Enter /software/commercial/gaussian/g16/AVX/g16/l1002.exe)
 Minotr:  Closed shell wavefunction.
          IDoAtm=11111111
 NEqPCM:  Using equilibrium solvation (IEInf=0, Eps=  24.8520, EpsInf=   1.8526)
          Direct CPHF calculation.
          Differentiating once with respect to electric field.
                with respect to dipole field.
          Differentiating once with respect to nuclear coordinates.
          Requested convergence is 1.0D-08 RMS, and 1.0D-07 maximum.
          Secondary convergence is 1.0D-12 RMS, and 1.0D-12 maximum.
          NewPWx=T KeepS1=F KeepF1=F KeepIn=T MapXYZ=F SortEE=F KeepMc=T.
         2420 words used for storage of precomputed grid.
 Keep R1 ints in memory in canonical form, NReq=37186786.
 FoFCou: FMM=F IPFlag=           0 FMFlag=           0 FMFlg1=           0
         NFxFlg=           0 DoJE=F BraDBF=F KetDBF=F FulRan=T
         wScrn=  0.000000 ICntrl=       600 IOpCl=  0 I1Cent=           0 NGrid=           0
         NMat0=    1 NMatS0=   8256 NMatT0=    0 NMatD0=    1 NMtDS0=    0 NMtDT0=    0
 Symmetry not used in FoFCou.
 Two-electron integral symmetry not used.
          MDV=    7381975040 using IRadAn=       1.
          Solving linear equations simultaneously, MaxMat=       0.
          There are    27 degrees of freedom in the 1st order CPHF.  IDoFFX=5 NUNeed=    27.
 Will reuse    3 saved solutions.
     21 vectors produced by pass  0 Test12= 7.33D-15 3.70D-09 XBig12= 1.69D-01 1.54D-01.
 AX will form    21 AO Fock derivatives at one time.
     21 vectors produced by pass  1 Test12= 7.33D-15 3.70D-09 XBig12= 4.93D-02 9.45D-02.
     21 vectors produced by pass  2 Test12= 7.33D-15 3.70D-09 XBig12= 5.11D-04 6.81D-03.
     21 vectors produced by pass  3 Test12= 7.33D-15 3.70D-09 XBig12= 5.40D-06 6.88D-04.
     21 vectors produced by pass  4 Test12= 7.33D-15 3.70D-09 XBig12= 1.89D-08 3.37D-05.
     21 vectors produced by pass  5 Test12= 7.33D-15 3.70D-09 XBig12= 5.04D-11 1.65D-06.
      9 vectors produced by pass  6 Test12= 7.33D-15 3.70D-09 XBig12= 8.70D-14 6.30D-08.
 InvSVY:  IOpt=1 It=  1 EMax= 1.22D-15
 Solved reduced A of dimension   135 with    21 vectors.
 FullF1:  Do perturbations      1 to       3.
 Isotropic polarizability for W=    0.000000       74.96 Bohr**3.
 FullF1:  Do perturbations      1 to       6.
 End of Minotr F.D. properties file   721 does not exist.
 End of Minotr F.D. properties file   722 does not exist.
 End of Minotr F.D. properties file   788 does not exist.
 Leave Link 1002 at Fri Jun  2 11:10:37 2023, MaxMem=  7381975040 cpu:             103.9 elap:              56.0
 (Enter /software/commercial/gaussian/g16/AVX/g16/l601.exe)
 Copying SCF densities to generalized density rwf, IOpCl= 0 IROHF=0.

 **********************************************************************

            Population analysis using the SCF Density.

 **********************************************************************

 Alpha  occ. eigenvalues --  -14.25883 -14.25880 -10.16560 -10.14527 -10.14471
 Alpha  occ. eigenvalues --   -0.94335  -0.79365  -0.68469  -0.53576  -0.52762
 Alpha  occ. eigenvalues --   -0.46055  -0.37733  -0.37430  -0.36191  -0.26821
 Alpha  occ. eigenvalues --   -0.23322  -0.22861  -0.19009
 Alpha virt. eigenvalues --    0.01899   0.03972   0.04452   0.04644   0.06511
 Alpha virt. eigenvalues --    0.06542   0.06586   0.08395   0.08618   0.10119
 Alpha virt. eigenvalues --    0.11514   0.11952   0.14472   0.15798   0.16946
 Alpha virt. eigenvalues --    0.20512   0.21188   0.21211   0.21842   0.22797
 Alpha virt. eigenvalues --    0.23742   0.24331   0.25567   0.27802   0.28950
 Alpha virt. eigenvalues --    0.30132   0.33550   0.43957   0.45726   0.49287
 Alpha virt. eigenvalues --    0.49768   0.56443   0.57534   0.58820   0.61192
 Alpha virt. eigenvalues --    0.61252   0.67831   0.73485   0.73695   0.76307
 Alpha virt. eigenvalues --    0.79976   0.81728   0.83841   0.88246   0.89679
 Alpha virt. eigenvalues --    0.89760   0.90349   0.91759   0.96676   1.02757
 Alpha virt. eigenvalues --    1.03178   1.03760   1.22493   1.22523   1.23867
 Alpha virt. eigenvalues --    1.24760   1.33402   1.33985   1.41665   1.57257
 Alpha virt. eigenvalues --    1.68397   1.68660   1.71302   1.72170   1.74814
 Alpha virt. eigenvalues --    1.75038   1.82422   1.85952   1.89595   2.02975
 Alpha virt. eigenvalues --    2.07438   2.10008   2.21856   2.29162   2.31087
 Alpha virt. eigenvalues --    2.39274   2.45983   2.46180   2.55588   2.59674
 Alpha virt. eigenvalues --    2.63308   2.65960   2.71523   2.74336   2.77129
 Alpha virt. eigenvalues --    2.78070   2.82511   2.88380   2.91361   2.92696
 Alpha virt. eigenvalues --    2.97638   3.11027   3.25957   3.34415   3.60116
 Alpha virt. eigenvalues --    3.62785   3.65604   3.75267   3.94462   3.95149
 Alpha virt. eigenvalues --    4.12508   4.44422   4.56923   4.81551   5.26464
 Alpha virt. eigenvalues --   23.82932  23.94170  24.14363  35.53557  35.70478
     Molecular Orbital Coefficients:
                           1         2         3         4         5
                           O         O         O         O         O
     Eigenvalues --   -14.25883 -14.25880 -10.16560 -10.14527 -10.14471
   1 1   C  1S          0.00000   0.00000   0.56292   0.00006   0.00000
   2        2S          0.00002   0.00009   0.46329   0.00004   0.00000
   3        2PX        -0.00058   0.00006  -0.00000   0.00002  -0.00001
   4        2PY         0.00004  -0.00031  -0.00003   0.00012   0.00000
   5        2PZ        -0.00003  -0.00013  -0.00001   0.00005  -0.00000
   6        3S          0.00005   0.00030   0.01881  -0.00013  -0.00000
   7        3PX         0.00156  -0.00012   0.00003  -0.00010   0.00011
   8        3PY        -0.00007   0.00102   0.00020  -0.00069  -0.00002
   9        3PZ         0.00011   0.00043   0.00009  -0.00031   0.00000
  10        4S          0.00107   0.00609  -0.00892   0.00197   0.00000
  11        4PX        -0.00307  -0.00009   0.00036  -0.00057  -0.00155
  12        4PY        -0.00026  -0.00420   0.00242  -0.00392   0.00024
  13        4PZ        -0.00038  -0.00182   0.00108  -0.00174  -0.00003
  14        5S         -0.00047  -0.00266  -0.01022  -0.00894  -0.00001
  15        5PX        -0.00057   0.00011   0.00022   0.00043   0.00116
  16        5PY         0.00010   0.00006   0.00148   0.00296  -0.00018
  17        5PZ        -0.00000   0.00004   0.00066   0.00132   0.00002
  18        6D 0        0.00003   0.00027  -0.00124  -0.00008  -0.00000
  19        6D+1       -0.00060   0.00011   0.00024   0.00002  -0.00005
  20        6D-1        0.00010   0.00018   0.00134   0.00016   0.00001
  21        6D+2       -0.00054  -0.00071  -0.00033  -0.00015  -0.00003
  22        6D-2       -0.00126   0.00047   0.00008   0.00005  -0.00011
  23 2   N  1S         -0.32023   0.45621  -0.00006  -0.00003  -0.00003
  24        2S         -0.26756   0.38130  -0.00003  -0.00003  -0.00005
  25        2PX         0.00060  -0.00100  -0.00039  -0.00019  -0.00020
  26        2PY         0.00016  -0.00016   0.00026  -0.00027  -0.00014
  27        2PZ         0.00012  -0.00015   0.00008  -0.00013  -0.00008
  28        3S         -0.00936   0.01267   0.00064   0.00068   0.00047
  29        3PX         0.00104  -0.00066   0.00107   0.00057   0.00045
  30        3PY        -0.00016  -0.00013  -0.00065   0.00067   0.00001
  31        3PZ         0.00002  -0.00011  -0.00019   0.00034   0.00004
  32        4S          0.00893  -0.01231  -0.00248  -0.00405   0.00042
  33        4PX        -0.00169   0.00289   0.00090   0.00100  -0.00054
  34        4PY        -0.00030   0.00052  -0.00097   0.00074   0.00082
  35        4PZ        -0.00028   0.00047  -0.00034   0.00041   0.00031
  36        5S         -0.00406   0.00287   0.00764   0.00547   0.00705
  37        5PX         0.00026   0.00011  -0.00275  -0.00110  -0.00229
  38        5PY         0.00173   0.00030   0.00179  -0.00069  -0.00123
  39        5PZ         0.00077   0.00014   0.00054  -0.00040  -0.00073
  40        6D 0        0.00022  -0.00016   0.00061   0.00031   0.00027
  41        6D+1        0.00005  -0.00001   0.00022  -0.00025  -0.00016
  42        6D-1       -0.00016   0.00023  -0.00032  -0.00046  -0.00024
  43        6D+2       -0.00003  -0.00017  -0.00029   0.00021  -0.00007
  44        6D-2        0.00021  -0.00006   0.00079  -0.00048  -0.00025
  45 3   C  1S         -0.00001   0.00000  -0.00004   0.39752   0.39855
  46        2S          0.00002   0.00003  -0.00005   0.32728   0.32781
  47        2PX        -0.00023   0.00017   0.00002  -0.00025   0.00091
  48        2PY        -0.00022   0.00025  -0.00006   0.00012  -0.00001
  49        2PZ        -0.00011   0.00012  -0.00002   0.00003   0.00007
  50        3S         -0.00025   0.00023   0.00004   0.01339   0.01378
  51        3PX         0.00131  -0.00016  -0.00009   0.00167  -0.00339
  52        3PY         0.00030  -0.00072   0.00039  -0.00047   0.00021
  53        3PZ         0.00024  -0.00032   0.00016  -0.00006  -0.00020
  54        4S         -0.00636   0.00400  -0.00108  -0.00545  -0.00880
  55        4PX         0.00272   0.00055  -0.00091   0.00103   0.00335
  56        4PY        -0.00498   0.00174   0.00062  -0.00149  -0.00287
  57        4PZ        -0.00192   0.00080   0.00019  -0.00056  -0.00095
  58        5S          0.00884  -0.00210   0.00101   0.00123  -0.01161
  59        5PX        -0.00032  -0.00029   0.00129  -0.00116   0.00143
  60        5PY         0.00185  -0.00060  -0.00014   0.00110  -0.00144
  61        5PZ         0.00077  -0.00029   0.00005   0.00038  -0.00050
  62        6D 0        0.00010  -0.00006  -0.00001  -0.00044  -0.00173
  63        6D+1        0.00010  -0.00027  -0.00003  -0.00014  -0.00021
  64        6D-1        0.00039  -0.00016   0.00006   0.00084   0.00058
  65        6D+2       -0.00082   0.00024  -0.00011  -0.00090   0.00160
  66        6D-2        0.00039  -0.00068  -0.00005  -0.00036  -0.00144
  67 4   C  1S          0.00001  -0.00000  -0.00004   0.39846  -0.39762
  68        2S         -0.00000   0.00004  -0.00005   0.32805  -0.32704
  69        2PX        -0.00018  -0.00003  -0.00003   0.00027   0.00088
  70        2PY         0.00036   0.00018  -0.00005   0.00004  -0.00026
  71        2PZ         0.00014   0.00007  -0.00002   0.00004  -0.00004
  72        3S          0.00031   0.00013   0.00004   0.01342  -0.01374
  73        3PX         0.00108  -0.00045   0.00020  -0.00172  -0.00330
  74        3PY        -0.00089  -0.00046   0.00035   0.00006   0.00083
  75        3PZ        -0.00029  -0.00024   0.00017  -0.00012   0.00008
  76        4S          0.00734   0.00160  -0.00108  -0.00547   0.00879
  77        4PX         0.00378  -0.00139   0.00105  -0.00142   0.00402
  78        4PY         0.00433   0.00039   0.00032  -0.00112   0.00172
  79        4PZ         0.00219   0.00005   0.00023  -0.00060   0.00109
  80        5S         -0.00903   0.00103   0.00101   0.00121   0.01162
  81        5PX        -0.00075   0.00038  -0.00127   0.00142   0.00178
  82        5PY        -0.00179  -0.00006   0.00026   0.00070   0.00094
  83        5PZ        -0.00084   0.00001   0.00000   0.00042   0.00056
  84        6D 0       -0.00011  -0.00001  -0.00001  -0.00043   0.00170
  85        6D+1        0.00009   0.00022   0.00004   0.00039  -0.00056
  86        6D-1       -0.00045  -0.00006   0.00005   0.00078  -0.00049
  87        6D+2        0.00104   0.00025  -0.00006  -0.00054  -0.00212
  88        6D-2        0.00001   0.00045   0.00010   0.00079  -0.00023
  89 5   H  1S          0.00015  -0.00012  -0.00009   0.00006   0.00017
  90        2S         -0.00134  -0.00076   0.00073  -0.00377  -0.00307
  91        3S         -0.00137   0.00053   0.00028   0.00166   0.00045
  92        4PX         0.00024   0.00003  -0.00003   0.00110   0.00056
  93        4PY        -0.00002  -0.00043   0.00011  -0.00162  -0.00136
  94        4PZ         0.00001  -0.00018   0.00005  -0.00060  -0.00054
  95 6   N  1S          0.45621   0.32023  -0.00006  -0.00003   0.00003
  96        2S          0.38122   0.26768  -0.00003  -0.00003   0.00005
  97        2PX         0.00081   0.00067   0.00045   0.00010  -0.00015
  98        2PY        -0.00047  -0.00032   0.00013  -0.00031   0.00019
  99        2PZ        -0.00013  -0.00008   0.00009  -0.00013   0.00007
 100        3S          0.01311   0.00873   0.00064   0.00068  -0.00047
 101        3PX         0.00118   0.00020  -0.00122  -0.00035   0.00043
 102        3PY        -0.00026  -0.00025  -0.00030   0.00082  -0.00014
 103        3PZ        -0.00001  -0.00009  -0.00023   0.00032  -0.00003
 104        4S         -0.01258  -0.00855  -0.00248  -0.00405  -0.00043
 105        4PX        -0.00232  -0.00194  -0.00114  -0.00074  -0.00075
 106        4PY         0.00122   0.00102  -0.00065   0.00101  -0.00062
 107        4PZ         0.00033   0.00027  -0.00038   0.00037  -0.00033
 108        5S          0.00480   0.00132   0.00764   0.00548  -0.00704
 109        5PX        -0.00024   0.00007   0.00314   0.00086  -0.00183
 110        5PY        -0.00152   0.00089   0.00088  -0.00100   0.00187
 111        5PZ        -0.00068   0.00039   0.00065  -0.00036   0.00065
 112        6D 0       -0.00026  -0.00007   0.00059   0.00032  -0.00027
 113        6D+1        0.00014   0.00004  -0.00036   0.00010  -0.00007
 114        6D-1        0.00021   0.00016  -0.00025  -0.00050   0.00027
 115        6D+2        0.00010  -0.00015  -0.00068   0.00045  -0.00009
 116        6D-2        0.00019   0.00008  -0.00047   0.00029  -0.00025
 117 7   H  1S         -0.00018  -0.00006  -0.00009   0.00006  -0.00017
 118        2S          0.00100  -0.00117   0.00073  -0.00378   0.00306
 119        3S          0.00146   0.00003   0.00028   0.00166  -0.00045
 120        4PX         0.00017  -0.00022   0.00006  -0.00152   0.00092
 121        4PY        -0.00019  -0.00035   0.00010  -0.00121   0.00113
 122        4PZ        -0.00007  -0.00017   0.00005  -0.00065   0.00057
 123 8   H  1S         -0.00005  -0.00029   0.00012  -0.00023  -0.00000
 124        2S         -0.00006  -0.00035  -0.00429   0.00163   0.00000
 125        3S          0.00027   0.00155   0.00111   0.00103   0.00000
 126        4PX         0.00046  -0.00000   0.00033  -0.00003   0.00009
 127        4PY         0.00002   0.00052   0.00223  -0.00019  -0.00002
 128        4PZ         0.00005   0.00023   0.00099  -0.00008   0.00000
                           6         7         8         9        10
                           O         O         O         O         O
     Eigenvalues --    -0.94335  -0.79365  -0.68469  -0.53576  -0.52762
   1 1   C  1S         -0.05912   0.00000   0.06759  -0.00001  -0.05725
   2        2S         -0.09068   0.00000   0.10475  -0.00001  -0.08953
   3        2PX        -0.00632   0.08577  -0.00039  -0.11646   0.01233
   4        2PY        -0.04296  -0.01331  -0.00270   0.01809   0.08373
   5        2PZ        -0.01912   0.00160  -0.00120  -0.00217   0.03726
   6        3S          0.23426  -0.00001  -0.28429   0.00003   0.24536
   7        3PX        -0.00952   0.12089  -0.00016  -0.16053   0.01690
   8        3PY        -0.06468  -0.01877  -0.00107   0.02494   0.11478
   9        3PZ        -0.02879   0.00225  -0.00048  -0.00299   0.05108
  10        4S          0.08856   0.00002  -0.16854   0.00002   0.20056
  11        4PX        -0.00035   0.01657   0.00168  -0.05466   0.00708
  12        4PY        -0.00237  -0.00258   0.01135   0.00850   0.04829
  13        4PZ        -0.00106   0.00030   0.00504  -0.00102   0.02150
  14        5S          0.06135   0.00003  -0.00473   0.00001   0.05576
  15        5PX        -0.00220  -0.00037  -0.00075  -0.02887  -0.00041
  16        5PY        -0.01497   0.00005  -0.00512   0.00448  -0.00280
  17        5PZ        -0.00666  -0.00001  -0.00228  -0.00054  -0.00124
  18        6D 0       -0.01116  -0.00035   0.00744   0.00016  -0.00195
  19        6D+1        0.00195  -0.01081  -0.00061   0.00492   0.00037
  20        6D-1        0.01017   0.00122  -0.00111  -0.00055   0.00205
  21        6D+2        0.00033  -0.00730  -0.01020   0.00332  -0.00042
  22        6D-2       -0.00030  -0.02359   0.00327   0.01074   0.00009
  23 2   N  1S         -0.06207  -0.07867   0.01635   0.02138   0.02977
  24        2S         -0.09717  -0.12381   0.02586   0.03405   0.04749
  25        2PX        -0.04856  -0.03519   0.01531   0.02288   0.00240
  26        2PY        -0.00371  -0.01231  -0.06064  -0.09051   0.05786
  27        2PZ        -0.00578  -0.00835  -0.02491  -0.03718   0.02523
  28        3S          0.26365   0.34278  -0.07357  -0.09662  -0.13617
  29        3PX        -0.07345  -0.05214   0.02206   0.03399   0.00465
  30        3PY        -0.00584  -0.01954  -0.08991  -0.13294   0.08431
  31        3PZ        -0.00883  -0.01293  -0.03700  -0.05458   0.03686
  32        4S          0.16579   0.24494  -0.04942  -0.09792  -0.12904
  33        4PX        -0.02522  -0.01935   0.00657   0.01975   0.00271
  34        4PY        -0.00239  -0.00601  -0.03636  -0.06980   0.04522
  35        4PZ        -0.00320  -0.00426  -0.01516  -0.02849   0.01979
  36        5S         -0.04998  -0.04208  -0.00238  -0.02468  -0.00883
  37        5PX         0.01254   0.00906  -0.00192   0.00054  -0.00095
  38        5PY        -0.00260   0.00671   0.00660   0.02121  -0.01078
  39        5PZ        -0.00004   0.00368   0.00269   0.00922  -0.00475
  40        6D 0       -0.00680  -0.00404   0.00133   0.00182   0.00066
  41        6D+1        0.00113   0.00076   0.00520   0.00462  -0.00342
  42        6D-1        0.00423   0.00537   0.00196   0.00240  -0.00092
  43        6D+2        0.00376  -0.00293  -0.00299  -0.00488  -0.00116
  44        6D-2       -0.00085   0.00048   0.01282   0.01199  -0.00732
  45 3   C  1S         -0.04271  -0.03560  -0.07006  -0.05427  -0.02606
  46        2S         -0.06551  -0.05490  -0.10857  -0.08494  -0.04074
  47        2PX        -0.00713   0.03467  -0.03534   0.06040  -0.06070
  48        2PY         0.03642   0.03300  -0.00734  -0.02623  -0.07628
  49        2PZ         0.01515   0.01725  -0.00620  -0.00616  -0.03820
  50        3S          0.16659   0.14351   0.28834   0.23028   0.10760
  51        3PX        -0.01006   0.05280  -0.04840   0.08309  -0.08606
  52        3PY         0.05313   0.05027  -0.00893  -0.03326  -0.10693
  53        3PZ         0.02212   0.02628  -0.00801  -0.00726  -0.05363
  54        4S          0.06550   0.07039   0.16635   0.19855   0.08929
  55        4PX        -0.00397   0.00698  -0.01770   0.02630  -0.03033
  56        4PY         0.00736   0.00586   0.00061  -0.00625  -0.04704
  57        4PZ         0.00284   0.00314  -0.00125  -0.00044  -0.02294
  58        5S         -0.00241   0.08919   0.00328   0.05332  -0.01834
  59        5PX         0.00075  -0.01058   0.00692   0.01077   0.00049
  60        5PY        -0.00039   0.01523  -0.00300   0.01753  -0.01022
  61        5PZ        -0.00010   0.00568  -0.00070   0.00852  -0.00438
  62        6D 0       -0.00749  -0.00270  -0.00777  -0.00392  -0.00155
  63        6D+1        0.00095   0.00463   0.00076  -0.00048  -0.00186
  64        6D-1        0.00949   0.00986   0.00166   0.00406  -0.00451
  65        6D+2       -0.00483  -0.01126   0.00982  -0.00139   0.00975
  66        6D-2       -0.00025   0.01109  -0.00300  -0.00252  -0.00635
  67 4   C  1S         -0.04271   0.03559  -0.07007   0.05426  -0.02608
  68        2S         -0.06551   0.05488  -0.10859   0.08492  -0.04077
  69        2PX         0.01728   0.02364   0.03165   0.06526   0.03605
  70        2PY         0.03264  -0.04205  -0.01773   0.00668  -0.09130
  71        2PZ         0.01560  -0.01616  -0.00495   0.00848  -0.03640
  72        3S          0.16660  -0.14345   0.28838  -0.23023   0.10768
  73        3PX         0.02488   0.03600   0.04367   0.08896   0.05146
  74        3PY         0.04771  -0.06405  -0.02321   0.00649  -0.12828
  75        3PZ         0.02277  -0.02461  -0.00630   0.01042  -0.05107
  76        4S          0.06552  -0.07034   0.16638  -0.19848   0.08937
  77        4PX         0.00592   0.00498   0.01709   0.02692   0.01545
  78        4PY         0.00583  -0.00771  -0.00479  -0.00203  -0.05414
  79        4PZ         0.00303  -0.00291  -0.00061   0.00142  -0.02209
  80        5S         -0.00242  -0.08920   0.00326  -0.05332  -0.01824
  81        5PX        -0.00083  -0.01448  -0.00748   0.00525  -0.00339
  82        5PY        -0.00015  -0.01134  -0.00076  -0.02003  -0.00960
  83        5PZ        -0.00013  -0.00615  -0.00097  -0.00822  -0.00444
  84        6D 0       -0.00745   0.00291  -0.00778   0.00384  -0.00146
  85        6D+1        0.00228   0.00180   0.00063  -0.00193   0.00093
  86        6D-1        0.00934  -0.01058   0.00167  -0.00379  -0.00483
  87        6D+2       -0.00393   0.01560   0.00973  -0.00023   0.01163
  88        6D-2        0.00267   0.00294  -0.00328  -0.00273  -0.00026
  89 5   H  1S          0.01036   0.01846   0.05120   0.09056   0.05445
  90        2S          0.01068   0.02032   0.06126   0.11730   0.06913
  91        3S         -0.00173  -0.00133   0.00589   0.03344   0.01030
  92        4PX        -0.00002   0.00027  -0.00673  -0.00577  -0.00848
  93        4PY         0.00175   0.00457   0.00636   0.01070   0.00430
  94        4PZ         0.00076   0.00200   0.00217   0.00413   0.00113
  95 6   N  1S         -0.06209   0.07866   0.01635  -0.02137   0.02978
  96        2S         -0.09718   0.12380   0.02585  -0.03403   0.04750
  97        2PX         0.04534  -0.03008  -0.03206   0.04787   0.01432
  98        2PY        -0.01829   0.02243  -0.05330   0.07955   0.05598
  99        2PZ        -0.00402   0.00712  -0.02580   0.03851   0.02544
 100        3S          0.26370  -0.34275  -0.07353   0.09656  -0.13620
 101        3PX         0.06850  -0.04419  -0.04692   0.07068   0.01976
 102        3PY        -0.02787   0.03448  -0.07923   0.11673   0.08192
 103        3PZ        -0.00618   0.01112  -0.03829   0.05654   0.03712
 104        4S          0.16582  -0.24494  -0.04937   0.09786  -0.12912
 105        4PX         0.02341  -0.01676  -0.01672   0.03893   0.01038
 106        4PY        -0.00994   0.01161  -0.03276   0.06072   0.04400
 107        4PZ        -0.00229   0.00358  -0.01560   0.02960   0.01992
 108        5S         -0.04997   0.04203  -0.00236   0.02468  -0.00890
 109        5PX        -0.01273   0.00671   0.00374  -0.00558  -0.00220
 110        5PY         0.00132  -0.00916   0.00572  -0.02043  -0.01057
 111        5PZ        -0.00052  -0.00339   0.00280  -0.00931  -0.00476
 112        6D 0       -0.00682   0.00403   0.00101  -0.00154   0.00087
 113        6D+1        0.00077  -0.00105  -0.00474   0.00414   0.00301
 114        6D-1        0.00427  -0.00534   0.00308  -0.00338  -0.00164
 115        6D+2        0.00352   0.00274  -0.00971   0.01079   0.00318
 116        6D-2       -0.00163  -0.00112  -0.00888   0.00712   0.00672
 117 7   H  1S          0.01036  -0.01846   0.05121  -0.09053   0.05448
 118        2S          0.01069  -0.02032   0.06127  -0.11727   0.06918
 119        3S         -0.00172   0.00133   0.00589  -0.03343   0.01032
 120        4PX         0.00052  -0.00106   0.00826  -0.00859   0.00934
 121        4PY         0.00167  -0.00445   0.00403  -0.00847   0.00154
 122        4PZ         0.00077  -0.00202   0.00245  -0.00440   0.00146
 123 8   H  1S          0.01594   0.00000  -0.05537   0.00001   0.11940
 124        2S          0.01399   0.00000  -0.06976   0.00001   0.15352
 125        3S         -0.00255   0.00000  -0.00895   0.00001   0.03580
 126        4PX        -0.00036   0.00471   0.00152  -0.00502  -0.00225
 127        4PY        -0.00246  -0.00073   0.01037   0.00078  -0.01533
 128        4PZ        -0.00109   0.00009   0.00461  -0.00009  -0.00682
                          11        12        13        14        15
                           O         O         O         O         O
     Eigenvalues --    -0.46055  -0.37733  -0.37430  -0.36191  -0.26821
   1 1   C  1S         -0.00912   0.00000  -0.00001   0.00892   0.02989
   2        2S         -0.01442   0.00000  -0.00001   0.01398   0.04822
   3        2PX        -0.00997   0.10790  -0.00918   0.02193   0.00222
   4        2PY        -0.06782  -0.01662  -0.04705   0.14962   0.01500
   5        2PZ        -0.03019   0.00190   0.10846   0.06666   0.00670
   6        3S          0.04099  -0.00002   0.00004  -0.05273  -0.14304
   7        3PX        -0.01445   0.15385  -0.01419   0.03040   0.00482
   8        3PY        -0.09835  -0.02369  -0.07265   0.20739   0.03266
   9        3PZ        -0.04378   0.00269   0.16754   0.09242   0.01457
  10        4S          0.04851   0.00001  -0.00003  -0.02344  -0.20943
  11        4PX        -0.00941   0.09795  -0.00994   0.01964   0.00618
  12        4PY        -0.06407  -0.01508  -0.05083   0.13416   0.04190
  13        4PZ        -0.02852   0.00170   0.11745   0.05980   0.01866
  14        5S          0.09659   0.00002   0.00009  -0.01623  -0.08569
  15        5PX        -0.00496   0.03270  -0.00167   0.00300   0.00325
  16        5PY        -0.03372  -0.00506  -0.00864   0.02060   0.02197
  17        5PZ        -0.01500   0.00058   0.01990   0.00919   0.00978
  18        6D 0       -0.00273   0.00002  -0.01441   0.00489  -0.00245
  19        6D+1        0.00114  -0.00009  -0.00204   0.00091  -0.00174
  20        6D-1        0.00797   0.00004  -0.01509   0.01009  -0.01569
  21        6D+2       -0.00957  -0.00007  -0.00783  -0.02582   0.03164
  22        6D-2        0.00289  -0.00021   0.00279   0.00802  -0.00977
  23 2   N  1S          0.02961   0.00931   0.00001   0.00611  -0.03555
  24        2S          0.04727   0.01484   0.00001   0.00976  -0.05696
  25        2PX        -0.07700  -0.00364  -0.00967   0.03394   0.12812
  26        2PY         0.03215   0.11374  -0.04837  -0.08960   0.05845
  27        2PZ         0.00730   0.04871   0.11242  -0.03575   0.03631
  28        3S         -0.13603  -0.04356  -0.00004  -0.02893   0.15971
  29        3PX        -0.11142  -0.00188  -0.01453   0.05012   0.18177
  30        3PY         0.04615   0.16561  -0.07275  -0.13013   0.08205
  31        3PZ         0.01039   0.07120   0.16905  -0.05184   0.05115
  32        4S         -0.15883  -0.06025   0.00002  -0.03433   0.27957
  33        4PX        -0.06688   0.00246  -0.01136   0.03134   0.14319
  34        4PY         0.02852   0.10514  -0.05682  -0.07783   0.07285
  35        4PZ         0.00659   0.04548   0.13186  -0.03086   0.04386
  36        5S         -0.07446  -0.03454  -0.00002  -0.01738   0.19543
  37        5PX         0.01550   0.00694  -0.00010   0.00443   0.03141
  38        5PY        -0.00967  -0.00608  -0.00066  -0.00741   0.01067
  39        5PZ        -0.00286  -0.00204   0.00145  -0.00282   0.00734
  40        6D 0       -0.00499  -0.00076  -0.00375   0.00225   0.00656
  41        6D+1        0.00271  -0.00724  -0.01704   0.00572  -0.00154
  42        6D-1       -0.00369  -0.00046  -0.00066   0.00553  -0.00388
  43        6D+2        0.01614  -0.00172   0.00080  -0.01071  -0.00422
  44        6D-2        0.00163  -0.01657   0.00755   0.01559  -0.00010
  45 3   C  1S         -0.00417  -0.00981  -0.00000  -0.01292  -0.00132
  46        2S         -0.00685  -0.01567  -0.00000  -0.02064  -0.00207
  47        2PX        -0.13855   0.00183  -0.00759  -0.02641  -0.11829
  48        2PY         0.04849  -0.11499  -0.03855   0.09513  -0.01638
  49        2PZ         0.00908  -0.04973   0.08853   0.03896  -0.01723
  50        3S          0.01868   0.03733   0.00000   0.06579   0.00689
  51        3PX        -0.19131   0.00032  -0.01163  -0.03248  -0.16702
  52        3PY         0.06524  -0.15886  -0.05899   0.13398  -0.03149
  53        3PZ         0.01180  -0.06891   0.13553   0.05528  -0.02794
  54        4S          0.00524   0.06090  -0.00004   0.05762  -0.01053
  55        4PX        -0.09488   0.00813  -0.00806  -0.01589  -0.10731
  56        4PY         0.04415  -0.09752  -0.04114   0.08583  -0.02824
  57        4PZ         0.01095  -0.04163   0.09443   0.03584  -0.02142
  58        5S         -0.03487   0.00695   0.00000   0.01770  -0.01147
  59        5PX        -0.01397  -0.01021  -0.00079  -0.00282  -0.01887
  60        5PY        -0.00235  -0.02283  -0.00389   0.01413  -0.00247
  61        5PZ        -0.00222  -0.01076   0.00882   0.00587  -0.00269
  62        6D 0       -0.00363  -0.00087   0.01083  -0.00135   0.00083
  63        6D+1       -0.00485  -0.01219  -0.00547   0.00231   0.00464
  64        6D-1        0.00039  -0.00080   0.01272  -0.00223  -0.01110
  65        6D+2        0.00257  -0.00356   0.00709   0.00748   0.02134
  66        6D-2       -0.01292  -0.02751   0.00076   0.00356   0.00764
  67 4   C  1S         -0.00417   0.00980   0.00002  -0.01293  -0.00132
  68        2S         -0.00685   0.01566   0.00003  -0.02065  -0.00206
  69        2PX         0.14631   0.03485  -0.00756   0.05254   0.10831
  70        2PY         0.00427   0.10950  -0.03824   0.08278  -0.05154
  71        2PZ         0.01437   0.05019   0.08868   0.04037  -0.01306
  72        3S          0.01867  -0.03729  -0.00010   0.06580   0.00687
  73        3PX         0.20153   0.04604  -0.01158   0.06950   0.15052
  74        3PY         0.00426   0.15196  -0.05855   0.11800  -0.08076
  75        3PZ         0.01909   0.06943   0.13573   0.05709  -0.02210
  76        4S          0.00517  -0.06087  -0.00006   0.05765  -0.01054
  77        4PX         0.10329   0.03584  -0.00803   0.03982   0.09439
  78        4PY         0.01337   0.09088  -0.04078   0.07709  -0.05951
  79        4PZ         0.01463   0.04221   0.09459   0.03683  -0.01771
  80        5S         -0.03497  -0.00697  -0.00012   0.01769  -0.01147
  81        5PX         0.01266  -0.00319  -0.00078   0.00676   0.01731
  82        5PY        -0.00651   0.02492  -0.00380   0.01262  -0.00806
  83        5PZ        -0.00172   0.01049   0.00886   0.00605  -0.00202
  84        6D 0       -0.00330   0.00007   0.01128  -0.00150   0.00044
  85        6D+1        0.00525  -0.01175   0.00856  -0.00259  -0.00724
  86        6D-1       -0.00075   0.00346   0.01044  -0.00169  -0.00976
  87        6D+2        0.00939  -0.01260   0.00493   0.00416   0.01333
  88        6D-2        0.00913  -0.02471  -0.00511  -0.00716  -0.01827
  89 5   H  1S         -0.07795   0.11154   0.00020  -0.07496  -0.05051
  90        2S         -0.10603   0.15845   0.00027  -0.11259  -0.08548
  91        3S         -0.02156   0.07149   0.00010  -0.05273  -0.07228
  92        4PX         0.00219  -0.00776  -0.00061   0.00505  -0.00538
  93        4PY        -0.01174   0.00505  -0.00297  -0.00555  -0.00503
  94        4PZ        -0.00489   0.00151   0.00690  -0.00196  -0.00264
  95 6   N  1S          0.02961  -0.00930  -0.00001   0.00612  -0.03556
  96        2S          0.04727  -0.01483  -0.00002   0.00977  -0.05697
  97        2PX         0.08281  -0.03620  -0.00963  -0.05815  -0.10566
  98        2PY         0.00734  -0.10751  -0.04868  -0.07518   0.09477
  99        2PZ         0.01026  -0.04978   0.11231  -0.03741   0.03189
 100        3S         -0.13604   0.04354   0.00006  -0.02894   0.15971
 101        3PX         0.11973  -0.04943  -0.01448  -0.08525  -0.15015
 102        3PY         0.01026  -0.15756  -0.07320  -0.10894   0.13363
 103        3PZ         0.01469  -0.07265   0.16890  -0.05429   0.04486
 104        4S         -0.15883   0.06023   0.00011  -0.03437   0.27959
 105        4PX         0.07211  -0.02789  -0.01127  -0.05231  -0.11592
 106        4PY         0.00694  -0.10111  -0.05710  -0.06474   0.11315
 107        4PZ         0.00917  -0.04633   0.13180  -0.03238   0.03895
 108        5S         -0.07447   0.03453   0.00009  -0.01742   0.19549
 109        5PX        -0.01760   0.00837  -0.00011  -0.00637  -0.02692
 110        5PY        -0.00454   0.00368  -0.00065  -0.00574   0.01977
 111        5PZ        -0.00349   0.00230   0.00147  -0.00303   0.00625
 112        6D 0       -0.00517   0.00032  -0.00268   0.00192   0.00661
 113        6D+1       -0.00288  -0.00706   0.01612  -0.00451  -0.00027
 114        6D-1       -0.00306   0.00208  -0.00608   0.00668  -0.00402
 115        6D+2        0.01237  -0.00794  -0.00428  -0.01763  -0.00336
 116        6D-2       -0.01057  -0.01463  -0.00635  -0.00679   0.00267
 117 7   H  1S         -0.07796  -0.11161  -0.00011  -0.07487  -0.05051
 118        2S         -0.10605  -0.15855  -0.00014  -0.11244  -0.08548
 119        3S         -0.02157  -0.07154  -0.00006  -0.05266  -0.07228
 120        4PX        -0.00547  -0.00887  -0.00060  -0.00641   0.00369
 121        4PY        -0.01055  -0.00246  -0.00298  -0.00377  -0.00644
 122        4PZ        -0.00503  -0.00183   0.00690  -0.00217  -0.00247
 123 8   H  1S         -0.04425   0.00007  -0.00010   0.14118  -0.04121
 124        2S         -0.05980   0.00011  -0.00016   0.20587  -0.06792
 125        3S          0.00497   0.00005  -0.00008   0.09981  -0.07625
 126        4PX         0.00105   0.00478  -0.00071  -0.00153   0.00001
 127        4PY         0.00716  -0.00074  -0.00361  -0.01036   0.00008
 128        4PZ         0.00318   0.00008   0.00839  -0.00460   0.00004
                          16        17        18        19        20
                           O         O         O         V         V
     Eigenvalues --    -0.23322  -0.22861  -0.19009   0.01899   0.03972
   1 1   C  1S          0.00000   0.00001  -0.00000   0.01109   0.01393
   2        2S          0.00001   0.00001  -0.00001   0.01909   0.02393
   3        2PX        -0.08569  -0.00015  -0.01224  -0.00409  -0.00775
   4        2PY         0.01332   0.00002  -0.06169  -0.02786  -0.05268
   5        2PZ        -0.00160   0.00002   0.14266  -0.01242  -0.02339
   6        3S         -0.00002  -0.00004   0.00002  -0.08259  -0.09912
   7        3PX        -0.12942  -0.00022  -0.01882  -0.00694  -0.01350
   8        3PY         0.02011   0.00004  -0.09482  -0.04727  -0.09177
   9        3PZ        -0.00241   0.00003   0.21928  -0.02105  -0.04076
  10        4S          0.00003  -0.00011   0.00006   0.15936   0.08725
  11        4PX        -0.03941  -0.00007  -0.01952  -0.02667   0.00282
  12        4PY         0.00613   0.00001  -0.09834  -0.18129   0.01943
  13        4PZ        -0.00075   0.00002   0.22752  -0.08081   0.00879
  14        5S          0.00011  -0.00009   0.00004   2.21764  -1.44794
  15        5PX        -0.00388  -0.00002  -0.00635  -0.01890   0.25192
  16        5PY         0.00058   0.00002  -0.03207  -0.12614   1.72489
  17        5PZ        -0.00009   0.00001   0.07418  -0.05599   0.76919
  18        6D 0        0.00044  -0.00106  -0.00265   0.00584   0.00218
  19        6D+1        0.01368  -0.03281  -0.00037  -0.00076  -0.00053
  20        6D-1       -0.00154   0.00536  -0.00277  -0.00319  -0.00327
  21        6D+2        0.00919   0.00505  -0.00145  -0.00392   0.00225
  22        6D-2        0.02971   0.01383   0.00051   0.00131  -0.00065
  23 2   N  1S         -0.02229  -0.00004   0.00000   0.01069   0.00449
  24        2S         -0.03575  -0.00007   0.00000   0.01765   0.00751
  25        2PX         0.18892   0.01424  -0.00425  -0.01264  -0.01584
  26        2PY         0.00602   0.06998  -0.02139  -0.00167   0.00978
  27        2PZ         0.01914  -0.16169   0.04940  -0.00182   0.00278
  28        3S          0.09583   0.00018  -0.00001  -0.05921  -0.02805
  29        3PX         0.27244   0.02125  -0.00633  -0.01933  -0.01995
  30        3PY         0.01091   0.10455  -0.03184  -0.00313   0.01233
  31        3PZ         0.02859  -0.24156   0.07355  -0.00302   0.00348
  32        4S          0.17173   0.00037  -0.00002  -0.13447   0.00382
  33        4PX         0.23867   0.02062  -0.00644   0.03906  -0.04351
  34        4PY         0.00433   0.10174  -0.03244   0.00503   0.00891
  35        4PZ         0.02283  -0.23509   0.07491   0.00551  -0.00002
  36        5S          0.08629   0.00019  -0.00005  -1.39241  -0.31095
  37        5PX         0.08339   0.00628  -0.00266   0.11602   0.17132
  38        5PY         0.00895   0.03088  -0.01339   0.09752  -0.15993
  39        5PZ         0.01120  -0.07124   0.03095   0.05221  -0.05507
  40        6D 0        0.00680   0.00643   0.01080   0.00202  -0.00023
  41        6D+1       -0.00310   0.01234  -0.00716   0.00102   0.00057
  42        6D-1       -0.00209   0.00444   0.01304  -0.00434  -0.00080
  43        6D+2       -0.00872   0.00151   0.00737   0.00521   0.00214
  44        6D-2       -0.00282  -0.00600   0.00152   0.00238   0.00088
  45 3   C  1S          0.02094   0.00003  -0.00000   0.01372  -0.00778
  46        2S          0.03360   0.00005  -0.00001   0.02319  -0.01292
  47        2PX        -0.00229   0.00661   0.01169  -0.01657   0.02097
  48        2PY        -0.03354   0.03341   0.05889   0.02871  -0.02708
  49        2PZ        -0.01455  -0.07740  -0.13612   0.01098  -0.00993
  50        3S         -0.10010  -0.00014   0.00002  -0.09095   0.04602
  51        3PX        -0.00666   0.01013   0.01779  -0.02859   0.03902
  52        3PY        -0.05643   0.05123   0.08960   0.04684  -0.05050
  53        3PZ        -0.02475  -0.11872  -0.20712   0.01779  -0.01852
  54        4S         -0.15903  -0.00023   0.00004   0.04951  -0.03433
  55        4PX         0.04233   0.01017   0.01860   0.00778  -0.02413
  56        4PY        -0.02962   0.05112   0.09386   0.09161   0.00321
  57        4PZ        -0.00895  -0.11832  -0.21690   0.04022  -0.00074
  58        5S         -0.02486  -0.00010  -0.00008   0.96557   1.01342
  59        5PX         0.01314   0.00279   0.00572   0.58342  -0.48776
  60        5PY         0.00321   0.01390   0.02880  -0.22432   0.97138
  61        5PZ         0.00258  -0.03213  -0.06656  -0.04679   0.37829
  62        6D 0       -0.00206  -0.01309   0.00466   0.00555  -0.00027
  63        6D+1        0.00280  -0.01561   0.01577  -0.00277  -0.00131
  64        6D-1       -0.00958  -0.01099   0.00189  -0.00351  -0.00060
  65        6D+2        0.02230  -0.00472  -0.00005  -0.00392   0.00080
  66        6D-2        0.00204   0.00826  -0.00718  -0.00338  -0.00317
  67 4   C  1S         -0.02094  -0.00004  -0.00000   0.01372  -0.00777
  68        2S         -0.03360  -0.00006  -0.00000   0.02319  -0.01290
  69        2PX         0.00749  -0.00658   0.01164   0.02408  -0.02779
  70        2PY         0.03273  -0.03338   0.05889   0.02239  -0.01947
  71        2PZ         0.01464   0.07733  -0.13617   0.01175  -0.01078
  72        3S          0.10011   0.00018  -0.00000  -0.09093   0.04593
  73        3PX         0.00990  -0.01010   0.01772   0.04077  -0.05173
  74        3PY         0.05593  -0.05119   0.08961   0.03606  -0.03634
  75        3PZ         0.02479   0.11862  -0.20719   0.01909  -0.02011
  76        4S          0.15904   0.00023   0.00001   0.04967  -0.03408
  77        4PX         0.04898  -0.01004   0.01858   0.01903   0.02408
  78        4PY         0.01545  -0.05111   0.09384   0.08989  -0.00419
  79        4PZ         0.01064   0.11822  -0.21699   0.04050   0.00034
  80        5S          0.02477   0.00013   0.00012   0.96745   0.99801
  81        5PX         0.01164  -0.00272   0.00573  -0.62103   0.73976
  82        5PY        -0.00708  -0.01389   0.02879  -0.03731   0.77979
  83        5PZ        -0.00213   0.03211  -0.06660  -0.06938   0.40133
  84        6D 0        0.00230   0.01219   0.00368   0.00568  -0.00020
  85        6D+1        0.00473  -0.01205  -0.01458   0.00115   0.00115
  86        6D-1        0.00872   0.01551   0.00684  -0.00395  -0.00088
  87        6D+2       -0.01726   0.00897   0.00459  -0.00128   0.00246
  88        6D-2        0.01426   0.00338   0.00557   0.00518   0.00216
  89 5   H  1S         -0.00293  -0.00002  -0.00000  -0.01495   0.01743
  90        2S         -0.00442  -0.00002   0.00001   0.04493   0.00506
  91        3S         -0.01285  -0.00003   0.00001  -0.32383   0.27503
  92        4PX        -0.00159   0.00059   0.00110   0.00543  -0.00197
  93        4PY        -0.00020   0.00301   0.00554  -0.00849   0.01019
  94        4PZ        -0.00021  -0.00696  -0.01281  -0.00321   0.00424
  95 6   N  1S          0.02228   0.00003   0.00001   0.01070   0.00452
  96        2S          0.03573   0.00005   0.00001   0.01766   0.00755
  97        2PX         0.17874  -0.01358  -0.00422   0.01160   0.01802
  98        2PY        -0.06309  -0.07004  -0.02135  -0.00544   0.00450
  99        2PZ        -0.01230   0.16172   0.04935  -0.00137   0.00337
 100        3S         -0.09577  -0.00013  -0.00003  -0.05923  -0.02818
 101        3PX         0.25711  -0.02031  -0.00628   0.01758   0.02273
 102        3PY        -0.09311  -0.10463  -0.03179  -0.00886   0.00567
 103        3PZ        -0.01872   0.24160   0.07347  -0.00234   0.00420
 104        4S         -0.17168  -0.00025  -0.00004  -0.13457   0.00367
 105        4PX         0.22673  -0.01979  -0.00640  -0.03589   0.04419
 106        4PY        -0.07659  -0.10182  -0.03238   0.01666  -0.00471
 107        4PZ        -0.01416   0.23516   0.07483   0.00412   0.00156
 108        5S         -0.08632  -0.00000  -0.00007  -1.39263  -0.31335
 109        5PX         0.07705  -0.00594  -0.00265  -0.08283  -0.20949
 110        5PY        -0.03391  -0.03091  -0.01337   0.12825  -0.10100
 111        5PZ        -0.00822   0.07129   0.03094   0.04837  -0.06250
 112        6D 0       -0.00695  -0.00567   0.01137   0.00192  -0.00027
 113        6D+1       -0.00165   0.01063   0.01029  -0.00228  -0.00072
 114        6D-1        0.00263  -0.00820   0.01019  -0.00396  -0.00066
 115        6D+2        0.00554  -0.00504   0.00470   0.00298   0.00128
 116        6D-2       -0.00745  -0.00367  -0.00581  -0.00483  -0.00194
 117 7   H  1S          0.00292  -0.00001   0.00001  -0.01495   0.01741
 118        2S          0.00438  -0.00002   0.00002   0.04496   0.00509
 119        3S          0.01283  -0.00002   0.00002  -0.32379   0.27466
 120        4PX        -0.00146  -0.00060   0.00110  -0.00763   0.00480
 121        4PY         0.00068  -0.00301   0.00554  -0.00646   0.00914
 122        4PZ         0.00015   0.00695  -0.01281  -0.00345   0.00437
 123 8   H  1S          0.00000  -0.00001   0.00000  -0.01612  -0.02608
 124        2S          0.00000  -0.00001  -0.00002   0.06729   0.01786
 125        3S          0.00002  -0.00003  -0.00001  -0.28308  -0.54687
 126        4PX        -0.00529  -0.00001  -0.00112   0.00083   0.00234
 127        4PY         0.00082   0.00000  -0.00563   0.00568   0.01596
 128        4PZ        -0.00010   0.00000   0.01302   0.00253   0.00712
                          21        22        23        24        25
                           V         V         V         V         V
     Eigenvalues --     0.04452   0.04644   0.06511   0.06542   0.06586
   1 1   C  1S          0.00001  -0.00002   0.01894  -0.00007  -0.00010
   2        2S          0.00002  -0.00003   0.03021  -0.00011  -0.00017
   3        2PX         0.01064  -0.00449  -0.00356  -0.01058   0.00011
   4        2PY        -0.00171  -0.02262  -0.02400   0.00173   0.00010
   5        2PZ         0.00021   0.05248  -0.01062  -0.00015   0.00005
   6        3S         -0.00008   0.00013  -0.06858   0.00026   0.00038
   7        3PX         0.01618  -0.00684  -0.00771   0.00566  -0.00001
   8        3PY        -0.00262  -0.03440  -0.05258  -0.00069   0.00026
   9        3PZ         0.00032   0.07983  -0.02332   0.00020   0.00011
  10        4S          0.00018  -0.00023  -0.59102   0.00181   0.00330
  11        4PX        -0.02584  -0.01283   0.01557  -0.36905   0.00301
  12        4PY         0.00399  -0.06538   0.11426   0.05694  -0.00113
  13        4PZ        -0.00040   0.15173   0.05104  -0.00700  -0.00025
  14        5S         -0.00163   0.00223   0.03632  -0.00066  -0.00177
  15        5PX         1.01145  -0.09630   0.17486  -2.70273   0.02071
  16        5PY        -0.15567  -0.48420   1.24824   0.41535  -0.00935
  17        5PZ         0.02012   1.11436   0.55523  -0.05225  -0.00235
  18        6D 0        0.00001   0.01406  -0.00680  -0.00005  -0.00087
  19        6D+1       -0.00003   0.00198   0.00107  -0.00211  -0.02800
  20        6D-1        0.00001   0.01473   0.00661   0.00023   0.00455
  21        6D+2       -0.00000   0.00765  -0.00046  -0.00122   0.00430
  22        6D-2       -0.00003  -0.00272   0.00007  -0.00398   0.01179
  23 2   N  1S          0.00970  -0.00001  -0.01737  -0.01449   0.00021
  24        2S          0.01618  -0.00002  -0.02846  -0.02370   0.00035
  25        2PX        -0.04099   0.00722  -0.00030   0.01869   0.00731
  26        2PY        -0.01036   0.03620  -0.00559   0.00536   0.03760
  27        2PZ        -0.00811  -0.08370  -0.00306   0.00305  -0.08697
  28        3S         -0.05878   0.00006   0.09118   0.07244  -0.00108
  29        3PX        -0.06528   0.01140   0.00048   0.03491   0.01086
  30        3PY        -0.01534   0.05716  -0.01036   0.01177   0.05612
  31        3PZ        -0.01240  -0.13216  -0.00535   0.00678  -0.12985
  32        4S         -0.00482   0.00004   0.22759   0.26833  -0.00352
  33        4PX        -0.05155   0.01107  -0.07539  -0.09412   0.01632
  34        4PY        -0.00788   0.05550   0.01035  -0.02970   0.07638
  35        4PZ        -0.00805  -0.12834  -0.00326  -0.02265  -0.17592
  36        5S         -0.89581   0.00024   2.47556   3.23203  -0.04075
  37        5PX        -0.17816   0.05095  -0.31838  -0.51891   0.04855
  38        5PY         0.04838   0.25598  -0.47761   0.75277   0.21034
  39        5PZ         0.00517  -0.59197  -0.23736   0.27578  -0.49515
  40        6D 0       -0.00168   0.00494  -0.00311   0.00017  -0.00784
  41        6D+1        0.00090   0.00220   0.00175  -0.00090   0.00320
  42        6D-1       -0.00042   0.00488   0.00147  -0.00101  -0.00908
  43        6D+2        0.00393   0.00243   0.00303   0.00081  -0.00504
  44        6D-2        0.00074  -0.00158   0.00220  -0.00212  -0.00026
  45 3   C  1S          0.01137  -0.00001   0.00693   0.01762  -0.00019
  46        2S          0.01904  -0.00001   0.01060   0.02847  -0.00030
  47        2PX        -0.00836   0.00083  -0.01433  -0.01233  -0.00976
  48        2PY         0.03444   0.00423   0.01057   0.00788  -0.05028
  49        2PZ         0.01420  -0.00977   0.00415   0.00350   0.11585
  50        3S         -0.07197   0.00003  -0.01266  -0.07155   0.00068
  51        3PX        -0.02616   0.00086  -0.02133  -0.02181  -0.01455
  52        3PY         0.05999   0.00445   0.02621   0.01414  -0.07523
  53        3PZ         0.02375  -0.01023   0.01068   0.00595   0.17313
  54        4S          0.02820   0.00015  -0.33802  -0.67338   0.00736
  55        4PX        -0.00377   0.00234  -0.10918   0.21178  -0.03133
  56        4PY         0.03862   0.01206  -0.02347  -0.25003  -0.15008
  57        4PZ         0.01639  -0.02776  -0.01703  -0.08651   0.35297
  58        5S         -9.16691   0.00782  -1.60018  -5.17894   0.06205
  59        5PX         3.26938  -0.03619  -0.39096   1.87699  -0.15211
  60        5PY        -0.94866  -0.16975  -1.05715  -1.36168  -0.66990
  61        5PZ        -0.12863   0.39167  -0.48100  -0.41187   1.59949
  62        6D 0       -0.00101  -0.01229  -0.00682   0.00142  -0.00717
  63        6D+1        0.00045  -0.00601   0.00376   0.00064   0.01580
  64        6D-1       -0.00120  -0.01201   0.01003  -0.00176  -0.01090
  65        6D+2        0.00400  -0.00596  -0.00566   0.00088  -0.00678
  66        6D-2       -0.00001   0.00416   0.00635   0.00158  -0.00566
  67 4   C  1S         -0.01138   0.00001   0.00682  -0.01767   0.00011
  68        2S         -0.01906   0.00002   0.01042  -0.02854   0.00018
  69        2PX        -0.01793   0.00088   0.01671  -0.01410   0.00997
  70        2PY        -0.03040   0.00426   0.00627  -0.00381   0.05013
  71        2PZ        -0.01473  -0.00975   0.00343  -0.00403  -0.11590
  72        3S          0.07206  -0.00007  -0.01220   0.07163  -0.00053
  73        3PX        -0.04231   0.00096   0.02787  -0.02500   0.01492
  74        3PY        -0.04943   0.00449   0.01933  -0.00700   0.07490
  75        3PZ        -0.02507  -0.01020   0.00967  -0.00690  -0.17325
  76        4S         -0.02822  -0.00012  -0.33388   0.67559  -0.00373
  77        4PX        -0.01464   0.00238   0.09937   0.27368   0.02741
  78        4PY        -0.03573   0.01197  -0.05282   0.17497   0.15104
  79        4PZ        -0.01682  -0.02780  -0.01646   0.09552  -0.35292
  80        5S          9.16902  -0.01165  -1.56717   5.18853  -0.04331
  81        5PX         3.39720  -0.03762   0.08480   2.18426   0.11503
  82        5PY        -0.08446  -0.17047  -1.11687   0.73794   0.68834
  83        5PZ         0.25362   0.39111  -0.48600   0.49045  -1.59456
  84        6D 0        0.00103  -0.01201  -0.00688  -0.00132   0.00832
  85        6D+1        0.00060   0.00259  -0.00020   0.00123   0.01800
  86        6D-1        0.00106  -0.01343   0.01057   0.00147   0.00526
  87        6D+2       -0.00330  -0.00727  -0.00832   0.00019   0.00167
  88        6D-2        0.00228   0.00054  -0.00238   0.00177  -0.00860
  89 5   H  1S         -0.01559  -0.00000   0.00126   0.00216  -0.00001
  90        2S          0.02316  -0.00001   0.06900   0.01599  -0.00050
  91        3S         -0.26616   0.00006  -0.06652  -0.28718   0.00297
  92        4PX         0.01092  -0.00045  -0.00656   0.00517  -0.00197
  93        4PY        -0.00615  -0.00223  -0.00663  -0.00826  -0.00976
  94        4PZ        -0.00171   0.00513  -0.00328  -0.00290   0.02286
  95 6   N  1S         -0.00969  -0.00000  -0.01728   0.01460  -0.00002
  96        2S         -0.01616  -0.00000  -0.02831   0.02388  -0.00004
  97        2PX        -0.03615   0.00718  -0.00129   0.01629  -0.00756
  98        2PY         0.02240   0.03618  -0.00591  -0.01075  -0.03750
  99        2PZ         0.00658  -0.08371  -0.00215  -0.00240   0.08699
 100        3S          0.05872   0.00001   0.09074  -0.07300   0.00008
 101        3PX        -0.05791   0.01134  -0.00335   0.02994  -0.01132
 102        3PY         0.03456   0.05714  -0.01051  -0.02175  -0.05593
 103        3PZ         0.00996  -0.13218  -0.00405  -0.00557   0.12989
 104        4S          0.00478   0.00015   0.22594  -0.26984   0.00103
 105        4PX        -0.04692   0.01109   0.07435  -0.08190  -0.01479
 106        4PY         0.02326   0.05549  -0.01348   0.05704  -0.07664
 107        4PZ         0.00605  -0.12837   0.00159   0.01935   0.17595
 108        5S          0.89512   0.00124   2.45515  -3.24675   0.01405
 109        5PX        -0.18444   0.05137   0.16195  -0.71300  -0.03719
 110        5PY         0.00789   0.25582  -0.55875  -0.55779  -0.20611
 111        5PZ        -0.01263  -0.59190  -0.22491  -0.29730   0.49793
 112        6D 0        0.00174   0.00484  -0.00311  -0.00020   0.00815
 113        6D+1        0.00076  -0.00082  -0.00091  -0.00059   0.00547
 114        6D-1        0.00024   0.00538   0.00186   0.00117   0.00765
 115        6D+2       -0.00280   0.00290   0.00126  -0.00188   0.00370
 116        6D-2        0.00287  -0.00031  -0.00366  -0.00129  -0.00334
 117 7   H  1S          0.01562  -0.00002   0.00125  -0.00216   0.00000
 118        2S         -0.02317   0.00002   0.06886  -0.01645  -0.00025
 119        3S          0.26671  -0.00033  -0.06466   0.28768  -0.00212
 120        4PX         0.01221  -0.00045   0.00442   0.00729   0.00186
 121        4PY         0.00257  -0.00223  -0.00818   0.00637   0.00986
 122        4PZ         0.00215   0.00513  -0.00331   0.00315  -0.02282
 123 8   H  1S         -0.00002   0.00002   0.00898  -0.00003  -0.00005
 124        2S          0.00001  -0.00009   0.09723  -0.00033  -0.00051
 125        3S         -0.00046   0.00045  -0.22012   0.00083   0.00107
 126        4PX         0.00629  -0.00137   0.00133  -0.00939   0.00007
 127        4PY        -0.00097  -0.00687   0.00925   0.00142  -0.00006
 128        4PZ         0.00013   0.01585   0.00412  -0.00019  -0.00002
                          26        27        28        29        30
                           V         V         V         V         V
     Eigenvalues --     0.08395   0.08618   0.10119   0.11514   0.11952
   1 1   C  1S         -0.00000   0.00381  -0.00001   0.00000  -0.00000
   2        2S         -0.00000   0.00729  -0.00001   0.00000  -0.00000
   3        2PX        -0.01154   0.00146   0.01232  -0.02194   0.00005
   4        2PY        -0.05819   0.00995   0.06217   0.00338  -0.00002
   5        2PZ         0.13468   0.00404  -0.14375  -0.00038   0.00003
   6        3S         -0.00006  -0.04683   0.00005  -0.00000   0.00001
   7        3PX        -0.01639   0.00402   0.01544  -0.05246   0.00013
   8        3PY        -0.08263   0.02735   0.07793   0.00812  -0.00004
   9        3PZ         0.19133   0.01164  -0.18020  -0.00095   0.00004
  10        4S          0.00069   0.12140  -0.00002  -0.00009   0.00002
  11        4PX        -0.04077   0.00921   0.04916   0.05276  -0.00009
  12        4PY        -0.20504   0.06282   0.24779  -0.00830  -0.00004
  13        4PZ         0.47426   0.02656  -0.57293   0.00116   0.00009
  14        5S          0.01313   6.49935  -0.00028  -0.00047   0.00066
  15        5PX        -0.04715  -0.28650  -0.11254   4.18220  -0.00870
  16        5PY        -0.23999  -1.95025  -0.57342  -0.64876   0.00128
  17        5PZ         0.54189  -0.86815   1.32514   0.07751  -0.00053
  18        6D 0        0.00892   0.01253   0.00142   0.00006  -0.00040
  19        6D+1        0.00125  -0.00201   0.00020   0.00177  -0.01230
  20        6D-1        0.00930  -0.00991   0.00150  -0.00020   0.00201
  21        6D+2        0.00485  -0.00309   0.00077   0.00122   0.00188
  22        6D-2       -0.00172   0.00118  -0.00028   0.00394   0.00515
  23 2   N  1S          0.00000  -0.00250  -0.00000  -0.00609   0.00001
  24        2S          0.00001  -0.00372  -0.00000  -0.01035   0.00002
  25        2PX         0.00878   0.00890  -0.00364   0.01564   0.00124
  26        2PY         0.04409  -0.01367  -0.01836  -0.01807   0.00653
  27        2PZ        -0.10199  -0.00493   0.04243  -0.00653  -0.01501
  28        3S         -0.00003   0.00171   0.00002   0.04129  -0.00009
  29        3PX         0.01217   0.00876  -0.00491   0.02612   0.00193
  30        3PY         0.06117  -0.02697  -0.02475  -0.03540   0.01016
  31        3PZ        -0.14155  -0.01061   0.05721  -0.01317  -0.02332
  32        4S         -0.00003   0.09444   0.00002  -0.00266  -0.00010
  33        4PX         0.02403   0.01605  -0.01163  -0.00551   0.00441
  34        4PY         0.12058   0.02454  -0.05840  -0.00397   0.02192
  35        4PZ        -0.27862   0.01264   0.13492  -0.00237  -0.05058
  36        5S         -0.00350  -1.56701   0.00177   2.43219  -0.00510
  37        5PX         0.02188   0.43370  -0.00895   0.03035   0.02250
  38        5PY         0.10688  -0.58023  -0.04542  -1.65465   0.11760
  39        5PZ        -0.24895  -0.21357   0.10361  -0.71416  -0.26258
  40        6D 0        0.00346   0.00614  -0.00495   0.00011  -0.00880
  41        6D+1       -0.00771  -0.00175   0.00770   0.00141  -0.00611
  42        6D-1        0.00523  -0.00313  -0.00685   0.00031  -0.00825
  43        6D+2        0.00327  -0.00510  -0.00413  -0.00007  -0.00396
  44        6D-2        0.00274  -0.00068  -0.00253   0.00331   0.00372
  45 3   C  1S          0.00001   0.00543   0.00000   0.00451  -0.00000
  46        2S          0.00002   0.00860   0.00000   0.00682  -0.00001
  47        2PX        -0.00679   0.03100  -0.00142  -0.00764  -0.01123
  48        2PY        -0.03461  -0.01254  -0.00703   0.01573  -0.05675
  49        2PZ         0.07999  -0.00288   0.01628   0.00652   0.13112
  50        3S         -0.00006  -0.02054  -0.00000   0.00272  -0.00006
  51        3PX        -0.00801   0.03400  -0.00123   0.00278  -0.01392
  52        3PY        -0.04087  -0.02633  -0.00608   0.04504  -0.07030
  53        3PZ         0.09441  -0.00860   0.01412   0.02018   0.16228
  54        4S          0.00004  -0.10965  -0.00005  -0.25307   0.00094
  55        4PX        -0.02566   0.10096  -0.00562  -0.11866  -0.05098
  56        4PY        -0.13080   0.00580  -0.02777  -0.09326  -0.25719
  57        4PZ         0.30260   0.01073   0.06399  -0.04888   0.59568
  58        5S         -0.01015  -2.01056  -0.00397  -6.46644  -0.00511
  59        5PX         0.03755  -1.52713   0.05334  -1.97208   0.12873
  60        5PY         0.19201  -0.41938   0.26418  -5.58920   0.61266
  61        5PZ        -0.44742  -0.31128  -0.61696  -2.58977  -1.38487
  62        6D 0       -0.00752   0.01280   0.00752   0.00175   0.00128
[...]
     16  0.952326D-02 -0.345616D-01  0.124738D-01  0.853021D-03 -0.103962D+00
     17 -0.142276D-01  0.747359D-01 -0.376210D-01 -0.177956D-01  0.470073D-01
     18  0.266136D-01  0.277743D-01 -0.231442D-01  0.107337D-01  0.174454D-01
     19 -0.169468D-02 -0.413793D-02 -0.189185D-01 -0.835081D-02 -0.214140D+00
     20 -0.209066D-02  0.482597D-02  0.695377D-02  0.434632D-02 -0.118926D+00
     21  0.599219D-02  0.191843D-02  0.231869D-02 -0.980133D-03 -0.677753D-01
     22  0.112368D-01 -0.378705D-02  0.318579D-02  0.572910D-03 -0.534246D-02
     23 -0.471611D-02  0.372724D-02 -0.145462D-03 -0.216631D-02 -0.198374D-02
     24 -0.619043D-02  0.807040D-03 -0.220624D-02  0.470505D-02 -0.179962D-02
               11            12            13            14            15 
     11  0.545806D+00
     12  0.193395D+00  0.214313D+00
     13  0.207650D-01  0.921941D-02  0.135443D+00
     14  0.189077D-02  0.149780D-02 -0.128906D+00  0.241339D+00
     15  0.352595D-02 -0.722486D-03 -0.457415D-01  0.847135D-01  0.525805D-01
     16  0.309804D-01  0.105269D-01 -0.538446D-02 -0.929970D-04 -0.110249D-02
     17 -0.229488D+00 -0.652270D-01  0.372930D-02  0.131579D-02 -0.215939D-02
     18 -0.665607D-01 -0.964245D-01  0.545305D-03 -0.248359D-02  0.600942D-02
     19 -0.122148D+00 -0.691682D-01 -0.310795D-03  0.635721D-03  0.402749D-03
     20 -0.145527D+00 -0.632124D-01 -0.744794D-03 -0.585663D-03  0.463156D-03
     21 -0.634851D-01 -0.562708D-01 -0.192927D-03  0.581110D-03 -0.156847D-02
     22 -0.143486D-02 -0.156001D-02  0.929079D-03  0.108489D-02  0.435585D-03
     23  0.148590D-02 -0.194089D-02 -0.443142D-03 -0.520173D-03 -0.845239D-03
     24 -0.190121D-02  0.461542D-02 -0.226853D-03 -0.712518D-03  0.101289D-02
               16            17            18            19            20 
     16  0.503546D+00
     17 -0.110801D-01  0.400959D+00
     18  0.294550D-01  0.128849D+00  0.159542D+00
     19  0.104682D-01  0.530196D-02  0.374921D-02  0.214416D+00
     20 -0.218090D-01 -0.154973D-01 -0.572322D-02  0.133669D+00  0.157958D+00
     21 -0.798394D-02 -0.341069D-02 -0.872073D-02  0.744371D-01  0.711463D-01
     22 -0.167465D-02 -0.280619D-01 -0.118410D-01  0.634263D-03 -0.142209D-02
     23 -0.117906D-02 -0.746843D-02 -0.111698D-02  0.107473D-03 -0.210372D-03
     24 -0.217645D-03 -0.343501D-02 -0.660142D-02 -0.138373D-04 -0.792588D-03
               21            22            23            24 
     21  0.571408D-01
     22 -0.675041D-03  0.627299D-01
     23 -0.661361D-03  0.346346D-01  0.295479D+00
     24  0.997222D-03  0.185464D-01  0.121589D+00  0.752639D-01
 Leave Link  716 at Fri Jun  2 11:11:59 2023, MaxMem=  7381975040 cpu:               0.1 elap:               2.0
 (Enter /software/commercial/gaussian/g16/AVX/g16/l103.exe)

 GradGradGradGradGradGradGradGradGradGradGradGradGradGradGradGradGradGrad
 Berny optimization.
 Search for a local minimum.
 Step number   1 out of a maximum of    2
 All quantities printed in internal units (Hartrees-Bohrs-Radians)
 Second derivative matrix not updated -- analytic derivatives used.
 ITU=  0
     Eigenvalues ---    0.02936   0.03628   0.05055   0.06422   0.06622
     Eigenvalues ---    0.13266   0.20881   0.21225   0.23444   0.26127
     Eigenvalues ---    0.33084   0.56851   0.66990   0.77074   0.87330
     Eigenvalues ---    0.99617   1.08768   1.21772
 Angle between quadratic step and forces=  35.42 degrees.
 Linear search not attempted -- first point.
 B after Tr=     0.000000    0.000011    0.000006
         Rot=    1.000000   -0.000000    0.000000    0.000000 Ang=  -0.00 deg.
 Variable       Old X    -DE/DX   Delta X   Delta X   Delta X     New X
                                 (Linear)    (Quad)   (Total)
    X1       -4.27436   0.00000   0.00000   0.00001   0.00001  -4.27435
    Y1        6.47802   0.00001   0.00000   0.00004   0.00005   6.47808
    Z1        0.60886   0.00001   0.00000   0.00002   0.00003   0.60889
    X2       -2.32449   0.00004   0.00000   0.00007   0.00007  -2.32442
    Y2        4.91516   0.00005   0.00000   0.00007   0.00009   4.91524
    Z2        0.10026   0.00003   0.00000   0.00004   0.00004   0.10031
    X3       -3.48684   0.00000   0.00000   0.00000   0.00000  -3.48683
    Y3        2.81915  -0.00005   0.00000  -0.00008  -0.00007   2.81908
    Z3       -0.90620  -0.00003   0.00000  -0.00004  -0.00003  -0.90623
    X4       -6.07817  -0.00001   0.00000  -0.00003  -0.00003  -6.07819
    Y4        3.22134  -0.00005   0.00000  -0.00008  -0.00007   3.22128
    Z4       -0.95425  -0.00003   0.00000  -0.00004  -0.00003  -0.95429
    X5       -2.42011   0.00001   0.00000   0.00001   0.00001  -2.42010
    Y5        1.18566  -0.00001   0.00000  -0.00012  -0.00011   1.18555
    Z5       -1.52116  -0.00001   0.00000  -0.00005  -0.00005  -1.52120
    X6       -6.58623  -0.00003   0.00000  -0.00005  -0.00004  -6.58628
    Y6        5.57684   0.00006   0.00000   0.00009   0.00010   5.57695
    Z6        0.02086   0.00002   0.00000   0.00003   0.00004   0.02090
    X7       -7.56676  -0.00001   0.00000  -0.00004  -0.00004  -7.56680
    Y7        1.98446  -0.00001   0.00000  -0.00012  -0.00011   1.98435
    Z7       -1.61651  -0.00001   0.00000  -0.00005  -0.00005  -1.61655
    X8       -4.00155   0.00000   0.00000   0.00002   0.00002  -4.00153
    Y8        8.33333   0.00002   0.00000   0.00009   0.00011   8.33343
    Z8        1.43441   0.00001   0.00000   0.00004   0.00005   1.43445
         Item               Value     Threshold  Converged?
 Maximum Force            0.000055     0.000450     YES
 RMS     Force            0.000027     0.000300     YES
 Maximum Displacement     0.000109     0.001800     YES
 RMS     Displacement     0.000060     0.001200     YES
 Predicted change in Energy=-1.589144D-08
 Optimization completed.
    -- Stationary point found.
 GradGradGradGradGradGradGradGradGradGradGradGradGradGradGradGradGradGrad

 Leave Link  103 at Fri Jun  2 11:12:02 2023, MaxMem=  7381975040 cpu:               2.1 elap:               2.6
 (Enter /software/commercial/gaussian/g16/AVX/g16/l9999.exe)

 ----------------------------------------------------------------------

 Electric dipole moment (input orientation):
 (Debye = 10**-18 statcoulomb cm , SI units = C m)
                  (au)            (Debye)         (10**-30 SI)
   Tot        0.686662D+01      0.174532D+02      0.582177D+02
   x          0.445910D+01      0.113339D+02      0.378059D+02
   y         -0.522153D+01     -0.132718D+02     -0.442700D+02
   z         -0.498501D-01     -0.126706D+00     -0.422647D+00

 Dipole polarizability, Alpha (input orientation).
 (esu units = cm**3 , SI units = C**2 m**2 J**-1)
 Alpha(0;0):
               (au)            (10**-24 esu)      (10**-40 SI)
   iso        0.749641D+02      0.111085D+02      0.123599D+02
   aniso      0.312761D+02      0.463465D+01      0.515674D+01
   xx         0.868249D+02      0.128661D+02      0.143155D+02
   yx        -0.144902D+01     -0.214722D+00     -0.238911D+00
   yy         0.790727D+02      0.117174D+02      0.130373D+02
   zx         0.217165D+01      0.321806D+00      0.358057D+00
   zy         0.106282D+02      0.157493D+01      0.175235D+01
   zz         0.589946D+02      0.874209D+01      0.972689D+01

 First dipole hyperpolarizability, Beta (input orientation).
 ||, _|_  parallel and perpendicular components, (z) with respect to z axis,
 vector components x,y,z.  Values do not include the 1/n! factor of 1/2.
 (esu units = statvolt**-1 cm**4 , SI units = C**3 m**3 J**-2)
 Beta(0;0,0):
               (au)            (10**-30 esu)      (10**-50 SI)
   || (z)    -0.216100D+02     -0.186694D+00     -0.692895D-01
   _|_(z)    -0.720333D+01     -0.622312D-01     -0.230965D-01
   x         -0.355216D+02     -0.306879D+00     -0.113895D+00
   y         -0.253648D+03     -0.219132D+01     -0.813287D+00
   z         -0.108050D+03     -0.933468D+00     -0.346447D+00
   ||         0.555964D+02      0.480309D+00      0.178262D+00
   xxx       -0.362928D+02     -0.313542D+00     -0.116368D+00
   xxy       -0.790582D+02     -0.683001D+00     -0.253489D+00
   yxy        0.306037D+02      0.264392D+00      0.981266D-01
   yyy        0.435818D+02      0.376513D+00      0.139739D+00
   xxz       -0.333591D+02     -0.288196D+00     -0.106961D+00
   yxz        0.273150D+02      0.235981D+00      0.875818D-01
   yyz        0.143589D+03      0.124050D+01      0.460398D+00
   zxz       -0.615145D+01     -0.531437D-01     -0.197238D-01
   zyz       -0.490730D+02     -0.423952D+00     -0.157346D+00
   zzz       -0.146246D+03     -0.126345D+01     -0.468919D+00

 ----------------------------------------------------------------------

 Dipole orientation:
     6          0.36825776          1.04160090         -7.70617377
     7          1.04271602          0.97221532         -5.24782165
     6         -0.01488935         -1.24643756         -4.40147592
     6         -1.27418537         -2.40403478         -6.38974224
     1          0.18551683         -1.86548757         -2.46215002
     7         -1.02798683         -0.93176850         -8.51792998
     1         -2.31562993         -4.16451767         -6.41105735
     1          0.91194290          2.57970918         -8.94582266

 Electric dipole moment (dipole orientation):
 (Debye = 10**-18 statcoulomb cm , SI units = C m)
                  (au)            (Debye)         (10**-30 SI)
   Tot        0.686662D+01      0.174532D+02      0.582177D+02
   x          0.000000D+00      0.000000D+00      0.000000D+00
   y          0.000000D+00      0.000000D+00      0.000000D+00
   z          0.686662D+01      0.174532D+02      0.582177D+02

 Dipole polarizability, Alpha (dipole orientation).
 (esu units = cm**3 , SI units = C**2 m**2 J**-1)
 Alpha(0;0):
               (au)            (10**-24 esu)      (10**-40 SI)
   iso        0.749641D+02      0.111085D+02      0.123599D+02
   aniso      0.312761D+02      0.463465D+01      0.515674D+01
   xx         0.638528D+02      0.946202D+01      0.105279D+02
   yx         0.128131D+02      0.189871D+01      0.211260D+01
   yy         0.771706D+02      0.114355D+02      0.127237D+02
   zx         0.725182D+01      0.107461D+01      0.119566D+01
   zy        -0.234319D+01     -0.347225D+00     -0.386340D+00
   zz         0.838687D+02      0.124281D+02      0.138281D+02

 First dipole hyperpolarizability, Beta (dipole orientation).
 ||, _|_  parallel and perpendicular components, (z) with respect to z axis,
 vector components x,y,z.  Values do not include the 1/n! factor of 1/2.
 (esu units = statvolt**-1 cm**4 , SI units = C**3 m**3 J**-2)
 Beta(0;0,0):
               (au)            (10**-30 esu)      (10**-50 SI)
   || (z)     0.341193D+02      0.294765D+00      0.109399D+00
   _|_(z)     0.113731D+02      0.982548D-01      0.364663D-01
   x         -0.764357D+02     -0.660345D+00     -0.245081D+00
   y         -0.205738D+03     -0.177742D+01     -0.659671D+00
   z          0.170597D+03      0.147382D+01      0.546995D+00
   ||         0.555964D+02      0.480309D+00      0.178262D+00
   xxx       -0.100982D+03     -0.872403D+00     -0.323784D+00
   xxy       -0.661673D+02     -0.571634D+00     -0.212156D+00
   yxy        0.742297D+02      0.641287D+00      0.238007D+00
   yyy       -0.588340D+02     -0.508280D+00     -0.188643D+00
   xxz        0.708408D+02      0.612010D+00      0.227141D+00
   yxz       -0.605063D+02     -0.522727D+00     -0.194005D+00
   yyz       -0.944953D+02     -0.816366D+00     -0.302986D+00
   zxz        0.127338D+01      0.110010D-01      0.408291D-02
   zyz        0.564219D+02      0.487442D+00      0.180909D+00
   zzz        0.805200D+02      0.695630D+00      0.258176D+00

 ----------------------------------------------------------------------
 Unable to Open any file for archive entry.
 1\1\GINC-NODE1967\Freq\RB3LYP\6-311+G(d,p)\C3H3N2(1-)\SVICCHI\02-Jun-2
 023\0\\#p freq=raman scale=0.967 pop=(nbo,full,hirshfeld) guess=read g
 eom=allcheck b3lyp/6-311+G(d,p) int=grid=ultrafine EmpiricalDispersion
 =GD3BJ SCRF=(Solvent=ethanol) scf=(xqc,intrep,maxconventionalcycle=350
 ) nosymm\\IMID-isolated.gjf\\-1,1\C,-2.2618936686,3.4280229202,0.32219
 45068\N,-1.2300684402,2.6009893333,0.053057765\C,-1.8451536911,1.49183
 0017,-0.4795384137\C,-3.2164266818,1.7046606948,-0.5049687196\H,-1.280
 6680814,0.6274232383,-0.8049612073\N,-3.4852850326,2.9511375965,0.0110
 403754\H,-4.0041558739,1.0501316969,-0.8554183645\H,-2.1175305305,4.40
 98065029,0.7590560578\\Version=ES64L-G16RevC.01\HF=-225.8165237\RMSD=3
 .928e-10\RMSF=2.667e-05\ZeroPoint=0.0556627\Thermal=0.0592656\ETot=-22
 5.7572581\HTot=-225.7563139\GTot=-225.7869925\Dipole=-0.0951717,-0.648
 4322,-0.2888471\DipoleDeriv=0.7394085,-0.1013863,0.033062,-0.1023568,0
 .1072032,0.1148296,0.0356189,0.115118,-0.1277789,-1.0985061,-0.0095964
 ,-0.0583014,-0.1026911,-0.4277137,-0.0021935,-0.1021347,0.00515,-0.446
 9448,0.2384906,0.0592921,0.0723638,0.2465008,-0.0137434,0.1509182,0.15
 47341,0.1346641,-0.2448213,0.131315,-0.1107075,-0.0087957,-0.2980629,0
 .0980368,0.1554479,-0.0918462,0.1711684,-0.2521559,0.0099138,0.1423463
 ,0.0414624,0.1053096,-0.0898751,-0.1358468,0.025608,-0.1330302,0.18973
 97,-1.0091976,0.1924365,0.0346001,0.287566,-0.5220078,-0.0107186,0.076
 2264,-0.0175442,-0.441175,-0.0649633,-0.1443021,-0.0888459,-0.1078169,
 -0.0102372,-0.1205455,-0.0727995,-0.1231833,0.1862252,0.0535392,-0.028
 0826,-0.0255454,-0.0284487,-0.1416628,-0.1518913,-0.0254071,-0.1523429
 ,0.1369111\Polar=86.8248801,-1.4490178,79.0727456,2.1716535,10.628161,
 58.9945807\PolarDeriv=-1.947291,-11.0713744,5.148009,-5.0998004,0.1561
 224,0.1582658,10.0699971,1.8286818,9.5081386,0.6093805,-2.0708949,3.35
 47363,3.9989934,-1.4857294,-3.042722,0.7683651,6.2351329,9.3206082,10.
 0052788,3.3347641,2.1399396,1.5588364,-0.1765122,3.086152,3.8209558,-6
 .7197127,-6.379717,-4.6294892,-2.793112,-3.4038105,1.6440616,-4.830308
 8,-2.8346876,3.0720095,-1.1809259,-0.0541447,1.9278691,6.6953693,11.93
 15689,1.4398041,0.8233856,13.4372948,-7.2609719,3.7823869,0.2826696,-1
 .3371725,5.2868532,-0.6191663,-4.0422562,0.1541881,7.4557355,6.0073383
 ,-3.7992076,-4.4459279,-1.6942481,2.0766054,-13.8875751,2.5754353,0.37
 65398,-12.658794,-8.772762,-1.8143627,6.2160823,1.9845349,4.7423351,3.
 6000398,-2.61308,3.3258885,5.9408479,-6.7873793,-1.7632756,-5.3117483,
 4.1945369,-4.0723151,4.5268649,-1.2743772,1.6520694,0.144832,-2.959867
 6,4.7737943,-8.9853194,2.301077,-4.2166073,-1.7753101,-0.7253351,2.082
 7886,-4.8958737,-0.3190057,-0.3394392,0.4222411,-5.3419099,5.4610731,-
 7.1859684,2.6067484,-1.3276447,-3.7810144,8.4455405,1.0817257,-7.49036
 75,3.2463774,-3.6985644,-2.0286489,4.0193965,2.820319,-5.4560221,-3.04
 58496,-0.0642358,-0.4100272,-7.8732104,-4.78938,-3.6483676,-2.9105355,
 -2.2729978,-0.8622523,-3.8067611,-4.2529563,-4.7785406,-2.877064,-2.96
 73171,-1.843977,-2.5747698,-3.040911,-3.4335222,0.0440753,-0.5561222,0
 .4469125,0.7289746,2.3652576,0.9755287,1.1038889,0.7690375,0.4755161,0
 .4638693,1.320443,11.6270539,0.702356,5.7173074,2.7161366,0.2929894,0.
 9737651,6.2662443,0.2604465,1.4680733,0.0320864\HyperPolar=-36.2928019
 ,-79.058185,30.6037316,43.5818172,-33.3590677,27.3150259,143.5887747,-
 6.1514502,-49.0729518,-146.2463635\Quadrupole=-9.5303415,-7.8985264,17
 .4288678,24.6952302,0.2694818,0.9191734\PG=C01 [X(C3H3N2)]\NImag=0\\0.
 56293369,0.02168020,0.72689074,0.04449869,0.25459321,0.25712779,-0.219
 12814,0.09054445,0.02777073,0.49960057,0.10950900,-0.16765327,-0.02916
 293,-0.02480411,0.40540950,0.03600536,-0.03084776,-0.08865937,0.022750
 75,0.12942162,0.16011537,0.00437238,-0.00192622,-0.00166191,-0.1359068
 0,-0.07386449,-0.03775888,0.64626220,0.04524079,-0.09243166,-0.0420782
 3,-0.05785504,-0.19587086,-0.06005217,-0.15570284,0.63194508,0.0186924
 0,-0.04604114,-0.00450029,-0.03078408,-0.06143475,-0.09865867,-0.02197
 069,0.20769526,0.20988661,-0.01544412,-0.02071111,-0.01141359,-0.05853
 033,-0.06715158,-0.03561580,-0.33081968,0.04862668,-0.00191888,0.72757
 456,-0.06786363,-0.07138583,-0.04267111,-0.00488126,-0.01230122,-0.013
 69302,0.02846425,-0.09048140,-0.00860939,0.11611814,0.54580621,-0.0317
 8988,-0.03862626,-0.00574871,-0.00873620,-0.01904348,0.00937866,-0.010
 62574,-0.00684246,-0.06914003,0.10213381,0.19339466,0.21431251,-0.0027
 2747,-0.00321680,-0.00206274,0.01280770,-0.01413254,-0.00444684,-0.141
 42149,0.12294933,0.04290613,0.00066444,0.02076496,0.00921941,0.1354429
 9,-0.00246000,-0.00316737,-0.00380767,0.01297858,-0.01792417,-0.003794
 25,0.11974024,-0.22234850,-0.07599435,-0.00298012,0.00189077,0.0014978
 0,-0.12890632,0.24133931,-0.00173956,-0.00387493,0.00332562,0.00728387
 ,-0.00613239,-0.00859130,0.04151743,-0.07569062,-0.05204618,-0.0010561
 0,0.00352595,-0.00072249,-0.04574149,0.08471346,0.05258051,-0.26950984
 ,-0.05727162,-0.04105402,-0.09892110,0.04797852,0.00952326,-0.03456163
 ,0.01247379,0.00085302,-0.10396233,0.03098039,0.01052685,-0.00538446,-
 0.00009300,-0.00110249,0.50354579,-0.07623349,-0.11425023,-0.02259398,
 -0.01539894,0.00204968,-0.01422764,0.07473585,-0.03762096,-0.01779564,
 0.04700726,-0.22948757,-0.06522699,0.00372930,0.00131579,-0.00215939,-
 0.01108008,0.40095899,-0.04925688,-0.02100504,-0.09115234,-0.01787139,
 -0.00881556,0.02661356,0.02777432,-0.02314422,0.01073365,0.01744544,-0
 .06656073,-0.09642452,0.00054531,-0.00248359,0.00600942,0.02945496,0.1
 2884934,0.15954238,-0.00115890,0.00272320,0.00063851,-0.00577042,-0.00
 137047,-0.00169468,-0.00413793,-0.01891849,-0.00835081,-0.21414008,-0.
 12214800,-0.06916824,-0.00031080,0.00063572,0.00040275,0.01046823,0.00
 530196,0.00374921,0.21441563,0.00196822,-0.00481390,-0.00413694,0.0024
 3856,0.00172263,-0.00209066,0.00482597,0.00695377,0.00434632,-0.118925
 52,-0.14552686,-0.06321238,-0.00074479,-0.00058566,0.00046316,-0.02180
 895,-0.01549726,-0.00572322,0.13366861,0.15795766,0.00031594,-0.004075
 89,0.00340995,-0.00004431,-0.00241303,0.00599219,0.00191843,0.00231869
 ,-0.00098013,-0.06777525,-0.06348515,-0.05627084,-0.00019293,0.0005811
 1,-0.00156847,-0.00798394,-0.00341069,-0.00872073,0.07443710,0.0711463
 1,0.05714082,-0.05933759,-0.03182210,-0.01671567,0.00584852,0.02383567
 ,0.01123682,-0.00378705,0.00318579,0.00057291,-0.00534246,-0.00143486,
 -0.00156001,0.00092908,0.00108489,0.00043558,-0.00167465,-0.02806187,-
 0.01184096,0.00063426,-0.00142209,-0.00067504,0.06272988,-0.03184110,-
 0.27318848,-0.11014236,-0.00302224,-0.01543229,-0.00471611,0.00372724,
 -0.00014546,-0.00216631,-0.00198374,0.00148590,-0.00194089,-0.00044314
 ,-0.00052017,-0.00084524,-0.00117906,-0.00746843,-0.00111698,0.0001074
 7,-0.00021037,-0.00066136,0.03463457,0.29547930,-0.01672607,-0.1101221
 9,-0.07380264,-0.00036938,-0.00241950,-0.00619043,0.00080704,-0.002206
 24,0.00470505,-0.00179962,-0.00190121,0.00461542,-0.00022685,-0.000712
 52,0.00101289,-0.00021764,-0.00343501,-0.00660142,-0.00001384,-0.00079
 259,0.00099722,0.01854636,0.12158926,0.07526391\\-0.00000207,-0.000005
 15,-0.00001016,-0.00004195,-0.00004770,-0.00002696,-0.00000010,0.00004
 828,0.00002647,0.00001330,0.00005065,0.00002842,-0.00000711,0.00001285
 ,0.00000952,0.00003104,-0.00005524,-0.00002457,0.00000770,0.00001155,0
 .00000969,-0.00000081,-0.00001523,-0.00001242\\\@
 The archive entry for this job was punched.


 THERE IS AN OLD, OLD RECIPE IN MAINE FOR STEWING COOT. PLACE THE
 BIRD IN A KETTLE OF WATER WITH A RED BUILDING BRICK FREE OF MORTAR AND
 BLEMISHES. PARBOIL THE COOT AND BRICK TOGETHER FOR THREE HOURS.
 POUR OFF THE WATER, REFILL THE KETTLE, AND AGAIN PARBOIL FOR THREE HOURS.
 ONCE AGAIN POUR OFF THE WATER, FOR THE LAST TIME ADD FRESH WATER,
 AND LET THE COOT AND BRICK SIMMER TOGETHER OVERNIGHT. IN THE MORNING,
 THROW AWAY THE COOT AND EAT THE BRICK.
 Job cpu time:       0 days  0 hours  6 minutes 46.4 seconds.
 Elapsed time:       0 days  0 hours  3 minutes 54.8 seconds.
 File lengths (MBytes):  RWF=     68 Int=      0 D2E=      0 Chk=      8 Scr=      1
 Normal termination of Gaussian 16 at Fri Jun  2 11:12:08 2023.
