 Entering Gaussian System, Link 0=g16
 Input=pyrrolide-isolated-freq.gjf
 Output=pyrrolide-isolated-freq.log
 Initial command:
 /software/commercial/gaussian/g16/AVX/g16/l1.exe "/scratch1/svicchi/G09-659822.pbs02/Gau-4137506.inp" -scrdir="/scratch1/svicchi/G09-659822.pbs02/"
 Entering Link 1 = /software/commercial/gaussian/g16/AVX/g16/l1.exe PID=   4137507.
  
 Copyright (c) 1988-2019, Gaussian, Inc.  All Rights Reserved.
  
 This is part of the Gaussian(R) 16 program.  It is based on
 the Gaussian(R) 09 system (copyright 2009, Gaussian, Inc.),
 the Gaussian(R) 03 system (copyright 2003, Gaussian, Inc.),
 the Gaussian(R) 98 system (copyright 1998, Gaussian, Inc.),
 the Gaussian(R) 94 system (copyright 1995, Gaussian, Inc.),
 the Gaussian 92(TM) system (copyright 1992, Gaussian, Inc.),
 the Gaussian 90(TM) system (copyright 1990, Gaussian, Inc.),
 the Gaussian 88(TM) system (copyright 1988, Gaussian, Inc.),
 the Gaussian 86(TM) system (copyright 1986, Carnegie Mellon
 University), and the Gaussian 82(TM) system (copyright 1983,
 Carnegie Mellon University). Gaussian is a federally registered
 trademark of Gaussian, Inc.
  
 This software contains proprietary and confidential information,
 including trade secrets, belonging to Gaussian, Inc.
  
 This software is provided under written license and may be
 used, copied, transmitted, or stored only in accord with that
 written license.
  
 The following legend is applicable only to US Government
 contracts under FAR:
  
                    RESTRICTED RIGHTS LEGEND
  
 Use, reproduction and disclosure by the US Government is
 subject to restrictions as set forth in subparagraphs (a)
 and (c) of the Commercial Computer Software - Restricted
 Rights clause in FAR 52.227-19.
  
 Gaussian, Inc.
 340 Quinnipiac St., Bldg. 40, Wallingford CT 06492
  
  
 ---------------------------------------------------------------
 Warning -- This program may not be used in any manner that
 competes with the business of Gaussian, Inc. or will provide
 assistance to any competitor of Gaussian, Inc.  The licensee
 of this program is prohibited from giving any competitor of
 Gaussian, Inc. access to this program.  By using this program,
 the user acknowledges that Gaussian, Inc. is engaged in the
 business of creating and licensing software in the field of
 computational chemistry and represents and warrants to the
 licensee that it is not a competitor of Gaussian, Inc. and that
 it will not use this program in any manner prohibited above.
 ---------------------------------------------------------------
  

 Cite this work as:
 Gaussian 16, Revision C.01,
 M. J. Frisch, G. W. Trucks, H. B. Schlegel, G. E. Scuseria, 
 M. A. Robb, J. R. Cheeseman, G. Scalmani, V. Barone, 
 G. A. Petersson, H. Nakatsuji, X. Li, M. Caricato, A. V. Marenich, 
 J. Bloino, B. G. Janesko, R. Gomperts, B. Mennucci, H. P. Hratchian, 
 J. V. Ortiz, A. F. Izmaylov, J. L. Sonnenberg, D. Williams-Young, 
 F. Ding, F. Lipparini, F. Egidi, J. Goings, B. Peng, A. Petrone, 
 T. Henderson, D. Ranasinghe, V. G. Zakrzewski, J. Gao, N. Rega, 
 G. Zheng, W. Liang, M. Hada, M. Ehara, K. Toyota, R. Fukuda, 
 J. Hasegawa, M. Ishida, T. Nakajima, Y. Honda, O. Kitao, H. Nakai, 
 T. Vreven, K. Throssell, J. A. Montgomery, Jr., J. E. Peralta, 
 F. Ogliaro, M. J. Bearpark, J. J. Heyd, E. N. Brothers, K. N. Kudin, 
 V. N. Staroverov, T. A. Keith, R. Kobayashi, J. Normand, 
 K. Raghavachari, A. P. Rendell, J. C. Burant, S. S. Iyengar, 
 J. Tomasi, M. Cossi, J. M. Millam, M. Klene, C. Adamo, R. Cammi, 
 J. W. Ochterski, R. L. Martin, K. Morokuma, O. Farkas, 
 J. B. Foresman, and D. J. Fox, Gaussian, Inc., Wallingford CT, 2019.
 
 ******************************************
 Gaussian 16:  ES64L-G16RevC.01  3-Jul-2019
                 2-Jun-2023 
 ******************************************
 %NProcShared=2
 Will use up to    2 processors via shared memory.
 %mem=55gb
 %chk=/scratch1/svicchi/G09-659822.pbs02/02-freq/pyrrolide-isolated-freq.chk
 ----------------------------------------------------------------------
 #p freq=raman scale=0.967 pop=(nbo,full,hirshfeld) guess=read geom=all
 check b3lyp/6-311+G(d,p) int=grid=ultrafine EmpiricalDispersion=GD3BJ 
 SCRF=(Solvent=ethanol) scf=(xqc,intrep,maxconventionalcycle=350) nosym
 m
 ----------------------------------------------------------------------
 1/10=4,29=7,30=1,38=1,114=967000/1,3;
 2/12=2,15=1,40=1/2;
 3/5=4,6=6,7=111,11=2,14=-4,25=1,30=1,70=2201,71=2,72=4,74=-5,75=-5,116=-2,124=41,140=1/1,2,3;
 4/5=1/1;
 5/5=2,8=3,13=1,17=20,38=6,53=4,85=350,98=1/2,8;
 8/6=4,10=90,11=11/1;
 10/13=10,15=4,31=1/2;
 11/6=3,8=1,9=11,15=111,16=1,31=1/1,2,10;
 10/6=1,31=1/2;
 6/7=3,28=1,40=1,79=1/1,7;
 7/8=1,10=1,25=1,30=1/1,2,3,16;
 1/10=4,30=1/3;
 99//99;
 Leave Link    1 at Fri Jun  2 11:07:55 2023, MaxMem=  7381975040 cpu:               2.0 elap:               3.3
 (Enter /software/commercial/gaussian/g16/AVX/g16/l101.exe)
 Structure from the checkpoint file:  "/scratch1/svicchi/G09-659822.pbs02/02-freq/pyrrolide-isolated-freq.chk"
 ----------------------
 pyrrolide-isolated.gjf
 ----------------------
 Charge = -1 Multiplicity = 1
 No Z-Matrix found in chk file; cartesian coordinates used.
  C                                                -2.854639260852     -1.740670558369     -0.000000000000
  C                                                -1.433763502711     -1.752792761076      0.000000000000
  C                                                -3.220657598684     -0.387721801836     -0.000000000000
  C                                                -1.044798852991     -0.406283405399      0.000000000000
  N                                                -2.125678866714      0.431486813608     -0.000000000000
  H                                                -4.222842764934      0.027278835930      0.000000000001
  H                                                -3.518522615266     -2.596251163763     -0.000000000001
  H                                                -0.784477515323     -2.619487588817      0.000000000001
  H                                                -0.035719022526     -0.008347370279     -0.000000000000
 Recover connectivity data from disk.
 ITRead=  0  0  0  0  0  0  0  0  0
 MicOpt= -1 -1 -1 -1 -1 -1 -1 -1 -1
 NAtoms=      9 NQM=        9 NQMF=       0 NMMI=      0 NMMIF=      0
                NMic=       0 NMicF=      0.
                    Isotopes and Nuclear Properties:
 (Nuclear quadrupole moments (NQMom) in fm**2, nuclear magnetic moments (NMagM)
  in nuclear magnetons)

  Atom         1           2           3           4           5           6           7           8           9
 IAtWgt=          12          12          12          12          14           1           1           1           1
 AtmWgt=  12.0000000  12.0000000  12.0000000  12.0000000  14.0030740   1.0078250   1.0078250   1.0078250   1.0078250
 NucSpn=           0           0           0           0           2           1           1           1           1
 AtZEff=   3.6000000   3.6000000   3.6000000   3.6000000   4.5500000   1.0000000   1.0000000   1.0000000   1.0000000
 NQMom=    0.0000000   0.0000000   0.0000000   0.0000000   2.0440000   0.0000000   0.0000000   0.0000000   0.0000000
 NMagM=    0.0000000   0.0000000   0.0000000   0.0000000   0.4037610   2.7928460   2.7928460   2.7928460   2.7928460
 AtZNuc=   6.0000000   6.0000000   6.0000000   6.0000000   7.0000000   1.0000000   1.0000000   1.0000000   1.0000000
 Leave Link  101 at Fri Jun  2 11:07:58 2023, MaxMem=  7381975040 cpu:               0.4 elap:               1.0
 (Enter /software/commercial/gaussian/g16/AVX/g16/l103.exe)

 GradGradGradGradGradGradGradGradGradGradGradGradGradGradGradGradGradGrad
 Berny optimization.
 Initialization pass.
 Trust Radius=3.00D-01 FncErr=1.00D-07 GrdErr=1.00D-07 EigMax=2.50D+02 EigMin=1.00D-04
 Number of steps in this run=      2 maximum allowed number of steps=      2.
 GradGradGradGradGradGradGradGradGradGradGradGradGradGradGradGradGradGrad

 Leave Link  103 at Fri Jun  2 11:07:59 2023, MaxMem=  7381975040 cpu:               0.1 elap:               1.0
 (Enter /software/commercial/gaussian/g16/AVX/g16/l202.exe)
                          Input orientation:                          
 ---------------------------------------------------------------------
 Center     Atomic      Atomic             Coordinates (Angstroms)
 Number     Number       Type             X           Y           Z
 ---------------------------------------------------------------------
      1          6           0       -2.854639   -1.740671   -0.000000
      2          6           0       -1.433764   -1.752793    0.000000
      3          6           0       -3.220658   -0.387722   -0.000000
      4          6           0       -1.044799   -0.406283    0.000000
      5          7           0       -2.125679    0.431487   -0.000000
      6          1           0       -4.222843    0.027279    0.000000
      7          1           0       -3.518523   -2.596251   -0.000000
      8          1           0       -0.784478   -2.619488    0.000000
      9          1           0       -0.035719   -0.008347   -0.000000
 ---------------------------------------------------------------------
                    Distance matrix (angstroms):
                    1          2          3          4          5
     1  C    0.000000
     2  C    1.420927   0.000000
     3  C    1.401585   2.248646   0.000000
     4  C    2.248580   1.401564   2.175938   0.000000
     5  N    2.291212   2.291249   1.367509   1.367538   0.000000
     6  H    2.235537   3.308718   1.084712   3.207482   2.135762
     7  H    1.082940   2.248920   2.228525   3.303826   3.332748
     8  H    2.248975   1.082928   3.303900   2.228461   3.332756
     9  H    3.308664   2.235535   3.207454   1.084710   2.135740
                    6          7          8          9
     6  H    0.000000
     7  H    2.716427   0.000000
     8  H    4.339093   2.734144   0.000000
     9  H    4.187275   4.339028   2.716375   0.000000
 Symmetry turned off by external request.
 Stoichiometry    C4H4N(1-)
 Framework group  CS[SG(C4H4N)]
 Deg. of freedom    15
 Full point group                 CS      NOp   2
 Rotational constants (GHZ):           9.5130706           9.2754016           4.6963664
 Leave Link  202 at Fri Jun  2 11:08:01 2023, MaxMem=  7381975040 cpu:               0.0 elap:               0.6
 (Enter /software/commercial/gaussian/g16/AVX/g16/l301.exe)
 Standard basis: 6-311+G(d,p) (5D, 7F)
 Ernie: Thresh=  0.10000D-02 Tol=  0.10000D-05 Strict=F.
   134 basis functions,   212 primitive gaussians,   139 cartesian basis functions
    18 alpha electrons       18 beta electrons
       nuclear repulsion energy       150.8934078201 Hartrees.
 IExCor=  402 DFT=T Ex+Corr=B3LYP ExCW=0 ScaHFX=  0.200000
 ScaDFX=  0.800000  0.720000  1.000000  0.810000 ScalE2=  1.000000  1.000000
 IRadAn=      5 IRanWt=     -1 IRanGd=            0 ICorTp=0 IEmpDi=141
 NAtoms=    9 NActive=    9 NUniq=    9 SFac= 1.00D+00 NAtFMM=   60 NAOKFM=F Big=F
 Integral buffers will be    131072 words long.
 Raffenetti 2 integral format.
 Two-electron integral symmetry is turned off.
 R6Disp:  Grimme-D3(BJ) Dispersion energy=       -0.0119595574 Hartrees.
 Nuclear repulsion after empirical dispersion term =      150.8814482626 Hartrees.
 Force inversion solution in PCM.
 ------------------------------------------------------------------------------
 Polarizable Continuum Model (PCM)
 =================================
 Model                : PCM.
 Atomic radii         : UFF (Universal Force Field).
 Polarization charges : Total charges.
 Charge compensation  : None.
 Solution method      : Matrix inversion.
 Cavity type          : Scaled VdW (van der Waals Surface) (Alpha=1.100).
 Cavity algorithm     : GePol (No added spheres)
                        Default sphere list used, NSphG=    9.
                        Lebedev-Laikov grids with approx.  5.0 points / Ang**2.
                        Smoothing algorithm: York/Karplus (Gamma=1.0000).
                        Polarization charges: spherical gaussians, with
                                              point-specific exponents (IZeta= 3).
                        Self-potential: point-specific (ISelfS= 7).
                        Self-field    : sphere-specific E.n sum rule (ISelfD= 2).
 1st derivatives      : Analytical E(r).r(x)/FMM algorithm (CHGder, D1EAlg=3).
                        Cavity 1st derivative terms included.
 2nd derivatives      : Analytical E(r).r(xy)/FMM algorithm (CHGder, D2EAlg=3).
                        Cavity 2nd derivative terms included.
 Solvent              : Ethanol, Eps=  24.852000 Eps(inf)=   1.852593
 ------------------------------------------------------------------------------
 Spheres list:
 ISph  on   Nord     Re0    Alpha      Xe            Ye            Ze
    1   C      1    1.9255  1.100     -2.854639     -1.740671     -0.000000
    2   C      2    1.9255  1.100     -1.433764     -1.752793      0.000000
    3   C      3    1.9255  1.100     -3.220658     -0.387722     -0.000000
    4   C      4    1.9255  1.100     -1.044799     -0.406283      0.000000
    5   N      5    1.8300  1.100     -2.125679      0.431487     -0.000000
    6   H      6    1.4430  1.100     -4.222843      0.027279      0.000000
    7   H      7    1.4430  1.100     -3.518523     -2.596251     -0.000000
    8   H      8    1.4430  1.100     -0.784478     -2.619488      0.000000
    9   H      9    1.4430  1.100     -0.035719     -0.008347     -0.000000
 ------------------------------------------------------------------------------
 GePol: Number of generator spheres                  =       9
 GePol: Total number of spheres                      =       9
 GePol: Number of exposed spheres                    =       9 (100.00%)
 GePol: Number of points                             =     901
 GePol: Average weight of points                     =       0.13
 GePol: Minimum weight of points                     =   0.16D-09
 GePol: Maximum weight of points                     =    0.20577
 GePol: Number of points with low weight             =      36
 GePol: Fraction of low-weight points (<1% of avg)   =       4.00%
 GePol: Cavity surface area                          =    121.116 Ang**2
 GePol: Cavity volume                                =    109.759 Ang**3
 Leave Link  301 at Fri Jun  2 11:08:04 2023, MaxMem=  7381975040 cpu:               0.7 elap:               1.3
 (Enter /software/commercial/gaussian/g16/AVX/g16/l302.exe)
 NPDir=0 NMtPBC=     1 NCelOv=     1 NCel=       1 NClECP=     1 NCelD=      1
         NCelK=      1 NCelE2=     1 NClLst=     1 CellRange=     0.0.
 One-electron integrals computed using PRISM.
 NBasis=   134 RedAO= T EigKep=  2.15D-05  NBF=   134
 NBsUse=   134 1.00D-06 EigRej= -1.00D+00 NBFU=   134
 Precomputing XC quadrature grid using
 IXCGrd= 4 IRadAn=           5 IRanWt=          -1 IRanGd=           0 AccXCQ= 0.00D+00.
 Generated NRdTot=       0 NPtTot=           0 NUsed=           0 NTot=          32
 NSgBfM=   139   139   139   139   139 MxSgAt=     9 MxSgA2=     9.
 Leave Link  302 at Fri Jun  2 11:08:06 2023, MaxMem=  7381975040 cpu:               0.7 elap:               1.1
 (Enter /software/commercial/gaussian/g16/AVX/g16/l303.exe)
 DipDrv:  MaxL=1.
 Leave Link  303 at Fri Jun  2 11:08:07 2023, MaxMem=  7381975040 cpu:               0.1 elap:               0.4
 (Enter /software/commercial/gaussian/g16/AVX/g16/l401.exe)
 Initial guess from the checkpoint file:  "/scratch1/svicchi/G09-659822.pbs02/02-freq/pyrrolide-isolated-freq.chk"
 B after Tr=     0.000000    0.000000    0.000000
         Rot=    1.000000    0.000000    0.000000    0.000000 Ang=   0.00 deg.
 Guess basis will be translated and rotated to current coordinates.
 JPrj=2 DoOrth=T DoCkMO=T.
 Leave Link  401 at Fri Jun  2 11:08:10 2023, MaxMem=  7381975040 cpu:               0.6 elap:               1.8
 (Enter /software/commercial/gaussian/g16/AVX/g16/l502.exe)
 Keep R1 ints in memory in canonical form, NReq=42839498.
 FoFCou: FMM=F IPFlag=           0 FMFlag=           0 FMFlg1=           0
         NFxFlg=           0 DoJE=F BraDBF=F KetDBF=F FulRan=T
         wScrn=  0.000000 ICntrl=       600 IOpCl=  0 I1Cent=           0 NGrid=           0
         NMat0=    1 NMatS0=   9045 NMatT0=    0 NMatD0=    1 NMtDS0=    0 NMtDT0=    0
 Symmetry not used in FoFCou.
 Two-electron integral symmetry not used.
 Closed shell SCF:
 Using DIIS extrapolation, IDIIS=  1040.
 NGot=  7381975040 LenX=  7341023700 LenY=  7341003938
 Requested convergence on RMS density matrix=1.00D-08 within 350 cycles.
 Requested convergence on MAX density matrix=1.00D-06.
 Requested convergence on             energy=1.00D-06.
 No special actions if energy rises.

 Cycle   1  Pass 1  IDiag  1:
 Inv3:  Mode=1 IEnd=     2435403.
 Iteration    1 A*A^-1 deviation from unit magnitude is 2.66D-15 for    881.
 Iteration    1 A*A^-1 deviation from orthogonality  is 1.85D-15 for    890    717.
 Iteration    1 A^-1*A deviation from unit magnitude is 2.44D-15 for    886.
 Iteration    1 A^-1*A deviation from orthogonality  is 1.27D-15 for    888    886.
 E= -209.748911752038    
 DIIS: error= 3.52D-09 at cycle   1 NSaved=   1.
 NSaved= 1 IEnMin= 1 EnMin= -209.748911752038     IErMin= 1 ErrMin= 3.52D-09
 ErrMax= 3.52D-09  0.00D+00 EMaxC= 1.00D-01 BMatC= 1.09D-15 BMatP= 1.09D-15
 IDIUse=1 WtCom= 1.00D+00 WtEn= 0.00D+00
 Coeff-Com:  0.100D+01
 Coeff:      0.100D+01
 Gap=     0.191 Goal=   None    Shift=    0.000
 RMSDP=5.18D-10 MaxDP=1.64D-08              OVMax= 3.73D-08

 Error on total polarization charges =  0.02704
 SCF Done:  E(RB3LYP) =  -209.748911752     A.U. after    1 cycles
            NFock=  1  Conv=0.52D-09     -V/T= 2.0047
 KE= 2.087606084484D+02 PE=-7.975667714105D+02 EE= 2.281758029475D+02
 Leave Link  502 at Fri Jun  2 11:08:17 2023, MaxMem=  7381975040 cpu:               9.3 elap:               5.8
 (Enter /software/commercial/gaussian/g16/AVX/g16/l508.exe)
 QCSCF skips out because SCF is already converged.
 Leave Link  508 at Fri Jun  2 11:08:18 2023, MaxMem=  7381975040 cpu:               0.0 elap:               0.6
 (Enter /software/commercial/gaussian/g16/AVX/g16/l801.exe)
 DoSCS=F DFT=T ScalE2(SS,OS)=  1.000000  1.000000
 Range of M.O.s used for correlation:     1   134
 NBasis=   134 NAE=    18 NBE=    18 NFC=     0 NFV=     0
 NROrb=    134 NOA=    18 NOB=    18 NVA=   116 NVB=   116

 **** Warning!!: The largest alpha MO coefficient is  0.97731862D+02

 Leave Link  801 at Fri Jun  2 11:08:20 2023, MaxMem=  7381975040 cpu:               0.2 elap:               1.1
 (Enter /software/commercial/gaussian/g16/AVX/g16/l1002.exe)
 Minotr:  Closed shell wavefunction.
 NEqPCM:  Using equilibrium solvation (IEInf=0, Eps=  24.8520, EpsInf=   1.8526)
          Direct CPHF calculation.
          Differentiating once with respect to electric field.
                with respect to dipole field.
          Electric field/nuclear overlap derivatives assumed to be zero.
          Requested convergence is 1.0D-08 RMS, and 1.0D-07 maximum.
          Secondary convergence is 1.0D-12 RMS, and 1.0D-12 maximum.
          NewPWx=F KeepS1=T KeepF1=T KeepIn=T MapXYZ=F SortEE=F KeepMc=T.
         2718 words used for storage of precomputed grid.
 Keep R1 ints in memory in canonical form, NReq=44243158.
 FoFCou: FMM=F IPFlag=           0 FMFlag=           0 FMFlg1=           0
         NFxFlg=           0 DoJE=F BraDBF=F KetDBF=F FulRan=T
         wScrn=  0.000000 ICntrl=       600 IOpCl=  0 I1Cent=           0 NGrid=           0
         NMat0=    1 NMatS0=   9045 NMatT0=    0 NMatD0=    1 NMtDS0=    0 NMtDT0=    0
 Symmetry not used in FoFCou.
 Two-electron integral symmetry not used.
          MDV=    7381975040 using IRadAn=       1.
          Solving linear equations simultaneously, MaxMat=       0.
          There are     3 degrees of freedom in the 1st order CPHF.  IDoFFX=0 NUNeed=     3.
      3 vectors produced by pass  0 Test12= 6.96D-14 3.33D-08 XBig12= 7.76D+01 5.14D+00.
 AX will form     3 AO Fock derivatives at one time.
      3 vectors produced by pass  1 Test12= 6.96D-14 3.33D-08 XBig12= 4.11D+01 2.51D+00.
      3 vectors produced by pass  2 Test12= 6.96D-14 3.33D-08 XBig12= 4.31D+00 7.27D-01.
      3 vectors produced by pass  3 Test12= 6.96D-14 3.33D-08 XBig12= 2.04D+00 4.49D-01.
      3 vectors produced by pass  4 Test12= 6.96D-14 3.33D-08 XBig12= 1.42D-01 1.24D-01.
      3 vectors produced by pass  5 Test12= 6.96D-14 3.33D-08 XBig12= 1.00D-02 3.26D-02.
      3 vectors produced by pass  6 Test12= 6.96D-14 3.33D-08 XBig12= 3.27D-03 2.14D-02.
      3 vectors produced by pass  7 Test12= 6.96D-14 3.33D-08 XBig12= 8.86D-05 1.82D-03.
      3 vectors produced by pass  8 Test12= 6.96D-14 3.33D-08 XBig12= 2.46D-06 3.92D-04.
      2 vectors produced by pass  9 Test12= 6.96D-14 3.33D-08 XBig12= 1.28D-07 1.03D-04.
      2 vectors produced by pass 10 Test12= 6.96D-14 3.33D-08 XBig12= 2.99D-09 1.38D-05.
      2 vectors produced by pass 11 Test12= 6.96D-14 3.33D-08 XBig12= 4.79D-11 1.42D-06.
      1 vectors produced by pass 12 Test12= 6.96D-14 3.33D-08 XBig12= 1.17D-12 2.33D-07.
      1 vectors produced by pass 13 Test12= 6.96D-14 3.33D-08 XBig12= 3.62D-14 4.50D-08.
 InvSVY:  IOpt=1 It=  1 EMax= 1.78D-15
 Solved reduced A of dimension    35 with     3 vectors.
 End of Minotr F.D. properties file   721 does not exist.
 End of Minotr F.D. properties file   722 does not exist.
 End of Minotr F.D. properties file   788 does not exist.
 Leave Link 1002 at Fri Jun  2 11:08:52 2023, MaxMem=  7381975040 cpu:              53.3 elap:              30.8
 (Enter /software/commercial/gaussian/g16/AVX/g16/l1101.exe)
 Using compressed storage, NAtomX=     9.
 Will process     10 centers per pass.
 R6Disp: Adding Grimme-D3(BJ) dispersion energy 1st derivatives to the gradient.
 Leave Link 1101 at Fri Jun  2 11:08:54 2023, MaxMem=  7381975040 cpu:               0.5 elap:               0.8
 (Enter /software/commercial/gaussian/g16/AVX/g16/l1102.exe)
 Symmetrizing basis deriv contribution to polar:
 IMax=3 JMax=2 DiffMx= 0.00D+00
 Leave Link 1102 at Fri Jun  2 11:08:56 2023, MaxMem=  7381975040 cpu:               0.3 elap:               1.5
 (Enter /software/commercial/gaussian/g16/AVX/g16/l1110.exe)
 Forming Gx(P) for the SCF density, NAtomX=     9.
 Integral derivatives from FoFJK, PRISM(SPDF).
 Do as many integral derivatives as possible in FoFJK.
 G2DrvN: MDV=    7381973995.
 G2DrvN: will do    10 centers at a time, making    1 passes.
 PxScal for G2LodP:  IOpCl= 0 ISclPx=1 IMOff=     1 NMtTot=     4 NTT=    9045 ScalPx= 1.27D+01
 Calling FoFCou, ICntrl=  3107 FMM=F I1Cent=   0 AccDes= 0.00D+00.
 FoFJK:  IHMeth= 1 ICntrl=    3107 DoSepK=F KAlg= 0 I1Cent=           0 FoldK=F
 IRaf=         0 NMat=       1 IRICut=       1 DoRegI=T DoRafI=F ISym2E= 0 IDoP0=0 IntGTp=1.
 FoFCou: FMM=F IPFlag=           0 FMFlag=      100000 FMFlg1=           0
         NFxFlg=           0 DoJE=F BraDBF=F KetDBF=F FulRan=T
         wScrn=  0.000000 ICntrl=      3107 IOpCl=  0 I1Cent=           0 NGrid=           0
         NMat0=    1 NMatS0=      1 NMatT0=    0 NMatD0=    4 NMtDS0=    3 NMtDT0=    0
 Symmetry not used in FoFCou.
 PxScal for G2LodP:  IOpCl= 0 ISclPx=0 IMOff=     1 NMtTot=     4 NTT=    9045 ScalPx= 1.00D+00
 NEqPCM:  Using equilibrium solvation (IEInf=0, Eps=  24.8520, EpsInf=   1.8526)
 G2PCM: DoFxE=T DoFxN=T DoGrad=T DoDP/DQ/DG/TGxP=TFFF NFrqRd=   0 IEInf=0 SqF1=F DoCFld=F IF1Alg=4.
 GePol: Maximum number of non-zero 1st derivatives   =     205
 End of G2Drv F.D. properties file   721 does not exist.
 End of G2Drv F.D. properties file   722 does not exist.
 End of G2Drv F.D. properties file   788 does not exist.
 Leave Link 1110 at Fri Jun  2 11:10:05 2023, MaxMem=  7381975040 cpu:             128.8 elap:              67.4
 (Enter /software/commercial/gaussian/g16/AVX/g16/l1002.exe)
 Minotr:  Closed shell wavefunction.
          IDoAtm=111111111
 NEqPCM:  Using equilibrium solvation (IEInf=0, Eps=  24.8520, EpsInf=   1.8526)
          Direct CPHF calculation.
          Differentiating once with respect to electric field.
                with respect to dipole field.
          Differentiating once with respect to nuclear coordinates.
          Requested convergence is 1.0D-08 RMS, and 1.0D-07 maximum.
          Secondary convergence is 1.0D-12 RMS, and 1.0D-12 maximum.
          NewPWx=T KeepS1=F KeepF1=F KeepIn=T MapXYZ=F SortEE=F KeepMc=T.
         2718 words used for storage of precomputed grid.
 Keep R1 ints in memory in canonical form, NReq=44243365.
 FoFCou: FMM=F IPFlag=           0 FMFlag=           0 FMFlg1=           0
         NFxFlg=           0 DoJE=F BraDBF=F KetDBF=F FulRan=T
         wScrn=  0.000000 ICntrl=       600 IOpCl=  0 I1Cent=           0 NGrid=           0
         NMat0=    1 NMatS0=   9045 NMatT0=    0 NMatD0=    1 NMtDS0=    0 NMtDT0=    0
 Symmetry not used in FoFCou.
 Two-electron integral symmetry not used.
          MDV=    7381975040 using IRadAn=       1.
          Solving linear equations simultaneously, MaxMat=       0.
          There are    30 degrees of freedom in the 1st order CPHF.  IDoFFX=5 NUNeed=    30.
 Will reuse    3 saved solutions.
     24 vectors produced by pass  0 Test12= 6.96D-15 3.33D-09 XBig12= 1.06D-01 9.60D-02.
 AX will form    24 AO Fock derivatives at one time.
     24 vectors produced by pass  1 Test12= 6.96D-15 3.33D-09 XBig12= 2.34D-02 5.31D-02.
     24 vectors produced by pass  2 Test12= 6.96D-15 3.33D-09 XBig12= 3.20D-04 6.13D-03.
     24 vectors produced by pass  3 Test12= 6.96D-15 3.33D-09 XBig12= 2.20D-06 4.19D-04.
     24 vectors produced by pass  4 Test12= 6.96D-15 3.33D-09 XBig12= 8.89D-09 1.84D-05.
     24 vectors produced by pass  5 Test12= 6.96D-15 3.33D-09 XBig12= 3.34D-11 1.35D-06.
     12 vectors produced by pass  6 Test12= 6.96D-15 3.33D-09 XBig12= 6.21D-14 5.81D-08.
 InvSVY:  IOpt=1 It=  1 EMax= 8.88D-16
 Solved reduced A of dimension   156 with    24 vectors.
 FullF1:  Do perturbations      1 to       3.
 Isotropic polarizability for W=    0.000000       86.41 Bohr**3.
 FullF1:  Do perturbations      1 to       6.
 End of Minotr F.D. properties file   721 does not exist.
 End of Minotr F.D. properties file   722 does not exist.
 End of Minotr F.D. properties file   788 does not exist.
 Leave Link 1002 at Fri Jun  2 11:11:09 2023, MaxMem=  7381975040 cpu:             111.2 elap:              63.1
 (Enter /software/commercial/gaussian/g16/AVX/g16/l601.exe)
 Copying SCF densities to generalized density rwf, IOpCl= 0 IROHF=0.

 **********************************************************************

            Population analysis using the SCF Density.

 **********************************************************************

 Alpha  occ. eigenvalues --  -14.24765 -10.13558 -10.13557 -10.11772 -10.11727
 Alpha  occ. eigenvalues --   -0.88847  -0.70111  -0.65980  -0.51299  -0.50178
 Alpha  occ. eigenvalues --   -0.46570  -0.35827  -0.34662  -0.34462  -0.33906
 Alpha  occ. eigenvalues --   -0.23138  -0.19473  -0.17306
 Alpha virt. eigenvalues --    0.01813   0.03752   0.04220   0.05314   0.05915
 Alpha virt. eigenvalues --    0.06641   0.07579   0.07714   0.08256   0.09708
 Alpha virt. eigenvalues --    0.11250   0.11567   0.12223   0.14997   0.15948
 Alpha virt. eigenvalues --    0.17113   0.17128   0.20195   0.21169   0.21478
 Alpha virt. eigenvalues --    0.21768   0.23738   0.24273   0.24357   0.27354
 Alpha virt. eigenvalues --    0.29229   0.30145   0.30883   0.40774   0.46010
 Alpha virt. eigenvalues --    0.47203   0.48677   0.53940   0.55117   0.57785
 Alpha virt. eigenvalues --    0.59599   0.60911   0.64795   0.64957   0.65768
 Alpha virt. eigenvalues --    0.72455   0.75286   0.76652   0.78446   0.81337
 Alpha virt. eigenvalues --    0.83325   0.85288   0.86216   0.87586   0.90866
 Alpha virt. eigenvalues --    0.91145   0.95348   1.00664   1.03900   1.09055
 Alpha virt. eigenvalues --    1.13566   1.16184   1.22757   1.23911   1.34059
 Alpha virt. eigenvalues --    1.34933   1.54498   1.58297   1.59513   1.60195
 Alpha virt. eigenvalues --    1.69012   1.69562   1.72782   1.75408   1.77615
 Alpha virt. eigenvalues --    1.81844   1.87053   1.92534   1.96644   1.98081
 Alpha virt. eigenvalues --    2.01007   2.02074   2.03401   2.18024   2.30451
 Alpha virt. eigenvalues --    2.32058   2.36404   2.46258   2.46326   2.52181
 Alpha virt. eigenvalues --    2.58208   2.61099   2.63152   2.68575   2.75914
 Alpha virt. eigenvalues --    2.76301   2.78758   2.79979   2.81711   2.85649
 Alpha virt. eigenvalues --    2.91511   2.93845   3.05544   3.12027   3.28035
 Alpha virt. eigenvalues --    3.33168   3.41254   3.46044   3.64163   3.73414
 Alpha virt. eigenvalues --    3.95977   4.08661   4.11525   4.32176   4.51000
 Alpha virt. eigenvalues --    5.16315  23.76632  23.95302  24.09631  24.19028
 Alpha virt. eigenvalues --   35.62330
     Molecular Orbital Coefficients:
                           1         2         3         4         5
                           O         O         O         O         O
     Eigenvalues --   -14.24765 -10.13558 -10.13557 -10.11772 -10.11727
   1 1   C  1S         -0.00001   0.00659   0.00439   0.39856  -0.39743
   2        2S          0.00006   0.00556   0.00374   0.32807  -0.32691
   3        2PX        -0.00006  -0.00025  -0.00005   0.00040   0.00059
   4        2PY         0.00010   0.00066   0.00036  -0.00021   0.00026
   5        2PZ        -0.00000   0.00000   0.00000   0.00000  -0.00000
   6        3S         -0.00021   0.00012   0.00008   0.01364  -0.01381
   7        3PX         0.00015   0.00126  -0.00007  -0.00169  -0.00182
   8        3PY        -0.00100  -0.00267  -0.00156   0.00047  -0.00063
   9        3PZ        -0.00000  -0.00000  -0.00000  -0.00000   0.00000
  10        4S         -0.00069   0.00515  -0.00211  -0.00744   0.01428
  11        4PX        -0.00163   0.00104  -0.00025  -0.00073   0.00551
  12        4PY        -0.00166   0.00386  -0.00060  -0.00215   0.00620
  13        4PZ         0.00000   0.00000   0.00000  -0.00000  -0.00000
  14        5S         -0.00255   0.01707   0.00788   0.01394  -0.01777
  15        5PX         0.00010   0.00616  -0.00236   0.00045  -0.00516
  16        5PY        -0.00058   0.00022   0.00255   0.00433  -0.00081
  17        5PZ        -0.00000   0.00000  -0.00000   0.00000   0.00000
  18        6D 0       -0.00001   0.00062   0.00041  -0.00090   0.00181
  19        6D+1       -0.00000  -0.00000   0.00000  -0.00000  -0.00000
  20        6D-1        0.00000   0.00000   0.00000   0.00000  -0.00000
  21        6D+2        0.00029   0.00164   0.00052  -0.00134  -0.00068
  22        6D-2        0.00036   0.00046   0.00064   0.00044  -0.00095
  23 2   C  1S         -0.00001  -0.00438   0.00660   0.39736   0.39863
  24        2S          0.00006  -0.00369   0.00560   0.32708   0.32790
  25        2PX         0.00006  -0.00022   0.00016  -0.00041   0.00059
  26        2PY         0.00010  -0.00047   0.00059  -0.00021  -0.00027
  27        2PZ        -0.00000  -0.00000  -0.00000   0.00000   0.00000
  28        3S         -0.00021  -0.00008   0.00012   0.01360   0.01385
  29        3PX        -0.00017   0.00122  -0.00047   0.00170  -0.00180
  30        3PY        -0.00100   0.00184  -0.00247   0.00043   0.00066
  31        3PZ         0.00000   0.00000   0.00000  -0.00000  -0.00000
  32        4S         -0.00069  -0.00556   0.00005  -0.00739  -0.01430
  33        4PX         0.00160   0.00099  -0.00015   0.00067   0.00541
  34        4PY        -0.00169  -0.00381   0.00094  -0.00215  -0.00630
  35        4PZ        -0.00000  -0.00000  -0.00000   0.00000   0.00000
  36        5S         -0.00255  -0.01269   0.01388   0.01389   0.01782
  37        5PX        -0.00011   0.00661  -0.00017  -0.00037  -0.00515
  38        5PY        -0.00057   0.00067   0.00244   0.00433   0.00091
  39        5PZ         0.00000  -0.00000  -0.00000  -0.00000  -0.00000
  40        6D 0       -0.00001  -0.00041   0.00061  -0.00089  -0.00181
  41        6D+1        0.00000  -0.00000   0.00000  -0.00000   0.00000
  42        6D-1       -0.00000  -0.00000   0.00000   0.00000   0.00000
  43        6D+2        0.00027  -0.00130   0.00109  -0.00136   0.00065
  44        6D-2       -0.00037   0.00022  -0.00081  -0.00039  -0.00098
  45 3   C  1S          0.00001   0.46871   0.31167  -0.00570   0.00566
  46        2S          0.00004   0.38569   0.25650  -0.00454   0.00454
  47        2PX         0.00034   0.00001  -0.00008   0.00007  -0.00019
  48        2PY         0.00033   0.00033   0.00020  -0.00061   0.00046
  49        2PZ        -0.00000  -0.00000  -0.00000   0.00000   0.00000
  50        3S          0.00027   0.01607   0.01030  -0.00044   0.00021
  51        3PX        -0.00087  -0.00019   0.00028  -0.00046   0.00064
  52        3PY        -0.00097  -0.00074  -0.00028   0.00265  -0.00151
  53        3PZ         0.00000   0.00000  -0.00000  -0.00000  -0.00000
  54        4S          0.00536  -0.01071  -0.00424   0.00172  -0.00453
  55        4PX         0.00441  -0.00475   0.00012   0.00173  -0.00311
  56        4PY         0.00061   0.00386  -0.00097  -0.00180   0.00228
  57        4PZ        -0.00000  -0.00000  -0.00000  -0.00000   0.00000
  58        5S          0.00111  -0.00356  -0.01444  -0.01575   0.00544
  59        5PX        -0.00027  -0.00179  -0.00093  -0.00185   0.00173
  60        5PY        -0.00151  -0.00266   0.00363   0.00321   0.00121
  61        5PZ         0.00000  -0.00000   0.00000   0.00000  -0.00000
  62        6D 0        0.00007  -0.00146  -0.00107   0.00047  -0.00058
  63        6D+1        0.00000   0.00000   0.00000  -0.00000   0.00000
  64        6D-1        0.00000   0.00000   0.00000   0.00000  -0.00000
  65        6D+2       -0.00037  -0.00002   0.00027   0.00129  -0.00048
  66        6D-2       -0.00111  -0.00089  -0.00053   0.00072  -0.00086
  67 4   C  1S          0.00001  -0.31167   0.46870  -0.00569  -0.00567
  68        2S          0.00004  -0.25646   0.38572  -0.00453  -0.00456
  69        2PX        -0.00033   0.00004   0.00007  -0.00008  -0.00020
  70        2PY         0.00034  -0.00023   0.00031  -0.00061  -0.00046
  71        2PZ         0.00000   0.00000   0.00000  -0.00000  -0.00000
  72        3S          0.00027  -0.01084   0.01571  -0.00044  -0.00021
  73        3PX         0.00085  -0.00027  -0.00019   0.00050   0.00067
  74        3PY        -0.00099   0.00058  -0.00054   0.00264   0.00150
  75        3PZ        -0.00000  -0.00000  -0.00000   0.00000   0.00000
  76        4S          0.00536   0.00824  -0.00805   0.00170   0.00454
  77        4PX        -0.00440  -0.00449   0.00173  -0.00175  -0.00316
  78        4PY         0.00069  -0.00386   0.00057  -0.00177  -0.00223
  79        4PZ         0.00000   0.00000   0.00000  -0.00000  -0.00000
  80        5S          0.00110  -0.00231  -0.01469  -0.01573  -0.00549
  81        5PX         0.00025  -0.00122   0.00159   0.00190   0.00171
  82        5PY        -0.00152   0.00388   0.00229   0.00318  -0.00123
  83        5PZ         0.00000  -0.00000   0.00000   0.00000   0.00000
  84        6D 0        0.00007   0.00093  -0.00155   0.00047   0.00058
  85        6D+1       -0.00000  -0.00000   0.00000   0.00000   0.00000
  86        6D-1        0.00000  -0.00000   0.00000   0.00000   0.00000
  87        6D+2       -0.00033   0.00010   0.00027   0.00126   0.00046
  88        6D-2        0.00112  -0.00062   0.00082  -0.00076  -0.00088
  89 5   N  1S          0.55739  -0.00001  -0.00007   0.00000   0.00000
  90        2S          0.46581  -0.00001  -0.00006   0.00006   0.00000
  91        2PX        -0.00001  -0.00038   0.00007  -0.00000   0.00007
  92        2PY        -0.00118  -0.00009  -0.00044  -0.00005  -0.00000
  93        2PZ        -0.00000  -0.00000   0.00000   0.00000  -0.00000
  94        3S          0.01566   0.00021   0.00106  -0.00005  -0.00000
  95        3PX        -0.00001   0.00065  -0.00012   0.00000  -0.00042
  96        3PY        -0.00103   0.00022   0.00111   0.00042   0.00000
  97        3PZ        -0.00000   0.00000  -0.00000  -0.00000   0.00000
  98        4S         -0.01526  -0.00071  -0.00353  -0.00275  -0.00000
  99        4PX         0.00003   0.00184  -0.00036   0.00001  -0.00080
 100        4PY         0.00332   0.00015   0.00084   0.00077   0.00001
 101        4PZ        -0.00000  -0.00000   0.00000   0.00000  -0.00000
 102        5S          0.00325   0.00269   0.01335   0.00568   0.00001
 103        5PX         0.00000  -0.00298   0.00056  -0.00002   0.00268
 104        5PY         0.00054  -0.00092  -0.00471  -0.00143  -0.00003
 105        5PZ        -0.00000   0.00000  -0.00000  -0.00000  -0.00000
 106        6D 0       -0.00035   0.00018   0.00090   0.00012   0.00000
 107        6D+1       -0.00000   0.00000  -0.00000  -0.00000  -0.00000
 108        6D-1        0.00000  -0.00000   0.00000  -0.00000   0.00000
 109        6D+2        0.00025  -0.00004  -0.00010  -0.00017   0.00000
 110        6D-2       -0.00000  -0.00093   0.00019   0.00000   0.00027
 111 6   H  1S         -0.00021   0.00023  -0.00002  -0.00015   0.00004
 112        2S          0.00004  -0.00442  -0.00177  -0.00009  -0.00052
 113        3S          0.00113   0.00020   0.00200   0.00129  -0.00069
 114        4PX        -0.00041  -0.00202  -0.00118  -0.00019  -0.00004
 115        4PY        -0.00017   0.00063   0.00049   0.00026  -0.00015
 116        4PZ        -0.00000   0.00000   0.00000   0.00000  -0.00000
 117 7   H  1S          0.00001  -0.00007  -0.00011   0.00008  -0.00021
 118        2S         -0.00112   0.00013  -0.00055  -0.00342   0.00376
 119        3S         -0.00053   0.00104   0.00007   0.00182   0.00064
 120        4PX        -0.00015   0.00005  -0.00015  -0.00130   0.00090
 121        4PY        -0.00026  -0.00027  -0.00031  -0.00142   0.00138
 122        4PZ        -0.00000  -0.00000  -0.00000  -0.00000   0.00000
 123 8   H  1S          0.00001   0.00002  -0.00013   0.00008   0.00021
 124        2S         -0.00112  -0.00033  -0.00046  -0.00341  -0.00377
 125        3S         -0.00053  -0.00093   0.00047   0.00182  -0.00064
 126        4PX         0.00014   0.00010   0.00012   0.00128   0.00088
 127        4PY        -0.00027   0.00013  -0.00040  -0.00144  -0.00140
 128        4PZ         0.00000   0.00000   0.00000   0.00000   0.00000
 129 9   H  1S         -0.00021  -0.00021   0.00007  -0.00015  -0.00004
 130        2S          0.00004   0.00339  -0.00334  -0.00009   0.00052
 131        3S          0.00113   0.00059   0.00192   0.00129   0.00069
 132        4PX         0.00041  -0.00141   0.00188   0.00019  -0.00004
 133        4PY        -0.00018  -0.00037   0.00066   0.00025   0.00015
 134        4PZ        -0.00000   0.00000  -0.00000   0.00000   0.00000
                           6         7         8         9        10
                           O         O         O         O         O
     Eigenvalues --    -0.88847  -0.70111  -0.65980  -0.51299  -0.50178
   1 1   C  1S         -0.03335  -0.07521   0.04206  -0.05340   0.01493
   2        2S         -0.05120  -0.11631   0.06512  -0.08362   0.02350
   3        2PX         0.01478   0.03208   0.03674  -0.05668  -0.06862
   4        2PY         0.02597   0.00427  -0.03144  -0.01868   0.04350
   5        2PZ         0.00000   0.00000  -0.00000   0.00000   0.00000
   6        3S          0.12976   0.30299  -0.17122   0.22279  -0.06338
   7        3PX         0.01986   0.04742   0.05430  -0.07936  -0.09725
   8        3PY         0.03714   0.00320  -0.04485  -0.02269   0.06276
   9        3PZ         0.00000   0.00000  -0.00000   0.00000  -0.00000
  10        4S          0.05657   0.17453  -0.08879   0.19292  -0.04643
  11        4PX         0.00662   0.01063   0.01926  -0.03089  -0.04441
  12        4PY         0.00860   0.00219  -0.00745  -0.00352   0.02547
  13        4PZ         0.00000  -0.00000  -0.00000   0.00000   0.00000
  14        5S         -0.05733  -0.04900   0.07414   0.00888   0.03438
  15        5PX         0.00100  -0.00139   0.01706   0.01924   0.00154
  16        5PY        -0.01496  -0.01587   0.01407  -0.02221   0.00866
  17        5PZ         0.00000   0.00000  -0.00000  -0.00000   0.00000
  18        6D 0       -0.00764  -0.01049   0.00454  -0.00497   0.00233
  19        6D+1       -0.00000  -0.00000   0.00000   0.00000   0.00000
  20        6D-1        0.00000   0.00000  -0.00000   0.00000   0.00000
  21        6D+2       -0.00274   0.00750   0.01133  -0.00646  -0.00586
  22        6D-2        0.00288   0.00171   0.00455   0.00561  -0.00748
  23 2   C  1S         -0.03335  -0.07522  -0.04204   0.05340   0.01494
  24        2S         -0.05120  -0.11632  -0.06509   0.08362   0.02353
  25        2PX        -0.01434  -0.03199   0.03728  -0.05639   0.06933
  26        2PY         0.02622   0.00483   0.03082   0.01964   0.04233
  27        2PZ         0.00000   0.00000   0.00000  -0.00000  -0.00000
  28        3S          0.12976   0.30304   0.17114  -0.22277  -0.06346
  29        3PX        -0.01923  -0.04735   0.05507  -0.07901   0.09828
  30        3PY         0.03747   0.00402   0.04392   0.02403   0.06110
  31        3PZ         0.00000   0.00000   0.00000  -0.00000  -0.00000
  32        4S          0.05655   0.17457   0.08874  -0.19291  -0.04650
  33        4PX        -0.00647  -0.01059   0.01939  -0.03085   0.04483
  34        4PY         0.00871   0.00239   0.00712   0.00403   0.02470
  35        4PZ         0.00000   0.00000  -0.00000  -0.00000  -0.00000
  36        5S         -0.05737  -0.04898  -0.07412  -0.00891   0.03432
  37        5PX        -0.00124   0.00112   0.01682   0.01961  -0.00137
  38        5PY        -0.01495  -0.01588  -0.01436   0.02187   0.00869
  39        5PZ        -0.00000  -0.00000  -0.00000  -0.00000  -0.00000
  40        6D 0       -0.00764  -0.01049  -0.00454   0.00497   0.00233
  41        6D+1       -0.00000  -0.00000   0.00000  -0.00000   0.00000
  42        6D-1        0.00000   0.00000   0.00000  -0.00000   0.00000
  43        6D+2       -0.00284   0.00743  -0.01117   0.00665  -0.00560
  44        6D-2       -0.00279  -0.00196   0.00494   0.00539   0.00767
  45 3   C  1S         -0.05456  -0.00280   0.07403   0.02615  -0.04880
  46        2S         -0.08381  -0.00440   0.11476   0.04089  -0.07639
  47        2PX         0.04796  -0.01756   0.00375  -0.00390  -0.09791
  48        2PY         0.00920  -0.06659   0.01025  -0.09205  -0.01471
  49        2PZ         0.00000  -0.00000  -0.00000  -0.00000   0.00000
  50        3S          0.21508   0.01052  -0.30594  -0.11231   0.20574
  51        3PX         0.07091  -0.02589   0.00302  -0.00754  -0.13462
  52        3PY         0.01318  -0.09721   0.01312  -0.12848  -0.02027
  53        3PZ         0.00000  -0.00000  -0.00000  -0.00000  -0.00000
  54        4S          0.08830   0.01071  -0.18994  -0.10244   0.16933
  55        4PX         0.00493  -0.00507  -0.00630  -0.00817  -0.06269
  56        4PY         0.00093  -0.01867   0.01260  -0.04684  -0.00631
  57        4PZ        -0.00000   0.00000   0.00000   0.00000   0.00000
  58        5S          0.07851   0.05290  -0.04414  -0.01678  -0.02860
  59        5PX         0.01178   0.00516  -0.00725  -0.02028  -0.01292
  60        5PY        -0.01157  -0.01426  -0.00579  -0.02331   0.01224
  61        5PZ        -0.00000   0.00000   0.00000   0.00000   0.00000
  62        6D 0       -0.01307  -0.00039   0.00856   0.00346  -0.00172
  63        6D+1        0.00000  -0.00000  -0.00000  -0.00000   0.00000
  64        6D-1        0.00000   0.00000  -0.00000   0.00000  -0.00000
  65        6D+2        0.00820  -0.00879   0.00657  -0.00634  -0.00286
  66        6D-2        0.00638  -0.01748  -0.00109  -0.00354  -0.00823
  67 4   C  1S         -0.05455  -0.00282  -0.07403  -0.02614  -0.04881
  68        2S         -0.08381  -0.00443  -0.11476  -0.04087  -0.07640
  69        2PX        -0.04779   0.01642   0.00357  -0.00237   0.09764
  70        2PY         0.01001  -0.06689  -0.01029   0.09211  -0.01634
  71        2PZ        -0.00000   0.00000  -0.00000  -0.00000   0.00000
  72        3S          0.21507   0.01061   0.30595   0.11225   0.20578
  73        3PX        -0.07067   0.02422   0.00279  -0.00540   0.13425
  74        3PY         0.01438  -0.09764  -0.01314   0.12860  -0.02251
  75        3PZ        -0.00000   0.00000  -0.00000   0.00000   0.00000
  76        4S          0.08832   0.01073   0.18993   0.10240   0.16937
  77        4PX        -0.00492   0.00476  -0.00651  -0.00739   0.06256
  78        4PY         0.00101  -0.01875  -0.01249   0.04696  -0.00736
  79        4PZ         0.00000   0.00000   0.00000  -0.00000   0.00000
  80        5S          0.07855   0.05287   0.04411   0.01681  -0.02854
  81        5PX        -0.01198  -0.00540  -0.00715  -0.01989   0.01311
  82        5PY        -0.01137  -0.01417   0.00592   0.02364   0.01203
  83        5PZ         0.00000   0.00000   0.00000   0.00000   0.00000
  84        6D 0       -0.01307  -0.00040  -0.00856  -0.00346  -0.00173
  85        6D+1        0.00000   0.00000   0.00000   0.00000   0.00000
  86        6D-1        0.00000   0.00000   0.00000  -0.00000   0.00000
  87        6D+2        0.00798  -0.00819  -0.00660   0.00622  -0.00258
  88        6D-2       -0.00666   0.01777  -0.00087  -0.00375   0.00832
  89 5   N  1S         -0.08259   0.06138  -0.00001  -0.00000   0.03372
  90        2S         -0.12944   0.09695  -0.00001  -0.00001   0.05376
  91        2PX        -0.00049   0.00014   0.07878   0.11021   0.00020
  92        2PY        -0.05755   0.01492  -0.00067  -0.00095   0.02029
  93        2PZ        -0.00000   0.00000  -0.00000  -0.00000   0.00000
  94        3S          0.35287  -0.27259   0.00004   0.00002  -0.15403
  95        3PX        -0.00075   0.00020   0.11647   0.16172   0.00030
  96        3PY        -0.08764   0.02177  -0.00100  -0.00139   0.03123
  97        3PZ        -0.00000   0.00000   0.00000   0.00000  -0.00000
  98        4S          0.23364  -0.20576   0.00004   0.00002  -0.14745
  99        4PX        -0.00027   0.00007   0.04939   0.08524   0.00015
 100        4PY        -0.03122   0.00756  -0.00042  -0.00073   0.01605
 101        4PZ        -0.00000   0.00000  -0.00000  -0.00000   0.00000
 102        5S         -0.07435  -0.02037   0.00001   0.00000   0.00364
 103        5PX         0.00017   0.00006  -0.01265  -0.02396  -0.00009
 104        5PY         0.02064   0.00726   0.00010   0.00020  -0.00946
 105        5PZ         0.00000  -0.00000  -0.00000   0.00000  -0.00000
 106        6D 0       -0.01007   0.00261  -0.00000  -0.00000   0.00135
 107        6D+1       -0.00000   0.00000  -0.00000  -0.00000   0.00000
 108        6D-1        0.00000  -0.00000  -0.00000   0.00000  -0.00000
 109        6D+2       -0.00124  -0.00587  -0.00027  -0.00024   0.00609
 110        6D-2        0.00002   0.00010  -0.01565  -0.01396  -0.00011
 111 6   H  1S          0.01672  -0.00208  -0.06073  -0.04770   0.11009
 112        2S          0.01602  -0.00403  -0.07439  -0.06160   0.14338
 113        3S         -0.00489  -0.00119  -0.01063  -0.02356   0.03501
 114        4PX         0.00332  -0.00265  -0.01001  -0.00689   0.01286
 115        4PY         0.00035  -0.00292   0.00530  -0.00119  -0.00863
 116        4PZ         0.00000  -0.00000  -0.00000  -0.00000   0.00000
 117 7   H  1S          0.00857   0.04752  -0.03391   0.08967  -0.01120
 118        2S          0.00941   0.05363  -0.03924   0.11706  -0.01485
 119        3S         -0.00035   0.00133  -0.00187   0.03164  -0.00757
 120        4PX         0.00055   0.00618  -0.00148   0.00599  -0.00378
 121        4PY         0.00112   0.00561  -0.00629   0.01065   0.00198
 122        4PZ        -0.00000  -0.00000   0.00000  -0.00000  -0.00000
 123 8   H  1S          0.00857   0.04753   0.03390  -0.08968  -0.01122
 124        2S          0.00940   0.05364   0.03922  -0.11707  -0.01489
 125        3S         -0.00035   0.00133   0.00187  -0.03164  -0.00758
 126        4PX        -0.00053  -0.00609  -0.00137   0.00580   0.00381
 127        4PY         0.00113   0.00572   0.00632  -0.01075   0.00191
 128        4PZ         0.00000   0.00000   0.00000  -0.00000   0.00000
 129 9   H  1S          0.01672  -0.00207   0.06073   0.04767   0.11010
 130        2S          0.01602  -0.00402   0.07440   0.06156   0.14339
 131        3S         -0.00489  -0.00119   0.01062   0.02355   0.03502
 132        4PX        -0.00331   0.00260  -0.01010  -0.00687  -0.01300
 133        4PY         0.00041  -0.00297  -0.00512   0.00130  -0.00841
 134        4PZ        -0.00000  -0.00000  -0.00000   0.00000  -0.00000
                          11        12        13        14        15
                           O         O         O         O         O
     Eigenvalues --    -0.46570  -0.35827  -0.34662  -0.34462  -0.33906
   1 1   C  1S          0.01174   0.01122   0.01027   0.00000   0.00933
   2        2S          0.01817   0.01782   0.01628   0.00000   0.01485
   3        2PX         0.03914   0.01083  -0.01078  -0.00000  -0.17338
   4        2PY         0.12522   0.07534  -0.11635  -0.00000   0.01748
   5        2PZ         0.00000  -0.00000  -0.00000   0.09073  -0.00000
   6        3S         -0.04709  -0.04669  -0.04987   0.00000  -0.04587
   7        3PX         0.05061   0.01064  -0.00943  -0.00000  -0.24347
   8        3PY         0.16974   0.10184  -0.16047   0.00000   0.02850
   9        3PZ         0.00000  -0.00000  -0.00000   0.13785  -0.00000
  10        4S         -0.05816  -0.08328  -0.02853   0.00000  -0.03631
  11        4PX         0.02761   0.00778  -0.01579   0.00000  -0.14950
  12        4PY         0.08920   0.06379  -0.09027   0.00000   0.01303
  13        4PZ         0.00000  -0.00000  -0.00000   0.09780   0.00000
  14        5S         -0.09650   0.12589  -0.03562   0.00000  -0.00071
  15        5PX         0.01472   0.04383  -0.01137   0.00000  -0.01425
  16        5PY        -0.01317   0.00923  -0.01622   0.00000  -0.00290
  17        5PZ         0.00000  -0.00000  -0.00000   0.00499   0.00000
  18        6D 0       -0.00189   0.00158  -0.00061   0.00000  -0.00044
  19        6D+1        0.00000  -0.00000  -0.00000   0.00789  -0.00000
  20        6D-1        0.00000   0.00000  -0.00000   0.01244   0.00000
  21        6D+2       -0.00379   0.00342   0.01577   0.00000  -0.02079
  22        6D-2        0.00545  -0.02479   0.01475  -0.00000   0.00600
  23 2   C  1S          0.01174  -0.01122  -0.01028  -0.00000   0.00932
  24        2S          0.01817  -0.01782  -0.01631  -0.00000   0.01482
  25        2PX        -0.03700   0.00957  -0.00914   0.00000   0.17363
  26        2PY         0.12586  -0.07552   0.11649   0.00000   0.01477
  27        2PZ         0.00000  -0.00000  -0.00000   0.09073  -0.00000
  28        3S         -0.04708   0.04669   0.04994  -0.00000  -0.04579
  29        3PX        -0.04770   0.00894  -0.00717   0.00000   0.24391
  30        3PY         0.17058  -0.10202   0.16056   0.00000   0.02469
  31        3PZ         0.00000  -0.00000  -0.00000   0.13785  -0.00000
  32        4S         -0.05814   0.08328   0.02858  -0.00000  -0.03627
  33        4PX        -0.02610   0.00671  -0.01454   0.00000   0.14966
  34        4PY         0.08965  -0.06391   0.09051  -0.00000   0.01069
  35        4PZ        -0.00000  -0.00000  -0.00000   0.09779  -0.00000
  36        5S         -0.09636  -0.12590   0.03564  -0.00000  -0.00040
  37        5PX        -0.01497   0.04367  -0.01112   0.00000   0.01415
  38        5PY        -0.01291  -0.00998   0.01642  -0.00000  -0.00306
  39        5PZ        -0.00000   0.00000  -0.00000   0.00499  -0.00000
  40        6D 0       -0.00189  -0.00158   0.00061  -0.00000  -0.00044
  41        6D+1        0.00000  -0.00000   0.00000  -0.00768   0.00000
  42        6D-1        0.00000  -0.00000  -0.00000   0.01257   0.00000
  43        6D+2       -0.00397  -0.00426  -0.01522  -0.00000  -0.02101
  44        6D-2       -0.00532  -0.02466   0.01529  -0.00000  -0.00525
  45 3   C  1S         -0.01106  -0.00745   0.01838   0.00000  -0.00305
  46        2S         -0.01766  -0.01196   0.02925   0.00000  -0.00472
  47        2PX         0.04922  -0.10665  -0.10915  -0.00000   0.05583
  48        2PY        -0.07018  -0.08416   0.08783   0.00000  -0.06291
  49        2PZ        -0.00000  -0.00000  -0.00000   0.11145  -0.00000
  50        3S          0.04811   0.02703  -0.09000   0.00000   0.01561
  51        3PX         0.06879  -0.14753  -0.15127  -0.00000   0.07526
  52        3PY        -0.09834  -0.12004   0.11861   0.00000  -0.08652
  53        3PZ         0.00000  -0.00000  -0.00000   0.17065  -0.00000
  54        4S          0.03824   0.04324  -0.08021  -0.00000  -0.01070
  55        4PX         0.04359  -0.09294  -0.10023  -0.00000   0.04629
  56        4PY        -0.04241  -0.07195   0.07256   0.00000  -0.06842
  57        4PZ         0.00000  -0.00000  -0.00000   0.12350  -0.00000
  58        5S          0.09830  -0.08689   0.01785  -0.00000  -0.01364
  59        5PX         0.01150  -0.04635  -0.00833  -0.00000   0.00286
  60        5PY        -0.03213  -0.01536   0.01108   0.00000  -0.00922
  61        5PZ         0.00000   0.00000   0.00000   0.01876  -0.00000
  62        6D 0       -0.00416   0.00078  -0.00020   0.00000  -0.00016
  63        6D+1       -0.00000  -0.00000  -0.00000   0.01973  -0.00000
  64        6D-1        0.00000  -0.00000  -0.00000  -0.00065   0.00000
  65        6D+2        0.00506   0.00945   0.01250   0.00000  -0.00493
  66        6D-2       -0.01409  -0.02282  -0.00206  -0.00000   0.01761
  67 4   C  1S         -0.01106   0.00745  -0.01837  -0.00000  -0.00309
  68        2S         -0.01766   0.01197  -0.02924  -0.00000  -0.00478
  69        2PX        -0.05041  -0.10521  -0.11051  -0.00000  -0.05709
  70        2PY        -0.06935   0.08595  -0.08585  -0.00000  -0.06213
  71        2PZ         0.00000  -0.00000  -0.00000   0.11145  -0.00000
  72        3S          0.04810  -0.02705   0.08997   0.00000   0.01579
  73        3PX        -0.07046  -0.14549  -0.15312  -0.00000  -0.07700
  74        3PY        -0.09717   0.12252  -0.11585  -0.00000  -0.08547
  75        3PZ         0.00000  -0.00000  -0.00000   0.17064  -0.00000
  76        4S          0.03822  -0.04327   0.08023   0.00000  -0.01055
  77        4PX        -0.04430  -0.09171  -0.10135  -0.00000  -0.04763
  78        4PY        -0.04168   0.07351  -0.07071  -0.00000  -0.06777
  79        4PZ         0.00000  -0.00000  -0.00000   0.12351  -0.00000
  80        5S          0.09818   0.08689  -0.01786   0.00000  -0.01390
  81        5PX        -0.01201  -0.04608  -0.00851  -0.00000  -0.00299
  82        5PY        -0.03194   0.01614  -0.01091  -0.00000  -0.00917
  83        5PZ         0.00000  -0.00000  -0.00000   0.01876   0.00000
  84        6D 0       -0.00416  -0.00078   0.00020   0.00000  -0.00016
  85        6D+1        0.00000   0.00000   0.00000  -0.01974  -0.00000
  86        6D-1        0.00000  -0.00000   0.00000  -0.00031   0.00000
  87        6D+2        0.00553  -0.01022  -0.01255  -0.00000  -0.00555
  88        6D-2        0.01391  -0.02249  -0.00160   0.00000  -0.01744
  89 5   N  1S          0.03354  -0.00000   0.00000  -0.00000  -0.00330
  90        2S          0.05348  -0.00000   0.00000  -0.00000  -0.00517
  91        2PX        -0.00049   0.16680   0.04125   0.00000  -0.00043
  92        2PY        -0.05654  -0.00143  -0.00029  -0.00000  -0.05421
  93        2PZ         0.00000  -0.00000  -0.00000   0.14074  -0.00000
  94        3S         -0.15432   0.00001  -0.00000  -0.00000   0.01584
  95        3PX        -0.00071   0.24003   0.06143  -0.00000  -0.00065
  96        3PY        -0.08243  -0.00205  -0.00043   0.00000  -0.08168
  97        3PZ         0.00000  -0.00000  -0.00000   0.21139  -0.00000
  98        4S         -0.16647   0.00002  -0.00001   0.00000   0.03061
  99        4PX        -0.00044   0.15719   0.02748   0.00000  -0.00052
 100        4PY        -0.05179  -0.00135  -0.00017  -0.00000  -0.06403
 101        4PZ         0.00000  -0.00000  -0.00000   0.16980  -0.00000
 102        5S         -0.09094   0.00001  -0.00002   0.00000   0.03653
 103        5PX         0.00025  -0.01037   0.01640  -0.00000  -0.00007
 104        5PY         0.02736   0.00009  -0.00013  -0.00000  -0.01255
 105        5PZ        -0.00000  -0.00000  -0.00000   0.01095   0.00000
 106        6D 0       -0.00358   0.00000   0.00000  -0.00000  -0.00099
 107        6D+1        0.00000  -0.00000  -0.00000  -0.00017  -0.00000
 108        6D-1        0.00000   0.00000   0.00000  -0.02007   0.00000
 109        6D+2       -0.01403  -0.00035  -0.00024   0.00000  -0.01293
 110        6D-2        0.00024  -0.02052  -0.01506  -0.00000   0.00021
 111 6   H  1S         -0.03881   0.07328   0.09942   0.00000  -0.06871
 112        2S         -0.05211   0.10568   0.14891  -0.00000  -0.09961
 113        3S         -0.00741   0.05188   0.07703  -0.00000  -0.05517
 114        4PX        -0.00761   0.00214   0.00944  -0.00000  -0.00484
 115        4PY         0.00038  -0.00819  -0.00103   0.00000   0.00018
 116        4PZ        -0.00000   0.00000  -0.00000   0.00887  -0.00000
 117 7   H  1S         -0.10277  -0.07740   0.07838  -0.00000   0.07562
 118        2S         -0.13963  -0.10866   0.11848   0.00000   0.11408
 119        3S         -0.03504  -0.06079   0.06226  -0.00000   0.06166
 120        4PX        -0.01114  -0.00454   0.00798   0.00000  -0.00385
 121        4PY        -0.01067  -0.00182   0.00276   0.00000   0.01103
 122        4PZ         0.00000  -0.00000  -0.00000   0.00723  -0.00000
 123 8   H  1S         -0.10276   0.07741  -0.07853   0.00000   0.07545
 124        2S         -0.13962   0.10869  -0.11870  -0.00000   0.11383
 125        3S         -0.03503   0.06080  -0.06237   0.00000   0.06152
 126        4PX         0.01096  -0.00451   0.00793   0.00000   0.00405
 127        4PY        -0.01085   0.00190  -0.00291  -0.00000   0.01096
 128        4PZ         0.00000   0.00000  -0.00000   0.00723   0.00000
 129 9   H  1S         -0.03881  -0.07329  -0.09929  -0.00000  -0.06889
 130        2S         -0.05212  -0.10570  -0.14872   0.00000  -0.09988
 131        3S         -0.00742  -0.05189  -0.07692   0.00000  -0.05532
 132        4PX         0.00761   0.00228   0.00944  -0.00000   0.00486
 133        4PY         0.00025   0.00815   0.00087   0.00000   0.00010
 134        4PZ        -0.00000   0.00000  -0.00000   0.00887  -0.00000
                          16        17        18        19        20
                           O         O         O         V         V
     Eigenvalues --    -0.23138  -0.19473  -0.17306   0.01813   0.03752
   1 1   C  1S         -0.01451  -0.00000  -0.00000  -0.01380   0.00881
   2        2S         -0.02313  -0.00000  -0.00000  -0.02275   0.01471
   3        2PX        -0.02088   0.00000  -0.00000  -0.01824   0.01017
   4        2PY         0.06685  -0.00000  -0.00000  -0.02479   0.02879
   5        2PZ         0.00000  -0.14244  -0.09932   0.00000  -0.00000
   6        3S          0.06778   0.00000   0.00000   0.07450  -0.05459
   7        3PX        -0.02815  -0.00000   0.00000  -0.03355   0.02647
   8        3PY         0.09252   0.00000   0.00000  -0.04080   0.04888
   9        3PZ         0.00000  -0.21506  -0.14909   0.00000  -0.00000
  10        4S          0.11758  -0.00000   0.00000   0.13825   0.05516
  11        4PX        -0.04173   0.00000   0.00000  -0.01121  -0.02532
  12        4PY         0.08387   0.00000   0.00000  -0.00384   0.04376
  13        4PZ         0.00000  -0.22495  -0.16526   0.00000  -0.00000
  14        5S          0.11871   0.00000   0.00000  -0.73955  -3.11887
  15        5PX        -0.00716   0.00000   0.00000   0.62711  -0.87362
  16        5PY         0.04295   0.00000   0.00000   0.37841  -1.25329
  17        5PZ         0.00000  -0.07195  -0.06903  -0.00000  -0.00000
  18        6D 0        0.00193   0.00000   0.00000  -0.00700   0.00075
  19        6D+1       -0.00000  -0.01478   0.01635   0.00000   0.00000
  20        6D-1        0.00000   0.00299  -0.01560   0.00000  -0.00000
  21        6D+2        0.00320  -0.00000   0.00000   0.00055   0.00319
  22        6D-2       -0.00043  -0.00000  -0.00000  -0.00458  -0.00113
  23 2   C  1S         -0.01451  -0.00000   0.00000  -0.01380  -0.00882
  24        2S         -0.02312  -0.00000   0.00000  -0.02275  -0.01473
  25        2PX         0.02202  -0.00000   0.00000   0.01781   0.00971
  26        2PY         0.06648  -0.00000   0.00000  -0.02509  -0.02899
  27        2PZ         0.00000  -0.14247   0.09927   0.00000   0.00000
  28        3S          0.06776  -0.00000  -0.00000   0.07450   0.05466
  29        3PX         0.02972  -0.00000   0.00000   0.03285   0.02568
  30        3PY         0.09201   0.00000  -0.00000  -0.04136  -0.04938
  31        3PZ         0.00000  -0.21511   0.14901   0.00000   0.00000
  32        4S          0.11755   0.00000  -0.00000   0.13831  -0.05516
  33        4PX         0.04317   0.00000   0.00000   0.01107  -0.02606
  34        4PY         0.08312   0.00000  -0.00000  -0.00403  -0.04335
  35        4PZ         0.00000  -0.22500   0.16516   0.00000   0.00000
  36        5S          0.11823  -0.00000  -0.00000  -0.73494   3.12255
  37        5PX         0.00794   0.00000   0.00000  -0.62122  -0.85256
  38        5PY         0.04274  -0.00000  -0.00000   0.38950   1.26952
  39        5PZ         0.00000  -0.07196   0.06899   0.00000   0.00000
  40        6D 0        0.00193  -0.00000  -0.00000  -0.00700  -0.00075
  41        6D+1       -0.00000   0.01483   0.01662  -0.00000   0.00000
  42        6D-1        0.00000   0.00273   0.01532  -0.00000  -0.00000
  43        6D+2        0.00321  -0.00000  -0.00000   0.00070  -0.00322
  44        6D-2        0.00032  -0.00000  -0.00000   0.00456  -0.00102
  45 3   C  1S          0.01569  -0.00000   0.00000  -0.01171   0.01022
  46        2S          0.02516  -0.00000  -0.00000  -0.01963   0.01720
  47        2PX        -0.03022  -0.00000  -0.00000  -0.02937   0.04219
  48        2PY        -0.07720  -0.00000   0.00000   0.00881  -0.01717
  49        2PZ        -0.00000   0.02697  -0.16024  -0.00000  -0.00000
  50        3S         -0.07405   0.00000   0.00000   0.07429  -0.06532
  51        3PX        -0.05396  -0.00000   0.00000  -0.04957   0.07480
  52        3PY        -0.11369   0.00000   0.00000   0.01955  -0.03419
  53        3PZ        -0.00000   0.04080  -0.24283  -0.00000  -0.00000
  54        4S         -0.12559  -0.00000  -0.00000  -0.05561   0.03345
  55        4PX        -0.04279  -0.00000  -0.00000  -0.16373  -0.00114
  56        4PY        -0.04627  -0.00000   0.00000  -0.00265   0.06686
  57        4PZ         0.00000   0.04707  -0.26225  -0.00000  -0.00000
  58        5S         -0.13780  -0.00000  -0.00000  -1.08169   0.58712
  59        5PX        -0.01552  -0.00000  -0.00000  -0.20144  -1.04631
  60        5PY         0.01638   0.00000   0.00000  -0.65354   0.37976
  61        5PZ        -0.00000   0.02401  -0.09530  -0.00000   0.00000
  62        6D 0        0.00392   0.00000  -0.00000  -0.00570   0.00219
  63        6D+1        0.00000   0.01171  -0.00079   0.00000  -0.00000
  64        6D-1        0.00000   0.02764   0.00814   0.00000   0.00000
  65        6D+2       -0.03449   0.00000   0.00000  -0.00398  -0.00065
  66        6D-2       -0.00171  -0.00000   0.00000   0.00282   0.00308
  67 4   C  1S          0.01569  -0.00000  -0.00000  -0.01171  -0.01021
  68        2S          0.02516  -0.00000   0.00000  -0.01962  -0.01719
  69        2PX         0.02890   0.00000  -0.00000   0.02951   0.04245
  70        2PY        -0.07770  -0.00000  -0.00000   0.00830   0.01645
  71        2PZ         0.00000   0.02690   0.16025  -0.00000  -0.00000
  72        3S         -0.07405   0.00000  -0.00000   0.07428   0.06528
  73        3PX         0.05202   0.00000   0.00000   0.04988   0.07534
  74        3PY        -0.11459  -0.00000  -0.00000   0.01870   0.03292
  75        3PZ        -0.00000   0.04070   0.24284  -0.00000   0.00000
  76        4S         -0.12553  -0.00000   0.00000  -0.05564  -0.03344
  77        4PX         0.04198   0.00000  -0.00000   0.16370  -0.00224
  78        4PY        -0.04696   0.00000  -0.00000  -0.00547  -0.06688
  79        4PZ        -0.00000   0.04698   0.26227  -0.00000  -0.00000
  80        5S         -0.13733   0.00000   0.00000  -1.08454  -0.59091
  81        5PX         0.01570  -0.00000  -0.00000   0.19102  -1.05176
  82        5PY         0.01609  -0.00000  -0.00000  -0.65622  -0.36040
  83        5PZ        -0.00000   0.02398   0.09531  -0.00000   0.00000
  84        6D 0        0.00392   0.00000  -0.00000  -0.00569  -0.00219
  85        6D+1        0.00000  -0.01124  -0.00093  -0.00000   0.00000
  86        6D-1        0.00000   0.02784  -0.00812  -0.00000  -0.00000
  87        6D+2       -0.03441  -0.00000  -0.00000  -0.00408   0.00075
  88        6D-2        0.00289   0.00000  -0.00000  -0.00268   0.00306
  89 5   N  1S         -0.03845  -0.00000  -0.00000  -0.01058   0.00000
  90        2S         -0.06161  -0.00000  -0.00000  -0.01749   0.00001
  91        2PX         0.00198  -0.00000   0.00000   0.00012  -0.01309
  92        2PY         0.23268   0.00000  -0.00000   0.01348   0.00009
  93        2PZ        -0.00000   0.17313   0.00003   0.00000   0.00000
  94        3S          0.16899  -0.00000   0.00000   0.05930  -0.00002
  95        3PX         0.00284  -0.00000  -0.00000   0.00023  -0.01768
  96        3PY         0.33320   0.00000  -0.00000   0.02689   0.00012
  97        3PZ        -0.00000   0.25764   0.00005   0.00000  -0.00000
  98        4S          0.30792   0.00000  -0.00000   0.13098   0.00002
  99        4PX         0.00241   0.00000   0.00000  -0.00056  -0.00290
 100        4PY         0.28507  -0.00000   0.00000  -0.06710  -0.00002
 101        4PZ        -0.00000   0.25942   0.00005   0.00000   0.00000
 102        5S          0.24594   0.00000  -0.00000   1.74079  -0.00010
 103        5PX         0.00066  -0.00000  -0.00000   0.00038   0.36012
 104        5PY         0.08433  -0.00000   0.00000   0.03678  -0.00308
 105        5PZ         0.00000   0.09891   0.00003   0.00000  -0.00000
 106        6D 0        0.01124  -0.00000   0.00000  -0.00300  -0.00000
 107        6D+1       -0.00000  -0.00011   0.02086  -0.00000  -0.00000
 108        6D-1       -0.00000  -0.01213  -0.00018  -0.00000   0.00000
 109        6D+2        0.00738   0.00000  -0.00000   0.00622   0.00001
 110        6D-2       -0.00013  -0.00000  -0.00000  -0.00011   0.00065
 111 6   H  1S         -0.03510   0.00000   0.00000   0.01404  -0.02300
 112        2S         -0.06042  -0.00000  -0.00000  -0.05585   0.00194
 113        3S         -0.06619  -0.00000   0.00000   0.23325  -0.40928
 114        4PX        -0.00252  -0.00000  -0.00000   0.00655  -0.01338
 115        4PY        -0.00486   0.00000  -0.00000  -0.00262   0.00186
 116        4PZ         0.00000   0.00239  -0.01539  -0.00000  -0.00000
 117 7   H  1S         -0.02543  -0.00000  -0.00000   0.01255  -0.01509
 118        2S         -0.04843   0.00000   0.00000  -0.04978   0.01174
 119        3S         -0.03978  -0.00000  -0.00000   0.35171  -0.27821
 120        4PX        -0.00445   0.00000   0.00000   0.00525  -0.00905
 121        4PY         0.00118   0.00000   0.00000   0.00733  -0.00431
 122        4PZ         0.00000  -0.01361  -0.00971   0.00000  -0.00000
 123 8   H  1S         -0.02542   0.00000   0.00000   0.01255   0.01511
 124        2S         -0.04843  -0.00000  -0.00000  -0.04978  -0.01176
 125        3S         -0.03978   0.00000   0.00000   0.35166   0.27855
 126        4PX         0.00447  -0.00000   0.00000  -0.00512  -0.00898
 127        4PY         0.00110  -0.00000  -0.00000   0.00742   0.00447
 128        4PZ         0.00000  -0.01362   0.00970  -0.00000   0.00000
 129 9   H  1S         -0.03510  -0.00000  -0.00000   0.01404   0.02300
 130        2S         -0.06042   0.00000   0.00000  -0.05586  -0.00193
 131        3S         -0.06617  -0.00000   0.00000   0.23317   0.40910
 132        4PX         0.00244  -0.00000  -0.00000  -0.00659  -0.01341
 133        4PY        -0.00490   0.00000   0.00000  -0.00250  -0.00162
 134        4PZ         0.00000   0.00239   0.01539   0.00000   0.00000
                          21        22        23        24        25
                           V         V         V         V         V
     Eigenvalues --     0.04220   0.05314   0.05915   0.06641   0.07579
   1 1   C  1S         -0.01026   0.00000   0.01889  -0.00512  -0.00000
   2        2S         -0.01702   0.00000   0.03065  -0.00833  -0.00000
   3        2PX        -0.02802   0.00000   0.01127   0.01944  -0.00000
   4        2PY        -0.02643   0.00000   0.01596   0.01028   0.00000
   5        2PZ         0.00000  -0.05799   0.00000  -0.00000  -0.01186
   6        3S          0.06142  -0.00000  -0.08993   0.02318   0.00000
   7        3PX        -0.04636   0.00000   0.02359   0.01988  -0.00000
   8        3PY        -0.05056   0.00000   0.03296   0.02303   0.00000
   9        3PZ         0.00000  -0.07131   0.00000  -0.00000   0.00531
  10        4S         -0.01047  -0.00000  -0.51187   0.07603  -0.00000
  11        4PX        -0.01006  -0.00000  -0.17976   0.07773   0.00000
  12        4PY        -0.02146  -0.00000  -0.20931   0.08176  -0.00000
  13        4PZ         0.00000  -0.18167   0.00000  -0.00000  -0.07518
  14        5S          4.45005  -0.00000 -23.86846   2.37577   0.00000
  15        5PX         0.27906  -0.00000  -3.22061  -0.01003  -0.00000
  16        5PY         1.75074  -0.00000  -4.91543   0.75421   0.00000
  17        5PZ        -0.00000  -0.20036   0.00000  -0.00000   0.92600
  18        6D 0       -0.00038  -0.00000  -0.00134  -0.00903  -0.00000
  19        6D+1        0.00000  -0.01191   0.00000   0.00000   0.00475
  20        6D-1       -0.00000   0.00352  -0.00000  -0.00000  -0.02192
  21        6D+2        0.00275   0.00000   0.00287   0.00645  -0.00000
  22        6D-2        0.00553   0.00000  -0.00205   0.00543   0.00000
  23 2   C  1S         -0.01024  -0.00000  -0.01889  -0.00512   0.00000
  24        2S         -0.01699  -0.00000  -0.03066  -0.00832   0.00000
  25        2PX         0.02755   0.00000   0.01100  -0.01926  -0.00000
  26        2PY        -0.02687  -0.00000  -0.01616   0.01062   0.00000
  27        2PZ         0.00000  -0.05799   0.00000   0.00000  -0.01198
  28        3S          0.06133   0.00000   0.08994   0.02318  -0.00000
  29        3PX         0.04546   0.00000   0.02304  -0.01948  -0.00000
  30        3PY        -0.05128  -0.00000  -0.03338   0.02337   0.00000
  31        3PZ         0.00000  -0.07130   0.00000   0.00000   0.00513
  32        4S         -0.01066   0.00000   0.51180   0.07600  -0.00000
  33        4PX         0.00977  -0.00000  -0.17617  -0.07634   0.00000
  34        4PY        -0.02171   0.00000   0.21231   0.08303   0.00000
  35        4PZ         0.00000  -0.18166   0.00000   0.00000  -0.07555
  36        5S          4.43868   0.00000  23.86876   2.37616   0.00000
  37        5PX        -0.24842  -0.00000  -3.13690   0.02353  -0.00000
  38        5PY         1.75133   0.00000   4.97007   0.75448   0.00000
  39        5PZ         0.00000  -0.20022   0.00000   0.00000   0.92401
  40        6D 0       -0.00038   0.00000   0.00134  -0.00903   0.00000
  41        6D+1       -0.00000   0.01197  -0.00000   0.00000  -0.00514
  42        6D-1       -0.00000   0.00332  -0.00000  -0.00000  -0.02183
  43        6D+2        0.00256   0.00000  -0.00294   0.00626  -0.00000
  44        6D-2       -0.00562   0.00000  -0.00195  -0.00565   0.00000
  45 3   C  1S          0.00850  -0.00000  -0.01169   0.01492  -0.00000
  46        2S          0.01429  -0.00000  -0.01921   0.02343  -0.00000
  47        2PX         0.02577  -0.00000  -0.01930   0.01561  -0.00000
  48        2PY         0.00317   0.00000   0.00587  -0.01335  -0.00000
  49        2PZ        -0.00000   0.01828  -0.00000  -0.00000  -0.10655
  50        3S         -0.05349   0.00000   0.06284  -0.04413   0.00000
  51        3PX         0.04696  -0.00000  -0.03481   0.03760  -0.00000
  52        3PY        -0.00215   0.00000   0.01624  -0.01615   0.00000
  53        3PZ        -0.00000   0.03769  -0.00000  -0.00000  -0.14169
  54        4S         -0.00083   0.00000   0.22320  -0.54969   0.00000
  55        4PX        -0.00190   0.00000   0.13268  -0.13270  -0.00000
  56        4PY        -0.01811  -0.00000  -0.17525  -0.08798  -0.00000
  57        4PZ        -0.00000   0.03175  -0.00000  -0.00000  -0.36448
  58        5S         -4.22091   0.00000  14.17900  -3.81542  -0.00000
  59        5PX        -0.91176   0.00000   2.68777  -1.95133  -0.00000
  60        5PY         1.77549  -0.00000  -3.50863   0.17979   0.00000
  61        5PZ        -0.00000   1.09144  -0.00000   0.00000  -0.76067
  62        6D 0        0.00041   0.00000   0.00083  -0.00801  -0.00000
  63        6D+1        0.00000  -0.01971   0.00000   0.00000   0.01274
  64        6D-1        0.00000  -0.00173   0.00000   0.00000   0.01129
  65        6D+2       -0.00166   0.00000   0.00312   0.00336  -0.00000
  66        6D-2       -0.00107   0.00000   0.00401   0.00604  -0.00000
  67 4   C  1S          0.00850   0.00000   0.01170   0.01492  -0.00000
  68        2S          0.01429   0.00000   0.01923   0.02343  -0.00000
  69        2PX        -0.02574  -0.00000  -0.01942  -0.01583   0.00000
  70        2PY         0.00360  -0.00000  -0.00554  -0.01308   0.00000
  71        2PZ        -0.00000   0.01828  -0.00000  -0.00000  -0.10647
  72        3S         -0.05352  -0.00000  -0.06289  -0.04413   0.00000
  73        3PX        -0.04705  -0.00000  -0.03510  -0.03786   0.00000
  74        3PY        -0.00137  -0.00000  -0.01565  -0.01551   0.00000
  75        3PZ        -0.00000   0.03769  -0.00000  -0.00000  -0.14157
  76        4S         -0.00062   0.00000  -0.22318  -0.54965  -0.00000
  77        4PX         0.00154  -0.00000   0.13559   0.13118   0.00000
  78        4PY        -0.01813   0.00000   0.17298  -0.09026  -0.00000
  79        4PZ        -0.00000   0.03175  -0.00000  -0.00000  -0.36423
  80        5S         -4.21352  -0.00000 -14.17859  -3.81639  -0.00000
  81        5PX         0.94208   0.00000   2.74723   1.95369  -0.00000
  82        5PY         1.75795   0.00000   3.46257   0.14732   0.00000
  83        5PZ        -0.00000   1.09128  -0.00000  -0.00000  -0.75944
  84        6D 0        0.00041  -0.00000  -0.00083  -0.00801   0.00000
  85        6D+1       -0.00000   0.01968  -0.00000  -0.00000  -0.01254
  86        6D-1       -0.00000  -0.00207   0.00000  -0.00000   0.01153
  87        6D+2       -0.00162  -0.00000  -0.00299   0.00315   0.00000
  88        6D-2        0.00112   0.00000   0.00411  -0.00615   0.00000
  89 5   N  1S          0.00948   0.00000   0.00000  -0.02216   0.00000
  90        2S          0.01583   0.00000   0.00000  -0.03652   0.00000
  91        2PX        -0.00037   0.00000  -0.00044   0.00013  -0.00000
  92        2PY        -0.04487  -0.00000  -0.00001   0.01590  -0.00000
  93        2PZ         0.00000  -0.09223   0.00000   0.00000   0.12818
  94        3S         -0.05817  -0.00000  -0.00001   0.12180  -0.00000
  95        3PX        -0.00055   0.00000  -0.00217   0.00023  -0.00000
  96        3PY        -0.06622  -0.00000   0.00000   0.02775  -0.00000
  97        3PZ         0.00000  -0.14749   0.00000   0.00000   0.18427
  98        4S          0.00854  -0.00000   0.00001   0.24117   0.00000
  99        4PX        -0.00073  -0.00000   0.02028  -0.00066   0.00000
 100        4PY        -0.08440   0.00000  -0.00017  -0.07771  -0.00000
 101        4PZ         0.00000  -0.12682   0.00000   0.00000   0.30061
 102        5S         -0.60401  -0.00000  -0.00064   4.38515   0.00000
 103        5PX        -0.00047   0.00000  -0.31411  -0.00620  -0.00000
 104        5PY        -0.04331   0.00000   0.00272  -0.72205  -0.00000
 105        5PZ         0.00000  -0.77273   0.00000   0.00000   0.53950
 106        6D 0       -0.00148   0.00000   0.00000  -0.00267  -0.00000
 107        6D+1       -0.00000   0.00004  -0.00000  -0.00000   0.00003
 108        6D-1       -0.00000   0.00505  -0.00000   0.00000   0.00304
 109        6D+2       -0.00500  -0.00000   0.00005  -0.00293   0.00000
 110        6D-2        0.00008   0.00000   0.00297   0.00005  -0.00000
 111 6   H  1S         -0.00887  -0.00000   0.00282   0.00511   0.00000
 112        2S          0.02821   0.00000   0.01152   0.07948  -0.00000
 113        3S         -0.25595   0.00000   0.18976  -0.19749   0.00000
 114        4PX        -0.00446   0.00000   0.00886  -0.00855   0.00000
 115        4PY         0.00830  -0.00000  -0.00978  -0.00301   0.00000
 116        4PZ         0.00000   0.01253  -0.00000   0.00000  -0.01361
 117 7   H  1S          0.02152   0.00000  -0.00498   0.00122   0.00000
 118        2S         -0.00953  -0.00000  -0.00350   0.02557   0.00000
 119        3S          0.32428   0.00000  -0.24676   0.09295   0.00000
 120        4PX         0.00214  -0.00000  -0.01038  -0.00757   0.00000
 121        4PY         0.01166  -0.00000  -0.00913   0.00254  -0.00000
 122        4PZ        -0.00000  -0.00207  -0.00000  -0.00000   0.01075
 123 8   H  1S          0.02150   0.00000   0.00498   0.00122  -0.00000
 124        2S         -0.00953   0.00000   0.00349   0.02556   0.00000
 125        3S          0.32392   0.00000   0.24684   0.09296  -0.00000
 126        4PX        -0.00193  -0.00000  -0.01023   0.00761  -0.00000
 127        4PY         0.01169   0.00000   0.00931   0.00241  -0.00000
 128        4PZ         0.00000  -0.00207   0.00000   0.00000   0.01073
 129 9   H  1S         -0.00889  -0.00000  -0.00283   0.00511   0.00000
 130        2S          0.02822  -0.00000  -0.01148   0.07948  -0.00000
 131        3S         -0.25631  -0.00000  -0.19002  -0.19744   0.00000
 132        4PX         0.00461   0.00000   0.00902   0.00850  -0.00000
 133        4PY         0.00822   0.00000   0.00963  -0.00315   0.00000
 134        4PZ        -0.00000   0.01253  -0.00000  -0.00000  -0.01359
                          26        27        28        29        30
                           V         V         V         V         V
     Eigenvalues --     0.07714   0.08256   0.09708   0.11250   0.11567
   1 1   C  1S         -0.00000   0.00125   0.00000  -0.00137   0.00000
   2        2S         -0.00000   0.00153   0.00000  -0.00254   0.00000
   3        2PX        -0.00000  -0.00468  -0.00000  -0.01052  -0.00000
   4        2PY         0.00000  -0.03114  -0.00000  -0.02002  -0.00000
   5        2PZ        -0.12394  -0.00000   0.05580   0.00000  -0.07763
   6        3S          0.00000   0.00561   0.00000   0.00939  -0.00000
   7        3PX        -0.00000  -0.00598  -0.00000  -0.02328  -0.00000
   8        3PY         0.00000  -0.03708  -0.00000  -0.03464  -0.00000
   9        3PZ        -0.18487  -0.00000   0.06530   0.00000  -0.09477
  10        4S         -0.00000  -0.04361  -0.00000  -0.04670  -0.00000
  11        4PX        -0.00000  -0.05337  -0.00000   0.05261  -0.00000
  12        4PY        -0.00000  -0.07534  -0.00000  -0.00237   0.00000
  13        4PZ        -0.37753  -0.00000   0.21738   0.00000  -0.33072
  14        5S          0.00000  -4.74999   0.00000   6.41287   0.00000
  15        5PX        -0.00000   0.70903  -0.00000   3.07928   0.00000
  16        5PY         0.00000  -0.44508   0.00000   1.76200  -0.00000
  17        5PZ        -2.11516  -0.00000  -0.45503  -0.00000   0.82281
  18        6D 0       -0.00000   0.01848   0.00000  -0.00293  -0.00000
  19        6D+1        0.01674   0.00000  -0.00250   0.00000  -0.01621
  20        6D-1        0.01146  -0.00000   0.00634  -0.00000   0.01260
  21        6D+2       -0.00000   0.01016   0.00000   0.00531  -0.00000
[...]
     14  0.000000D+00 -0.821250D-01 -0.167436D+00  0.000000D+00  0.828849D-01
     15  0.181197D-01  0.000000D+00  0.000000D+00 -0.700660D-01  0.000000D+00
     16  0.000000D+00 -0.280030D+00  0.100816D+00  0.000000D+00 -0.333669D-02
     17  0.000000D+00  0.103995D+00 -0.103964D+00  0.000000D+00 -0.340874D-02
     18  0.391444D-02  0.000000D+00  0.000000D+00 -0.216990D-01  0.000000D+00
     19  0.000000D+00  0.973399D-02  0.762563D-02  0.000000D+00 -0.628234D-02
     20  0.000000D+00 -0.213308D-01 -0.683420D-02  0.000000D+00  0.218295D-02
     21 -0.208979D-02  0.000000D+00  0.000000D+00 -0.313629D-02  0.000000D+00
     22  0.000000D+00 -0.631913D-02 -0.233652D-04  0.000000D+00  0.996805D-02
     23  0.000000D+00 -0.209882D-02 -0.129827D-02  0.000000D+00  0.210440D-01
     24 -0.198793D-01  0.000000D+00  0.000000D+00  0.345203D-02  0.000000D+00
     25  0.000000D+00 -0.320662D-02  0.422176D-02  0.000000D+00 -0.283411D+00
     26  0.000000D+00  0.342747D-02 -0.230905D-02  0.000000D+00 -0.101036D+00
     27 -0.481105D-03  0.000000D+00  0.000000D+00  0.497970D-02  0.000000D+00
               11            12            13            14            15 
     11  0.589547D+00
     12  0.000000D+00  0.123128D+00
     13  0.107752D+00  0.000000D+00  0.471122D+00
     14 -0.170239D+00  0.000000D+00 -0.195485D-03  0.467784D+00
     15  0.000000D+00 -0.702027D-01  0.000000D+00  0.000000D+00  0.104614D+00
     16 -0.420126D-02  0.000000D+00 -0.220846D-01  0.921343D-02  0.000000D+00
     17 -0.217907D-02  0.000000D+00 -0.200359D-01  0.118534D-01  0.000000D+00
     18  0.000000D+00  0.497862D-02  0.000000D+00  0.000000D+00 -0.712026D-02
     19  0.104576D-03  0.000000D+00  0.342024D-04  0.280257D-02  0.000000D+00
     20 -0.133334D-02  0.000000D+00 -0.878418D-03 -0.677885D-02  0.000000D+00
     21  0.000000D+00  0.345115D-02  0.000000D+00  0.000000D+00  0.683609D-02
     22 -0.791294D-02  0.000000D+00  0.290306D-05 -0.291772D-02  0.000000D+00
     23 -0.707079D-02  0.000000D+00  0.758850D-03 -0.673077D-02  0.000000D+00
     24  0.000000D+00 -0.313181D-02  0.000000D+00  0.000000D+00  0.683446D-02
     25 -0.977884D-01  0.000000D+00 -0.218984D-01 -0.863309D-02  0.000000D+00
     26 -0.100467D+00  0.000000D+00  0.206809D-01  0.116221D-01  0.000000D+00
     27  0.000000D+00 -0.216605D-01  0.000000D+00  0.000000D+00 -0.713189D-02
               16            17            18            19            20 
     16  0.307373D+00
     17 -0.105920D+00  0.979524D-01
     18  0.000000D+00  0.000000D+00  0.197461D-01
     19 -0.146091D-03 -0.100917D-02  0.000000D+00  0.162323D+00
     20  0.827848D-03  0.223449D-03  0.000000D+00  0.150311D+00  0.240092D+00
     21  0.000000D+00  0.000000D+00 -0.244822D-02  0.000000D+00  0.000000D+00
     22 -0.122446D-03  0.163150D-02  0.000000D+00  0.691221D-03 -0.978254D-03
     23  0.831198D-04  0.410728D-03  0.000000D+00  0.967173D-03 -0.133787D-03
     24  0.000000D+00  0.000000D+00  0.150574D-02  0.000000D+00  0.000000D+00
     25 -0.112716D-02 -0.816627D-03  0.000000D+00 -0.151515D-03 -0.744567D-04
     26  0.850315D-03  0.803896D-03  0.000000D+00 -0.162161D-02  0.438770D-03
     27  0.000000D+00  0.000000D+00  0.160377D-02  0.000000D+00  0.000000D+00
               21            22            23            24            25 
     21  0.181308D-01
     22  0.000000D+00  0.157243D+00
     23  0.000000D+00 -0.148984D+00  0.245168D+00
     24 -0.237265D-02  0.000000D+00  0.000000D+00  0.181328D-01
     25  0.000000D+00 -0.143538D-03 -0.820574D-03  0.000000D+00  0.310880D+00
     26  0.000000D+00  0.101538D-02  0.221807D-03  0.000000D+00  0.102314D+00
     27  0.150650D-02  0.000000D+00  0.000000D+00 -0.244937D-02  0.000000D+00
               26            27 
     26  0.943851D-01
     27  0.000000D+00  0.197195D-01
 Leave Link  716 at Fri Jun  2 11:12:48 2023, MaxMem=  7381975040 cpu:               0.3 elap:               0.9
 (Enter /software/commercial/gaussian/g16/AVX/g16/l103.exe)

 GradGradGradGradGradGradGradGradGradGradGradGradGradGradGradGradGradGrad
 Berny optimization.
 Search for a local minimum.
 Step number   1 out of a maximum of    2
 All quantities printed in internal units (Hartrees-Bohrs-Radians)
 Second derivative matrix not updated -- analytic derivatives used.
 ITU=  0
     Eigenvalues ---    0.02216   0.02827   0.04167   0.04652   0.05082
     Eigenvalues ---    0.05811   0.06160   0.15418   0.16680   0.20145
     Eigenvalues ---    0.21369   0.23687   0.27022   0.37402   0.59291
     Eigenvalues ---    0.73234   0.80874   0.94019   1.05276   1.12936
     Eigenvalues ---    1.17640
 Angle between quadratic step and forces=  51.10 degrees.
 Linear search not attempted -- first point.
 B after Tr=     0.000000    0.000025   -0.000000
         Rot=    1.000000    0.000000   -0.000000    0.000000 Ang=   0.00 deg.
 Variable       Old X    -DE/DX   Delta X   Delta X   Delta X     New X
                                 (Linear)    (Quad)   (Total)
    X1       -5.39449  -0.00000   0.00000  -0.00001  -0.00001  -5.39449
    Y1       -3.28939   0.00001   0.00000   0.00003   0.00005  -3.28934
    Z1       -0.00000   0.00000   0.00000   0.00000   0.00000   0.00000
    X2       -2.70942  -0.00000   0.00000   0.00001   0.00001  -2.70941
    Y2       -3.31230   0.00000   0.00000   0.00003   0.00005  -3.31225
    Z2        0.00000   0.00000   0.00000   0.00000   0.00000   0.00000
    X3       -6.08616  -0.00008   0.00000  -0.00015  -0.00015  -6.08631
    Y3       -0.73269  -0.00003   0.00000  -0.00002   0.00000  -0.73269
    Z3       -0.00000  -0.00000   0.00000  -0.00000  -0.00000  -0.00000
    X4       -1.97438   0.00008   0.00000   0.00014   0.00015  -1.97424
    Y4       -0.76776  -0.00004   0.00000  -0.00003  -0.00000  -0.76777
    Z4        0.00000  -0.00000   0.00000  -0.00000  -0.00000  -0.00000
    X5       -4.01695   0.00001   0.00000   0.00000   0.00000  -4.01695
    Y5        0.81539   0.00008   0.00000   0.00013   0.00015   0.81554
    Z5       -0.00000   0.00000   0.00000   0.00000   0.00000   0.00000
    X6       -7.98002  -0.00001   0.00000  -0.00021  -0.00021  -7.98023
    Y6        0.05155   0.00000   0.00000  -0.00010  -0.00008   0.05147
    Z6        0.00000  -0.00000   0.00000  -0.00000  -0.00000  -0.00000
    X7       -6.64904  -0.00000   0.00000   0.00010   0.00010  -6.64895
    Y7       -4.90620  -0.00000   0.00000  -0.00007  -0.00005  -4.90625
    Z7       -0.00000  -0.00000   0.00000   0.00000   0.00000   0.00000
    X8       -1.48245  -0.00000   0.00000  -0.00010  -0.00010  -1.48254
    Y8       -4.95011  -0.00001   0.00000  -0.00007  -0.00005  -4.95016
    Z8        0.00000  -0.00000   0.00000  -0.00000  -0.00000  -0.00000
    X9       -0.06750   0.00002   0.00000   0.00021   0.00021  -0.06729
    Y9       -0.01577  -0.00000   0.00000  -0.00011  -0.00008  -0.01586
    Z9       -0.00000   0.00000   0.00000   0.00000   0.00000   0.00000
         Item               Value     Threshold  Converged?
 Maximum Force            0.000083     0.000450     YES
 RMS     Force            0.000029     0.000300     YES
 Maximum Displacement     0.000211     0.001800     YES
 RMS     Displacement     0.000085     0.001200     YES
 Predicted change in Energy=-2.151261D-08
 Optimization completed.
    -- Stationary point found.
 GradGradGradGradGradGradGradGradGradGradGradGradGradGradGradGradGradGrad

 Leave Link  103 at Fri Jun  2 11:12:51 2023, MaxMem=  7381975040 cpu:               1.4 elap:               1.9
 (Enter /software/commercial/gaussian/g16/AVX/g16/l9999.exe)

 ----------------------------------------------------------------------

 Electric dipole moment (input orientation):
 (Debye = 10**-18 statcoulomb cm , SI units = C m)
                  (au)            (Debye)         (10**-30 SI)
   Tot        0.404340D+01      0.102773D+02      0.342813D+02
   x          0.402705D+01      0.102357D+02      0.341428D+02
   y          0.363200D+00      0.923161D+00      0.307933D+01
   z          0.000000D+00      0.000000D+00      0.000000D+00

 Dipole polarizability, Alpha (input orientation).
 (esu units = cm**3 , SI units = C**2 m**2 J**-1)
 Alpha(0;0):
               (au)            (10**-24 esu)      (10**-40 SI)
   iso        0.864139D+02      0.128052D+02      0.142477D+02
   aniso      0.287910D+02      0.426639D+01      0.474700D+01
   xx         0.948762D+02      0.140592D+02      0.156430D+02
   yx         0.177445D-01      0.262946D-02      0.292567D-02
   yy         0.971026D+02      0.143891D+02      0.160101D+02
   zx         0.000000D+00      0.000000D+00      0.000000D+00
   zy         0.000000D+00      0.000000D+00      0.000000D+00
   zz         0.672630D+02      0.996735D+01      0.110902D+02

 First dipole hyperpolarizability, Beta (input orientation).
 ||, _|_  parallel and perpendicular components, (z) with respect to z axis,
 vector components x,y,z.  Values do not include the 1/n! factor of 1/2.
 (esu units = statvolt**-1 cm**4 , SI units = C**3 m**3 J**-2)
 Beta(0;0,0):
               (au)            (10**-30 esu)      (10**-50 SI)
   || (z)     0.000000D+00      0.000000D+00      0.000000D+00
   _|_(z)     0.000000D+00      0.000000D+00      0.000000D+00
   x         -0.447201D+01     -0.386347D-01     -0.143389D-01
   y         -0.511365D+03     -0.441779D+01     -0.163962D+01
   z          0.000000D+00      0.000000D+00      0.000000D+00
   ||         0.102277D+03      0.883593D+00      0.327937D+00
   xxx        0.286518D+01      0.247529D-01      0.918679D-02
   xxy        0.111137D+03      0.960141D+00      0.356347D+00
   yxy       -0.264155D+01     -0.228209D-01     -0.846975D-02
   yyy       -0.751521D+02     -0.649256D+00     -0.240965D+00
   xxz        0.000000D+00      0.000000D+00      0.000000D+00
   yxz        0.000000D+00      0.000000D+00      0.000000D+00
   yyz        0.000000D+00      0.000000D+00      0.000000D+00
   zxz       -0.171430D+01     -0.148102D-01     -0.549666D-02
   zyz       -0.206440D+03     -0.178348D+01     -0.661922D+00
   zzz        0.000000D+00      0.000000D+00      0.000000D+00

 ----------------------------------------------------------------------

 Dipole orientation:
     6          0.25075036         -2.78024696         -5.66815007
     6          0.27446444         -3.04318183         -2.99599601
     6          0.01644114         -0.18229460         -6.12737166
     6          0.05275542         -0.58493677         -2.03536702
     7         -0.10535795          1.16817831         -3.92746961
     1         -0.06899927          0.76504382         -7.94312687
     1          0.38527157         -4.27177901         -7.06286710
     1          0.43088708         -4.77755055         -1.92110073
     1          0.00086658         -0.00960834         -0.06864323

 Electric dipole moment (dipole orientation):
 (Debye = 10**-18 statcoulomb cm , SI units = C m)
                  (au)            (Debye)         (10**-30 SI)
   Tot        0.404340D+01      0.102773D+02      0.342813D+02
   x          0.000000D+00      0.000000D+00      0.000000D+00
   y          0.000000D+00      0.000000D+00      0.000000D+00
   z          0.404340D+01      0.102773D+02      0.342813D+02

 Dipole polarizability, Alpha (dipole orientation).
 (esu units = cm**3 , SI units = C**2 m**2 J**-1)
 Alpha(0;0):
               (au)            (10**-24 esu)      (10**-40 SI)
   iso        0.864139D+02      0.128052D+02      0.142477D+02
   aniso      0.287910D+02      0.426639D+01      0.474700D+01
   xx         0.675036D+02      0.100030D+02      0.111298D+02
   yx        -0.266763D+01     -0.395301D+00     -0.439832D+00
   yy         0.968409D+02      0.143503D+02      0.159669D+02
   zx        -0.194597D-01     -0.288362D-02     -0.320846D-02
   zy         0.215763D+00      0.319728D-01      0.355745D-01
   zz         0.948973D+02      0.140623D+02      0.156465D+02

 First dipole hyperpolarizability, Beta (dipole orientation).
 ||, _|_  parallel and perpendicular components, (z) with respect to z axis,
 vector components x,y,z.  Values do not include the 1/n! factor of 1/2.
 (esu units = statvolt**-1 cm**4 , SI units = C**3 m**3 J**-2)
 Beta(0;0,0):
               (au)            (10**-30 esu)      (10**-50 SI)
   || (z)    -0.100775D+02     -0.870617D-01     -0.323121D-01
   _|_(z)    -0.335916D+01     -0.290206D-01     -0.107707D-01
   x          0.457118D+02      0.394914D+00      0.146568D+00
   y         -0.506839D+03     -0.437869D+01     -0.162511D+01
   z         -0.503875D+02     -0.435308D+00     -0.161560D+00
   ||         0.102277D+03      0.883593D+00      0.327937D+00
   xxx        0.549690D+02      0.474889D+00      0.176251D+00
   xxy       -0.200238D+03     -0.172990D+01     -0.642035D+00
   yxy       -0.301491D+02     -0.260465D+00     -0.966689D-01
   yyy       -0.749582D+02     -0.647580D+00     -0.240343D+00
   xxz       -0.203213D+02     -0.175560D+00     -0.651573D-01
   yxz        0.779538D+00      0.673460D-02      0.249948D-02
   yyz       -0.288942D+02     -0.249624D+00     -0.926454D-01
   zxz       -0.958265D+01     -0.827866D-01     -0.307254D-01
   zyz        0.106250D+03      0.917914D+00      0.340675D+00
   zzz        0.324197D+02      0.280081D+00      0.103949D+00

 ----------------------------------------------------------------------
 Unable to Open any file for archive entry.
 1\1\GINC-NODE1775\Freq\RB3LYP\6-311+G(d,p)\C4H4N1(1-)\SVICCHI\02-Jun-2
 023\0\\#p freq=raman scale=0.967 pop=(nbo,full,hirshfeld) guess=read g
 eom=allcheck b3lyp/6-311+G(d,p) int=grid=ultrafine EmpiricalDispersion
 =GD3BJ SCRF=(Solvent=ethanol) scf=(xqc,intrep,maxconventionalcycle=350
 ) nosymm\\pyrrolide-isolated.gjf\\-1,1\C,-2.8546392609,-1.7406705584,0
 .\C,-1.4337635027,-1.7527927611,0.\C,-3.2206575987,-0.3877218018,0.\C,
 -1.044798853,-0.4062834054,0.\N,-2.1256788667,0.4314868136,0.\H,-4.222
 8427649,0.0272788359,0.\H,-3.5185226153,-2.5962511638,0.\H,-0.78447751
 53,-2.6194875888,0.\H,-0.0357190225,-0.0083473703,0.\\Version=ES64L-G1
 6RevC.01\HF=-209.7489118\RMSD=5.184e-10\RMSF=2.945e-05\ZeroPoint=0.066
 029\Thermal=0.0698565\ETot=-209.6790552\HTot=-209.678111\GTot=-209.709
 1408\Dipole=-0.0096457,-1.1432475,0.\DipoleDeriv=-0.001822,-0.249851,0
 .,-0.1724027,-0.2146246,0.,0.,0.,-0.4590462,0.0050592,0.2461054,0.,0.1
 689075,-0.2235183,0.,0.,0.,-0.4587314,-0.0703517,0.24054,0.,0.1298282,
 0.4124555,0.,0.,0.,-0.3405455,-0.0763189,-0.2320397,0.,-0.1208503,0.42
 03006,0.,0.,0.,-0.3408919,-0.3367989,-0.0075137,0.,-0.0083642,-1.20097
 ,0.,0.,0.,-0.4664427,-0.220754,0.0893618,0.,0.1259319,0.0236486,0.,0.,
 0.,0.2472642,-0.0402814,-0.1691612,0.,-0.1655248,-0.1199469,0.,0.,0.,0
 .2854542,-0.0344455,0.1677129,0.,0.1639071,-0.1246981,0.,0.,0.,0.28573
 94,-0.2242867,-0.0851547,0.,-0.1214328,0.0273533,0.,0.,0.,0.2471999\Po
 lar=94.8761704,0.0177445,97.1025916,0.,0.,67.2630001\PolarDeriv=14.138
 7172,1.4983984,-7.9495855,0.,0.,-4.2446986,-12.0661175,-1.0004232,2.50
 33512,0.,0.,-11.6858714,0.,0.,0.,-6.0975198,-8.725334,0.,-14.2748278,1
 .8952971,7.9167282,0.,0.,4.0497823,-11.772319,1.2278694,2.2387563,0.,0
 .,-11.7634326,0.,0.,0.,5.962194,-8.8468054,0.,-2.5859671,5.8304805,-9.
 3012872,0.,0.,-5.8941752,13.4897896,9.4449427,-1.3924926,0.,0.,11.4342
 381,0.,0.,0.,-10.8082786,4.7161381,0.,3.0037337,5.7606211,9.065699,0.,
 0.,6.1089152,13.1222892,-9.8245667,-1.2646848,0.,0.,11.3402438,0.,0.,0
 .,10.8933593,4.5359253,0.,-0.2337673,-12.9803022,0.3572994,0.,0.,-0.01
 69599,-2.2314025,0.2825989,14.3090811,0.,0.,0.2535399,0.,0.,0.,0.03191
 63,5.4120603,0.,-14.5119966,4.5526722,-1.5047652,0.,0.,0.8905396,4.307
 5296,-3.4211147,2.3008372,0.,0.,-0.6773756,0.,0.,0.,2.8884107,-1.19463
 99,0.,-5.4407198,-5.5312503,-5.958525,0.,0.,0.7224,-4.565105,-6.110278
 6,-10.3054197,0.,0.,0.8724794,0.,0.,0.,2.0126226,2.5968761,0.,5.172684
 5,-5.4116593,5.9811045,0.,0.,-0.7127757,-4.4512581,6.0894443,-10.55013
 48,0.,0.,0.8823698,0.,0.,0.,-1.9803336,2.647006,0.,14.7321432,4.385742
 5,1.3933319,0.,0.,-0.9030277,4.1665936,3.3115278,2.160706,0.,0.,-0.656
 1915,0.,0.,0.,-2.9023708,-1.1412264,0.\HyperPolar=2.8651754,111.137495
 7,-2.6415469,-75.1520889,0.,0.,0.,-1.7142983,-206.440362,0.\Quadrupole
 =-8.0724127,3.3536761,4.7187366,-1.502557,0.,0.\PG=CS [SG(C4H4N1)]\NIm
 ag=0\\0.61533463,0.12767485,0.70875152,0.,0.,0.10338130,-0.28508296,-0
 .01115390,0.,0.61118117,0.01419657,-0.09589974,0.,-0.12599093,0.713141
 45,0.,0.,-0.05349113,0.,0.,0.10362186,-0.10825465,0.07284565,0.,-0.042
 85503,0.01802071,0.,0.74859087,0.05096763,-0.29638877,0.,0.06922752,-0
 .01736369,0.,-0.11022879,0.59362267,0.,0.,-0.06243948,0.,0.,0.01298831
 ,0.,0.,0.12274984,-0.04435076,-0.01760310,0.,-0.11054942,-0.07589187,0
 .,-0.11303531,-0.01553983,0.,0.75219875,-0.06877902,-0.01590147,0.,-0.
 05403697,-0.29432811,0.,0.01749450,0.00197171,0.,0.10736758,0.58954723
 ,0.,0.,0.01296976,0.,0.,-0.06270294,0.,0.,0.01317087,0.,0.,0.12312752,
 -0.01120758,-0.05653446,0.,-0.01014285,0.05551880,0.,-0.20462424,-0.10
 706621,0.,-0.20120103,0.10775191,0.,0.47112155,-0.00744578,-0.06950225
 ,0.,0.00641615,-0.07057201,0.,-0.08212499,-0.16743640,0.,0.08288491,-0
 .17023898,0.,-0.00019548,0.46778379,0.,0.,0.01811686,0.,0.,0.01811969,
 0.,0.,-0.07006602,0.,0.,-0.07020270,0.,0.,0.10461376,-0.00059868,-0.00
 253715,0.,0.00007292,0.00086830,0.,-0.28002988,0.10081564,0.,-0.003336
 69,-0.00420126,0.,-0.02208457,0.00921343,0.,0.30737260,0.02448737,0.00
 070090,0.,0.00107679,-0.00580168,0.,0.10399504,-0.10396400,0.,-0.00340
 874,-0.00217907,0.,-0.02003591,0.01185336,0.,-0.10592025,0.09795242,0.
 ,0.,-0.00048127,0.,0.,0.00391444,0.,0.,-0.02169897,0.,0.,0.00497862,0.
 ,0.,-0.00712026,0.,0.,0.01974615,-0.16146057,-0.13553807,0.,-0.0047415
 6,-0.02364210,0.,0.00973399,0.00762563,0.,-0.00628234,0.00010458,0.,0.
 00003420,0.00280257,0.,-0.00014609,-0.00100917,0.,0.16232266,-0.135089
 11,-0.23205076,0.,0.00502921,0.00637633,0.,-0.02133078,-0.00683420,0.,
 0.00218295,-0.00133334,0.,-0.00087842,-0.00677885,0.,0.00082785,0.0002
 2345,0.,0.15031101,0.24009238,0.,0.,-0.01987758,0.,0.,-0.00208979,0.,0
 .,-0.00313629,0.,0.,0.00345115,0.,0.,0.00683609,0.,0.,-0.00244822,0.,0
 .,0.01813080,-0.00441910,0.02381132,0.,-0.15690122,0.13435823,0.,-0.00
 631913,-0.00002337,0.,0.00996805,-0.00791294,0.,0.00000290,-0.00291772
 ,0.,-0.00012245,0.00163150,0.,0.00069122,-0.00097825,0.,0.15724326,-0.
 00483766,0.00605166,0.,0.13388803,-0.23661818,0.,-0.00209882,-0.001298
 27,0.,0.02104403,-0.00707079,0.,0.00075885,-0.00673077,0.,0.00008312,0
 .00041073,0.,0.00096717,-0.00013379,0.,-0.14898415,0.24516761,0.,0.,-0
 .00209185,0.,0.,-0.01987934,0.,0.,0.00345203,0.,0.,-0.00313181,0.,0.,0
 .00683446,0.,0.,0.00150574,0.,0.,-0.00237265,0.,0.,0.01813278,0.000039
 66,-0.00096513,0.,-0.00098105,0.00256228,0.,-0.00320662,0.00422176,0.,
 -0.28341126,-0.09778837,0.,-0.02189838,-0.00863309,0.,-0.00112716,-0.0
 0081663,0.,-0.00015151,-0.00007446,0.,-0.00014354,-0.00082057,0.,0.310
 87987,-0.00117485,-0.00576109,0.,-0.02445590,0.00106563,0.,0.00342747,
 -0.00230905,0.,-0.10103594,-0.10046718,0.,0.02068093,0.01162212,0.,0.0
 0085032,0.00080390,0.,-0.00162161,0.00043877,0.,0.00101538,0.00022181,
 0.,0.10231421,0.09438509,0.,0.,0.00391338,0.,0.,-0.00048111,0.,0.,0.00
 497970,0.,0.,-0.02166046,0.,0.,-0.00713189,0.,0.,0.00160377,0.,0.,0.00
 150650,0.,0.,-0.00244937,0.,0.,0.01971947\\0.00000347,-0.00000786,0.,0
 .00000335,-0.00000188,0.,0.00007823,0.00003384,0.,-0.00008158,0.000044
 05,0.,-0.00000613,-0.00008267,0.,0.00001357,-0.00000301,0.,0.00000415,
 0.00000442,0.,0.00000140,0.00000905,0.,-0.00001647,0.00000406,0.\\\@
 The archive entry for this job was punched.


 YOU WILL NEVER "FIND" TIME FOR ANYTHING.
 IF YOU WANT TIME, YOU MUST MAKE IT.

                        -- CHARLES BIXTON
 Job cpu time:       0 days  0 hours  7 minutes 58.8 seconds.
 Elapsed time:       0 days  0 hours  4 minutes 37.7 seconds.
 File lengths (MBytes):  RWF=     73 Int=      0 D2E=      0 Chk=      8 Scr=      1
 Normal termination of Gaussian 16 at Fri Jun  2 11:12:55 2023.
